                         Program Version 3.0.3 - RELEASE   -
|  1> ! NORI PBE0 def2-TZVP UseSym TightOPT Freq TightSCF Grid3 FinalGrid5 XYZFile
|  2> % pal
|  3>     nprocs 8
|  4> end
|  5> %method
|  6>     SymThresh 5.0e-2
|  7> end
|  8> % geom
|  9>     MaxIter 10
| 10> end
| 11> % maxcore 2000
| 12> % output
| 13>     printlevel mini
| 14>     print[ P_Basis ] 0
| 15>     print[ P_SCFInfo ] 1
| 16>     print[ P_SCFIterInfo ] 1
| 17>     print[ P_OrbEn ] 0
| 18>     print[ P_Cartesian ] 0
| 19> end
| 20> % elprop
| 21>     Dipole false
| 22> end
| 23> *xyz 1 1
| 24>  C       -0.1142813990     0.8731374881     0.1135193027
| 25>  C       -0.8026511271    -0.3972133396    -0.1449770162
| 26>  N        0.6729667676    -0.3805924975     0.0118329521
| 27>  H       -0.1344757013     1.2987824568     1.1084490320
| 28>  H        0.0555665956     1.5648260650    -0.7016256787
| 29>  H       -1.1341938653    -0.6311221760    -1.1482458767
| 30>  H       -1.3235742064    -0.8962961550     0.6617221974
| 31>  H        1.2467197470    -0.5234533476    -0.8129771842
| 32>  H        1.0718731890    -0.7693584942     0.8600222717
| 33> *
| 34>
| 35>                          ****END OF INPUT****
 Total Charge           Charge          ....    1
 Multiplicity           Mult            ....    1
 Number of Electrons    NEL             ....   24
FINAL SINGLE POINT ENERGY      -134.172851338842
                    ***********************HURRAY********************
 Multiplicity           Mult            ....    1
 Number of Electrons    NEL             ....   24
 Basis Dimension        Dim             ....  129
FINAL SINGLE POINT ENERGY      -134.172851371988

VIBRATIONAL FREQUENCIES
-----------------------

   0:         0.00 cm**-1
   1:         0.00 cm**-1
   2:         0.00 cm**-1
   3:         0.00 cm**-1
   4:         0.00 cm**-1
   5:         0.00 cm**-1
   6:       770.33 cm**-1
   7:       834.70 cm**-1
   8:       845.50 cm**-1
   9:       912.09 cm**-1
  10:       926.95 cm**-1
  11:      1046.96 cm**-1
  12:      1156.27 cm**-1
  13:      1170.60 cm**-1
  14:      1189.27 cm**-1
  15:      1238.67 cm**-1
  16:      1271.98 cm**-1
  17:      1275.22 cm**-1
  18:      1482.56 cm**-1
  19:      1508.23 cm**-1
  20:      1643.58 cm**-1
  21:      3177.58 cm**-1
  22:      3179.33 cm**-1
  23:      3276.25 cm**-1
  24:      3286.71 cm**-1
  25:      3512.06 cm**-1
  26:      3611.18 cm**-1

IR SPECTRUM
-----------

 Mode    freq (cm**-1)   T**2         TX         TY         TZ
-------------------------------------------------------------------
   6:       770.33    0.108021  ( -0.328666   0.000000  -0.000000)
   7:       834.70    0.000000  (  0.000000   0.000000   0.000000)
   8:       845.50    0.062353  ( -0.000000   0.249707  -0.000000)
   9:       912.09   40.799304  (  0.000000   0.000000  -6.387433)
  10:       926.95    7.481446  (  2.735223  -0.000000  -0.000000)
  11:      1046.96  104.190325  (  0.000000 -10.207366   0.000000)
  12:      1156.27    2.669421  ( -0.000000   0.000000  -1.633836)
  13:      1170.60    0.000000  ( -0.000000   0.000000  -0.000000)
  14:      1189.27    3.352289  (  0.000000  -1.830926  -0.000000)
  15:      1238.67    0.000000  (  0.000000   0.000000  -0.000000)
  16:      1271.98    5.537793  ( -2.353251  -0.000000   0.000000)
  17:      1275.22    6.039510  (  0.000000   0.000000  -2.457541)
  18:      1482.56   16.096341  (  0.000000  -4.012025  -0.000000)
  19:      1508.23    1.866372  ( -0.000000   0.000000   1.366152)
  20:      1643.58   55.158281  ( -0.000000  -0.000000  -7.426862)
  21:      3177.58    7.737773  (  0.000000   2.781685   0.000000)
  22:      3179.33    2.141337  (  0.000000   0.000000   1.463331)
  23:      3276.25    0.000000  ( -0.000000  -0.000000  -0.000000)
  24:      3286.71   19.838235  (  4.454013   0.000000  -0.000000)
  25:      3512.06  121.559325  ( -0.000000   0.000000  11.025395)
  26:      3611.18  149.232734  ( 12.216085   0.000000  -0.000000)

--------------------------
THERMOCHEMISTRY AT 298.15K
--------------------------

Temperature         ... 298.15 K
Pressure            ... 1.00 atm
Total Mass          ... 44.08 AMU

Throughout the following assumptions are being made:
  (1) The electronic state is orbitally nondegenerate
  (2) There are no thermally accessible electronically excited states
  (3) Hindered rotations indicated by low frequency modes) are not
      treated as such but are treated as vibrations and this may
      case some error
  (4) All equations used are the standard statistical mechanics
      equations for an ideal gas
  (5) All vibrations are strinctly harmonic

------------
INNER ENERGY
------------

The inner energy is: U= E(el) + E(ZPE) + E(vib) + E(rot) + E(trans)
    E(el)   - is the total energy from the electronic structure calculation
              = E(kin-el) + E(nuc-el) + E(el-el) + E(nuc-nuc)
    E(ZPE)  - the the zero temperature vibrational energy from the frequency calculation
    E(vib)  - the the finite temperature correction to E(ZPE) due to population
              of excietd vibrational states
    E(rot)  - is the rotational thermal energy
    E(trans)- is the translational thermal energy

Summary of contributions to the inner energy U:
Electronic energy                ...   -134.17285137 Eh
Zero point energy                ...      0.08501215 Eh      53.35 kcal/mol
Thermal vibrational correction   ...      0.00046199 Eh       0.29 kcal/mol
Thermal rotational correction    ...      0.00141627 Eh       0.89 kcal/mol
Thermal translational correction ...      0.00141627 Eh       0.89 kcal/mol
-----------------------------------------------------------------------
Total thermal energy                   -134.08454468 Eh

Summary of corrections to the electronic energy:
(perhaps to be used in another calculation)
Total thermal correction                  0.00329454 Eh       2.07 kcal/mol
Non-thermal (ZPE) correction              0.08501215 Eh      53.35 kcal/mol
-----------------------------------------------------------------------
Total correction                          0.08830669 Eh      55.41 kcal/mol

--------
ENTHALPY
--------

The enthalpy is H = U + kB*T
                kB is Boltzmann's constant
Total free energy                 ...   -134.08454468 Eh
Thermal Enthalpy correction       ...      0.00094421 Eh       0.59 kcal/mol
-----------------------------------------------------------------------
Total Enthalpy                    ...   -134.08360047 Eh

-------
ENTROPY
-------

The entropy contributions are T*S = T*(S(el)+S(vib)+S(rot)+S(trans)
     S(el)   - electronic entropy
     S(vib)  - vibrational entropy
     S(rot)  - rotational entropy
     S(trans)- translational entropy
The entropies will be listed as mutliplied by the temperature to get
units of energy

Electronic entropy                ...      0.00000000 Eh      0.00 kcal/mol
Vibrational entropy               ...      0.00056494 Eh      0.35 kcal/mol
Rotational entropy                ...      0.00924093 Eh      5.80 kcal/mol
Translational entropy             ...      0.01771099 Eh     11.11 kcal/mol
-----------------------------------------------------------------------
Final entropy term                ...      0.02751686 Eh     17.27 kcal/mol

CAUTION: The rotational entropy is not quite correctly treated here
         because it includes a symmetry number that is not yet correctly
         implemented in ORCA!
For a nonlinear molecule the correct rotational entropy is:
    S(rot) = R*(ln(qrot/sn)+1.5)
    R    = 8.31441 J/mol/K = 1.987191683e-3 kcal/mol/K
    qrot = 11918.6674016
    sn is the rotational symmetry number. We have assumed 3 here
       if it is different for your molecule then you should correct
       the printed rotational entropy by manually evaluating the equation
       as given above

For convenience we print out the resulting values for sn=1 - 12:
 sn= 1  qrot/sn=   11918.6674 T*S(rot)=     6.45 kcal/mol T*S(tot)=    17.92 kcal/mol
 sn= 2  qrot/sn=    5959.3337 T*S(rot)=     6.04 kcal/mol T*S(tot)=    17.51 kcal/mol
 sn= 3  qrot/sn=    3972.8891 T*S(rot)=     5.80 kcal/mol T*S(tot)=    17.27 kcal/mol
 sn= 4  qrot/sn=    2979.6669 T*S(rot)=     5.63 kcal/mol T*S(tot)=    17.10 kcal/mol
 sn= 5  qrot/sn=    2383.7335 T*S(rot)=     5.50 kcal/mol T*S(tot)=    16.96 kcal/mol
 sn= 6  qrot/sn=    1986.4446 T*S(rot)=     5.39 kcal/mol T*S(tot)=    16.86 kcal/mol
 sn= 7  qrot/sn=    1702.6668 T*S(rot)=     5.30 kcal/mol T*S(tot)=    16.77 kcal/mol
 sn= 8  qrot/sn=    1489.8334 T*S(rot)=     5.22 kcal/mol T*S(tot)=    16.69 kcal/mol
 sn= 9  qrot/sn=    1324.2964 T*S(rot)=     5.15 kcal/mol T*S(tot)=    16.62 kcal/mol
 sn=10  qrot/sn=    1191.8667 T*S(rot)=     5.09 kcal/mol T*S(tot)=    16.55 kcal/mol
 sn=11  qrot/sn=    1083.5152 T*S(rot)=     5.03 kcal/mol T*S(tot)=    16.50 kcal/mol
 sn=12  qrot/sn=     993.2223 T*S(rot)=     4.98 kcal/mol T*S(tot)=    16.45 kcal/mol

-------------------
GIBBS FREE ENTHALPY
-------------------

The Gibbs free enthalpy is G = H - T*S

Total enthalpy                    ...   -134.08360047 Eh
Total entropy correction          ...     -0.02751686 Eh    -17.27 kcal/mol
-----------------------------------------------------------------------
Final Gibbs free enthalpy         ...   -134.11111734 Eh

For completeness - the Gibbs free enthalpy minus the electronic energy
G-E(el)                           ...      0.06173404 Eh     38.74 kcal/mol

                             ****ORCA TERMINATED NORMALLY****
TOTAL RUN TIME: 0 days 0 hours 2 minutes 7 seconds 450 msec
