                         Program Version 3.0.3 - RELEASE   -
|  1> ! NORI PBE0 def2-TZVP UseSym TightOPT Freq TightSCF Grid3 FinalGrid5 XYZFile
|  2> % pal
|  3>     nprocs 8
|  4> end
|  5> %method
|  6>     SymThresh 5.0e-2
|  7> end
|  8> % geom
|  9>     MaxIter 10
| 10> end
| 11> % maxcore 2000
| 12> % output
| 13>     printlevel mini
| 14>     print[ P_Basis ] 0
| 15>     print[ P_SCFInfo ] 1
| 16>     print[ P_SCFIterInfo ] 1
| 17>     print[ P_OrbEn ] 0
| 18>     print[ P_Cartesian ] 0
| 19> end
| 20> % elprop
| 21>     Dipole false
| 22> end
| 23> *xyz 1 1
| 24>  C        0.9501614943     0.0672682026     0.0691897331
| 25>  C        2.4560712517     0.0684159829     0.0954907118
| 26>  N        2.9971110790    -1.2504275208    -0.4043647784
| 27>  H        0.5919082665     1.0309358743     0.4331393359
| 28>  H        0.5300565725    -0.7036870226     0.7192618106
| 29>  H        0.5593172521    -0.0646125120    -0.9426145920
| 30>  H        2.8840205188     0.8355159959    -0.5502402170
| 31>  H        2.8563348578     0.1981344313     1.1013989007
| 32>  H        2.6870655180    -1.4330708259    -1.3616252042
| 33>  H        2.6647024456    -2.0245181778     0.1753307486
| 34>  H        4.0192507436    -1.2700944279    -0.3970164491
| 35> *
| 36>
| 37>                          ****END OF INPUT****
 Total Charge           Charge          ....    1
 Multiplicity           Mult            ....    1
 Number of Electrons    NEL             ....   26
FINAL SINGLE POINT ENERGY      -135.421316881339

CARTESIAN COORDINATES (ANGSTROEM)
---------------------------------
  C     -1.207343   -0.533971    0.000000
  C     -0.183631    0.571067    0.000000
  N      1.214723    0.000098   -0.000000
  H     -2.203329   -0.089550   -0.000000
  H     -1.130707   -1.162506    0.890366
  H     -1.130707   -1.162506   -0.890366
  H     -0.252319    1.203744   -0.885408
  H     -0.252319    1.203744    0.885408
  H      1.369711   -0.586000   -0.823530
  H      1.369711   -0.586000    0.823530
  H      1.925901    0.734344   -0.000000

FINAL SINGLE POINT ENERGY      -135.421317021308
                    ***********************HURRAY********************
 Multiplicity           Mult            ....    1
 Number of Electrons    NEL             ....   26
 Basis Dimension        Dim             ....  141
FINAL SINGLE POINT ENERGY      -135.421317052368

VIBRATIONAL FREQUENCIES
-----------------------

   0:         0.00 cm**-1
   1:         0.00 cm**-1
   2:         0.00 cm**-1
   3:         0.00 cm**-1
   4:         0.00 cm**-1
   5:         0.00 cm**-1
   6:       218.21 cm**-1
   7:       265.39 cm**-1
   8:       375.79 cm**-1
   9:       791.05 cm**-1
  10:       851.79 cm**-1
  11:       939.51 cm**-1
  12:       945.96 cm**-1
  13:      1033.84 cm**-1
  14:      1197.50 cm**-1
  15:      1232.57 cm**-1
  16:      1357.43 cm**-1
  17:      1403.86 cm**-1
  18:      1427.85 cm**-1
  19:      1482.33 cm**-1
  20:      1484.53 cm**-1
  21:      1503.99 cm**-1
  22:      1512.23 cm**-1
  23:      1659.51 cm**-1
  24:      1665.04 cm**-1
  25:      3060.24 cm**-1
  26:      3104.53 cm**-1
  27:      3132.59 cm**-1
  28:      3154.47 cm**-1
  29:      3166.29 cm**-1
  30:      3420.38 cm**-1
  31:      3501.08 cm**-1
  32:      3507.48 cm**-1

IR SPECTRUM
-----------

 Mode    freq (cm**-1)   T**2         TX         TY         TZ
-------------------------------------------------------------------
   6:       218.21    0.346388  ( -0.000000   0.000000  -0.588547)
   7:       265.39    0.888592  (  0.000000  -0.000000  -0.942652)
   8:       375.79    9.411042  (  2.462685   1.829269  -0.000000)
   9:       791.05   10.929620  ( -0.000000   0.000000   3.305998)
  10:       851.79    3.263433  ( -1.527483  -0.964484   0.000000)
  11:       939.51    4.953126  ( -0.000000   0.000000   2.225562)
  12:       945.96   14.441660  ( -2.917147  -2.435552   0.000000)
  13:      1033.84   14.531810  ( -3.660959   1.062632   0.000000)
  14:      1197.50   15.188840  (  0.116529   3.895544  -0.000000)
  15:      1232.57    4.616261  (  0.000000  -0.000000  -2.148548)
  16:      1357.43    8.463083  (  0.000000  -0.000000   2.909138)
  17:      1403.86    1.308550  ( -1.140333   0.090498   0.000000)
  18:      1427.85   29.459241  ( -5.118900  -1.804468  -0.000000)
  19:      1482.33    2.523603  (  1.581228  -0.152709   0.000000)
  20:      1484.53   12.715770  (  0.000000   0.000000  -3.565918)
  21:      1503.99   14.470421  ( -0.240293  -3.796404  -0.000000)
  22:      1512.23  132.389104  (-10.633836   4.394386   0.000000)
  23:      1659.51   54.922248  (  0.000000  -0.000000   7.410955)
  24:      1665.04   37.654901  ( -2.571482  -5.571569  -0.000000)
  25:      3060.24    3.329425  ( -1.210935   1.364940   0.000000)
  26:      3104.53    1.617861  ( -0.466324  -1.183386   0.000000)
  27:      3132.59    2.729237  (  0.000000  -0.000000  -1.652040)
  28:      3154.47    1.060778  ( -0.835815  -0.601823  -0.000000)
  29:      3166.29    0.603379  (  0.000000  -0.000000  -0.776775)
  30:      3420.38   41.853246  ( -6.173388   1.934562  -0.000000)
  31:      3501.08   98.413432  ( -0.000000   0.000000  -9.920354)
  32:      3507.48  105.729997  ( -4.293027  -9.343442  -0.000000)

--------------------------
THERMOCHEMISTRY AT 298.15K
--------------------------

Temperature         ... 298.15 K
Pressure            ... 1.00 atm
Total Mass          ... 46.09 AMU

Throughout the following assumptions are being made:
  (1) The electronic state is orbitally nondegenerate
  (2) There are no thermally accessible electronically excited states
  (3) Hindered rotations indicated by low frequency modes) are not
      treated as such but are treated as vibrations and this may
      case some error
  (4) All equations used are the standard statistical mechanics
      equations for an ideal gas
  (5) All vibrations are strinctly harmonic

------------
INNER ENERGY
------------

The inner energy is: U= E(el) + E(ZPE) + E(vib) + E(rot) + E(trans)
    E(el)   - is the total energy from the electronic structure calculation
              = E(kin-el) + E(nuc-el) + E(el-el) + E(nuc-nuc)
    E(ZPE)  - the the zero temperature vibrational energy from the frequency calculation
    E(vib)  - the the finite temperature correction to E(ZPE) due to population
              of excietd vibrational states
    E(rot)  - is the rotational thermal energy
    E(trans)- is the translational thermal energy

Summary of contributions to the inner energy U:
Electronic energy                ...   -135.42131705 Eh
Zero point energy                ...      0.10797473 Eh      67.76 kcal/mol
Thermal vibrational correction   ...      0.00168107 Eh       1.05 kcal/mol
Thermal rotational correction    ...      0.00141627 Eh       0.89 kcal/mol
Thermal translational correction ...      0.00141627 Eh       0.89 kcal/mol
-----------------------------------------------------------------------
Total thermal energy                   -135.30882871 Eh

Summary of corrections to the electronic energy:
(perhaps to be used in another calculation)
Total thermal correction                  0.00451362 Eh       2.83 kcal/mol
Non-thermal (ZPE) correction              0.10797473 Eh      67.76 kcal/mol
-----------------------------------------------------------------------
Total correction                          0.11248834 Eh      70.59 kcal/mol

--------
ENTHALPY
--------

The enthalpy is H = U + kB*T
                kB is Boltzmann's constant
Total free energy                 ...   -135.30882871 Eh
Thermal Enthalpy correction       ...      0.00094421 Eh       0.59 kcal/mol
-----------------------------------------------------------------------
Total Enthalpy                    ...   -135.30788450 Eh

-------
ENTROPY
-------

The entropy contributions are T*S = T*(S(el)+S(vib)+S(rot)+S(trans)
     S(el)   - electronic entropy
     S(vib)  - vibrational entropy
     S(rot)  - rotational entropy
     S(trans)- translational entropy
The entropies will be listed as mutliplied by the temperature to get
units of energy

Electronic entropy                ...      0.00000000 Eh      0.00 kcal/mol
Vibrational entropy               ...      0.00263696 Eh      1.65 kcal/mol
Rotational entropy                ...      0.00973526 Eh      6.11 kcal/mol
Translational entropy             ...      0.01777433 Eh     11.15 kcal/mol
-----------------------------------------------------------------------
Final entropy term                ...      0.03014655 Eh     18.92 kcal/mol

CAUTION: The rotational entropy is not quite correctly treated here
         because it includes a symmetry number that is not yet correctly
         implemented in ORCA!
For a nonlinear molecule the correct rotational entropy is:
    S(rot) = R*(ln(qrot/sn)+1.5)
    R    = 8.31441 J/mol/K = 1.987191683e-3 kcal/mol/K
    qrot = 20118.8645199
    sn is the rotational symmetry number. We have assumed 3 here
       if it is different for your molecule then you should correct
       the printed rotational entropy by manually evaluating the equation
       as given above

For convenience we print out the resulting values for sn=1 - 12:
 sn= 1  qrot/sn=   20118.8645 T*S(rot)=     6.76 kcal/mol T*S(tot)=    19.57 kcal/mol
 sn= 2  qrot/sn=   10059.4323 T*S(rot)=     6.35 kcal/mol T*S(tot)=    19.16 kcal/mol
 sn= 3  qrot/sn=    6706.2882 T*S(rot)=     6.11 kcal/mol T*S(tot)=    18.92 kcal/mol
 sn= 4  qrot/sn=    5029.7161 T*S(rot)=     5.94 kcal/mol T*S(tot)=    18.75 kcal/mol
 sn= 5  qrot/sn=    4023.7729 T*S(rot)=     5.81 kcal/mol T*S(tot)=    18.61 kcal/mol
 sn= 6  qrot/sn=    3353.1441 T*S(rot)=     5.70 kcal/mol T*S(tot)=    18.51 kcal/mol
 sn= 7  qrot/sn=    2874.1235 T*S(rot)=     5.61 kcal/mol T*S(tot)=    18.42 kcal/mol
 sn= 8  qrot/sn=    2514.8581 T*S(rot)=     5.53 kcal/mol T*S(tot)=    18.34 kcal/mol
 sn= 9  qrot/sn=    2235.4294 T*S(rot)=     5.46 kcal/mol T*S(tot)=    18.27 kcal/mol
 sn=10  qrot/sn=    2011.8865 T*S(rot)=     5.40 kcal/mol T*S(tot)=    18.20 kcal/mol
 sn=11  qrot/sn=    1828.9877 T*S(rot)=     5.34 kcal/mol T*S(tot)=    18.15 kcal/mol
 sn=12  qrot/sn=    1676.5720 T*S(rot)=     5.29 kcal/mol T*S(tot)=    18.10 kcal/mol

-------------------
GIBBS FREE ENTHALPY
-------------------

The Gibbs free enthalpy is G = H - T*S

Total enthalpy                    ...   -135.30788450 Eh
Total entropy correction          ...     -0.03014655 Eh    -18.92 kcal/mol
-----------------------------------------------------------------------
Final Gibbs free enthalpy         ...   -135.33803105 Eh

For completeness - the Gibbs free enthalpy minus the electronic energy
G-E(el)                           ...      0.08328601 Eh     52.26 kcal/mol

                             ****ORCA TERMINATED NORMALLY****
TOTAL RUN TIME: 0 days 0 hours 2 minutes 40 seconds 281 msec
