                         Program Version 3.0.3 - RELEASE   -
|  1> ! NORI PBE0 def2-TZVP UseSym TightOPT Freq TightSCF Grid3 FinalGrid5 XYZFile
|  2> % pal
|  3>     nprocs 8
|  4> end
|  5> %method
|  6>     SymThresh 5.0e-2
|  7> end
|  8> % geom
|  9>     MaxIter 10
| 10> end
| 11> % maxcore 2000
| 12> % output
| 13>     printlevel mini
| 14>     print[ P_Basis ] 0
| 15>     print[ P_SCFInfo ] 1
| 16>     print[ P_SCFIterInfo ] 1
| 17>     print[ P_OrbEn ] 0
| 18>     print[ P_Cartesian ] 0
| 19> end
| 20> % elprop
| 21>     Dipole false
| 22> end
| 23> *xyz 1 1
| 24>  C        0.8763995242     0.0442747689    -0.0427683905
| 25>  N        2.3644413730    -0.0299340071    -0.0820291690
| 26>  C        2.9176162021    -1.3444648482     0.3526302411
| 27>  H        0.5602903694     1.0338477751    -0.3678308142
| 28>  H        0.5480170601    -0.1395173685     0.9784132868
| 29>  H        0.4737493861    -0.7172514599    -0.7075360322
| 30>  H        2.7527726447     0.7085927022     0.5078779080
| 31>  H        2.6864569204     0.1727792735    -1.0304011780
| 32>  H        2.6016649517    -1.5306203825     1.3771565764
| 33>  H        4.0042903904    -1.3102905051     0.2928687236
| 34>  H        2.5279211778    -2.1185459484    -0.3052411522
| 35> *
| 36>
| 37>                          ****END OF INPUT****
 Total Charge           Charge          ....    1
 Multiplicity           Mult            ....    1
 Number of Electrons    NEL             ....   26
FINAL SINGLE POINT ENERGY      -135.414253892204

CARTESIAN COORDINATES (ANGSTROEM)
---------------------------------
  C      0.000000    1.250377    0.283908
  N      0.000000    0.000000   -0.527864
  C     -0.000000   -1.250377    0.283908
  H     -0.000000    2.108988   -0.385107
  H      0.891933    1.258170    0.907279
  H     -0.891933    1.258170    0.907279
  H      0.815208   -0.000000   -1.144114
  H     -0.815208    0.000000   -1.144114
  H      0.891933   -1.258170    0.907279
  H     -0.000000   -2.108988   -0.385107
  H     -0.891933   -1.258170    0.907279

FINAL SINGLE POINT ENERGY      -135.414253972338
                    ***********************HURRAY********************
 Multiplicity           Mult            ....    1
 Number of Electrons    NEL             ....   26
 Basis Dimension        Dim             ....  141
FINAL SINGLE POINT ENERGY      -135.414253969536

VIBRATIONAL FREQUENCIES
-----------------------

   0:         0.00 cm**-1
   1:         0.00 cm**-1
   2:         0.00 cm**-1
   3:         0.00 cm**-1
   4:         0.00 cm**-1
   5:         0.00 cm**-1
   6:       198.66 cm**-1
   7:       267.54 cm**-1
   8:       382.20 cm**-1
   9:       816.81 cm**-1
  10:       886.70 cm**-1
  11:      1021.31 cm**-1
  12:      1025.86 cm**-1
  13:      1082.77 cm**-1
  14:      1248.99 cm**-1
  15:      1277.25 cm**-1
  16:      1390.95 cm**-1
  17:      1425.42 cm**-1
  18:      1446.26 cm**-1
  19:      1473.44 cm**-1
  20:      1485.42 cm**-1
  21:      1489.25 cm**-1
  22:      1500.22 cm**-1
  23:      1500.56 cm**-1
  24:      1660.65 cm**-1
  25:      3092.24 cm**-1
  26:      3092.90 cm**-1
  27:      3195.20 cm**-1
  28:      3195.64 cm**-1
  29:      3196.60 cm**-1
  30:      3196.85 cm**-1
  31:      3446.38 cm**-1
  32:      3492.58 cm**-1

IR SPECTRUM
-----------

 Mode    freq (cm**-1)   T**2         TX         TY         TZ
-------------------------------------------------------------------
   6:       198.66    0.000000  ( -0.000000   0.000000   0.000000)
   7:       267.54    1.625478  (  1.274942   0.000000  -0.000000)
   8:       382.20    0.215862  (  0.000000  -0.000000   0.464609)
   9:       816.81   17.979433  ( -4.240216   0.000000  -0.000000)
  10:       886.70    3.526772  (  0.000000  -0.000000  -1.877970)
  11:      1021.31   28.082449  (  0.000000  -5.299288   0.000000)
  12:      1025.86    0.000000  (  0.000000  -0.000000   0.000000)
  13:      1082.77    0.482670  ( -0.000000  -0.694744   0.000000)
  14:      1248.99    0.373621  ( -0.000000   0.000000  -0.611246)
  15:      1277.25    0.143155  (  0.378359  -0.000000   0.000000)
  16:      1390.95    0.000000  (  0.000000  -0.000000  -0.000000)
  17:      1425.42   22.518813  ( -0.000000   4.745399   0.000000)
  18:      1446.26    4.654448  ( -0.000000   2.157417  -0.000000)
  19:      1473.44    3.044144  (  0.000000   0.000000  -1.744747)
  20:      1485.42    0.000000  ( -0.000000   0.000000   0.000000)
  21:      1489.25   34.140820  (  0.000000   5.843015   0.000000)
  22:      1500.22   21.108473  (  0.000000  -0.000000   4.594396)
  23:      1500.56   45.273164  ( -6.728534  -0.000000   0.000000)
  24:      1660.65   54.597507  (  0.000000  -0.000000   7.389013)
  25:      3092.24    0.047042  ( -0.000000   0.216891  -0.000000)
  26:      3092.90    0.018362  (  0.000000  -0.000000  -0.135505)
  27:      3195.20    0.110772  ( -0.000000   0.332825  -0.000000)
  28:      3195.64    0.774773  ( -0.000000   0.000000   0.880212)
  29:      3196.60    0.000000  ( -0.000000   0.000000   0.000000)
  30:      3196.85    0.377664  ( -0.614544   0.000000  -0.000000)
  31:      3446.38   58.865896  ( -0.000000   0.000000  -7.672411)
  32:      3492.58   92.365372  (  9.610690   0.000000   0.000000)

--------------------------
THERMOCHEMISTRY AT 298.15K
--------------------------

Temperature         ... 298.15 K
Pressure            ... 1.00 atm
Total Mass          ... 46.09 AMU

Throughout the following assumptions are being made:
  (1) The electronic state is orbitally nondegenerate
  (2) There are no thermally accessible electronically excited states
  (3) Hindered rotations indicated by low frequency modes) are not
      treated as such but are treated as vibrations and this may
      case some error
  (4) All equations used are the standard statistical mechanics
      equations for an ideal gas
  (5) All vibrations are strinctly harmonic

------------
INNER ENERGY
------------

The inner energy is: U= E(el) + E(ZPE) + E(vib) + E(rot) + E(trans)
    E(el)   - is the total energy from the electronic structure calculation
              = E(kin-el) + E(nuc-el) + E(el-el) + E(nuc-nuc)
    E(ZPE)  - the the zero temperature vibrational energy from the frequency calculation
    E(vib)  - the the finite temperature correction to E(ZPE) due to population
              of excietd vibrational states
    E(rot)  - is the rotational thermal energy
    E(trans)- is the translational thermal energy

Summary of contributions to the inner energy U:
Electronic energy                ...   -135.41425397 Eh
Zero point energy                ...      0.10818712 Eh      67.89 kcal/mol
Thermal vibrational correction   ...      0.00165151 Eh       1.04 kcal/mol
Thermal rotational correction    ...      0.00141627 Eh       0.89 kcal/mol
Thermal translational correction ...      0.00141627 Eh       0.89 kcal/mol
-----------------------------------------------------------------------
Total thermal energy                   -135.30158279 Eh

Summary of corrections to the electronic energy:
(perhaps to be used in another calculation)
Total thermal correction                  0.00448406 Eh       2.81 kcal/mol
Non-thermal (ZPE) correction              0.10818712 Eh      67.89 kcal/mol
-----------------------------------------------------------------------
Total correction                          0.11267118 Eh      70.70 kcal/mol

--------
ENTHALPY
--------

The enthalpy is H = U + kB*T
                kB is Boltzmann's constant
Total free energy                 ...   -135.30158279 Eh
Thermal Enthalpy correction       ...      0.00094421 Eh       0.59 kcal/mol
-----------------------------------------------------------------------
Total Enthalpy                    ...   -135.30063858 Eh

-------
ENTROPY
-------

The entropy contributions are T*S = T*(S(el)+S(vib)+S(rot)+S(trans)
     S(el)   - electronic entropy
     S(vib)  - vibrational entropy
     S(rot)  - rotational entropy
     S(trans)- translational entropy
The entropies will be listed as mutliplied by the temperature to get
units of energy

Electronic entropy                ...      0.00000000 Eh      0.00 kcal/mol
Vibrational entropy               ...      0.00263567 Eh      1.65 kcal/mol
Rotational entropy                ...      0.00968355 Eh      6.08 kcal/mol
Translational entropy             ...      0.01777433 Eh     11.15 kcal/mol
-----------------------------------------------------------------------
Final entropy term                ...      0.03009355 Eh     18.88 kcal/mol

CAUTION: The rotational entropy is not quite correctly treated here
         because it includes a symmetry number that is not yet correctly
         implemented in ORCA!
For a nonlinear molecule the correct rotational entropy is:
    S(rot) = R*(ln(qrot/sn)+1.5)
    R    = 8.31441 J/mol/K = 1.987191683e-3 kcal/mol/K
    qrot = 19046.6673993
    sn is the rotational symmetry number. We have assumed 3 here
       if it is different for your molecule then you should correct
       the printed rotational entropy by manually evaluating the equation
       as given above

For convenience we print out the resulting values for sn=1 - 12:
 sn= 1  qrot/sn=   19046.6674 T*S(rot)=     6.73 kcal/mol T*S(tot)=    19.53 kcal/mol
 sn= 2  qrot/sn=    9523.3337 T*S(rot)=     6.32 kcal/mol T*S(tot)=    19.12 kcal/mol
 sn= 3  qrot/sn=    6348.8891 T*S(rot)=     6.08 kcal/mol T*S(tot)=    18.88 kcal/mol
 sn= 4  qrot/sn=    4761.6668 T*S(rot)=     5.91 kcal/mol T*S(tot)=    18.71 kcal/mol
 sn= 5  qrot/sn=    3809.3335 T*S(rot)=     5.77 kcal/mol T*S(tot)=    18.58 kcal/mol
 sn= 6  qrot/sn=    3174.4446 T*S(rot)=     5.67 kcal/mol T*S(tot)=    18.47 kcal/mol
 sn= 7  qrot/sn=    2720.9525 T*S(rot)=     5.57 kcal/mol T*S(tot)=    18.38 kcal/mol
 sn= 8  qrot/sn=    2380.8334 T*S(rot)=     5.50 kcal/mol T*S(tot)=    18.30 kcal/mol
 sn= 9  qrot/sn=    2116.2964 T*S(rot)=     5.43 kcal/mol T*S(tot)=    18.23 kcal/mol
 sn=10  qrot/sn=    1904.6667 T*S(rot)=     5.36 kcal/mol T*S(tot)=    18.17 kcal/mol
 sn=11  qrot/sn=    1731.5152 T*S(rot)=     5.31 kcal/mol T*S(tot)=    18.11 kcal/mol
 sn=12  qrot/sn=    1587.2223 T*S(rot)=     5.26 kcal/mol T*S(tot)=    18.06 kcal/mol

-------------------
GIBBS FREE ENTHALPY
-------------------

The Gibbs free enthalpy is G = H - T*S

Total enthalpy                    ...   -135.30063858 Eh
Total entropy correction          ...     -0.03009355 Eh    -18.88 kcal/mol
-----------------------------------------------------------------------
Final Gibbs free enthalpy         ...   -135.33073214 Eh

For completeness - the Gibbs free enthalpy minus the electronic energy
G-E(el)                           ...      0.08352183 Eh     52.41 kcal/mol

                             ****ORCA TERMINATED NORMALLY****
TOTAL RUN TIME: 0 days 0 hours 2 minutes 42 seconds 47 msec
