                         Program Version 3.0.3 - RELEASE   -
|  1> ! NORI PBE0 def2-TZVP UseSym TightOPT Freq TightSCF Grid3 FinalGrid5 XYZFile
|  2> % pal
|  3>     nprocs 8
|  4> end
|  5> %method
|  6>     SymThresh 5.0e-2
|  7> end
|  8> % geom
|  9>     MaxIter 10
| 10> end
| 11> % maxcore 2000
| 12> % output
| 13>     printlevel mini
| 14>     print[ P_Basis ] 0
| 15>     print[ P_SCFInfo ] 1
| 16>     print[ P_SCFIterInfo ] 1
| 17>     print[ P_OrbEn ] 0
| 18>     print[ P_Cartesian ] 0
| 19> end
| 20> % elprop
| 21>     Dipole false
| 22> end
| 23> *xyz 1 1
| 24>  C        0.3515385690     1.0666430944    -0.0656875161
| 25>  C        1.0136235507    -0.2963376915     0.1662042305
| 26>  N       -0.3250193997    -0.9770686839    -0.0729118910
| 27>  C       -1.0071972053     0.3727997281     0.0856311414
| 28>  H        0.5789901282     1.8423709089     0.6602280325
| 29>  H        0.5204000820     1.4531026797    -1.0698822657
| 30>  H        1.3168448410    -0.4786197462     1.1953271988
| 31>  H        1.7849107530    -0.6369107954    -0.5201249912
| 32>  H       -0.4101315520    -1.3488637442    -1.0182738589
| 33>  H       -0.5941051324    -1.7110026736     0.5809688412
| 34>  H       -1.7788662091     0.5426691335    -0.6613171696
| 35>  H       -1.4312784255     0.4319577901     1.0863282480
| 36> *
| 37>
| 38>                          ****END OF INPUT****
 Total Charge           Charge          ....    1
 Multiplicity           Mult            ....    1
 Number of Electrons    NEL             ....   32
FINAL SINGLE POINT ENERGY      -173.466835559750

CARTESIAN COORDINATES (ANGSTROEM)
---------------------------------
  C     -1.108710    0.197163    0.000000
  C     -0.045856   -0.096745    1.065288
  N      1.035379   -0.000016    0.000000
  C     -0.045856   -0.096745   -1.065288
  H     -1.981713   -0.449672    0.000000
  H     -1.431817    1.237353   -0.000000
  H     -0.065295   -1.115047    1.449065
  H      0.103198    0.609778    1.878229
  H      1.503412    0.905524    0.000000
  H      1.750817   -0.725870   -0.000000
  H      0.103198    0.609778   -1.878229
  H     -0.065295   -1.115047   -1.449065

FINAL SINGLE POINT ENERGY      -173.466835946549
                    ***********************HURRAY********************
 Multiplicity           Mult            ....    1
 Number of Electrons    NEL             ....   32
 Basis Dimension        Dim             ....  172
FINAL SINGLE POINT ENERGY      -173.466836285090

VIBRATIONAL FREQUENCIES
-----------------------

   0:         0.00 cm**-1
   1:         0.00 cm**-1
   2:         0.00 cm**-1
   3:         0.00 cm**-1
   4:         0.00 cm**-1
   5:         0.00 cm**-1
   6:       148.01 cm**-1
   7:       685.42 cm**-1
   8:       775.98 cm**-1
   9:       790.38 cm**-1
  10:       883.12 cm**-1
  11:       900.50 cm**-1
  12:       928.79 cm**-1
  13:       981.50 cm**-1
  14:      1032.22 cm**-1
  15:      1032.47 cm**-1
  16:      1188.97 cm**-1
  17:      1215.99 cm**-1
  18:      1274.18 cm**-1
  19:      1291.66 cm**-1
  20:      1294.48 cm**-1
  21:      1322.43 cm**-1
  22:      1330.33 cm**-1
  23:      1358.93 cm**-1
  24:      1486.13 cm**-1
  25:      1491.16 cm**-1
  26:      1510.95 cm**-1
  27:      1649.88 cm**-1
  28:      3122.59 cm**-1
  29:      3125.34 cm**-1
  30:      3128.43 cm**-1
  31:      3184.36 cm**-1
  32:      3197.04 cm**-1
  33:      3201.85 cm**-1
  34:      3469.16 cm**-1
  35:      3536.25 cm**-1

IR SPECTRUM
-----------

 Mode    freq (cm**-1)   T**2         TX         TY         TZ
-------------------------------------------------------------------
   6:       148.01    1.798272  (  0.711562  -1.136641   0.000000)
   7:       685.42    7.702411  ( -0.292994   2.759813  -0.000000)
   8:       775.98    1.660189  (  0.000000   0.000000  -1.288483)
   9:       790.38    0.683859  (  0.329232   0.758594   0.000000)
  10:       883.12    7.832339  ( -1.588116   2.304393  -0.000000)
  11:       900.50    2.114890  ( -0.000000  -0.000000   1.454266)
  12:       928.79   12.115581  (  3.463445   0.346598  -0.000000)
  13:       981.50    4.400104  ( -0.000000  -0.000000   2.097642)
  14:      1032.22    0.210025  (  0.432597   0.151279  -0.000000)
  15:      1032.47    0.171457  ( -0.000000  -0.000000   0.414074)
  16:      1188.97    0.515253  ( -0.042382   0.716559  -0.000000)
  17:      1215.99    2.397433  ( -0.000000  -0.000000   1.548365)
  18:      1274.18   39.577721  (  0.000000   0.000000  -6.291083)
  19:      1291.66    4.495793  ( -0.040006   2.119951  -0.000000)
  20:      1294.48    1.106096  ( -0.000000  -0.000000   1.051711)
  21:      1322.43   18.288966  ( -0.000000  -0.000000  -4.276560)
  22:      1330.33   29.247283  (  0.000000   0.000000   5.408076)
  23:      1358.93    0.492335  ( -0.700128  -0.046436   0.000000)
  24:      1486.13   13.589990  (  0.000000   0.000000  -3.686460)
  25:      1491.16   13.673190  ( -3.145764   1.943543   0.000000)
  26:      1510.95    2.694003  ( -1.428273  -0.808727  -0.000000)
  27:      1649.88   54.831656  ( -7.280781  -1.349771  -0.000000)
  28:      3122.59    0.291827  (  0.104396  -0.530027  -0.000000)
  29:      3125.34    0.759549  ( -0.000000  -0.000000   0.871521)
  30:      3128.43    0.570878  (  0.534094  -0.534436   0.000000)
  31:      3184.36    0.014712  (  0.084338  -0.087175   0.000000)
  32:      3197.04    0.179793  ( -0.000000  -0.000000  -0.424020)
  33:      3201.85    0.581747  (  0.242245   0.723232   0.000000)
  34:      3469.16   67.865758  (  8.187619   0.910302  -0.000000)
  35:      3536.25   92.770993  (  1.053343  -9.573999  -0.000000)

--------------------------
THERMOCHEMISTRY AT 298.15K
--------------------------

Temperature         ... 298.15 K
Pressure            ... 1.00 atm
Total Mass          ... 58.10 AMU

Throughout the following assumptions are being made:
  (1) The electronic state is orbitally nondegenerate
  (2) There are no thermally accessible electronically excited states
  (3) Hindered rotations indicated by low frequency modes) are not
      treated as such but are treated as vibrations and this may
      case some error
  (4) All equations used are the standard statistical mechanics
      equations for an ideal gas
  (5) All vibrations are strinctly harmonic

------------
INNER ENERGY
------------

The inner energy is: U= E(el) + E(ZPE) + E(vib) + E(rot) + E(trans)
    E(el)   - is the total energy from the electronic structure calculation
              = E(kin-el) + E(nuc-el) + E(el-el) + E(nuc-nuc)
    E(ZPE)  - the the zero temperature vibrational energy from the frequency calculation
    E(vib)  - the the finite temperature correction to E(ZPE) due to population
              of excietd vibrational states
    E(rot)  - is the rotational thermal energy
    E(trans)- is the translational thermal energy

Summary of contributions to the inner energy U:
Electronic energy                ...   -173.46683629 Eh
Zero point energy                ...      0.11513516 Eh      72.25 kcal/mol
Thermal vibrational correction   ...      0.00131204 Eh       0.82 kcal/mol
Thermal rotational correction    ...      0.00141627 Eh       0.89 kcal/mol
Thermal translational correction ...      0.00141627 Eh       0.89 kcal/mol
-----------------------------------------------------------------------
Total thermal energy                   -173.34755654 Eh

Summary of corrections to the electronic energy:
(perhaps to be used in another calculation)
Total thermal correction                  0.00414458 Eh       2.60 kcal/mol
Non-thermal (ZPE) correction              0.11513516 Eh      72.25 kcal/mol
-----------------------------------------------------------------------
Total correction                          0.11927975 Eh      74.85 kcal/mol

--------
ENTHALPY
--------

The enthalpy is H = U + kB*T
                kB is Boltzmann's constant
Total free energy                 ...   -173.34755654 Eh
Thermal Enthalpy correction       ...      0.00094421 Eh       0.59 kcal/mol
-----------------------------------------------------------------------
Total Enthalpy                    ...   -173.34661233 Eh

-------
ENTROPY
-------

The entropy contributions are T*S = T*(S(el)+S(vib)+S(rot)+S(trans)
     S(el)   - electronic entropy
     S(vib)  - vibrational entropy
     S(rot)  - rotational entropy
     S(trans)- translational entropy
The entropies will be listed as mutliplied by the temperature to get
units of energy

Electronic entropy                ...      0.00000000 Eh      0.00 kcal/mol
Vibrational entropy               ...      0.00210196 Eh      1.32 kcal/mol
Rotational entropy                ...      0.01017440 Eh      6.38 kcal/mol
Translational entropy             ...      0.01810230 Eh     11.36 kcal/mol
-----------------------------------------------------------------------
Final entropy term                ...      0.03037866 Eh     19.06 kcal/mol

CAUTION: The rotational entropy is not quite correctly treated here
         because it includes a symmetry number that is not yet correctly
         implemented in ORCA!
For a nonlinear molecule the correct rotational entropy is:
    S(rot) = R*(ln(qrot/sn)+1.5)
    R    = 8.31441 J/mol/K = 1.987191683e-3 kcal/mol/K
    qrot = 32032.6299417
    sn is the rotational symmetry number. We have assumed 3 here
       if it is different for your molecule then you should correct
       the printed rotational entropy by manually evaluating the equation
       as given above

For convenience we print out the resulting values for sn=1 - 12:
 sn= 1  qrot/sn=   32032.6299 T*S(rot)=     7.04 kcal/mol T*S(tot)=    19.71 kcal/mol
 sn= 2  qrot/sn=   16016.3150 T*S(rot)=     6.62 kcal/mol T*S(tot)=    19.30 kcal/mol
 sn= 3  qrot/sn=   10677.5433 T*S(rot)=     6.38 kcal/mol T*S(tot)=    19.06 kcal/mol
 sn= 4  qrot/sn=    8008.1575 T*S(rot)=     6.21 kcal/mol T*S(tot)=    18.89 kcal/mol
 sn= 5  qrot/sn=    6406.5260 T*S(rot)=     6.08 kcal/mol T*S(tot)=    18.76 kcal/mol
 sn= 6  qrot/sn=    5338.7717 T*S(rot)=     5.97 kcal/mol T*S(tot)=    18.65 kcal/mol
 sn= 7  qrot/sn=    4576.0900 T*S(rot)=     5.88 kcal/mol T*S(tot)=    18.56 kcal/mol
 sn= 8  qrot/sn=    4004.0787 T*S(rot)=     5.80 kcal/mol T*S(tot)=    18.48 kcal/mol
 sn= 9  qrot/sn=    3559.1811 T*S(rot)=     5.73 kcal/mol T*S(tot)=    18.41 kcal/mol
 sn=10  qrot/sn=    3203.2630 T*S(rot)=     5.67 kcal/mol T*S(tot)=    18.35 kcal/mol
 sn=11  qrot/sn=    2912.0573 T*S(rot)=     5.61 kcal/mol T*S(tot)=    18.29 kcal/mol
 sn=12  qrot/sn=    2669.3858 T*S(rot)=     5.56 kcal/mol T*S(tot)=    18.24 kcal/mol

-------------------
GIBBS FREE ENTHALPY
-------------------

The Gibbs free enthalpy is G = H - T*S

Total enthalpy                    ...   -173.34661233 Eh
Total entropy correction          ...     -0.03037866 Eh    -19.06 kcal/mol
-----------------------------------------------------------------------
Final Gibbs free enthalpy         ...   -173.37699099 Eh

For completeness - the Gibbs free enthalpy minus the electronic energy
G-E(el)                           ...      0.08984530 Eh     56.38 kcal/mol

                             ****ORCA TERMINATED NORMALLY****
TOTAL RUN TIME: 0 days 0 hours 5 minutes 12 seconds 260 msec
