                         Program Version 3.0.3 - RELEASE   -
|  1> ! NORI PBE0 def2-TZVP UseSym TightOPT Freq TightSCF Grid3 FinalGrid5 XYZFile
|  2> % pal
|  3>     nprocs 8
|  4> end
|  5> %method
|  6>     SymThresh 5.0e-2
|  7> end
|  8> % geom
|  9>     MaxIter 10
| 10> end
| 11> % maxcore 2000
| 12> % output
| 13>     printlevel mini
| 14>     print[ P_Basis ] 0
| 15>     print[ P_SCFInfo ] 1
| 16>     print[ P_SCFIterInfo ] 1
| 17>     print[ P_OrbEn ] 0
| 18>     print[ P_Cartesian ] 0
| 19> end
| 20> % elprop
| 21>     Dipole false
| 22> end
| 23> *xyz 1 1
| 24>  C        0.9018253449     0.0525329974    -0.0346677957
| 25>  C        2.3872154565    -0.0641929870     0.0407705758
| 26>  C        3.1780432943    -0.7535272307    -0.9902362364
| 27>  N        3.1834956041     0.7299168633    -0.9514931495
| 28>  H        0.5525421871     0.9670466499     0.4466054316
| 29>  H        0.4595766905    -0.7946582716     0.4933830116
| 30>  H        0.5428571999     0.0255290930    -1.0661694089
| 31>  H        2.8341499799    -0.0050507759     1.0278325306
| 32>  H        4.1291436997    -1.2035094006    -0.7373093227
| 33>  H        2.6715519747    -1.1626492247    -1.8557573565
| 34>  H        2.6728354420     1.2254757101    -1.6749176304
| 35>  H        4.0270631265     1.2012965768    -0.6440106495
| 36> *
| 37>
| 38>                          ****END OF INPUT****
 Total Charge           Charge          ....    1
 Multiplicity           Mult            ....    1
 Number of Electrons    NEL             ....   32
FINAL SINGLE POINT ENERGY      -173.463567719418

CARTESIAN COORDINATES (ANGSTROEM)
---------------------------------
  C      1.047021   -0.000048   -1.188645
  C     -0.045589    0.467498   -0.286703
  C     -1.086969   -0.435827    0.226035
  N     -0.000052    0.000030    1.137735
  H      1.955293    0.586670   -1.045359
  H      0.722781    0.130294   -2.223039
  H      1.272005   -1.058944   -1.041703
  H     -0.306250    1.519503   -0.337627
  H     -2.062913   -0.048727    0.488779
  H     -1.043683   -1.487503   -0.028932
  H      0.711296   -0.679113    1.387189
  H     -0.225548    0.653743    1.879548

FINAL SINGLE POINT ENERGY      -173.463568297452
                    ***********************HURRAY********************
 Multiplicity           Mult            ....    1
 Number of Electrons    NEL             ....   32
 Basis Dimension        Dim             ....  172
FINAL SINGLE POINT ENERGY      -173.463568722969

VIBRATIONAL FREQUENCIES
-----------------------

   0:         0.00 cm**-1
   1:         0.00 cm**-1
   2:         0.00 cm**-1
   3:         0.00 cm**-1
   4:         0.00 cm**-1
   5:         0.00 cm**-1
   6:       227.12 cm**-1
   7:       354.53 cm**-1
   8:       372.25 cm**-1
   9:       759.20 cm**-1
  10:       841.21 cm**-1
  11:       854.98 cm**-1
  12:       879.88 cm**-1
  13:       953.99 cm**-1
  14:       983.20 cm**-1
  15:      1025.14 cm**-1
  16:      1097.19 cm**-1
  17:      1162.83 cm**-1
  18:      1192.23 cm**-1
  19:      1233.59 cm**-1
  20:      1251.87 cm**-1
  21:      1284.22 cm**-1
  22:      1409.25 cm**-1
  23:      1437.65 cm**-1
  24:      1471.76 cm**-1
  25:      1487.60 cm**-1
  26:      1501.64 cm**-1
  27:      1634.17 cm**-1
  28:      3064.44 cm**-1
  29:      3144.06 cm**-1
  30:      3155.71 cm**-1
  31:      3171.60 cm**-1
  32:      3196.00 cm**-1
  33:      3273.81 cm**-1
  34:      3512.80 cm**-1
  35:      3616.90 cm**-1

IR SPECTRUM
-----------

 Mode    freq (cm**-1)   T**2         TX         TY         TZ
-------------------------------------------------------------------
   6:       227.12    0.642376  ( -0.332089  -0.725885  -0.072002)
   7:       354.53    1.604440  ( -1.216445   0.048054   0.349847)
   8:       372.25    0.742746  ( -0.555674   0.155625   0.640120)
   9:       759.20    2.133230  ( -0.480391   0.687042   1.196005)
  10:       841.21   13.506302  (  1.780685   0.223733   3.207087)
  11:       854.98   14.821692  ( -0.839606   0.417230  -3.733989)
  12:       879.88    3.035513  (  0.450944  -1.670128   0.206966)
  13:       953.99    6.598444  (  0.691674  -0.318994  -2.453217)
  14:       983.20    1.881802  (  0.398652  -0.300073   1.277824)
  15:      1025.14   99.650902  ( -6.445942  -6.237332   4.381372)
  16:      1097.19   14.965026  ( -2.718567  -1.124559  -2.511929)
  17:      1162.83    1.028388  (  0.593975  -0.699078   0.432286)
  18:      1192.23    3.251559  ( -0.084799  -0.437541   1.747262)
  19:      1233.59    0.921585  ( -0.697902   0.637505   0.167648)
  20:      1251.87    4.086228  (  1.686394  -0.744535  -0.829440)
  21:      1284.22    3.483719  (  0.748683  -1.496725   0.826442)
  22:      1409.25    2.047483  ( -0.767688   1.186641   0.223651)
  23:      1437.65   12.843731  ( -1.598622   0.997862   3.048345)
  24:      1471.76   13.513513  (  2.739441   1.890900   1.559960)
  25:      1487.60   20.102564  (  0.652695   4.203917  -1.415498)
  26:      1501.64    5.850628  ( -2.390665   0.313796   0.192045)
  27:      1634.17   64.087940  (  2.794764  -0.927256   7.444288)
  28:      3064.44    2.128144  (  0.044717  -0.890203   1.154852)
  29:      3144.06    1.388181  ( -0.011298   1.126924   0.343649)
  30:      3155.71    1.074725  ( -0.295431  -0.548597   0.828545)
  31:      3171.60    3.146057  ( -1.569316  -0.826168  -0.027397)
  32:      3196.00    1.417093  (  0.236037   0.906370  -0.734760)
  33:      3273.81    6.420275  (  1.389630  -2.026096  -0.619789)
  34:      3512.80  109.338202  (  3.891675  -0.031919   9.705259)
  35:      3616.90  129.553634  ( -6.101225   8.810885   3.833667)

--------------------------
THERMOCHEMISTRY AT 298.15K
--------------------------

Temperature         ... 298.15 K
Pressure            ... 1.00 atm
Total Mass          ... 58.10 AMU

Throughout the following assumptions are being made:
  (1) The electronic state is orbitally nondegenerate
  (2) There are no thermally accessible electronically excited states
  (3) Hindered rotations indicated by low frequency modes) are not
      treated as such but are treated as vibrations and this may
      case some error
  (4) All equations used are the standard statistical mechanics
      equations for an ideal gas
  (5) All vibrations are strinctly harmonic

------------
INNER ENERGY
------------

The inner energy is: U= E(el) + E(ZPE) + E(vib) + E(rot) + E(trans)
    E(el)   - is the total energy from the electronic structure calculation
              = E(kin-el) + E(nuc-el) + E(el-el) + E(nuc-nuc)
    E(ZPE)  - the the zero temperature vibrational energy from the frequency calculation
    E(vib)  - the the finite temperature correction to E(ZPE) due to population
              of excietd vibrational states
    E(rot)  - is the rotational thermal energy
    E(trans)- is the translational thermal energy

Summary of contributions to the inner energy U:
Electronic energy                ...   -173.46356872 Eh
Zero point energy                ...      0.11288505 Eh      70.84 kcal/mol
Thermal vibrational correction   ...      0.00174449 Eh       1.09 kcal/mol
Thermal rotational correction    ...      0.00141627 Eh       0.89 kcal/mol
Thermal translational correction ...      0.00141627 Eh       0.89 kcal/mol
-----------------------------------------------------------------------
Total thermal energy                   -173.34610664 Eh

Summary of corrections to the electronic energy:
(perhaps to be used in another calculation)
Total thermal correction                  0.00457703 Eh       2.87 kcal/mol
Non-thermal (ZPE) correction              0.11288505 Eh      70.84 kcal/mol
-----------------------------------------------------------------------
Total correction                          0.11746209 Eh      73.71 kcal/mol

--------
ENTHALPY
--------

The enthalpy is H = U + kB*T
                kB is Boltzmann's constant
Total free energy                 ...   -173.34610664 Eh
Thermal Enthalpy correction       ...      0.00094421 Eh       0.59 kcal/mol
-----------------------------------------------------------------------
Total Enthalpy                    ...   -173.34516243 Eh

-------
ENTROPY
-------

The entropy contributions are T*S = T*(S(el)+S(vib)+S(rot)+S(trans)
     S(el)   - electronic entropy
     S(vib)  - vibrational entropy
     S(rot)  - rotational entropy
     S(trans)- translational entropy
The entropies will be listed as mutliplied by the temperature to get
units of energy

Electronic entropy                ...      0.00000000 Eh      0.00 kcal/mol
Vibrational entropy               ...      0.00260479 Eh      1.63 kcal/mol
Rotational entropy                ...      0.01030407 Eh      6.47 kcal/mol
Translational entropy             ...      0.01810230 Eh     11.36 kcal/mol
-----------------------------------------------------------------------
Final entropy term                ...      0.03101116 Eh     19.46 kcal/mol

CAUTION: The rotational entropy is not quite correctly treated here
         because it includes a symmetry number that is not yet correctly
         implemented in ORCA!
For a nonlinear molecule the correct rotational entropy is:
    S(rot) = R*(ln(qrot/sn)+1.5)
    R    = 8.31441 J/mol/K = 1.987191683e-3 kcal/mol/K
    qrot = 36748.3559261
    sn is the rotational symmetry number. We have assumed 3 here
       if it is different for your molecule then you should correct
       the printed rotational entropy by manually evaluating the equation
       as given above

For convenience we print out the resulting values for sn=1 - 12:
 sn= 1  qrot/sn=   36748.3559 T*S(rot)=     7.12 kcal/mol T*S(tot)=    20.11 kcal/mol
 sn= 2  qrot/sn=   18374.1780 T*S(rot)=     6.71 kcal/mol T*S(tot)=    19.70 kcal/mol
 sn= 3  qrot/sn=   12249.4520 T*S(rot)=     6.47 kcal/mol T*S(tot)=    19.46 kcal/mol
 sn= 4  qrot/sn=    9187.0890 T*S(rot)=     6.30 kcal/mol T*S(tot)=    19.29 kcal/mol
 sn= 5  qrot/sn=    7349.6712 T*S(rot)=     6.16 kcal/mol T*S(tot)=    19.16 kcal/mol
 sn= 6  qrot/sn=    6124.7260 T*S(rot)=     6.06 kcal/mol T*S(tot)=    19.05 kcal/mol
 sn= 7  qrot/sn=    5249.7651 T*S(rot)=     5.96 kcal/mol T*S(tot)=    18.96 kcal/mol
 sn= 8  qrot/sn=    4593.5445 T*S(rot)=     5.88 kcal/mol T*S(tot)=    18.88 kcal/mol
 sn= 9  qrot/sn=    4083.1507 T*S(rot)=     5.81 kcal/mol T*S(tot)=    18.81 kcal/mol
 sn=10  qrot/sn=    3674.8356 T*S(rot)=     5.75 kcal/mol T*S(tot)=    18.75 kcal/mol
 sn=11  qrot/sn=    3340.7596 T*S(rot)=     5.70 kcal/mol T*S(tot)=    18.69 kcal/mol
 sn=12  qrot/sn=    3062.3630 T*S(rot)=     5.64 kcal/mol T*S(tot)=    18.64 kcal/mol

-------------------
GIBBS FREE ENTHALPY
-------------------

The Gibbs free enthalpy is G = H - T*S

Total enthalpy                    ...   -173.34516243 Eh
Total entropy correction          ...     -0.03101116 Eh    -19.46 kcal/mol
-----------------------------------------------------------------------
Final Gibbs free enthalpy         ...   -173.37617359 Eh

For completeness - the Gibbs free enthalpy minus the electronic energy
G-E(el)                           ...      0.08739514 Eh     54.84 kcal/mol

                             ****ORCA TERMINATED NORMALLY****
TOTAL RUN TIME: 0 days 0 hours 5 minutes 22 seconds 793 msec
