                         Program Version 3.0.3 - RELEASE   -
|  1> ! NORI PBE0 def2-TZVP UseSym TightOPT Freq TightSCF Grid3 FinalGrid5 XYZFile
|  2> % pal
|  3>     nprocs 8
|  4> end
|  5> %method
|  6>     SymThresh 5.0e-2
|  7> end
|  8> % geom
|  9>     MaxIter 10
| 10> end
| 11> % maxcore 2000
| 12> % output
| 13>     printlevel mini
| 14>     print[ P_Basis ] 0
| 15>     print[ P_SCFInfo ] 1
| 16>     print[ P_SCFIterInfo ] 1
| 17>     print[ P_OrbEn ] 0
| 18>     print[ P_Cartesian ] 0
| 19> end
| 20> % elprop
| 21>     Dipole false
| 22> end
| 23> *xyz 1 1
| 24>  C        0.9074409777     0.0210728101    -0.0786278787
| 25>  C        2.4278242071    -0.0197195495    -0.0701665676
| 26>  C        2.9288703016    -1.4277199700     0.1519676334
| 27>  N        4.4372876495    -1.4655582819     0.1592943989
| 28>  H        0.5610878656     1.0414672664    -0.2400280334
| 29>  H        0.4928338857    -0.3232957689     0.8712448624
| 30>  H        0.4953888172    -0.5995908521    -0.8769220153
| 31>  H        2.8106648299     0.6366666978     0.7196291662
| 32>  H        2.8132113433     0.3621558655    -1.0225670586
| 33>  H        2.6088285692    -2.1094067315    -0.6376079840
| 34>  H        2.6069742343    -1.8333277930     1.1123837874
| 35>  H        4.8139485079    -1.1229305112    -0.7273904839
| 36>  H        4.7961647714    -2.4108366283     0.3076707948
| 37>  H        4.8123840396    -0.8681565534     0.8993893785
| 38> *
| 39>
| 40>                          ****END OF INPUT****
 Total Charge           Charge          ....    1
 Multiplicity           Mult            ....    1
 Number of Electrons    NEL             ....   34
FINAL SINGLE POINT ENERGY      -174.701612817523

CARTESIAN COORDINATES (ANGSTROEM)
---------------------------------
  C     -1.986528   -0.001771   -0.000000
  C     -0.571722    0.557118    0.000000
  C      0.448954   -0.557286    0.000000
  N      1.851353    0.000040   -0.000000
  H     -2.710919    0.812343   -0.000000
  H     -2.174522   -0.613228    0.884901
  H     -2.174522   -0.613228   -0.884901
  H     -0.424725    1.191158    0.881905
  H     -0.424725    1.191158   -0.881905
  H      0.369807   -1.189362   -0.885874
  H      0.369807   -1.189362    0.885874
  H      2.009940    0.585191   -0.823341
  H      2.557430   -0.738934   -0.000000
  H      2.009940    0.585191    0.823341

FINAL SINGLE POINT ENERGY      -174.701613113180
                    ***********************HURRAY********************
 Multiplicity           Mult            ....    1
 Number of Electrons    NEL             ....   34
 Basis Dimension        Dim             ....  184
FINAL SINGLE POINT ENERGY      -174.701613208580

VIBRATIONAL FREQUENCIES
-----------------------

   0:         0.00 cm**-1
   1:         0.00 cm**-1
   2:         0.00 cm**-1
   3:         0.00 cm**-1
   4:         0.00 cm**-1
   5:         0.00 cm**-1
   6:       121.77 cm**-1
   7:       210.01 cm**-1
   8:       248.23 cm**-1
   9:       251.01 cm**-1
  10:       426.06 cm**-1
  11:       757.96 cm**-1
  12:       850.47 cm**-1
  13:       860.58 cm**-1
  14:       958.27 cm**-1
  15:       974.76 cm**-1
  16:      1003.09 cm**-1
  17:      1066.76 cm**-1
  18:      1190.54 cm**-1
  19:      1218.34 cm**-1
  20:      1322.76 cm**-1
  21:      1346.87 cm**-1
  22:      1351.65 cm**-1
  23:      1409.09 cm**-1
  24:      1426.11 cm**-1
  25:      1480.89 cm**-1
  26:      1491.27 cm**-1
  27:      1493.62 cm**-1
  28:      1504.45 cm**-1
  29:      1511.71 cm**-1
  30:      1657.75 cm**-1
  31:      1664.64 cm**-1
  32:      3036.89 cm**-1
  33:      3065.43 cm**-1
  34:      3077.56 cm**-1
  35:      3097.06 cm**-1
  36:      3140.06 cm**-1
  37:      3157.09 cm**-1
  38:      3157.12 cm**-1
  39:      3421.57 cm**-1
  40:      3502.44 cm**-1
  41:      3508.39 cm**-1

IR SPECTRUM
-----------

 Mode    freq (cm**-1)   T**2         TX         TY         TZ
-------------------------------------------------------------------
   6:       121.77    3.263127  ( -0.000000  -0.000000   1.806413)
   7:       210.01    0.175712  ( -0.000000  -0.000000  -0.419180)
   8:       248.23    0.105744  ( -0.000000   0.000000   0.325183)
   9:       251.01    4.360525  ( -0.891690   1.888231  -0.000000)
  10:       426.06    8.689159  ( -2.874322   0.653782   0.000000)
  11:       757.96    7.615700  (  0.000000   0.000000   2.759656)
  12:       850.47    2.078194  (  0.000000   0.000000  -1.441594)
  13:       860.58    6.045634  ( -2.328156   0.790775   0.000001)
  14:       958.27   10.815968  ( -3.217188   0.682401  -0.000000)
  15:       974.76    9.962756  ( -0.000000  -0.000000   3.156383)
  16:      1003.09   22.194033  ( -2.232180   4.148663  -0.000001)
  17:      1066.76    6.174162  ( -2.468415  -0.284761  -0.000000)
  18:      1190.54    4.119989  (  0.854461  -1.841164  -0.000002)
  19:      1218.34    0.908563  (  0.000000   0.000000  -0.953186)
  20:      1322.76    0.260008  ( -0.000000  -0.000000   0.509910)
  21:      1346.87    1.735362  (  0.475930  -1.228354   0.000003)
  22:      1351.65    6.314610  ( -0.000000  -0.000000  -2.512889)
  23:      1409.09    2.911749  (  1.702125   0.120499   0.000001)
  24:      1426.11    7.759062  ( -2.680021  -0.759307   0.000005)
  25:      1480.89    3.156137  (  1.215784  -1.295379   0.000007)
  26:      1491.27    4.627091  (  2.063368   0.607950   0.000008)
  27:      1493.62   13.276404  ( -0.000000  -0.000000   3.643680)
  28:      1504.45   65.106871  (  8.035276  -0.735671   0.000004)
  29:      1511.71   99.322248  (  8.033880   5.897374  -0.000004)
  30:      1657.75   53.434962  (  0.000000   0.000000  -7.309922)
  31:      1664.64   37.513337  ( -2.630733   5.531056   0.000000)
  32:      3036.89   13.141120  ( -2.504351  -2.620944  -0.000002)
  33:      3065.43    7.776920  ( -1.909969  -2.031979   0.000016)
  34:      3077.56    5.240658  (  0.000000   0.000000   2.289248)
  35:      3097.06    2.521840  ( -0.128823   1.582796  -0.000000)
  36:      3140.06    9.765933  (  0.000000   0.000000  -3.125049)
  37:      3157.09    2.032324  (  0.000000  -0.000000  -1.425596)
  38:      3157.12    3.160865  (  0.370497  -1.738849   0.000008)
  39:      3421.57   44.278302  (  6.408437   1.791714   0.000000)
  40:      3502.44   94.013444  ( -0.000000  -0.000000  -9.696053)
  41:      3508.39  101.734237  (  4.114691  -9.208885  -0.000000)

--------------------------
THERMOCHEMISTRY AT 298.15K
--------------------------

Temperature         ... 298.15 K
Pressure            ... 1.00 atm
Total Mass          ... 60.12 AMU

Throughout the following assumptions are being made:
  (1) The electronic state is orbitally nondegenerate
  (2) There are no thermally accessible electronically excited states
  (3) Hindered rotations indicated by low frequency modes) are not
      treated as such but are treated as vibrations and this may
      case some error
  (4) All equations used are the standard statistical mechanics
      equations for an ideal gas
  (5) All vibrations are strinctly harmonic

------------
INNER ENERGY
------------

The inner energy is: U= E(el) + E(ZPE) + E(vib) + E(rot) + E(trans)
    E(el)   - is the total energy from the electronic structure calculation
              = E(kin-el) + E(nuc-el) + E(el-el) + E(nuc-nuc)
    E(ZPE)  - the the zero temperature vibrational energy from the frequency calculation
    E(vib)  - the the finite temperature correction to E(ZPE) due to population
              of excietd vibrational states
    E(rot)  - is the rotational thermal energy
    E(trans)- is the translational thermal energy

Summary of contributions to the inner energy U:
Electronic energy                ...   -174.70161321 Eh
Zero point energy                ...      0.13660408 Eh      85.72 kcal/mol
Thermal vibrational correction   ...      0.00297114 Eh       1.86 kcal/mol
Thermal rotational correction    ...      0.00141627 Eh       0.89 kcal/mol
Thermal translational correction ...      0.00141627 Eh       0.89 kcal/mol
-----------------------------------------------------------------------
Total thermal energy                   -174.55920545 Eh

Summary of corrections to the electronic energy:
(perhaps to be used in another calculation)
Total thermal correction                  0.00580368 Eh       3.64 kcal/mol
Non-thermal (ZPE) correction              0.13660408 Eh      85.72 kcal/mol
-----------------------------------------------------------------------
Total correction                          0.14240776 Eh      89.36 kcal/mol

--------
ENTHALPY
--------

The enthalpy is H = U + kB*T
                kB is Boltzmann's constant
Total free energy                 ...   -174.55920545 Eh
Thermal Enthalpy correction       ...      0.00094421 Eh       0.59 kcal/mol
-----------------------------------------------------------------------
Total Enthalpy                    ...   -174.55826124 Eh

-------
ENTROPY
-------

The entropy contributions are T*S = T*(S(el)+S(vib)+S(rot)+S(trans)
     S(el)   - electronic entropy
     S(vib)  - vibrational entropy
     S(rot)  - rotational entropy
     S(trans)- translational entropy
The entropies will be listed as mutliplied by the temperature to get
units of energy

Electronic entropy                ...      0.00000000 Eh      0.00 kcal/mol
Vibrational entropy               ...      0.00506754 Eh      3.18 kcal/mol
Rotational entropy                ...      0.01062000 Eh      6.66 kcal/mol
Translational entropy             ...      0.01815060 Eh     11.39 kcal/mol
-----------------------------------------------------------------------
Final entropy term                ...      0.03383814 Eh     21.23 kcal/mol

CAUTION: The rotational entropy is not quite correctly treated here
         because it includes a symmetry number that is not yet correctly
         implemented in ORCA!
For a nonlinear molecule the correct rotational entropy is:
    S(rot) = R*(ln(qrot/sn)+1.5)
    R    = 8.31441 J/mol/K = 1.987191683e-3 kcal/mol/K
    qrot = 51351.7513899
    sn is the rotational symmetry number. We have assumed 3 here
       if it is different for your molecule then you should correct
       the printed rotational entropy by manually evaluating the equation
       as given above

For convenience we print out the resulting values for sn=1 - 12:
 sn= 1  qrot/sn=   51351.7514 T*S(rot)=     7.32 kcal/mol T*S(tot)=    21.88 kcal/mol
 sn= 2  qrot/sn=   25675.8757 T*S(rot)=     6.90 kcal/mol T*S(tot)=    21.47 kcal/mol
 sn= 3  qrot/sn=   17117.2505 T*S(rot)=     6.66 kcal/mol T*S(tot)=    21.23 kcal/mol
 sn= 4  qrot/sn=   12837.9378 T*S(rot)=     6.49 kcal/mol T*S(tot)=    21.06 kcal/mol
 sn= 5  qrot/sn=   10270.3503 T*S(rot)=     6.36 kcal/mol T*S(tot)=    20.93 kcal/mol
 sn= 6  qrot/sn=    8558.6252 T*S(rot)=     6.25 kcal/mol T*S(tot)=    20.82 kcal/mol
 sn= 7  qrot/sn=    7335.9645 T*S(rot)=     6.16 kcal/mol T*S(tot)=    20.73 kcal/mol
 sn= 8  qrot/sn=    6418.9689 T*S(rot)=     6.08 kcal/mol T*S(tot)=    20.65 kcal/mol
 sn= 9  qrot/sn=    5705.7502 T*S(rot)=     6.01 kcal/mol T*S(tot)=    20.58 kcal/mol
 sn=10  qrot/sn=    5135.1751 T*S(rot)=     5.95 kcal/mol T*S(tot)=    20.52 kcal/mol
 sn=11  qrot/sn=    4668.3410 T*S(rot)=     5.89 kcal/mol T*S(tot)=    20.46 kcal/mol
 sn=12  qrot/sn=    4279.3126 T*S(rot)=     5.84 kcal/mol T*S(tot)=    20.41 kcal/mol

-------------------
GIBBS FREE ENTHALPY
-------------------

The Gibbs free enthalpy is G = H - T*S

Total enthalpy                    ...   -174.55826124 Eh
Total entropy correction          ...     -0.03383814 Eh    -21.23 kcal/mol
-----------------------------------------------------------------------
Final Gibbs free enthalpy         ...   -174.59209938 Eh

For completeness - the Gibbs free enthalpy minus the electronic energy
G-E(el)                           ...      0.10951383 Eh     68.72 kcal/mol

                             ****ORCA TERMINATED NORMALLY****
TOTAL RUN TIME: 0 days 0 hours 6 minutes 32 seconds 528 msec
