                         Program Version 3.0.3 - RELEASE   -
|  1> ! NORI PBE0 def2-TZVP UseSym TightOPT Freq TightSCF Grid3 FinalGrid5 XYZFile
|  2> % pal
|  3>     nprocs 8
|  4> end
|  5> %method
|  6>     SymThresh 5.0e-2
|  7> end
|  8> % geom
|  9>     MaxIter 10
| 10> end
| 11> % maxcore 2000
| 12> % output
| 13>     printlevel mini
| 14>     print[ P_Basis ] 0
| 15>     print[ P_SCFInfo ] 1
| 16>     print[ P_SCFIterInfo ] 1
| 17>     print[ P_OrbEn ] 0
| 18>     print[ P_Cartesian ] 0
| 19> end
| 20> % elprop
| 21>     Dipole false
| 22> end
| 23> *xyz 1 1
| 24>  C        0.9983981294     0.0238856245     0.0764657773
| 25>  C        2.5075758761     0.0200084712     0.1457421285
| 26>  C        3.0699276272    -0.5289417980     1.4369009538
| 27>  N        3.0362795780    -0.8275790255    -1.0025832788
| 28>  H        0.6267368452     0.4067133000    -0.8769745866
| 29>  H        0.6091141104     0.6733386428     0.8609578037
| 30>  H        0.5876063774    -0.9756916336     0.2446321379
| 31>  H        2.9037675194     1.0195007706    -0.0512002440
| 32>  H        2.7089683937    -1.5427580818     1.6316091990
| 33>  H        2.7387132652     0.1000294977     2.2635567976
| 34>  H        4.1627994662    -0.5305270914     1.4456790670
| 35>  H        2.7140450541    -1.7939908995    -0.9091245740
| 36>  H        4.0582003213    -0.8414013570    -1.0162191019
| 37>  H        2.7100274364    -0.4780764200    -1.9057320797
| 38> *
| 39>
| 40>                          ****END OF INPUT****
 Total Charge           Charge          ....    1
 Multiplicity           Mult            ....    1
 Number of Electrons    NEL             ....   34
FINAL SINGLE POINT ENERGY      -174.707442652860

CARTESIAN COORDINATES (ANGSTROEM)
---------------------------------
  C     -0.729181    0.161386    1.269720
  C     -0.106429   -0.371313    0.000000
  C     -0.729181    0.161386   -1.269720
  N      1.369842   -0.000045    0.000000
  H     -0.243456   -0.230470    2.166626
  H     -1.775130   -0.144274    1.306952
  H     -0.706009    1.254385    1.299050
  H     -0.110153   -1.464214    0.000000
  H     -0.706009    1.254385   -1.299050
  H     -1.775130   -0.144274   -1.306952
  H     -0.243456   -0.230470   -2.166626
  H      1.480875    1.016846    0.000000
  H      1.846162   -0.363912   -0.827679
  H      1.846162   -0.363912    0.827679

FINAL SINGLE POINT ENERGY      -174.707442868891
                    ***********************HURRAY********************
 Multiplicity           Mult            ....    1
 Number of Electrons    NEL             ....   34
 Basis Dimension        Dim             ....  184
FINAL SINGLE POINT ENERGY      -174.707442920688

VIBRATIONAL FREQUENCIES
-----------------------

   0:         0.00 cm**-1
   1:         0.00 cm**-1
   2:         0.00 cm**-1
   3:         0.00 cm**-1
   4:         0.00 cm**-1
   5:         0.00 cm**-1
   6:       204.52 cm**-1
   7:       240.42 cm**-1
   8:       262.33 cm**-1
   9:       361.13 cm**-1
  10:       369.43 cm**-1
  11:       437.13 cm**-1
  12:       778.28 cm**-1
  13:       914.73 cm**-1
  14:       935.62 cm**-1
  15:       948.28 cm**-1
  16:       955.92 cm**-1
  17:       986.94 cm**-1
  18:      1159.15 cm**-1
  19:      1222.32 cm**-1
  20:      1228.93 cm**-1
  21:      1376.54 cm**-1
  22:      1397.14 cm**-1
  23:      1418.13 cm**-1
  24:      1429.03 cm**-1
  25:      1465.52 cm**-1
  26:      1481.84 cm**-1
  27:      1493.82 cm**-1
  28:      1494.44 cm**-1
  29:      1500.85 cm**-1
  30:      1655.93 cm**-1
  31:      1658.21 cm**-1
  32:      3054.00 cm**-1
  33:      3055.78 cm**-1
  34:      3095.43 cm**-1
  35:      3130.23 cm**-1
  36:      3136.11 cm**-1
  37:      3153.05 cm**-1
  38:      3157.28 cm**-1
  39:      3417.84 cm**-1
  40:      3502.53 cm**-1
  41:      3512.68 cm**-1

IR SPECTRUM
-----------

 Mode    freq (cm**-1)   T**2         TX         TY         TZ
-------------------------------------------------------------------
   6:       204.52    0.149739  ( -0.000005   0.000004   0.386962)
   7:       240.42    0.134730  (  0.000007  -0.000005   0.367056)
   8:       262.33    1.318115  (  0.222740  -1.126278  -0.000002)
   9:       361.13    3.989925  ( -1.986268   0.211345   0.000015)
  10:       369.43    7.131631  (  0.000013  -0.000003   2.670511)
  11:       437.13    5.386801  (  1.757933  -1.515412  -0.000001)
  12:       778.28    2.891564  ( -1.324772   1.066087   0.000002)
  13:       914.73    2.621461  ( -0.600539  -1.503600   0.000006)
  14:       935.62    7.824072  (  0.000008  -0.000007  -2.797154)
  15:       948.28    0.000707  (  0.000034  -0.000012  -0.026590)
  16:       955.92   10.748660  (  3.074889  -1.137418   0.000010)
  17:       986.94    5.593588  (  0.000002   0.000000  -2.365077)
  18:      1159.15   22.862315  ( -4.448403  -1.753291   0.000002)
  19:      1222.32   15.798099  ( -0.000002   0.000002  -3.974682)
  20:      1228.93    6.011293  ( -0.173792   2.445627   0.000005)
  21:      1376.54    2.237400  (  0.000006   0.000002  -1.495794)
  22:      1397.14   15.181494  (  3.381451  -1.935790  -0.000000)
  23:      1418.13   23.792261  ( -0.000008  -0.000002  -4.877731)
  24:      1429.03   39.228697  ( -6.025354   1.709915   0.000001)
  25:      1465.52    0.000898  (  0.000055   0.000020  -0.029968)
  26:      1481.84    2.061983  ( -0.000022  -0.000008   1.435961)
  27:      1493.82   31.726663  ( -2.998063  -4.768467  -0.000000)
  28:      1494.44   16.172492  (  3.769868   1.400211   0.000001)
  29:      1500.85  112.173934  (-10.341937  -2.284354  -0.000001)
  30:      1655.93   56.190330  (  2.121958  -7.189411   0.000003)
  31:      1658.21   37.079087  ( -0.000002   0.000003   6.089260)
  32:      3054.00    1.631180  ( -0.000014  -0.000010   1.277176)
  33:      3055.78    5.193732  (  1.892367   1.269914   0.000011)
  34:      3095.43    0.251099  ( -0.034976   0.499876  -0.000001)
  35:      3130.23    3.908739  ( -0.000005   0.000010   1.977053)
  36:      3136.11    7.994979  ( -0.996406   2.646159  -0.000005)
  37:      3153.05    1.917431  (  0.000000  -0.000002   1.384713)
  38:      3157.28    0.343029  ( -0.164827   0.562015  -0.000011)
  39:      3417.84   36.460000  ( -5.865733  -1.432889   0.000000)
  40:      3502.53   82.850935  ( -2.859818   8.641318   0.000000)
  41:      3512.68   84.263474  ( -0.000000   0.000000   9.179514)

--------------------------
THERMOCHEMISTRY AT 298.15K
--------------------------

Temperature         ... 298.15 K
Pressure            ... 1.00 atm
Total Mass          ... 60.12 AMU

Throughout the following assumptions are being made:
  (1) The electronic state is orbitally nondegenerate
  (2) There are no thermally accessible electronically excited states
  (3) Hindered rotations indicated by low frequency modes) are not
      treated as such but are treated as vibrations and this may
      case some error
  (4) All equations used are the standard statistical mechanics
      equations for an ideal gas
  (5) All vibrations are strinctly harmonic

------------
INNER ENERGY
------------

The inner energy is: U= E(el) + E(ZPE) + E(vib) + E(rot) + E(trans)
    E(el)   - is the total energy from the electronic structure calculation
              = E(kin-el) + E(nuc-el) + E(el-el) + E(nuc-nuc)
    E(ZPE)  - the the zero temperature vibrational energy from the frequency calculation
    E(vib)  - the the finite temperature correction to E(ZPE) due to population
              of excietd vibrational states
    E(rot)  - is the rotational thermal energy
    E(trans)- is the translational thermal energy

Summary of contributions to the inner energy U:
Electronic energy                ...   -174.70744292 Eh
Zero point energy                ...      0.13575943 Eh      85.19 kcal/mol
Thermal vibrational correction   ...      0.00290845 Eh       1.83 kcal/mol
Thermal rotational correction    ...      0.00141627 Eh       0.89 kcal/mol
Thermal translational correction ...      0.00141627 Eh       0.89 kcal/mol
-----------------------------------------------------------------------
Total thermal energy                   -174.56594249 Eh

Summary of corrections to the electronic energy:
(perhaps to be used in another calculation)
Total thermal correction                  0.00574099 Eh       3.60 kcal/mol
Non-thermal (ZPE) correction              0.13575943 Eh      85.19 kcal/mol
-----------------------------------------------------------------------
Total correction                          0.14150043 Eh      88.79 kcal/mol

--------
ENTHALPY
--------

The enthalpy is H = U + kB*T
                kB is Boltzmann's constant
Total free energy                 ...   -174.56594249 Eh
Thermal Enthalpy correction       ...      0.00094421 Eh       0.59 kcal/mol
-----------------------------------------------------------------------
Total Enthalpy                    ...   -174.56499829 Eh

-------
ENTROPY
-------

The entropy contributions are T*S = T*(S(el)+S(vib)+S(rot)+S(trans)
     S(el)   - electronic entropy
     S(vib)  - vibrational entropy
     S(rot)  - rotational entropy
     S(trans)- translational entropy
The entropies will be listed as mutliplied by the temperature to get
units of energy

Electronic entropy                ...      0.00000000 Eh      0.00 kcal/mol
Vibrational entropy               ...      0.00458293 Eh      2.88 kcal/mol
Rotational entropy                ...      0.01064438 Eh      6.68 kcal/mol
Translational entropy             ...      0.01815060 Eh     11.39 kcal/mol
-----------------------------------------------------------------------
Final entropy term                ...      0.03337791 Eh     20.94 kcal/mol

CAUTION: The rotational entropy is not quite correctly treated here
         because it includes a symmetry number that is not yet correctly
         implemented in ORCA!
For a nonlinear molecule the correct rotational entropy is:
    S(rot) = R*(ln(qrot/sn)+1.5)
    R    = 8.31441 J/mol/K = 1.987191683e-3 kcal/mol/K
    qrot = 52695.0904681
    sn is the rotational symmetry number. We have assumed 3 here
       if it is different for your molecule then you should correct
       the printed rotational entropy by manually evaluating the equation
       as given above

For convenience we print out the resulting values for sn=1 - 12:
 sn= 1  qrot/sn=   52695.0905 T*S(rot)=     7.33 kcal/mol T*S(tot)=    21.60 kcal/mol
 sn= 2  qrot/sn=   26347.5452 T*S(rot)=     6.92 kcal/mol T*S(tot)=    21.19 kcal/mol
 sn= 3  qrot/sn=   17565.0302 T*S(rot)=     6.68 kcal/mol T*S(tot)=    20.94 kcal/mol
 sn= 4  qrot/sn=   13173.7726 T*S(rot)=     6.51 kcal/mol T*S(tot)=    20.77 kcal/mol
 sn= 5  qrot/sn=   10539.0181 T*S(rot)=     6.38 kcal/mol T*S(tot)=    20.64 kcal/mol
 sn= 6  qrot/sn=    8782.5151 T*S(rot)=     6.27 kcal/mol T*S(tot)=    20.53 kcal/mol
 sn= 7  qrot/sn=    7527.8701 T*S(rot)=     6.18 kcal/mol T*S(tot)=    20.44 kcal/mol
 sn= 8  qrot/sn=    6586.8863 T*S(rot)=     6.10 kcal/mol T*S(tot)=    20.36 kcal/mol
 sn= 9  qrot/sn=    5855.0101 T*S(rot)=     6.03 kcal/mol T*S(tot)=    20.29 kcal/mol
 sn=10  qrot/sn=    5269.5090 T*S(rot)=     5.97 kcal/mol T*S(tot)=    20.23 kcal/mol
 sn=11  qrot/sn=    4790.4628 T*S(rot)=     5.91 kcal/mol T*S(tot)=    20.18 kcal/mol
 sn=12  qrot/sn=    4391.2575 T*S(rot)=     5.86 kcal/mol T*S(tot)=    20.12 kcal/mol

-------------------
GIBBS FREE ENTHALPY
-------------------

The Gibbs free enthalpy is G = H - T*S

Total enthalpy                    ...   -174.56499829 Eh
Total entropy correction          ...     -0.03337791 Eh    -20.94 kcal/mol
-----------------------------------------------------------------------
Final Gibbs free enthalpy         ...   -174.59837620 Eh

For completeness - the Gibbs free enthalpy minus the electronic energy
G-E(el)                           ...      0.10906673 Eh     68.44 kcal/mol

                             ****ORCA TERMINATED NORMALLY****
TOTAL RUN TIME: 0 days 0 hours 7 minutes 9 seconds 556 msec
