                         Program Version 3.0.3 - RELEASE   -
|  1> ! NORI PBE0 def2-TZVP UseSym TightOPT Freq TightSCF Grid3 FinalGrid5 XYZFile
|  2> % pal
|  3>     nprocs 8
|  4> end
|  5> %method
|  6>     SymThresh 5.0e-2
|  7> end
|  8> % geom
|  9>     MaxIter 10
| 10> end
| 11> % maxcore 2000
| 12> % output
| 13>     printlevel mini
| 14>     print[ P_Basis ] 0
| 15>     print[ P_SCFInfo ] 1
| 16>     print[ P_SCFIterInfo ] 1
| 17>     print[ P_OrbEn ] 0
| 18>     print[ P_Cartesian ] 0
| 19> end
| 20> % elprop
| 21>     Dipole false
| 22> end
| 23> *xyz 1 1
| 24>  C        0.9634012422    -0.0441731202     0.0022278431
| 25>  C        2.4708284981    -0.0642588962    -0.0165487657
| 26>  N        3.0055243567    -1.2350670474     0.7586601348
| 27>  C        4.4899513724    -1.3292500396     0.7936309230
| 28>  H        0.6136233343     0.8168890485    -0.5683593697
| 29>  H        0.5679557180     0.0547477501     1.0157769113
| 30>  H        0.5365012385    -0.9368174314    -0.4611440300
| 31>  H        2.9024380320     0.8271215258     0.4410369718
| 32>  H        2.8712047317    -0.1585004023    -1.0267106694
| 33>  H        2.6179516417    -2.0933999745     0.3612839269
| 34>  H        2.6437460399    -1.1860315709     1.7133607585
| 35>  H        4.8570431429    -1.4241883356    -0.2260919967
| 36>  H        4.7797697282    -2.2002175216     1.3787483570
| 37>  H        4.8852209233    -0.4235139847     1.2488490053
| 38> *
| 39>
| 40>                          ****END OF INPUT****
 Total Charge           Charge          ....    1
 Multiplicity           Mult            ....    1
 Number of Electrons    NEL             ....   34
FINAL SINGLE POINT ENERGY      -174.700282921241

CARTESIAN COORDINATES (ANGSTROEM)
---------------------------------
  C     -1.365656   -1.365698   -0.000000
  C     -0.794973    0.029978   -0.000000
  N      0.707457   -0.000025    0.000000
  C      1.354003    1.340127    0.000000
  H     -2.454421   -1.302886   -0.000000
  H     -1.072109   -1.927892    0.889685
  H     -1.072109   -1.927892   -0.889685
  H     -1.088709    0.597396    0.884239
  H     -1.088709    0.597396   -0.884239
  H      1.022739   -0.531420   -0.814358
  H      1.022739   -0.531420    0.814358
  H      1.038702    1.878627   -0.891371
  H      2.435425    1.215853   -0.000000
  H      1.038702    1.878627    0.891371

FINAL SINGLE POINT ENERGY      -174.700283081404
                    ***********************HURRAY********************
 Multiplicity           Mult            ....    1
 Number of Electrons    NEL             ....   34
 Basis Dimension        Dim             ....  184
FINAL SINGLE POINT ENERGY      -174.700283110090

VIBRATIONAL FREQUENCIES
-----------------------

   0:         0.00 cm**-1
   1:         0.00 cm**-1
   2:         0.00 cm**-1
   3:         0.00 cm**-1
   4:         0.00 cm**-1
   5:         0.00 cm**-1
   6:       106.31 cm**-1
   7:       217.23 cm**-1
   8:       258.36 cm**-1
   9:       266.41 cm**-1
  10:       431.08 cm**-1
  11:       782.64 cm**-1
  12:       841.72 cm**-1
  13:       846.62 cm**-1
  14:      1012.96 cm**-1
  15:      1035.52 cm**-1
  16:      1040.53 cm**-1
  17:      1075.90 cm**-1
  18:      1203.73 cm**-1
  19:      1238.77 cm**-1
  20:      1326.83 cm**-1
  21:      1373.25 cm**-1
  22:      1398.99 cm**-1
  23:      1426.42 cm**-1
  24:      1429.11 cm**-1
  25:      1460.67 cm**-1
  26:      1480.71 cm**-1
  27:      1487.33 cm**-1
  28:      1494.48 cm**-1
  29:      1494.75 cm**-1
  30:      1506.73 cm**-1
  31:      1658.43 cm**-1
  32:      3059.72 cm**-1
  33:      3092.95 cm**-1
  34:      3097.81 cm**-1
  35:      3130.10 cm**-1
  36:      3154.08 cm**-1
  37:      3159.30 cm**-1
  38:      3193.85 cm**-1
  39:      3196.73 cm**-1
  40:      3439.75 cm**-1
  41:      3488.05 cm**-1

IR SPECTRUM
-----------

 Mode    freq (cm**-1)   T**2         TX         TY         TZ
-------------------------------------------------------------------
   6:       106.31    3.087143  (  0.000002   0.000006  -1.757027)
   7:       217.23    0.469579  (  0.000002   0.000003   0.685258)
   8:       258.36    1.393332  (  0.000003  -0.000003  -1.180395)
   9:       266.41    2.809161  (  1.673387   0.094534  -0.000004)
  10:       431.08    2.317622  (  0.995524   1.151761   0.000008)
  11:       782.64   13.966141  ( -0.000002  -0.000001  -3.737130)
  12:       841.72    1.696022  (  1.216737   0.464299  -0.000000)
  13:       846.62    2.477528  ( -0.000007  -0.000002  -1.574016)
  14:      1012.96    6.787343  (  2.332741  -1.160028   0.000000)
  15:      1035.52   39.269203  ( -5.569822  -2.871635  -0.000028)
  16:      1040.53    1.919804  (  0.000090   0.000058  -1.385570)
  17:      1075.90    2.327522  ( -1.512105   0.202633   0.000000)
  18:      1203.73    1.296069  ( -0.055893  -1.137077  -0.000004)
  19:      1238.77    0.583326  (  0.000002  -0.000007  -0.763758)
  20:      1326.83    1.929301  (  0.000003  -0.000013  -1.388993)
  21:      1373.25    8.746254  ( -2.186755  -1.991070   0.000010)
  22:      1398.99    2.566205  ( -0.000011   0.000002  -1.601938)
  23:      1426.42   13.654145  (  2.371427   2.833810  -0.000002)
  24:      1429.11   46.676694  ( -6.039836  -3.193285   0.000003)
  25:      1460.67    6.005014  (  1.705260   1.759859   0.000033)
  26:      1480.71   13.049690  ( -3.589280  -0.408357   0.000049)
  27:      1487.33    2.930580  ( -0.000052   0.000009  -1.711894)
  28:      1494.48   13.289887  (  3.555784   0.803905  -0.005274)
  29:      1494.75   37.439161  (  0.003058   0.000724   6.118754)
  30:      1506.73   21.121076  (  2.678416  -3.734590   0.000059)
  31:      1658.43   47.221164  (  3.379548  -5.983295  -0.000000)
  32:      3059.72    3.237833  ( -1.480944   1.022076   0.000000)
  33:      3092.95    0.051172  (  0.073558   0.213919   0.000008)
  34:      3097.81    2.763430  ( -0.140877  -1.656377   0.000006)
  35:      3130.10    2.546302  ( -0.000000  -0.000003  -1.595714)
  36:      3154.08    0.857020  ( -0.244099  -0.892993   0.000000)
  37:      3159.30    2.084173  (  0.000000   0.000001   1.443667)
  38:      3193.85    0.253183  (  0.308848  -0.397235  -0.000003)
  39:      3196.73    0.070632  (  0.000004  -0.000005  -0.265768)
  40:      3439.75   42.063367  ( -3.692191   5.332081   0.000000)
  41:      3488.05   71.984956  (  0.000000  -0.000000   8.484395)

--------------------------
THERMOCHEMISTRY AT 298.15K
--------------------------

Temperature         ... 298.15 K
Pressure            ... 1.00 atm
Total Mass          ... 60.12 AMU

Throughout the following assumptions are being made:
  (1) The electronic state is orbitally nondegenerate
  (2) There are no thermally accessible electronically excited states
  (3) Hindered rotations indicated by low frequency modes) are not
      treated as such but are treated as vibrations and this may
      case some error
  (4) All equations used are the standard statistical mechanics
      equations for an ideal gas
  (5) All vibrations are strinctly harmonic

------------
INNER ENERGY
------------

The inner energy is: U= E(el) + E(ZPE) + E(vib) + E(rot) + E(trans)
    E(el)   - is the total energy from the electronic structure calculation
              = E(kin-el) + E(nuc-el) + E(el-el) + E(nuc-nuc)
    E(ZPE)  - the the zero temperature vibrational energy from the frequency calculation
    E(vib)  - the the finite temperature correction to E(ZPE) due to population
              of excietd vibrational states
    E(rot)  - is the rotational thermal energy
    E(trans)- is the translational thermal energy

Summary of contributions to the inner energy U:
Electronic energy                ...   -174.70028311 Eh
Zero point energy                ...      0.13648015 Eh      85.64 kcal/mol
Thermal vibrational correction   ...      0.00292236 Eh       1.83 kcal/mol
Thermal rotational correction    ...      0.00141627 Eh       0.89 kcal/mol
Thermal translational correction ...      0.00141627 Eh       0.89 kcal/mol
-----------------------------------------------------------------------
Total thermal energy                   -174.55804806 Eh

Summary of corrections to the electronic energy:
(perhaps to be used in another calculation)
Total thermal correction                  0.00575490 Eh       3.61 kcal/mol
Non-thermal (ZPE) correction              0.13648015 Eh      85.64 kcal/mol
-----------------------------------------------------------------------
Total correction                          0.14223505 Eh      89.25 kcal/mol

--------
ENTHALPY
--------

The enthalpy is H = U + kB*T
                kB is Boltzmann's constant
Total free energy                 ...   -174.55804806 Eh
Thermal Enthalpy correction       ...      0.00094421 Eh       0.59 kcal/mol
-----------------------------------------------------------------------
Total Enthalpy                    ...   -174.55710385 Eh

-------
ENTROPY
-------

The entropy contributions are T*S = T*(S(el)+S(vib)+S(rot)+S(trans)
     S(el)   - electronic entropy
     S(vib)  - vibrational entropy
     S(rot)  - rotational entropy
     S(trans)- translational entropy
The entropies will be listed as mutliplied by the temperature to get
units of energy

Electronic entropy                ...      0.00000000 Eh      0.00 kcal/mol
Vibrational entropy               ...      0.00503851 Eh      3.16 kcal/mol
Rotational entropy                ...      0.01057146 Eh      6.63 kcal/mol
Translational entropy             ...      0.01815060 Eh     11.39 kcal/mol
-----------------------------------------------------------------------
Final entropy term                ...      0.03376057 Eh     21.19 kcal/mol

CAUTION: The rotational entropy is not quite correctly treated here
         because it includes a symmetry number that is not yet correctly
         implemented in ORCA!
For a nonlinear molecule the correct rotational entropy is:
    S(rot) = R*(ln(qrot/sn)+1.5)
    R    = 8.31441 J/mol/K = 1.987191683e-3 kcal/mol/K
    qrot = 48778.3306640
    sn is the rotational symmetry number. We have assumed 3 here
       if it is different for your molecule then you should correct
       the printed rotational entropy by manually evaluating the equation
       as given above

For convenience we print out the resulting values for sn=1 - 12:
 sn= 1  qrot/sn=   48778.3307 T*S(rot)=     7.28 kcal/mol T*S(tot)=    21.84 kcal/mol
 sn= 2  qrot/sn=   24389.1653 T*S(rot)=     6.87 kcal/mol T*S(tot)=    21.43 kcal/mol
 sn= 3  qrot/sn=   16259.4436 T*S(rot)=     6.63 kcal/mol T*S(tot)=    21.19 kcal/mol
 sn= 4  qrot/sn=   12194.5827 T*S(rot)=     6.46 kcal/mol T*S(tot)=    21.01 kcal/mol
 sn= 5  qrot/sn=    9755.6661 T*S(rot)=     6.33 kcal/mol T*S(tot)=    20.88 kcal/mol
 sn= 6  qrot/sn=    8129.7218 T*S(rot)=     6.22 kcal/mol T*S(tot)=    20.77 kcal/mol
 sn= 7  qrot/sn=    6968.3330 T*S(rot)=     6.13 kcal/mol T*S(tot)=    20.68 kcal/mol
 sn= 8  qrot/sn=    6097.2913 T*S(rot)=     6.05 kcal/mol T*S(tot)=    20.60 kcal/mol
 sn= 9  qrot/sn=    5419.8145 T*S(rot)=     5.98 kcal/mol T*S(tot)=    20.53 kcal/mol
 sn=10  qrot/sn=    4877.8331 T*S(rot)=     5.92 kcal/mol T*S(tot)=    20.47 kcal/mol
 sn=11  qrot/sn=    4434.3937 T*S(rot)=     5.86 kcal/mol T*S(tot)=    20.42 kcal/mol
 sn=12  qrot/sn=    4064.8609 T*S(rot)=     5.81 kcal/mol T*S(tot)=    20.36 kcal/mol

-------------------
GIBBS FREE ENTHALPY
-------------------

The Gibbs free enthalpy is G = H - T*S

Total enthalpy                    ...   -174.55710385 Eh
Total entropy correction          ...     -0.03376057 Eh    -21.19 kcal/mol
-----------------------------------------------------------------------
Final Gibbs free enthalpy         ...   -174.59086442 Eh

For completeness - the Gibbs free enthalpy minus the electronic energy
G-E(el)                           ...      0.10941869 Eh     68.66 kcal/mol

                             ****ORCA TERMINATED NORMALLY****
TOTAL RUN TIME: 0 days 0 hours 6 minutes 43 seconds 258 msec
