                         Program Version 3.0.3 - RELEASE   -
|  1> ! NORI PBE0 def2-TZVP UseSym TightOPT Freq TightSCF Grid3 FinalGrid5 XYZFile
|  2> % pal
|  3>     nprocs 8
|  4> end
|  5> %method
|  6>     SymThresh 5.0e-2
|  7> end
|  8> % geom
|  9>     MaxIter 10
| 10> end
| 11> % maxcore 2000
| 12> % output
| 13>     printlevel mini
| 14>     print[ P_Basis ] 0
| 15>     print[ P_SCFInfo ] 1
| 16>     print[ P_SCFIterInfo ] 1
| 17>     print[ P_OrbEn ] 0
| 18>     print[ P_Cartesian ] 0
| 19> end
| 20> % elprop
| 21>     Dipole false
| 22> end
| 23> *xyz 1 1
| 24>  C        0.9796615137    -0.0046450578    -0.1389190878
| 25>  N        2.4459050041     0.0577654305    -0.2254492885
| 26>  C        3.1943315678    -0.7006945688    -1.2510667924
| 27>  C        3.1276550774     0.7669121852    -1.3297357281
| 28>  H        0.6149525516     0.9032702028     0.3398422687
| 29>  H        0.6974453242    -0.8814856028     0.4425296433
| 30>  H        0.5710498442    -0.0812586116    -1.1452726346
| 31>  H        2.9088873521     0.1274555407     0.6755095767
| 32>  H        4.0981583207    -1.1769026296    -0.8937928486
| 33>  H        2.5628279719    -1.2954469078    -1.8985400507
| 34>  H        2.4486182084     1.2298949344    -2.0343577947
| 35>  H        3.9830172638     1.3584050848    -1.0297472634
| 36> *
| 37>
| 38>                          ****END OF INPUT****
 Total Charge           Charge          ....    1
 Multiplicity           Mult            ....    1
 Number of Electrons    NEL             ....   32
FINAL SINGLE POINT ENERGY      -173.453987231147

CARTESIAN COORDINATES (ANGSTROEM)
---------------------------------
  C      0.462266    1.469762   -0.000000
  N      0.489626   -0.000071    0.000000
  C     -0.518677   -0.793445    0.735624
  C     -0.518677   -0.793445   -0.735624
  H      0.966485    1.832306   -0.894733
  H      0.966485    1.832306    0.894733
  H     -0.574788    1.801346   -0.000000
  H      1.425130   -0.394481    0.000000
  H     -0.122472   -1.646678    1.270898
  H     -1.244122   -0.189988    1.265879
  H     -1.244122   -0.189988   -1.265879
  H     -0.122472   -1.646678   -1.270898

FINAL SINGLE POINT ENERGY      -173.453987563984
                    ***********************HURRAY********************
 Multiplicity           Mult            ....    1
 Number of Electrons    NEL             ....   32
 Basis Dimension        Dim             ....  172
FINAL SINGLE POINT ENERGY      -173.453987697218

VIBRATIONAL FREQUENCIES
-----------------------

   0:         0.00 cm**-1
   1:         0.00 cm**-1
   2:         0.00 cm**-1
   3:         0.00 cm**-1
   4:         0.00 cm**-1
   5:         0.00 cm**-1
   6:       209.03 cm**-1
   7:       344.60 cm**-1
   8:       379.57 cm**-1
   9:       775.87 cm**-1
  10:       812.68 cm**-1
  11:       858.06 cm**-1
  12:       927.00 cm**-1
  13:      1023.58 cm**-1
  14:      1081.59 cm**-1
  15:      1155.37 cm**-1
  16:      1160.56 cm**-1
  17:      1166.52 cm**-1
  18:      1199.01 cm**-1
  19:      1218.78 cm**-1
  20:      1267.64 cm**-1
  21:      1288.26 cm**-1
  22:      1452.48 cm**-1
  23:      1460.52 cm**-1
  24:      1475.93 cm**-1
  25:      1484.87 cm**-1
  26:      1498.59 cm**-1
  27:      1525.27 cm**-1
  28:      3085.38 cm**-1
  29:      3173.16 cm**-1
  30:      3174.93 cm**-1
  31:      3185.81 cm**-1
  32:      3187.13 cm**-1
  33:      3271.25 cm**-1
  34:      3281.49 cm**-1
  35:      3544.51 cm**-1

IR SPECTRUM
-----------

 Mode    freq (cm**-1)   T**2         TX         TY         TZ
-------------------------------------------------------------------
   6:       209.03    0.109725  ( -0.000000   0.000000   0.331248)
   7:       344.60    0.110910  ( -0.000000  -0.000001  -0.333032)
   8:       379.57    0.629546  (  0.550696  -0.571210   0.000000)
   9:       775.87    3.375046  (  1.272817   1.324757   0.000000)
  10:       812.68   10.327267  (  3.146515   0.653233   0.000000)
  11:       858.06    0.207465  ( -0.000002  -0.000001   0.455483)
  12:       927.00   21.838182  (  0.000000  -0.000000  -4.673134)
  13:      1023.58   40.802991  ( -4.030396  -4.955694   0.000001)
  14:      1081.59    4.038175  (  1.033007   1.723679  -0.000001)
  15:      1155.37   11.772623  (  0.000001  -0.000001   3.431126)
  16:      1160.56    2.058959  (  1.252719  -0.699753  -0.000001)
  17:      1166.52    0.487265  (  0.000002  -0.000003  -0.698043)
  18:      1199.01    0.026122  (  0.000000   0.000001   0.161624)
  19:      1218.78   10.368909  ( -0.000004  -0.000005  -3.220079)
  20:      1267.64    8.283573  ( -1.232698  -2.600775   0.000003)
  21:      1288.26    5.568714  (  2.150985   0.970556  -0.000003)
  22:      1452.48    8.925483  (  0.862604  -2.860314  -0.000000)
  23:      1460.52   10.177807  (  1.081448   3.001379  -0.000001)
  24:      1475.93   31.277793  (  0.000000   0.000000   5.592655)
  25:      1484.87    0.089475  (  0.000000  -0.000000  -0.299124)
  26:      1498.59   29.119025  ( -5.267509  -1.171483   0.000000)
  27:      1525.27   10.014288  ( -1.442584  -2.816601  -0.000001)
  28:      3085.38    0.099872  ( -0.112079   0.295483  -0.000000)
  29:      3173.16    4.768743  (  0.000001   0.000001   2.183745)
  30:      3174.93    2.086941  (  0.950037   1.088288  -0.000002)
  31:      3185.81    0.472370  ( -0.000000  -0.000000  -0.687291)
  32:      3187.13    0.110785  (  0.252379  -0.217001  -0.000000)
  33:      3271.25    0.015632  ( -0.000000  -0.000000  -0.125028)
  34:      3281.49   13.563609  ( -2.258373   2.909186  -0.000000)
  35:      3544.51  100.422182  ( -9.698601   2.521768  -0.000000)

--------------------------
THERMOCHEMISTRY AT 298.15K
--------------------------

Temperature         ... 298.15 K
Pressure            ... 1.00 atm
Total Mass          ... 58.10 AMU

Throughout the following assumptions are being made:
  (1) The electronic state is orbitally nondegenerate
  (2) There are no thermally accessible electronically excited states
  (3) Hindered rotations indicated by low frequency modes) are not
      treated as such but are treated as vibrations and this may
      case some error
  (4) All equations used are the standard statistical mechanics
      equations for an ideal gas
  (5) All vibrations are strinctly harmonic

------------
INNER ENERGY
------------

The inner energy is: U= E(el) + E(ZPE) + E(vib) + E(rot) + E(trans)
    E(el)   - is the total energy from the electronic structure calculation
              = E(kin-el) + E(nuc-el) + E(el-el) + E(nuc-nuc)
    E(ZPE)  - the the zero temperature vibrational energy from the frequency calculation
    E(vib)  - the the finite temperature correction to E(ZPE) due to population
              of excietd vibrational states
    E(rot)  - is the rotational thermal energy
    E(trans)- is the translational thermal energy

Summary of contributions to the inner energy U:
Electronic energy                ...   -173.45398770 Eh
Zero point energy                ...      0.11315534 Eh      71.01 kcal/mol
Thermal vibrational correction   ...      0.00172426 Eh       1.08 kcal/mol
Thermal rotational correction    ...      0.00141627 Eh       0.89 kcal/mol
Thermal translational correction ...      0.00141627 Eh       0.89 kcal/mol
-----------------------------------------------------------------------
Total thermal energy                   -173.33627555 Eh

Summary of corrections to the electronic energy:
(perhaps to be used in another calculation)
Total thermal correction                  0.00455681 Eh       2.86 kcal/mol
Non-thermal (ZPE) correction              0.11315534 Eh      71.01 kcal/mol
-----------------------------------------------------------------------
Total correction                          0.11771214 Eh      73.87 kcal/mol

--------
ENTHALPY
--------

The enthalpy is H = U + kB*T
                kB is Boltzmann's constant
Total free energy                 ...   -173.33627555 Eh
Thermal Enthalpy correction       ...      0.00094421 Eh       0.59 kcal/mol
-----------------------------------------------------------------------
Total Enthalpy                    ...   -173.33533134 Eh

-------
ENTROPY
-------

The entropy contributions are T*S = T*(S(el)+S(vib)+S(rot)+S(trans)
     S(el)   - electronic entropy
     S(vib)  - vibrational entropy
     S(rot)  - rotational entropy
     S(trans)- translational entropy
The entropies will be listed as mutliplied by the temperature to get
units of energy

Electronic entropy                ...      0.00000000 Eh      0.00 kcal/mol
Vibrational entropy               ...      0.00261966 Eh      1.64 kcal/mol
Rotational entropy                ...      0.01025966 Eh      6.44 kcal/mol
Translational entropy             ...      0.01810230 Eh     11.36 kcal/mol
-----------------------------------------------------------------------
Final entropy term                ...      0.03098161 Eh     19.44 kcal/mol

CAUTION: The rotational entropy is not quite correctly treated here
         because it includes a symmetry number that is not yet correctly
         implemented in ORCA!
For a nonlinear molecule the correct rotational entropy is:
    S(rot) = R*(ln(qrot/sn)+1.5)
    R    = 8.31441 J/mol/K = 1.987191683e-3 kcal/mol/K
    qrot = 35059.8835571
    sn is the rotational symmetry number. We have assumed 3 here
       if it is different for your molecule then you should correct
       the printed rotational entropy by manually evaluating the equation
       as given above

For convenience we print out the resulting values for sn=1 - 12:
 sn= 1  qrot/sn=   35059.8836 T*S(rot)=     7.09 kcal/mol T*S(tot)=    20.09 kcal/mol
 sn= 2  qrot/sn=   17529.9418 T*S(rot)=     6.68 kcal/mol T*S(tot)=    19.68 kcal/mol
 sn= 3  qrot/sn=   11686.6279 T*S(rot)=     6.44 kcal/mol T*S(tot)=    19.44 kcal/mol
 sn= 4  qrot/sn=    8764.9709 T*S(rot)=     6.27 kcal/mol T*S(tot)=    19.27 kcal/mol
 sn= 5  qrot/sn=    7011.9767 T*S(rot)=     6.14 kcal/mol T*S(tot)=    19.14 kcal/mol
 sn= 6  qrot/sn=    5843.3139 T*S(rot)=     6.03 kcal/mol T*S(tot)=    19.03 kcal/mol
 sn= 7  qrot/sn=    5008.5548 T*S(rot)=     5.94 kcal/mol T*S(tot)=    18.94 kcal/mol
 sn= 8  qrot/sn=    4382.4854 T*S(rot)=     5.86 kcal/mol T*S(tot)=    18.86 kcal/mol
 sn= 9  qrot/sn=    3895.5426 T*S(rot)=     5.79 kcal/mol T*S(tot)=    18.79 kcal/mol
 sn=10  qrot/sn=    3505.9884 T*S(rot)=     5.72 kcal/mol T*S(tot)=    18.73 kcal/mol
 sn=11  qrot/sn=    3187.2621 T*S(rot)=     5.67 kcal/mol T*S(tot)=    18.67 kcal/mol
 sn=12  qrot/sn=    2921.6570 T*S(rot)=     5.62 kcal/mol T*S(tot)=    18.62 kcal/mol

-------------------
GIBBS FREE ENTHALPY
-------------------

The Gibbs free enthalpy is G = H - T*S

Total enthalpy                    ...   -173.33533134 Eh
Total entropy correction          ...     -0.03098161 Eh    -19.44 kcal/mol
-----------------------------------------------------------------------
Final Gibbs free enthalpy         ...   -173.36631296 Eh

For completeness - the Gibbs free enthalpy minus the electronic energy
G-E(el)                           ...      0.08767474 Eh     55.02 kcal/mol

                             ****ORCA TERMINATED NORMALLY****
TOTAL RUN TIME: 0 days 0 hours 5 minutes 30 seconds 497 msec
