                         Program Version 3.0.3 - RELEASE   -
|  1> ! NORI PBE0 def2-TZVP UseSym TightOPT Freq TightSCF Grid3 FinalGrid5 XYZFile
|  2> % pal
|  3>     nprocs 8
|  4> end
|  5> %method
|  6>     SymThresh 5.0e-2
|  7> end
|  8> % geom
|  9>     MaxIter 10
| 10> end
| 11> % maxcore 2000
| 12> % output
| 13>     printlevel mini
| 14>     print[ P_Basis ] 0
| 15>     print[ P_SCFInfo ] 1
| 16>     print[ P_SCFIterInfo ] 1
| 17>     print[ P_OrbEn ] 0
| 18>     print[ P_Cartesian ] 0
| 19> end
| 20> % elprop
| 21>     Dipole false
| 22> end
| 23> *xyz 1 1
| 24>  C        1.0351756667     0.0320351680    -0.0617433060
| 25>  N        2.5224948895     0.0886906130    -0.0519121583
| 26>  C        3.0446902439     0.9621323894    -1.1381317627
| 27>  C        3.0460478140     0.4984669916     1.2803378281
| 28>  H        0.6979077211    -0.3069296500    -1.0393993898
| 29>  H        0.6520388870     1.0314374311     0.1386461764
| 30>  H        0.6996345359    -0.6572139748     0.7109458535
| 31>  H        2.8635213100    -0.8568579709    -0.2336985186
| 32>  H        2.6913067397     1.9772430547    -0.9640437664
| 33>  H        2.6753213748     0.5991736376    -2.0954705334
| 34>  H        4.1330236533     0.9385205331    -1.1221452188
| 35>  H        2.6943811995     1.5068163635     1.4924280654
| 36>  H        4.1343875350     0.4805038009     1.2558104130
| 37>  H        2.6761084297    -0.1919183875     2.0359563178
| 38> *
| 39>
| 40>                          ****END OF INPUT****
 Total Charge           Charge          ....    1
 Multiplicity           Mult            ....    1
 Number of Electrons    NEL             ....   34
FINAL SINGLE POINT ENERGY      -174.692525333629
                    ***********************HURRAY********************
 Multiplicity           Mult            ....    1
 Number of Electrons    NEL             ....   34
 Basis Dimension        Dim             ....  184
FINAL SINGLE POINT ENERGY      -174.692525386885

VIBRATIONAL FREQUENCIES
-----------------------

   0:         0.00 cm**-1
   1:         0.00 cm**-1
   2:         0.00 cm**-1
   3:         0.00 cm**-1
   4:         0.00 cm**-1
   5:         0.00 cm**-1
   6:       186.64 cm**-1
   7:       258.15 cm**-1
   8:       258.21 cm**-1
   9:       392.89 cm**-1
  10:       392.90 cm**-1
  11:       451.46 cm**-1
  12:       824.71 cm**-1
  13:       996.08 cm**-1
  14:       996.16 cm**-1
  15:      1053.22 cm**-1
  16:      1053.29 cm**-1
  17:      1071.22 cm**-1
  18:      1256.23 cm**-1
  19:      1256.27 cm**-1
  20:      1279.44 cm**-1
  21:      1423.86 cm**-1
  22:      1423.88 cm**-1
  23:      1444.04 cm**-1
  24:      1444.13 cm**-1
  25:      1467.54 cm**-1
  26:      1484.57 cm**-1
  27:      1484.63 cm**-1
  28:      1485.37 cm**-1
  29:      1502.51 cm**-1
  30:      1502.56 cm**-1
  31:      1512.80 cm**-1
  32:      3086.98 cm**-1
  33:      3087.16 cm**-1
  34:      3090.69 cm**-1
  35:      3188.41 cm**-1
  36:      3188.66 cm**-1
  37:      3189.42 cm**-1
  38:      3190.46 cm**-1
  39:      3192.91 cm**-1
  40:      3193.00 cm**-1
  41:      3461.23 cm**-1

IR SPECTRUM
-----------

 Mode    freq (cm**-1)   T**2         TX         TY         TZ
-------------------------------------------------------------------
   6:       186.64    0.000000  (  0.000000   0.000000  -0.000215)
   7:       258.15    0.069696  (  0.263979  -0.003405   0.000264)
   8:       258.21    0.062942  (  0.000280  -0.000004  -0.250883)
   9:       392.89    0.279497  ( -0.009111  -0.000006   0.528596)
  10:       392.90    0.285253  ( -0.534015  -0.000287  -0.009018)
  11:       451.46    0.001682  ( -0.000059  -0.041018  -0.000001)
  12:       824.71    1.350138  (  0.000626   1.161954  -0.000001)
  13:       996.08   23.181283  (  4.814691  -0.005632  -0.002220)
  14:       996.16   23.175733  (  0.002221  -0.000003   4.814118)
  15:      1053.22    1.438270  (  0.000406  -0.000003   1.199279)
  16:      1053.29    1.444433  ( -1.201821   0.007713   0.000405)
  17:      1071.22    0.000008  ( -0.000005   0.000000  -0.002878)
  18:      1256.23    0.009261  ( -0.095786  -0.009290   0.000094)
  19:      1256.27    0.007867  (  0.000100   0.000010   0.088697)
  20:      1279.44    0.303539  (  0.006415   0.550907   0.000001)
  21:      1423.86    4.768837  (  0.000965  -0.000001   2.183767)
  22:      1423.88    4.757960  (  2.181274  -0.001390  -0.000967)
  23:      1444.04    5.074186  ( -0.000248   0.000003   2.252595)
  24:      1444.13    5.070915  (  2.251846  -0.010298   0.000247)
  25:      1467.54    0.000007  ( -0.000001   0.000004  -0.002571)
  26:      1484.57    2.860198  (  0.000033  -0.000020   1.691212)
  27:      1484.63    2.841815  (  1.679252   0.148083  -0.000036)
  28:      1485.37    8.916531  (  0.056013  -2.985531  -0.000008)
  29:      1502.51   40.410847  (  6.356941  -0.012279   0.001671)
  30:      1502.56   40.421465  ( -0.001670   0.000005   6.357788)
  31:      1512.80   49.994780  (  0.009428   7.070692   0.000000)
  32:      3086.98    0.045003  (  0.000017   0.000000  -0.212140)
  33:      3087.16    0.044734  (  0.211428   0.005672   0.000017)
  34:      3090.69    0.003079  ( -0.003778  -0.055361   0.000001)
  35:      3188.41    0.097353  ( -0.000001  -0.000000  -0.312014)
  36:      3188.66    0.095033  ( -0.307918   0.014813  -0.000000)
  37:      3189.42    0.001556  ( -0.000007  -0.000003  -0.039443)
  38:      3190.46    0.025735  (  0.049948   0.152446  -0.000001)
  39:      3192.91    0.014055  (  0.118118  -0.010133   0.000074)
  40:      3193.00    0.016001  ( -0.000073   0.000005   0.126496)
  41:      3461.23   64.018758  (  0.001174   8.001172  -0.000000)

--------------------------
THERMOCHEMISTRY AT 298.15K
--------------------------

Temperature         ... 298.15 K
Pressure            ... 1.00 atm
Total Mass          ... 60.12 AMU

Throughout the following assumptions are being made:
  (1) The electronic state is orbitally nondegenerate
  (2) There are no thermally accessible electronically excited states
  (3) Hindered rotations indicated by low frequency modes) are not
      treated as such but are treated as vibrations and this may
      case some error
  (4) All equations used are the standard statistical mechanics
      equations for an ideal gas
  (5) All vibrations are strinctly harmonic

------------
INNER ENERGY
------------

The inner energy is: U= E(el) + E(ZPE) + E(vib) + E(rot) + E(trans)
    E(el)   - is the total energy from the electronic structure calculation
              = E(kin-el) + E(nuc-el) + E(el-el) + E(nuc-nuc)
    E(ZPE)  - the the zero temperature vibrational energy from the frequency calculation
    E(vib)  - the the finite temperature correction to E(ZPE) due to population
              of excietd vibrational states
    E(rot)  - is the rotational thermal energy
    E(trans)- is the translational thermal energy

Summary of contributions to the inner energy U:
Electronic energy                ...   -174.69252539 Eh
Zero point energy                ...      0.13616989 Eh      85.45 kcal/mol
Thermal vibrational correction   ...      0.00276226 Eh       1.73 kcal/mol
Thermal rotational correction    ...      0.00141627 Eh       0.89 kcal/mol
Thermal translational correction ...      0.00141627 Eh       0.89 kcal/mol
-----------------------------------------------------------------------
Total thermal energy                   -174.55076070 Eh

Summary of corrections to the electronic energy:
(perhaps to be used in another calculation)
Total thermal correction                  0.00559480 Eh       3.51 kcal/mol
Non-thermal (ZPE) correction              0.13616989 Eh      85.45 kcal/mol
-----------------------------------------------------------------------
Total correction                          0.14176469 Eh      88.96 kcal/mol

--------
ENTHALPY
--------

The enthalpy is H = U + kB*T
                kB is Boltzmann's constant
Total free energy                 ...   -174.55076070 Eh
Thermal Enthalpy correction       ...      0.00094421 Eh       0.59 kcal/mol
-----------------------------------------------------------------------
Total Enthalpy                    ...   -174.54981649 Eh

-------
ENTROPY
-------

The entropy contributions are T*S = T*(S(el)+S(vib)+S(rot)+S(trans)
     S(el)   - electronic entropy
     S(vib)  - vibrational entropy
     S(rot)  - rotational entropy
     S(trans)- translational entropy
The entropies will be listed as mutliplied by the temperature to get
units of energy

Electronic entropy                ...      0.00000000 Eh      0.00 kcal/mol
Vibrational entropy               ...      0.00438135 Eh      2.75 kcal/mol
Rotational entropy                ...      0.01056630 Eh      6.63 kcal/mol
Translational entropy             ...      0.01815060 Eh     11.39 kcal/mol
-----------------------------------------------------------------------
Final entropy term                ...      0.03309825 Eh     20.77 kcal/mol

CAUTION: The rotational entropy is not quite correctly treated here
         because it includes a symmetry number that is not yet correctly
         implemented in ORCA!
For a nonlinear molecule the correct rotational entropy is:
    S(rot) = R*(ln(qrot/sn)+1.5)
    R    = 8.31441 J/mol/K = 1.987191683e-3 kcal/mol/K
    qrot = 48512.5821595
    sn is the rotational symmetry number. We have assumed 3 here
       if it is different for your molecule then you should correct
       the printed rotational entropy by manually evaluating the equation
       as given above

For convenience we print out the resulting values for sn=1 - 12:
 sn= 1  qrot/sn=   48512.5822 T*S(rot)=     7.28 kcal/mol T*S(tot)=    21.42 kcal/mol
 sn= 2  qrot/sn=   24256.2911 T*S(rot)=     6.87 kcal/mol T*S(tot)=    21.01 kcal/mol
 sn= 3  qrot/sn=   16170.8607 T*S(rot)=     6.63 kcal/mol T*S(tot)=    20.77 kcal/mol
 sn= 4  qrot/sn=   12128.1455 T*S(rot)=     6.46 kcal/mol T*S(tot)=    20.60 kcal/mol
 sn= 5  qrot/sn=    9702.5164 T*S(rot)=     6.33 kcal/mol T*S(tot)=    20.47 kcal/mol
 sn= 6  qrot/sn=    8085.4304 T*S(rot)=     6.22 kcal/mol T*S(tot)=    20.36 kcal/mol
 sn= 7  qrot/sn=    6930.3689 T*S(rot)=     6.13 kcal/mol T*S(tot)=    20.27 kcal/mol
 sn= 8  qrot/sn=    6064.0728 T*S(rot)=     6.05 kcal/mol T*S(tot)=    20.19 kcal/mol
 sn= 9  qrot/sn=    5390.2869 T*S(rot)=     5.98 kcal/mol T*S(tot)=    20.12 kcal/mol
 sn=10  qrot/sn=    4851.2582 T*S(rot)=     5.92 kcal/mol T*S(tot)=    20.06 kcal/mol
 sn=11  qrot/sn=    4410.2347 T*S(rot)=     5.86 kcal/mol T*S(tot)=    20.00 kcal/mol
 sn=12  qrot/sn=    4042.7152 T*S(rot)=     5.81 kcal/mol T*S(tot)=    19.95 kcal/mol

-------------------
GIBBS FREE ENTHALPY
-------------------

The Gibbs free enthalpy is G = H - T*S

Total enthalpy                    ...   -174.54981649 Eh
Total entropy correction          ...     -0.03309825 Eh    -20.77 kcal/mol
-----------------------------------------------------------------------
Final Gibbs free enthalpy         ...   -174.58291474 Eh

For completeness - the Gibbs free enthalpy minus the electronic energy
G-E(el)                           ...      0.10961064 Eh     68.78 kcal/mol

                             ****ORCA TERMINATED NORMALLY****
TOTAL RUN TIME: 0 days 0 hours 6 minutes 52 seconds 212 msec
