                         Program Version 3.0.3 - RELEASE   -
|  1> ! NORI PBE0 def2-TZVP UseSym TightOPT Freq TightSCF Grid3 FinalGrid5 XYZFile
|  2> % pal
|  3>     nprocs 8
|  4> end
|  5> %method
|  6>     SymThresh 5.0e-2
|  7> end
|  8> % geom
|  9>     MaxIter 10
| 10> end
| 11> % maxcore 2000
| 12> % output
| 13>     printlevel mini
| 14>     print[ P_Basis ] 0
| 15>     print[ P_SCFInfo ] 1
| 16>     print[ P_SCFIterInfo ] 1
| 17>     print[ P_OrbEn ] 0
| 18>     print[ P_Cartesian ] 0
| 19> end
| 20> % elprop
| 21>     Dipole false
| 22> end
| 23> *xyz 1 1
| 24>  N        1.0583959591    -0.0826083339    -0.0406669820
| 25>  C        2.5391714177    -0.0025768653    -0.0773431335
| 26>  C        3.2550593343    -0.7517782250    -1.1445675966
| 27>  C        3.1725031626     0.7446176841    -1.1969210298
| 28>  H        0.6506642600     0.7403858901     0.4116816153
| 29>  H        0.7415996832    -0.9128007126     0.4679369366
| 30>  H        0.6705714541    -0.1359721293    -0.9854951866
| 31>  H        2.9432150952     0.0547805804     0.9249533365
| 32>  H        4.1894656743    -1.2223179689    -0.8692963686
| 33>  H        2.6712999592    -1.3120211030    -1.8669686778
| 34>  H        2.5331175592     1.1856178818    -1.9541199141
| 35>  H        4.0484464412     1.3333033016    -0.9591329994
| 36> *
| 37>
| 38>                          ****END OF INPUT****
 Total Charge           Charge          ....    1
 Multiplicity           Mult            ....    1
 Number of Electrons    NEL             ....   32
FINAL SINGLE POINT ENERGY      -173.460995021204

CARTESIAN COORDINATES (ANGSTROEM)
---------------------------------
  N      1.478682    0.000004   -0.000000
  C      0.089732   -0.520956    0.000000
  C     -0.944040    0.241855    0.749794
  C     -0.944040    0.241855   -0.749794
  H      1.994181   -0.310281   -0.828265
  H      1.994181   -0.310281    0.828265
  H      1.486341    1.022766   -0.000000
  H      0.087835   -1.603047    0.000000
  H     -1.689210   -0.335592    1.280681
  H     -0.651415    1.157788    1.251564
  H     -0.651415    1.157788   -1.251564
  H     -1.689210   -0.335592   -1.280681

FINAL SINGLE POINT ENERGY      -173.460995210978
                    ***********************HURRAY********************
 Multiplicity           Mult            ....    1
 Number of Electrons    NEL             ....   32
 Basis Dimension        Dim             ....  172
FINAL SINGLE POINT ENERGY      -173.460995297173

VIBRATIONAL FREQUENCIES
-----------------------

   0:         0.00 cm**-1
   1:         0.00 cm**-1
   2:         0.00 cm**-1
   3:         0.00 cm**-1
   4:         0.00 cm**-1
   5:         0.00 cm**-1
   6:       208.25 cm**-1
   7:       356.02 cm**-1
   8:       364.78 cm**-1
   9:       748.26 cm**-1
  10:       802.82 cm**-1
  11:       832.59 cm**-1
  12:       917.98 cm**-1
  13:       940.66 cm**-1
  14:      1008.80 cm**-1
  15:      1078.00 cm**-1
  16:      1102.05 cm**-1
  17:      1122.46 cm**-1
  18:      1176.70 cm**-1
  19:      1191.68 cm**-1
  20:      1214.38 cm**-1
  21:      1257.92 cm**-1
  22:      1423.33 cm**-1
  23:      1463.31 cm**-1
  24:      1502.92 cm**-1
  25:      1525.40 cm**-1
  26:      1652.98 cm**-1
  27:      1660.66 cm**-1
  28:      3156.42 cm**-1
  29:      3159.59 cm**-1
  30:      3217.29 cm**-1
  31:      3245.21 cm**-1
  32:      3256.10 cm**-1
  33:      3407.70 cm**-1
  34:      3483.33 cm**-1
  35:      3493.89 cm**-1

IR SPECTRUM
-----------

 Mode    freq (cm**-1)   T**2         TX         TY         TZ
-------------------------------------------------------------------
   6:       208.25    0.000071  ( -0.000001   0.000000   0.008407)
   7:       356.02    8.136965  ( -0.000004   0.000001   2.852537)
   8:       364.78    9.685685  (  2.910236  -1.102821  -0.000003)
   9:       748.26    0.560741  ( -0.676020   0.322084   0.000008)
  10:       802.82   11.298485  ( -1.892611   2.777860   0.000006)
  11:       832.59   14.693150  ( -0.000000   0.000000  -3.833164)
  12:       917.98    0.151111  ( -0.000004   0.000007   0.388730)
  13:       940.66   15.866255  (  2.275950  -3.268991  -0.000002)
  14:      1008.80    1.171790  ( -0.909089   0.587663   0.000003)
  15:      1078.00   19.487813  (  3.733518  -2.355558  -0.000010)
  16:      1102.05   12.755810  ( -0.000001   0.000001  -3.571528)
  17:      1122.46    1.968733  (  0.000000  -0.000001  -1.403115)
  18:      1176.70   13.595795  ( -0.000000  -0.000001  -3.687248)
  19:      1191.68    0.930471  ( -0.000001  -0.000005  -0.964609)
  20:      1214.38    5.312162  (  0.316936   2.282918   0.000006)
  21:      1257.92    0.360575  ( -0.590276   0.110222  -0.000005)
  22:      1423.33    4.437392  (  1.779828  -1.126767  -0.000002)
  23:      1463.31   13.617901  (  0.000000   0.000000   3.690244)
  24:      1502.92   67.557640  ( -8.155119  -1.025513  -0.000004)
  25:      1525.40   70.873302  ( -6.616074  -5.205849  -0.000008)
  26:      1652.98   32.865050  ( -0.000000   0.000000  -5.732805)
  27:      1660.66   48.221547  (  1.917252  -6.674256  -0.000012)
  28:      3156.42    0.075079  ( -0.000000  -0.000000  -0.274005)
  29:      3159.59    4.929227  ( -2.174455  -0.448301   0.000009)
  30:      3217.29    1.102799  (  0.190498   1.032720   0.000001)
  31:      3245.21    0.304569  (  0.000000   0.000000   0.551878)
  32:      3256.10    2.701122  (  1.046409   1.267340  -0.000012)
  33:      3407.70   39.806298  (  6.297629   0.382315  -0.000006)
  34:      3483.33  103.175969  ( -0.000000   0.000000 -10.157557)
  35:      3493.89   90.650347  (  2.760181  -9.112176  -0.000003)

--------------------------
THERMOCHEMISTRY AT 298.15K
--------------------------

Temperature         ... 298.15 K
Pressure            ... 1.00 atm
Total Mass          ... 58.10 AMU

Throughout the following assumptions are being made:
  (1) The electronic state is orbitally nondegenerate
  (2) There are no thermally accessible electronically excited states
  (3) Hindered rotations indicated by low frequency modes) are not
      treated as such but are treated as vibrations and this may
      case some error
  (4) All equations used are the standard statistical mechanics
      equations for an ideal gas
  (5) All vibrations are strinctly harmonic

------------
INNER ENERGY
------------

The inner energy is: U= E(el) + E(ZPE) + E(vib) + E(rot) + E(trans)
    E(el)   - is the total energy from the electronic structure calculation
              = E(kin-el) + E(nuc-el) + E(el-el) + E(nuc-nuc)
    E(ZPE)  - the the zero temperature vibrational energy from the frequency calculation
    E(vib)  - the the finite temperature correction to E(ZPE) due to population
              of excietd vibrational states
    E(rot)  - is the rotational thermal energy
    E(trans)- is the translational thermal energy

Summary of contributions to the inner energy U:
Electronic energy                ...   -173.46099530 Eh
Zero point energy                ...      0.11384340 Eh      71.44 kcal/mol
Thermal vibrational correction   ...      0.00178849 Eh       1.12 kcal/mol
Thermal rotational correction    ...      0.00141627 Eh       0.89 kcal/mol
Thermal translational correction ...      0.00141627 Eh       0.89 kcal/mol
-----------------------------------------------------------------------
Total thermal energy                   -173.34253086 Eh

Summary of corrections to the electronic energy:
(perhaps to be used in another calculation)
Total thermal correction                  0.00462104 Eh       2.90 kcal/mol
Non-thermal (ZPE) correction              0.11384340 Eh      71.44 kcal/mol
-----------------------------------------------------------------------
Total correction                          0.11846443 Eh      74.34 kcal/mol

--------
ENTHALPY
--------

The enthalpy is H = U + kB*T
                kB is Boltzmann's constant
Total free energy                 ...   -173.34253086 Eh
Thermal Enthalpy correction       ...      0.00094421 Eh       0.59 kcal/mol
-----------------------------------------------------------------------
Total Enthalpy                    ...   -173.34158665 Eh

-------
ENTROPY
-------

The entropy contributions are T*S = T*(S(el)+S(vib)+S(rot)+S(trans)
     S(el)   - electronic entropy
     S(vib)  - vibrational entropy
     S(rot)  - rotational entropy
     S(trans)- translational entropy
The entropies will be listed as mutliplied by the temperature to get
units of energy

Electronic entropy                ...      0.00000000 Eh      0.00 kcal/mol
Vibrational entropy               ...      0.00270421 Eh      1.70 kcal/mol
Rotational entropy                ...      0.01031134 Eh      6.47 kcal/mol
Translational entropy             ...      0.01810230 Eh     11.36 kcal/mol
-----------------------------------------------------------------------
Final entropy term                ...      0.03111785 Eh     19.53 kcal/mol

CAUTION: The rotational entropy is not quite correctly treated here
         because it includes a symmetry number that is not yet correctly
         implemented in ORCA!
For a nonlinear molecule the correct rotational entropy is:
    S(rot) = R*(ln(qrot/sn)+1.5)
    R    = 8.31441 J/mol/K = 1.987191683e-3 kcal/mol/K
    qrot = 37032.5283993
    sn is the rotational symmetry number. We have assumed 3 here
       if it is different for your molecule then you should correct
       the printed rotational entropy by manually evaluating the equation
       as given above

For convenience we print out the resulting values for sn=1 - 12:
 sn= 1  qrot/sn=   37032.5284 T*S(rot)=     7.12 kcal/mol T*S(tot)=    20.18 kcal/mol
 sn= 2  qrot/sn=   18516.2642 T*S(rot)=     6.71 kcal/mol T*S(tot)=    19.77 kcal/mol
 sn= 3  qrot/sn=   12344.1761 T*S(rot)=     6.47 kcal/mol T*S(tot)=    19.53 kcal/mol
 sn= 4  qrot/sn=    9258.1321 T*S(rot)=     6.30 kcal/mol T*S(tot)=    19.36 kcal/mol
 sn= 5  qrot/sn=    7406.5057 T*S(rot)=     6.17 kcal/mol T*S(tot)=    19.22 kcal/mol
 sn= 6  qrot/sn=    6172.0881 T*S(rot)=     6.06 kcal/mol T*S(tot)=    19.12 kcal/mol
 sn= 7  qrot/sn=    5290.3612 T*S(rot)=     5.97 kcal/mol T*S(tot)=    19.02 kcal/mol
 sn= 8  qrot/sn=    4629.0660 T*S(rot)=     5.89 kcal/mol T*S(tot)=    18.95 kcal/mol
 sn= 9  qrot/sn=    4114.7254 T*S(rot)=     5.82 kcal/mol T*S(tot)=    18.88 kcal/mol
 sn=10  qrot/sn=    3703.2528 T*S(rot)=     5.76 kcal/mol T*S(tot)=    18.81 kcal/mol
 sn=11  qrot/sn=    3366.5935 T*S(rot)=     5.70 kcal/mol T*S(tot)=    18.76 kcal/mol
 sn=12  qrot/sn=    3086.0440 T*S(rot)=     5.65 kcal/mol T*S(tot)=    18.71 kcal/mol

-------------------
GIBBS FREE ENTHALPY
-------------------

The Gibbs free enthalpy is G = H - T*S

Total enthalpy                    ...   -173.34158665 Eh
Total entropy correction          ...     -0.03111785 Eh    -19.53 kcal/mol
-----------------------------------------------------------------------
Final Gibbs free enthalpy         ...   -173.37270451 Eh

For completeness - the Gibbs free enthalpy minus the electronic energy
G-E(el)                           ...      0.08829079 Eh     55.40 kcal/mol

                             ****ORCA TERMINATED NORMALLY****
TOTAL RUN TIME: 0 days 0 hours 5 minutes 2 seconds 690 msec
