                         Program Version 3.0.3 - RELEASE   -
|  1> ! NORI PBE0 def2-TZVP UseSym TightOPT Freq TightSCF Grid3 FinalGrid5 XYZFile
|  2> % pal
|  3>     nprocs 8
|  4> end
|  5> %method
|  6>     SymThresh 5.0e-2
|  7> end
|  8> % geom
|  9>     MaxIter 10
| 10> end
| 11> % maxcore 2000
| 12> % output
| 13>     printlevel mini
| 14>     print[ P_Basis ] 0
| 15>     print[ P_SCFInfo ] 1
| 16>     print[ P_SCFIterInfo ] 1
| 17>     print[ P_OrbEn ] 0
| 18>     print[ P_Cartesian ] 0
| 19> end
| 20> % elprop
| 21>     Dipole false
| 22> end
| 23> *xyz 1 1
| 24>  N        0.9682729647    -0.1356444336    -0.1278075774
| 25>  C        2.4645947768     0.1079153489    -0.0340312835
| 26>  C        2.8640114044     1.1968661899    -0.9642096868
| 27>  C        3.2972588727     2.3756915069    -0.5396118948
| 28>  H        0.6609122384    -0.8812633374     0.5008204288
| 29>  H        0.7004339187    -0.3964071238    -1.0793633255
| 30>  H        0.4565377594     0.7177890413     0.1082290955
| 31>  H        2.6703006043     0.3584087104     1.0065046858
| 32>  H        2.9360952182    -0.8477741875    -0.2714181396
| 33>  H        2.8227663219     0.9760590405    -2.0285764780
| 34>  H        3.3822271414     2.6116016121     0.5168707293
| 35>  H        3.6055687791     3.1445476323    -1.2375265537
| 36> *
| 37>
| 38>                          ****END OF INPUT****
 Total Charge           Charge          ....    1
 Multiplicity           Mult            ....    1
 Number of Electrons    NEL             ....   32
FINAL SINGLE POINT ENERGY      -173.465324571234

CARTESIAN COORDINATES (ANGSTROEM)
---------------------------------
  N      0.000077    0.000067    1.676850
  C      0.738122   -0.000046    0.349126
  C     -0.175741   -0.426927   -0.743609
  C     -0.576907    0.397086   -1.701512
  H      0.602731    0.289128    2.450744
  H     -0.362980   -0.931187    1.892028
  H     -0.800226    0.635456    1.635437
  H      1.108649    1.014534    0.203734
  H      1.586301   -0.674612    0.481405
  H     -0.481138   -1.470718   -0.751577
  H     -0.259796    1.434938   -1.738418
  H     -1.223532    0.055541   -2.500625

FINAL SINGLE POINT ENERGY      -173.465324796563
                    ***********************HURRAY********************
 Multiplicity           Mult            ....    1
 Number of Electrons    NEL             ....   32
 Basis Dimension        Dim             ....  172
FINAL SINGLE POINT ENERGY      -173.465324846201

VIBRATIONAL FREQUENCIES
-----------------------

   0:         0.00 cm**-1
   1:         0.00 cm**-1
   2:         0.00 cm**-1
   3:         0.00 cm**-1
   4:         0.00 cm**-1
   5:         0.00 cm**-1
   6:       114.91 cm**-1
   7:       217.30 cm**-1
   8:       333.45 cm**-1
   9:       429.94 cm**-1
  10:       661.22 cm**-1
  11:       849.34 cm**-1
  12:       855.15 cm**-1
  13:       954.71 cm**-1
  14:       998.13 cm**-1
  15:      1019.76 cm**-1
  16:      1036.17 cm**-1
  17:      1105.15 cm**-1
  18:      1209.99 cm**-1
  19:      1329.19 cm**-1
  20:      1337.39 cm**-1
  21:      1392.35 cm**-1
  22:      1459.47 cm**-1
  23:      1490.28 cm**-1
  24:      1502.38 cm**-1
  25:      1653.78 cm**-1
  26:      1662.24 cm**-1
  27:      1722.60 cm**-1
  28:      3096.01 cm**-1
  29:      3155.50 cm**-1
  30:      3161.22 cm**-1
  31:      3172.73 cm**-1
  32:      3258.26 cm**-1
  33:      3415.80 cm**-1
  34:      3502.28 cm**-1
  35:      3505.74 cm**-1

IR SPECTRUM
-----------

 Mode    freq (cm**-1)   T**2         TX         TY         TZ
-------------------------------------------------------------------
   6:       114.91    6.870405  (  1.760985  -1.454150   1.286385)
   7:       217.30    0.075351  (  0.174466   0.211818  -0.006758)
   8:       333.45    6.123894  (  1.610152   0.888256   1.655991)
   9:       429.94    2.082733  (  0.274390  -0.156594   1.408163)
  10:       661.22   18.232778  ( -2.697293   1.484299   2.958758)
  11:       849.34   12.646832  ( -0.639810   2.762448  -2.146243)
  12:       855.15   19.969302  (  0.380450   1.096882   4.315253)
  13:       954.71   14.983610  (  0.874624  -0.425356  -3.746694)
  14:       998.13    6.883280  ( -1.943366  -1.623034  -0.687290)
  15:      1019.76   46.749782  (  4.522192  -1.782794  -4.808451)
  16:      1036.17   15.221231  ( -3.390035   1.268257   1.456165)
  17:      1105.15   21.727739  (  4.625849   0.109988   0.563172)
  18:      1209.99    5.669938  (  1.529436   1.124342   1.437574)
  19:      1329.19    9.444892  (  0.762704  -1.952646   2.247298)
  20:      1337.39    5.194446  (  0.790666  -1.967759   0.834996)
  21:      1392.35   12.158205  ( -1.371502   0.149314  -3.202326)
  22:      1459.47   36.357988  (  1.552412  -2.091284   5.438248)
  23:      1490.28   15.419702  ( -3.181782  -2.162512   0.787086)
  24:      1502.38  134.105804  ( -5.401031   0.461955  10.233341)
  25:      1653.78   50.678958  ( -1.187766   7.003599  -0.466667)
  26:      1662.24   37.784587  ( -5.087915  -0.909186  -3.327325)
  27:      1722.60    1.905952  ( -0.003061  -0.057142  -1.379376)
  28:      3096.01    1.618818  ( -0.773518  -0.317075  -0.959141)
  29:      3155.50    0.176053  ( -0.145032  -0.364558  -0.148713)
  30:      3161.22    1.361672  ( -0.729550  -0.544667  -0.729909)
  31:      3172.73    0.177668  (  0.181650   0.206558  -0.319383)
  32:      3258.26    0.531135  (  0.364968  -0.004306   0.630805)
  33:      3415.80   41.958583  (  2.392761  -0.146955  -6.017614)
  34:      3502.28   98.579389  ( -4.368106   8.462752  -2.807288)
  35:      3505.74   96.735628  ( -7.461043  -5.226290  -3.708687)

--------------------------
THERMOCHEMISTRY AT 298.15K
--------------------------

Temperature         ... 298.15 K
Pressure            ... 1.00 atm
Total Mass          ... 58.10 AMU

Throughout the following assumptions are being made:
  (1) The electronic state is orbitally nondegenerate
  (2) There are no thermally accessible electronically excited states
  (3) Hindered rotations indicated by low frequency modes) are not
      treated as such but are treated as vibrations and this may
      case some error
  (4) All equations used are the standard statistical mechanics
      equations for an ideal gas
  (5) All vibrations are strinctly harmonic

------------
INNER ENERGY
------------

The inner energy is: U= E(el) + E(ZPE) + E(vib) + E(rot) + E(trans)
    E(el)   - is the total energy from the electronic structure calculation
              = E(kin-el) + E(nuc-el) + E(el-el) + E(nuc-nuc)
    E(ZPE)  - the the zero temperature vibrational energy from the frequency calculation
    E(vib)  - the the finite temperature correction to E(ZPE) due to population
              of excietd vibrational states
    E(rot)  - is the rotational thermal energy
    E(trans)- is the translational thermal energy

Summary of contributions to the inner energy U:
Electronic energy                ...   -173.46532485 Eh
Zero point energy                ...      0.11300266 Eh      70.91 kcal/mol
Thermal vibrational correction   ...      0.00239818 Eh       1.50 kcal/mol
Thermal rotational correction    ...      0.00141627 Eh       0.89 kcal/mol
Thermal translational correction ...      0.00141627 Eh       0.89 kcal/mol
-----------------------------------------------------------------------
Total thermal energy                   -173.34709146 Eh

Summary of corrections to the electronic energy:
(perhaps to be used in another calculation)
Total thermal correction                  0.00523073 Eh       3.28 kcal/mol
Non-thermal (ZPE) correction              0.11300266 Eh      70.91 kcal/mol
-----------------------------------------------------------------------
Total correction                          0.11823339 Eh      74.19 kcal/mol

--------
ENTHALPY
--------

The enthalpy is H = U + kB*T
                kB is Boltzmann's constant
Total free energy                 ...   -173.34709146 Eh
Thermal Enthalpy correction       ...      0.00094421 Eh       0.59 kcal/mol
-----------------------------------------------------------------------
Total Enthalpy                    ...   -173.34614725 Eh

-------
ENTROPY
-------

The entropy contributions are T*S = T*(S(el)+S(vib)+S(rot)+S(trans)
     S(el)   - electronic entropy
     S(vib)  - vibrational entropy
     S(rot)  - rotational entropy
     S(trans)- translational entropy
The entropies will be listed as mutliplied by the temperature to get
units of energy

Electronic entropy                ...      0.00000000 Eh      0.00 kcal/mol
Vibrational entropy               ...      0.00406529 Eh      2.55 kcal/mol
Rotational entropy                ...      0.01050227 Eh      6.59 kcal/mol
Translational entropy             ...      0.01810230 Eh     11.36 kcal/mol
-----------------------------------------------------------------------
Final entropy term                ...      0.03266986 Eh     20.50 kcal/mol

CAUTION: The rotational entropy is not quite correctly treated here
         because it includes a symmetry number that is not yet correctly
         implemented in ORCA!
For a nonlinear molecule the correct rotational entropy is:
    S(rot) = R*(ln(qrot/sn)+1.5)
    R    = 8.31441 J/mol/K = 1.987191683e-3 kcal/mol/K
    qrot = 45331.9532917
    sn is the rotational symmetry number. We have assumed 3 here
       if it is different for your molecule then you should correct
       the printed rotational entropy by manually evaluating the equation
       as given above

For convenience we print out the resulting values for sn=1 - 12:
 sn= 1  qrot/sn=   45331.9533 T*S(rot)=     7.24 kcal/mol T*S(tot)=    21.15 kcal/mol
 sn= 2  qrot/sn=   22665.9766 T*S(rot)=     6.83 kcal/mol T*S(tot)=    20.74 kcal/mol
 sn= 3  qrot/sn=   15110.6511 T*S(rot)=     6.59 kcal/mol T*S(tot)=    20.50 kcal/mol
 sn= 4  qrot/sn=   11332.9883 T*S(rot)=     6.42 kcal/mol T*S(tot)=    20.33 kcal/mol
 sn= 5  qrot/sn=    9066.3907 T*S(rot)=     6.29 kcal/mol T*S(tot)=    20.20 kcal/mol
 sn= 6  qrot/sn=    7555.3255 T*S(rot)=     6.18 kcal/mol T*S(tot)=    20.09 kcal/mol
 sn= 7  qrot/sn=    6475.9933 T*S(rot)=     6.09 kcal/mol T*S(tot)=    20.00 kcal/mol
 sn= 8  qrot/sn=    5666.4942 T*S(rot)=     6.01 kcal/mol T*S(tot)=    19.92 kcal/mol
 sn= 9  qrot/sn=    5036.8837 T*S(rot)=     5.94 kcal/mol T*S(tot)=    19.85 kcal/mol
 sn=10  qrot/sn=    4533.1953 T*S(rot)=     5.88 kcal/mol T*S(tot)=    19.79 kcal/mol
 sn=11  qrot/sn=    4121.0867 T*S(rot)=     5.82 kcal/mol T*S(tot)=    19.73 kcal/mol
 sn=12  qrot/sn=    3777.6628 T*S(rot)=     5.77 kcal/mol T*S(tot)=    19.68 kcal/mol

-------------------
GIBBS FREE ENTHALPY
-------------------

The Gibbs free enthalpy is G = H - T*S

Total enthalpy                    ...   -173.34614725 Eh
Total entropy correction          ...     -0.03266986 Eh    -20.50 kcal/mol
-----------------------------------------------------------------------
Final Gibbs free enthalpy         ...   -173.37881710 Eh

For completeness - the Gibbs free enthalpy minus the electronic energy
G-E(el)                           ...      0.08650774 Eh     54.28 kcal/mol

                             ****ORCA TERMINATED NORMALLY****
TOTAL RUN TIME: 0 days 0 hours 4 minutes 59 seconds 541 msec
