                         Program Version 3.0.3 - RELEASE   -
|  1> ! NORI PBE0 def2-TZVP UseSym TightOPT Freq TightSCF Grid3 FinalGrid5 XYZFile
|  2> % pal
|  3>     nprocs 8
|  4> end
|  5> %method
|  6>     SymThresh 5.0e-2
|  7> end
|  8> % geom
|  9>     MaxIter 10
| 10> end
| 11> % maxcore 2000
| 12> % output
| 13>     printlevel mini
| 14>     print[ P_Basis ] 0
| 15>     print[ P_SCFInfo ] 1
| 16>     print[ P_SCFIterInfo ] 1
| 17>     print[ P_OrbEn ] 0
| 18>     print[ P_Cartesian ] 0
| 19> end
| 20> % elprop
| 21>     Dipole false
| 22> end
| 23> *xyz 1 1
| 24>  N        1.0126639952    -0.0718531362    -0.0921490518
| 25>  C        2.5264132831    -0.0643629830    -0.0582039282
| 26>  C        2.9870002084    -0.8666776353     1.0469478115
| 27>  C        3.3606672584    -1.5349088338     1.9680906653
| 28>  H        0.6470105151     0.4907789326    -0.8642694149
| 29>  H        0.6360401044     0.2966360066     0.7849617257
| 30>  H        0.6642953851    -1.0283946072    -0.1942570425
| 31>  H        2.8364351190     0.9791637713     0.0301752620
| 32>  H        2.8671278783    -0.4506428241    -1.0211783779
| 33>  H        3.7056662530    -2.1277486908     2.7873223508
| 34> *
| 35>
| 36>                          ****END OF INPUT****
 Total Charge           Charge          ....    1
 Multiplicity           Mult            ....    1
 Number of Electrons    NEL             ....   30
FINAL SINGLE POINT ENERGY      -172.204771645260

CARTESIAN COORDINATES (ANGSTROEM)
---------------------------------
  N      1.612307   -0.000029   -0.000000
  C      0.335804   -0.814944   -0.000000
  C     -0.801518    0.070487   -0.000000
  C     -1.740754    0.813686    0.000000
  H      2.443737   -0.596077    0.000000
  H      1.647068    0.605629    0.824017
  H      1.647068    0.605629   -0.824017
  H      0.365563   -1.450853    0.887561
  H      0.365563   -1.450853   -0.887561
  H     -2.586278    1.466958    0.000000

FINAL SINGLE POINT ENERGY      -172.204771824455
                    ***********************HURRAY********************
 Multiplicity           Mult            ....    1
 Number of Electrons    NEL             ....   30
 Basis Dimension        Dim             ....  160
FINAL SINGLE POINT ENERGY      -172.204771833283

VIBRATIONAL FREQUENCIES
-----------------------

   0:         0.00 cm**-1
   1:         0.00 cm**-1
   2:         0.00 cm**-1
   3:         0.00 cm**-1
   4:         0.00 cm**-1
   5:         0.00 cm**-1
   6:       188.70 cm**-1
   7:       211.78 cm**-1
   8:       335.23 cm**-1
   9:       519.58 cm**-1
  10:       731.76 cm**-1
  11:       783.55 cm**-1
  12:       857.48 cm**-1
  13:       862.72 cm**-1
  14:       984.58 cm**-1
  15:      1108.36 cm**-1
  16:      1116.13 cm**-1
  17:      1327.99 cm**-1
  18:      1402.66 cm**-1
  19:      1478.60 cm**-1
  20:      1510.91 cm**-1
  21:      1647.75 cm**-1
  22:      1661.73 cm**-1
  23:      2260.54 cm**-1
  24:      3086.78 cm**-1
  25:      3137.69 cm**-1
  26:      3411.44 cm**-1
  27:      3449.42 cm**-1
  28:      3494.78 cm**-1
  29:      3501.88 cm**-1

IR SPECTRUM
-----------

 Mode    freq (cm**-1)   T**2         TX         TY         TZ
-------------------------------------------------------------------
   6:       188.70   11.728446  (  0.812049  -3.327014   0.000002)
   7:       211.78    2.244713  ( -0.000003   0.000001  -1.498237)
   8:       335.23   17.870540  ( -0.000011   0.000008  -4.227356)
   9:       519.58   30.187388  (  5.145336   1.926890   0.000002)
  10:       731.76   41.158068  ( -0.000005   0.000001   6.415455)
  11:       783.55   28.353758  ( -2.622889  -4.634028   0.000000)
  12:       857.48   13.761640  ( -3.705580   0.174115  -0.000004)
  13:       862.72    8.271124  (  0.000005  -0.000004  -2.875956)
  14:       984.58   16.578447  (  3.968864   0.909156  -0.000001)
  15:      1108.36    7.445843  (  0.000006  -0.000006   2.728707)
  16:      1116.13   26.845572  (  2.379647  -4.602483  -0.000004)
  17:      1327.99    8.333309  (  0.000001  -0.000001   2.886747)
  18:      1402.66   40.534389  (  5.339474  -3.467623  -0.000001)
  19:      1478.60   12.236159  ( -1.298624   3.248036   0.000017)
  20:      1510.91  146.475648  ( 10.637163   5.772903   0.000000)
  21:      1647.75   51.925652  ( -0.000000   0.000000   7.205946)
  22:      1661.73   36.978014  (  3.641784  -4.869849   0.000001)
  23:      2260.54   45.201163  ( -5.977434   3.077572   0.000000)
  24:      3086.78    1.280872  ( -1.112300  -0.208950  -0.000012)
  25:      3137.69    3.258001  ( -0.000003   0.000003   1.804993)
  26:      3411.44   51.978565  (  6.621305   2.852523   0.000000)
  27:      3449.42   89.954173  (  7.424736  -5.901481   0.000000)
  28:      3494.78  117.146932  (  0.000000  -0.000000 -10.823444)
  29:      3501.88  104.414574  ( -5.223409   8.782401   0.000000)

--------------------------
THERMOCHEMISTRY AT 298.15K
--------------------------

Temperature         ... 298.15 K
Pressure            ... 1.00 atm
Total Mass          ... 56.09 AMU

Throughout the following assumptions are being made:
  (1) The electronic state is orbitally nondegenerate
  (2) There are no thermally accessible electronically excited states
  (3) Hindered rotations indicated by low frequency modes) are not
      treated as such but are treated as vibrations and this may
      case some error
  (4) All equations used are the standard statistical mechanics
      equations for an ideal gas
  (5) All vibrations are strinctly harmonic

------------
INNER ENERGY
------------

The inner energy is: U= E(el) + E(ZPE) + E(vib) + E(rot) + E(trans)
    E(el)   - is the total energy from the electronic structure calculation
              = E(kin-el) + E(nuc-el) + E(el-el) + E(nuc-nuc)
    E(ZPE)  - the the zero temperature vibrational energy from the frequency calculation
    E(vib)  - the the finite temperature correction to E(ZPE) due to population
              of excietd vibrational states
    E(rot)  - is the rotational thermal energy
    E(trans)- is the translational thermal energy

Summary of contributions to the inner energy U:
Electronic energy                ...   -172.20477183 Eh
Zero point energy                ...      0.08901264 Eh      55.86 kcal/mol
Thermal vibrational correction   ...      0.00213788 Eh       1.34 kcal/mol
Thermal rotational correction    ...      0.00141627 Eh       0.89 kcal/mol
Thermal translational correction ...      0.00141627 Eh       0.89 kcal/mol
-----------------------------------------------------------------------
Total thermal energy                   -172.11078877 Eh

Summary of corrections to the electronic energy:
(perhaps to be used in another calculation)
Total thermal correction                  0.00497042 Eh       3.12 kcal/mol
Non-thermal (ZPE) correction              0.08901264 Eh      55.86 kcal/mol
-----------------------------------------------------------------------
Total correction                          0.09398306 Eh      58.98 kcal/mol

--------
ENTHALPY
--------

The enthalpy is H = U + kB*T
                kB is Boltzmann's constant
Total free energy                 ...   -172.11078877 Eh
Thermal Enthalpy correction       ...      0.00094421 Eh       0.59 kcal/mol
-----------------------------------------------------------------------
Total Enthalpy                    ...   -172.10984456 Eh

-------
ENTROPY
-------

The entropy contributions are T*S = T*(S(el)+S(vib)+S(rot)+S(trans)
     S(el)   - electronic entropy
     S(vib)  - vibrational entropy
     S(rot)  - rotational entropy
     S(trans)- translational entropy
The entropies will be listed as mutliplied by the temperature to get
units of energy

Electronic entropy                ...      0.00000000 Eh      0.00 kcal/mol
Vibrational entropy               ...      0.00343551 Eh      2.16 kcal/mol
Rotational entropy                ...      0.01035761 Eh      6.50 kcal/mol
Translational entropy             ...      0.01805229 Eh     11.33 kcal/mol
-----------------------------------------------------------------------
Final entropy term                ...      0.03184540 Eh     19.98 kcal/mol

CAUTION: The rotational entropy is not quite correctly treated here
         because it includes a symmetry number that is not yet correctly
         implemented in ORCA!
For a nonlinear molecule the correct rotational entropy is:
    S(rot) = R*(ln(qrot/sn)+1.5)
    R    = 8.31441 J/mol/K = 1.987191683e-3 kcal/mol/K
    qrot = 38892.3188935
    sn is the rotational symmetry number. We have assumed 3 here
       if it is different for your molecule then you should correct
       the printed rotational entropy by manually evaluating the equation
       as given above

For convenience we print out the resulting values for sn=1 - 12:
 sn= 1  qrot/sn=   38892.3189 T*S(rot)=     7.15 kcal/mol T*S(tot)=    20.63 kcal/mol
 sn= 2  qrot/sn=   19446.1594 T*S(rot)=     6.74 kcal/mol T*S(tot)=    20.22 kcal/mol
 sn= 3  qrot/sn=   12964.1063 T*S(rot)=     6.50 kcal/mol T*S(tot)=    19.98 kcal/mol
 sn= 4  qrot/sn=    9723.0797 T*S(rot)=     6.33 kcal/mol T*S(tot)=    19.81 kcal/mol
 sn= 5  qrot/sn=    7778.4638 T*S(rot)=     6.20 kcal/mol T*S(tot)=    19.68 kcal/mol
 sn= 6  qrot/sn=    6482.0531 T*S(rot)=     6.09 kcal/mol T*S(tot)=    19.57 kcal/mol
 sn= 7  qrot/sn=    5556.0456 T*S(rot)=     6.00 kcal/mol T*S(tot)=    19.48 kcal/mol
 sn= 8  qrot/sn=    4861.5399 T*S(rot)=     5.92 kcal/mol T*S(tot)=    19.40 kcal/mol
 sn= 9  qrot/sn=    4321.3688 T*S(rot)=     5.85 kcal/mol T*S(tot)=    19.33 kcal/mol
 sn=10  qrot/sn=    3889.2319 T*S(rot)=     5.79 kcal/mol T*S(tot)=    19.27 kcal/mol
 sn=11  qrot/sn=    3535.6654 T*S(rot)=     5.73 kcal/mol T*S(tot)=    19.21 kcal/mol
 sn=12  qrot/sn=    3241.0266 T*S(rot)=     5.68 kcal/mol T*S(tot)=    19.16 kcal/mol

-------------------
GIBBS FREE ENTHALPY
-------------------

The Gibbs free enthalpy is G = H - T*S

Total enthalpy                    ...   -172.10984456 Eh
Total entropy correction          ...     -0.03184540 Eh    -19.98 kcal/mol
-----------------------------------------------------------------------
Final Gibbs free enthalpy         ...   -172.14168996 Eh

For completeness - the Gibbs free enthalpy minus the electronic energy
G-E(el)                           ...      0.06308187 Eh     39.58 kcal/mol

                             ****ORCA TERMINATED NORMALLY****
TOTAL RUN TIME: 0 days 0 hours 4 minutes 2 seconds 876 msec
