                         Program Version 3.0.3 - RELEASE   -
|  1> ! NORI PBE0 def2-TZVP UseSym TightOPT Freq TightSCF Grid3 FinalGrid5 XYZFile
|  2> % pal
|  3>     nprocs 8
|  4> end
|  5> %method
|  6>     SymThresh 5.0e-2
|  7> end
|  8> % geom
|  9>     MaxIter 10
| 10> end
| 11> % maxcore 2000
| 12> % output
| 13>     printlevel mini
| 14>     print[ P_Basis ] 0
| 15>     print[ P_SCFInfo ] 1
| 16>     print[ P_SCFIterInfo ] 1
| 17>     print[ P_OrbEn ] 0
| 18>     print[ P_Cartesian ] 0
| 19> end
| 20> % elprop
| 21>     Dipole false
| 22> end
| 23> *xyz 1 1
| 24>  N        0.9151127562     0.1045035501     0.1119643282
| 25>  C        2.4052599207    -0.0621128714     0.0602367800
| 26>  C        3.0425161623     1.0384124651    -0.7654104690
| 27>  O        4.4035939786     0.7522067925    -0.7198348013
| 28>  H        0.4784985296    -0.6342395587     0.6672040937
| 29>  H        0.5037831477     0.0717917827    -0.8238509346
| 30>  H        0.6548863425     1.0006863200     0.5308851378
| 31>  H        2.7731171887    -0.0411288526     1.0859326196
| 32>  H        2.6109020635    -1.0413289504    -0.3720185433
| 33>  H        2.6429187232     1.0180351092    -1.7911090752
| 34>  H        2.8051504261     2.0210048048    -0.3286118700
| 35>  H        4.9007407610     1.4001694085    -1.2275072659
| 36> *
| 37>
| 38>                          ****END OF INPUT****
 Total Charge           Charge          ....    1
 Multiplicity           Mult            ....    1
 Number of Electrons    NEL             ....   34
FINAL SINGLE POINT ENERGY      -210.586302740668

CARTESIAN COORDINATES (ANGSTROEM)
---------------------------------
  N     -1.851324    0.086255   -0.000000
  C     -0.430624    0.569242    0.000000
  C      0.536036   -0.598951    0.000000
  O      1.792197    0.000042   -0.000000
  H     -2.508951    0.868835    0.000000
  H     -2.050568   -0.484876    0.824887
  H     -2.050568   -0.484876   -0.824887
  H     -0.294357    1.186660   -0.887860
  H     -0.294357    1.186660    0.887860
  H      0.369106   -1.224837    0.890520
  H      0.369106   -1.224837   -0.890520
  H      2.483666   -0.668314   -0.000000

FINAL SINGLE POINT ENERGY      -210.586302867623
                    ***********************HURRAY********************
 Multiplicity           Mult            ....    1
 Number of Electrons    NEL             ....   34
 Basis Dimension        Dim             ....  172
FINAL SINGLE POINT ENERGY      -210.586302901139

VIBRATIONAL FREQUENCIES
-----------------------

   0:         0.00 cm**-1
   1:         0.00 cm**-1
   2:         0.00 cm**-1
   3:         0.00 cm**-1
   4:         0.00 cm**-1
   5:         0.00 cm**-1
   6:        87.83 cm**-1
   7:       213.56 cm**-1
   8:       252.05 cm**-1
   9:       266.69 cm**-1
  10:       461.08 cm**-1
  11:       798.05 cm**-1
  12:       899.87 cm**-1
  13:       936.62 cm**-1
  14:      1006.76 cm**-1
  15:      1093.49 cm**-1
  16:      1165.77 cm**-1
  17:      1189.64 cm**-1
  18:      1267.46 cm**-1
  19:      1295.62 cm**-1
  20:      1337.27 cm**-1
  21:      1386.07 cm**-1
  22:      1481.18 cm**-1
  23:      1495.46 cm**-1
  24:      1513.63 cm**-1
  25:      1525.74 cm**-1
  26:      1659.96 cm**-1
  27:      1665.37 cm**-1
  28:      2979.62 cm**-1
  29:      3013.96 cm**-1
  30:      3110.88 cm**-1
  31:      3174.48 cm**-1
  32:      3420.46 cm**-1
  33:      3496.58 cm**-1
  34:      3504.59 cm**-1
  35:      3863.09 cm**-1

IR SPECTRUM
-----------

 Mode    freq (cm**-1)   T**2         TX         TY         TZ
-------------------------------------------------------------------
   6:        87.83    7.113879  (  0.000000  -0.000000  -2.667186)
   7:       213.56    0.043445  ( -0.000000   0.000000   0.208435)
   8:       252.05  138.577065  ( -0.000000   0.000000 -11.771876)
   9:       266.69    3.392372  (  0.399947   1.797892  -0.000000)
  10:       461.08   32.137085  ( -5.661758   0.285616  -0.000000)
  11:       798.05    2.949280  ( -0.000000   0.000000  -1.717347)
  12:       899.87   30.453616  ( -5.200229   1.846953   0.000000)
  13:       936.62   13.494081  (  0.000000  -0.000000   3.673429)
  14:      1006.76    7.617863  (  1.771513   2.116508   0.000000)
  15:      1093.49   74.204254  (  5.999289   6.181649   0.000000)
  16:      1165.77   25.832847  (  5.082517  -0.029420   0.000000)
  17:      1189.64    0.043352  ( -0.000000   0.000000   0.208210)
  18:      1267.46   56.064792  ( -6.888729  -2.934316  -0.000000)
  19:      1295.62    0.065999  (  0.000000  -0.000000   0.256902)
  20:      1337.27    9.435174  ( -0.000000   0.000000  -3.071673)
  21:      1386.07    3.278150  (  0.407589  -1.764092  -0.000000)
  22:      1481.18    4.927485  (  1.309152   1.792653   0.000000)
  23:      1495.46   10.651159  (  0.029841  -3.263475  -0.000000)
  24:      1513.63  109.122612  (-10.297345  -1.757071  -0.000000)
  25:      1525.74   33.302163  (  5.059797   2.774998   0.000000)
  26:      1659.96   53.477709  ( -0.000000   0.000000   7.312845)
  27:      1665.37   40.987393  ( -2.528412   5.881711  -0.000000)
  28:      2979.62   45.398137  (  4.615720   4.908489  -0.000000)
  29:      3013.96   27.140446  ( -0.000000   0.000000  -5.209649)
  30:      3110.88    0.193870  ( -0.297443   0.324649  -0.000000)
  31:      3174.48    0.040785  ( -0.000000   0.000000   0.201953)
  32:      3420.46   45.368099  (  6.534748   1.632533  -0.000000)
  33:      3496.58   99.117644  ( -0.000000   0.000000   9.955784)
  34:      3504.59  116.317104  ( -4.411313   9.841617  -0.000000)
  35:      3863.09  115.430539  ( -9.676294   4.669033   0.000000)

--------------------------
THERMOCHEMISTRY AT 298.15K
--------------------------

Temperature         ... 298.15 K
Pressure            ... 1.00 atm
Total Mass          ... 62.09 AMU

Throughout the following assumptions are being made:
  (1) The electronic state is orbitally nondegenerate
  (2) There are no thermally accessible electronically excited states
  (3) Hindered rotations indicated by low frequency modes) are not
      treated as such but are treated as vibrations and this may
      case some error
  (4) All equations used are the standard statistical mechanics
      equations for an ideal gas
  (5) All vibrations are strinctly harmonic

------------
INNER ENERGY
------------

The inner energy is: U= E(el) + E(ZPE) + E(vib) + E(rot) + E(trans)
    E(el)   - is the total energy from the electronic structure calculation
              = E(kin-el) + E(nuc-el) + E(el-el) + E(nuc-nuc)
    E(ZPE)  - the the zero temperature vibrational energy from the frequency calculation
    E(vib)  - the the finite temperature correction to E(ZPE) due to population
              of excietd vibrational states
    E(rot)  - is the rotational thermal energy
    E(trans)- is the translational thermal energy

Summary of contributions to the inner energy U:
Electronic energy                ...   -210.58630290 Eh
Zero point energy                ...      0.11291248 Eh      70.85 kcal/mol
Thermal vibrational correction   ...      0.00284386 Eh       1.78 kcal/mol
Thermal rotational correction    ...      0.00141627 Eh       0.89 kcal/mol
Thermal translational correction ...      0.00141627 Eh       0.89 kcal/mol
-----------------------------------------------------------------------
Total thermal energy                   -210.46771401 Eh

Summary of corrections to the electronic energy:
(perhaps to be used in another calculation)
Total thermal correction                  0.00567641 Eh       3.56 kcal/mol
Non-thermal (ZPE) correction              0.11291248 Eh      70.85 kcal/mol
-----------------------------------------------------------------------
Total correction                          0.11858889 Eh      74.42 kcal/mol

--------
ENTHALPY
--------

The enthalpy is H = U + kB*T
                kB is Boltzmann's constant
Total free energy                 ...   -210.46771401 Eh
Thermal Enthalpy correction       ...      0.00094421 Eh       0.59 kcal/mol
-----------------------------------------------------------------------
Total Enthalpy                    ...   -210.46676980 Eh

-------
ENTROPY
-------

The entropy contributions are T*S = T*(S(el)+S(vib)+S(rot)+S(trans)
     S(el)   - electronic entropy
     S(vib)  - vibrational entropy
     S(rot)  - rotational entropy
     S(trans)- translational entropy
The entropies will be listed as mutliplied by the temperature to get
units of energy

Electronic entropy                ...      0.00000000 Eh      0.00 kcal/mol
Vibrational entropy               ...      0.00508038 Eh      3.19 kcal/mol
Rotational entropy                ...      0.01051129 Eh      6.60 kcal/mol
Translational entropy             ...      0.01819631 Eh     11.42 kcal/mol
-----------------------------------------------------------------------
Final entropy term                ...      0.03378799 Eh     21.20 kcal/mol

CAUTION: The rotational entropy is not quite correctly treated here
         because it includes a symmetry number that is not yet correctly
         implemented in ORCA!
For a nonlinear molecule the correct rotational entropy is:
    S(rot) = R*(ln(qrot/sn)+1.5)
    R    = 8.31441 J/mol/K = 1.987191683e-3 kcal/mol/K
    qrot = 45767.2556637
    sn is the rotational symmetry number. We have assumed 3 here
       if it is different for your molecule then you should correct
       the printed rotational entropy by manually evaluating the equation
       as given above

For convenience we print out the resulting values for sn=1 - 12:
 sn= 1  qrot/sn=   45767.2557 T*S(rot)=     7.25 kcal/mol T*S(tot)=    21.85 kcal/mol
 sn= 2  qrot/sn=   22883.6278 T*S(rot)=     6.84 kcal/mol T*S(tot)=    21.44 kcal/mol
 sn= 3  qrot/sn=   15255.7519 T*S(rot)=     6.60 kcal/mol T*S(tot)=    21.20 kcal/mol
 sn= 4  qrot/sn=   11441.8139 T*S(rot)=     6.43 kcal/mol T*S(tot)=    21.03 kcal/mol
 sn= 5  qrot/sn=    9153.4511 T*S(rot)=     6.29 kcal/mol T*S(tot)=    20.90 kcal/mol
 sn= 6  qrot/sn=    7627.8759 T*S(rot)=     6.19 kcal/mol T*S(tot)=    20.79 kcal/mol
 sn= 7  qrot/sn=    6538.1794 T*S(rot)=     6.09 kcal/mol T*S(tot)=    20.70 kcal/mol
 sn= 8  qrot/sn=    5720.9070 T*S(rot)=     6.01 kcal/mol T*S(tot)=    20.62 kcal/mol
 sn= 9  qrot/sn=    5085.2506 T*S(rot)=     5.95 kcal/mol T*S(tot)=    20.55 kcal/mol
 sn=10  qrot/sn=    4576.7256 T*S(rot)=     5.88 kcal/mol T*S(tot)=    20.49 kcal/mol
 sn=11  qrot/sn=    4160.6596 T*S(rot)=     5.83 kcal/mol T*S(tot)=    20.43 kcal/mol
 sn=12  qrot/sn=    3813.9380 T*S(rot)=     5.77 kcal/mol T*S(tot)=    20.38 kcal/mol

-------------------
GIBBS FREE ENTHALPY
-------------------

The Gibbs free enthalpy is G = H - T*S

Total enthalpy                    ...   -210.46676980 Eh
Total entropy correction          ...     -0.03378799 Eh    -21.20 kcal/mol
-----------------------------------------------------------------------
Final Gibbs free enthalpy         ...   -210.50055779 Eh

For completeness - the Gibbs free enthalpy minus the electronic energy
G-E(el)                           ...      0.08574511 Eh     53.81 kcal/mol

                             ****ORCA TERMINATED NORMALLY****
TOTAL RUN TIME: 0 days 0 hours 4 minutes 52 seconds 525 msec
