                         Program Version 3.0.3 - RELEASE   -
|  1> ! NORI PBE0 def2-TZVP UseSym TightOPT Freq TightSCF Grid3 FinalGrid5 XYZFile
|  2> % pal
|  3>     nprocs 8
|  4> end
|  5> %method
|  6>     SymThresh 5.0e-2
|  7> end
|  8> % geom
|  9>     MaxIter 10
| 10> end
| 11> % maxcore 2000
| 12> % output
| 13>     printlevel mini
| 14>     print[ P_Basis ] 0
| 15>     print[ P_SCFInfo ] 1
| 16>     print[ P_SCFIterInfo ] 1
| 17>     print[ P_OrbEn ] 0
| 18>     print[ P_Cartesian ] 0
| 19> end
| 20> % elprop
| 21>     Dipole false
| 22> end
| 23> *xyz 1 1
| 24>  C       -0.3484922900     1.2213691365     0.1213704056
| 25>  N       -1.2227211112     0.0002913756    -0.0644995917
| 26>  C       -0.3519277064    -1.2225265824     0.1259845700
| 27>  C        1.0168809716    -0.6645649141    -0.0818144812
| 28>  C        1.0187340761     0.6587726064    -0.0842994172
| 29>  H       -0.6474978049     1.9878397174    -0.5945627536
| 30>  H       -0.5009654008     1.6111172523     1.1316202248
| 31>  H       -2.0242064753     0.0025886349     0.5655197437
| 32>  H       -1.5919123677    -0.0009597674    -1.0150948868
| 33>  H       -0.5054144361    -1.6079317751     1.1377402099
| 34>  H       -0.6531867359    -1.9908792348    -0.5869669334
| 35>  H        1.8820285736    -1.3056992178    -0.1799952044
| 36>  H        1.8857007071     1.2970827685    -0.1848118855
| 37> *
| 38>
| 39>                          ****END OF INPUT****
 Total Charge           Charge          ....    1
 Multiplicity           Mult            ....    1
 Number of Electrons    NEL             ....   38
FINAL SINGLE POINT ENERGY      -211.546686429667

CARTESIAN COORDINATES (ANGSTROEM)
---------------------------------
  C      0.296163    0.136500    1.221981
  N      1.178252   -0.000034   -0.000000
  C      0.296163    0.136500   -1.221981
  C     -1.057334   -0.150871   -0.661722
  C     -1.057334   -0.150871    0.661722
  H      0.638018   -0.558835    1.989430
  H      0.389213    1.154792    1.609571
  H      1.941453    0.676007   -0.000000
  H      1.602543   -0.927421   -0.000000
  H      0.389213    1.154792   -1.609571
  H      0.638018   -0.558835   -1.989430
  H     -1.916030   -0.300831   -1.301490
  H     -1.916030   -0.300831    1.301490

FINAL SINGLE POINT ENERGY      -211.546686576854
                    ***********************HURRAY********************
 Multiplicity           Mult            ....    1
 Number of Electrons    NEL             ....   38
 Basis Dimension        Dim             ....  203
FINAL SINGLE POINT ENERGY      -211.546686645363

VIBRATIONAL FREQUENCIES
-----------------------

   0:         0.00 cm**-1
   1:         0.00 cm**-1
   2:         0.00 cm**-1
   3:         0.00 cm**-1
   4:         0.00 cm**-1
   5:         0.00 cm**-1
   6:       136.09 cm**-1
   7:       396.25 cm**-1
   8:       645.46 cm**-1
   9:       717.82 cm**-1
  10:       792.33 cm**-1
  11:       850.64 cm**-1
  12:       890.39 cm**-1
  13:       918.15 cm**-1
  14:       962.51 cm**-1
  15:       994.48 cm**-1
  16:      1010.69 cm**-1
  17:      1047.03 cm**-1
  18:      1068.46 cm**-1
  19:      1136.50 cm**-1
  20:      1182.04 cm**-1
  21:      1271.75 cm**-1
  22:      1284.74 cm**-1
  23:      1338.35 cm**-1
  24:      1378.60 cm**-1
  25:      1388.32 cm**-1
  26:      1412.66 cm**-1
  27:      1492.32 cm**-1
  28:      1500.85 cm**-1
  29:      1646.94 cm**-1
  30:      1713.91 cm**-1
  31:      3079.91 cm**-1
  32:      3081.54 cm**-1
  33:      3140.87 cm**-1
  34:      3141.90 cm**-1
  35:      3242.23 cm**-1
  36:      3260.27 cm**-1
  37:      3470.60 cm**-1
  38:      3526.89 cm**-1

IR SPECTRUM
-----------

 Mode    freq (cm**-1)   T**2         TX         TY         TZ
-------------------------------------------------------------------
   6:       136.09    2.012054  ( -0.741587  -1.209174   0.000000)
   7:       396.25    0.207825  ( -0.000000   0.000000   0.455878)
   8:       645.46   24.765551  ( -0.848132  -4.903695   0.000001)
   9:       717.82   46.641345  ( -1.630864   6.631864   0.000001)
  10:       792.33    0.014068  (  0.000006  -0.000003  -0.118607)
  11:       850.64    1.425432  ( -0.608088   1.027453   0.000000)
  12:       890.39    3.774124  (  1.938313  -0.130643   0.000004)
  13:       918.15    0.115084  (  0.000002   0.000000  -0.339240)
  14:       962.51    3.932132  (  0.000000   0.000000  -1.982960)
  15:       994.48    2.949879  ( -0.000000   0.000000  -1.717521)
  16:      1010.69    3.373825  ( -1.807802   0.325083  -0.000000)
  17:      1047.03   15.714291  (  0.000001  -0.000000  -3.964125)
  18:      1068.46   12.627103  ( -0.158474   3.549928  -0.000001)
  19:      1136.50    1.280227  ( -1.025067  -0.479026   0.000000)
  20:      1182.04    1.286487  ( -0.000000  -0.000000  -1.134234)
  21:      1271.75   15.008457  ( -0.000000  -0.000001   3.874075)
  22:      1284.74    1.958915  (  0.579501   1.274007   0.000002)
  23:      1338.35    0.318650  (  0.000000  -0.000000   0.564491)
  24:      1378.60    5.052844  ( -0.000000   0.000000  -2.247853)
  25:      1388.32    0.145203  (  0.258836   0.279654   0.000005)
  26:      1412.66   46.189963  (  0.000001   0.000000  -6.796320)
  27:      1492.32   14.388323  ( -0.000000   0.000000   3.793194)
  28:      1500.85    5.249548  (  1.786423   1.434658  -0.000000)
  29:      1646.94   69.457702  ( -8.131730   1.825560  -0.000000)
  30:      1713.91    0.148793  ( -0.144627  -0.357598  -0.000000)
  31:      3079.91    1.813247  ( -1.185473  -0.638670  -0.000000)
  32:      3081.54    1.946419  ( -0.000000  -0.000000  -1.395141)
  33:      3140.87    0.020061  (  0.000000   0.000000   0.141635)
  34:      3141.90    0.162911  (  0.055763   0.399752  -0.000000)
  35:      3242.23    7.798445  ( -0.000000  -0.000000  -2.792570)
  36:      3260.27    9.884243  ( -3.091881  -0.569664  -0.000000)
  37:      3470.60   67.837116  (  7.972787  -2.066829  -0.000000)
  38:      3526.89   89.142915  ( -2.186364  -9.184918   0.000000)

--------------------------
THERMOCHEMISTRY AT 298.15K
--------------------------

Temperature         ... 298.15 K
Pressure            ... 1.00 atm
Total Mass          ... 70.11 AMU

Throughout the following assumptions are being made:
  (1) The electronic state is orbitally nondegenerate
  (2) There are no thermally accessible electronically excited states
  (3) Hindered rotations indicated by low frequency modes) are not
      treated as such but are treated as vibrations and this may
      case some error
  (4) All equations used are the standard statistical mechanics
      equations for an ideal gas
  (5) All vibrations are strinctly harmonic

------------
INNER ENERGY
------------

The inner energy is: U= E(el) + E(ZPE) + E(vib) + E(rot) + E(trans)
    E(el)   - is the total energy from the electronic structure calculation
              = E(kin-el) + E(nuc-el) + E(el-el) + E(nuc-nuc)
    E(ZPE)  - the the zero temperature vibrational energy from the frequency calculation
    E(vib)  - the the finite temperature correction to E(ZPE) due to population
              of excietd vibrational states
    E(rot)  - is the rotational thermal energy
    E(trans)- is the translational thermal energy

Summary of contributions to the inner energy U:
Electronic energy                ...   -211.54668665 Eh
Zero point energy                ...      0.12101964 Eh      75.94 kcal/mol
Thermal vibrational correction   ...      0.00176103 Eh       1.11 kcal/mol
Thermal rotational correction    ...      0.00141627 Eh       0.89 kcal/mol
Thermal translational correction ...      0.00141627 Eh       0.89 kcal/mol
-----------------------------------------------------------------------
Total thermal energy                   -211.42107343 Eh

Summary of corrections to the electronic energy:
(perhaps to be used in another calculation)
Total thermal correction                  0.00459357 Eh       2.88 kcal/mol
Non-thermal (ZPE) correction              0.12101964 Eh      75.94 kcal/mol
-----------------------------------------------------------------------
Total correction                          0.12561321 Eh      78.82 kcal/mol

--------
ENTHALPY
--------

The enthalpy is H = U + kB*T
                kB is Boltzmann's constant
Total free energy                 ...   -211.42107343 Eh
Thermal Enthalpy correction       ...      0.00094421 Eh       0.59 kcal/mol
-----------------------------------------------------------------------
Total Enthalpy                    ...   -211.42012923 Eh

-------
ENTROPY
-------

The entropy contributions are T*S = T*(S(el)+S(vib)+S(rot)+S(trans)
     S(el)   - electronic entropy
     S(vib)  - vibrational entropy
     S(rot)  - rotational entropy
     S(trans)- translational entropy
The entropies will be listed as mutliplied by the temperature to get
units of energy

Electronic entropy                ...      0.00000000 Eh      0.00 kcal/mol
Vibrational entropy               ...      0.00278940 Eh      1.75 kcal/mol
Rotational entropy                ...      0.01075289 Eh      6.75 kcal/mol
Translational entropy             ...      0.01836842 Eh     11.53 kcal/mol
-----------------------------------------------------------------------
Final entropy term                ...      0.03191071 Eh     20.02 kcal/mol

CAUTION: The rotational entropy is not quite correctly treated here
         because it includes a symmetry number that is not yet correctly
         implemented in ORCA!
For a nonlinear molecule the correct rotational entropy is:
    S(rot) = R*(ln(qrot/sn)+1.5)
    R    = 8.31441 J/mol/K = 1.987191683e-3 kcal/mol/K
    qrot = 59112.8726669
    sn is the rotational symmetry number. We have assumed 3 here
       if it is different for your molecule then you should correct
       the printed rotational entropy by manually evaluating the equation
       as given above

For convenience we print out the resulting values for sn=1 - 12:
 sn= 1  qrot/sn=   59112.8727 T*S(rot)=     7.40 kcal/mol T*S(tot)=    20.68 kcal/mol
 sn= 2  qrot/sn=   29556.4363 T*S(rot)=     6.99 kcal/mol T*S(tot)=    20.26 kcal/mol
 sn= 3  qrot/sn=   19704.2909 T*S(rot)=     6.75 kcal/mol T*S(tot)=    20.02 kcal/mol
 sn= 4  qrot/sn=   14778.2182 T*S(rot)=     6.58 kcal/mol T*S(tot)=    19.85 kcal/mol
 sn= 5  qrot/sn=   11822.5745 T*S(rot)=     6.44 kcal/mol T*S(tot)=    19.72 kcal/mol
 sn= 6  qrot/sn=    9852.1454 T*S(rot)=     6.34 kcal/mol T*S(tot)=    19.61 kcal/mol
 sn= 7  qrot/sn=    8444.6961 T*S(rot)=     6.25 kcal/mol T*S(tot)=    19.52 kcal/mol
 sn= 8  qrot/sn=    7389.1091 T*S(rot)=     6.17 kcal/mol T*S(tot)=    19.44 kcal/mol
 sn= 9  qrot/sn=    6568.0970 T*S(rot)=     6.10 kcal/mol T*S(tot)=    19.37 kcal/mol
 sn=10  qrot/sn=    5911.2873 T*S(rot)=     6.03 kcal/mol T*S(tot)=    19.31 kcal/mol
 sn=11  qrot/sn=    5373.8975 T*S(rot)=     5.98 kcal/mol T*S(tot)=    19.25 kcal/mol
 sn=12  qrot/sn=    4926.0727 T*S(rot)=     5.93 kcal/mol T*S(tot)=    19.20 kcal/mol

-------------------
GIBBS FREE ENTHALPY
-------------------

The Gibbs free enthalpy is G = H - T*S

Total enthalpy                    ...   -211.42012923 Eh
Total entropy correction          ...     -0.03191071 Eh    -20.02 kcal/mol
-----------------------------------------------------------------------
Final Gibbs free enthalpy         ...   -211.45203994 Eh

For completeness - the Gibbs free enthalpy minus the electronic energy
G-E(el)                           ...      0.09464671 Eh     59.39 kcal/mol

                             ****ORCA TERMINATED NORMALLY****
TOTAL RUN TIME: 0 days 0 hours 10 minutes 16 seconds 953 msec
