                         Program Version 3.0.3 - RELEASE   -
|  1> ! NORI PBE0 def2-TZVP UseSym TightOPT Freq TightSCF Grid3 FinalGrid5 XYZFile
|  2> % pal
|  3>     nprocs 8
|  4> end
|  5> %method
|  6>     SymThresh 5.0e-2
|  7> end
|  8> % geom
|  9>     MaxIter 10
| 10> end
| 11> % maxcore 2000
| 12> % output
| 13>     printlevel mini
| 14>     print[ P_Basis ] 0
| 15>     print[ P_SCFInfo ] 1
| 16>     print[ P_SCFIterInfo ] 1
| 17>     print[ P_OrbEn ] 0
| 18>     print[ P_Cartesian ] 0
| 19> end
| 20> % elprop
| 21>     Dipole false
| 22> end
| 23> *xyz 1 1
| 24>  C        1.0365678190     0.0090565385    -0.1614719723
| 25>  C        2.5377383094    -0.0098127531    -0.1143198685
| 26>  C        3.3452702906    -0.7754022291    -1.1242656518
| 27>  C        3.3205838008     0.7134041882    -1.1583448271
| 28>  N        4.5508494969     1.4386573359    -0.7546675289
| 29>  H        0.6342477076     0.8941333172     0.3347226549
| 30>  H        0.6342521172    -0.8720439742     0.3408679361
| 31>  H        0.6736337905    -0.0012982423    -1.1913365999
| 32>  H        2.9660183219     0.0071207786     0.8859338520
| 33>  H        4.2483471739    -1.2732206705    -0.7877716093
| 34>  H        2.8297565158    -1.2867855894    -1.9277530110
| 35>  H        2.8124416409     1.2379203280    -1.9577732967
| 36>  H        5.0277773963     0.9502246526     0.0064994820
| 37>  H        4.3383636317     2.3845118395    -0.4266842439
| 38>  H        5.2129019875     1.5145244800    -1.5320953157
| 39> *
| 40>
| 41>                          ****END OF INPUT****
 Total Charge           Charge          ....    1
 Multiplicity           Mult            ....    1
 Number of Electrons    NEL             ....   40
FINAL SINGLE POINT ENERGY      -212.744794198346

CARTESIAN COORDINATES (ANGSTROEM)
---------------------------------
  C      0.987243    0.000314   -1.795235
  C      0.218349    0.467948   -0.592567
  C     -1.191082    0.014139   -0.336557
  C     -0.076846   -0.486213    0.515758
  N      0.000103    0.000182    1.915763
  H      2.063925    0.063323   -1.627807
  H      0.743053    0.618808   -2.660254
  H      0.739136   -1.033358   -2.045448
  H      0.425470    1.490927   -0.284756
  H     -1.890299    0.727283    0.086649
  H     -1.641970   -0.700830   -1.013486
  H      0.246528   -1.517473    0.450913
  H     -0.295061    0.977229    1.977810
  H      0.954739   -0.055602    2.280501
  H     -0.607683   -0.543034    2.535107

FINAL SINGLE POINT ENERGY      -212.744795040359
                    ***********************HURRAY********************
 Multiplicity           Mult            ....    1
 Number of Electrons    NEL             ....   40
 Basis Dimension        Dim             ....  215
FINAL SINGLE POINT ENERGY      -212.744795815361

VIBRATIONAL FREQUENCIES
-----------------------

   0:         0.00 cm**-1
   1:         0.00 cm**-1
   2:         0.00 cm**-1
   3:         0.00 cm**-1
   4:         0.00 cm**-1
   5:         0.00 cm**-1
   6:       193.33 cm**-1
   7:       206.49 cm**-1
   8:       235.44 cm**-1
   9:       283.17 cm**-1
  10:       400.07 cm**-1
  11:       431.63 cm**-1
  12:       785.46 cm**-1
  13:       805.60 cm**-1
  14:       857.31 cm**-1
  15:       894.92 cm**-1
  16:       949.16 cm**-1
  17:       990.14 cm**-1
  18:      1052.94 cm**-1
  19:      1089.84 cm**-1
  20:      1103.62 cm**-1
  21:      1133.19 cm**-1
  22:      1178.31 cm**-1
  23:      1187.50 cm**-1
  24:      1210.27 cm**-1
  25:      1257.10 cm**-1
  26:      1363.99 cm**-1
  27:      1421.80 cm**-1
  28:      1440.08 cm**-1
  29:      1480.65 cm**-1
  30:      1487.36 cm**-1
  31:      1503.94 cm**-1
  32:      1521.18 cm**-1
  33:      1652.98 cm**-1
  34:      1659.93 cm**-1
  35:      3062.90 cm**-1
  36:      3132.14 cm**-1
  37:      3146.04 cm**-1
  38:      3148.69 cm**-1
  39:      3152.87 cm**-1
  40:      3209.61 cm**-1
  41:      3242.83 cm**-1
  42:      3407.93 cm**-1
  43:      3483.50 cm**-1
  44:      3495.37 cm**-1

IR SPECTRUM
-----------

 Mode    freq (cm**-1)   T**2         TX         TY         TZ
-------------------------------------------------------------------
   6:       193.33    0.183554  ( -0.388434   0.173216  -0.051666)
   7:       206.49    1.337465  (  0.600031   0.846844  -0.510179)
   8:       235.44    8.279986  ( -2.869156   0.117022   0.185022)
   9:       283.17    3.854876  ( -0.178035  -1.416213   1.348154)
  10:       400.07    5.922084  (  0.769412   0.473976  -2.259521)
  11:       431.63    2.622741  (  1.139566   0.317941   1.105913)
  12:       785.46    6.820924  (  0.213585   2.211975  -1.372031)
  13:       805.60    4.298829  ( -0.419510   1.966902  -0.504121)
  14:       857.31    4.337936  ( -1.616834  -0.771319   1.062474)
  15:       894.92   10.549962  (  2.907217  -0.963059   1.081927)
  16:       949.16    4.402434  ( -1.888316  -0.532989  -0.743385)
  17:       990.14   21.575012  (  0.511234   3.804567  -2.615133)
  18:      1052.94    2.314037  (  1.217213   0.856626  -0.314041)
  19:      1089.84    8.392144  (  1.002278   1.782213  -2.052145)
  20:      1103.62    8.993770  ( -2.855240   0.383892  -0.833069)
  21:      1133.19    2.366590  (  0.742239   0.511262  -1.246708)
  22:      1178.31   12.062031  ( -3.350337  -0.822789   0.400367)
  23:      1187.50    2.347853  ( -0.689374   0.793647   1.114783)
  24:      1210.27    1.046107  (  0.209176  -0.998195  -0.077194)
  25:      1257.10    0.685711  (  0.476808  -0.067630   0.673640)
  26:      1363.99    6.818568  (  0.278107  -1.286078   2.255488)
  27:      1421.80    4.661418  ( -0.894025   1.027525   1.675210)
  28:      1440.08    1.612645  (  0.948753   0.841685  -0.063861)
  29:      1480.65    6.294393  (  1.224230  -1.323179   1.744950)
  30:      1487.36   31.388403  (  3.650549   3.088273   2.919668)
  31:      1503.94   53.532587  (  0.904106   0.553035   7.239429)
  32:      1521.18   74.755454  ( -1.351975   4.818067   7.050805)
  33:      1652.98   32.224793  ( -5.277945  -1.899473   0.871833)
  34:      1659.93   48.677786  ( -2.541127   6.324681  -1.489587)
  35:      3062.90    4.493767  ( -1.274425   1.036337   1.340005)
  36:      3132.14    3.968932  ( -1.251850  -0.385013   1.501189)
  37:      3146.04    4.673952  (  1.791333   0.535807   1.085351)
  38:      3148.69    4.677785  ( -0.222310  -2.139903  -0.221763)
  39:      3152.87    4.054657  (  0.300892   1.003576   1.719580)
  40:      3209.61    0.476523  (  0.133690  -0.667804  -0.112644)
  41:      3242.83    0.498826  (  0.324982   0.590185   0.211882)
  42:      3407.93   38.722083  (  0.555245   0.218152   6.194045)
  43:      3483.50   95.832196  (  8.906220   3.789625  -1.466349)
  44:      3495.37   85.977291  ( -3.960470   8.171456  -1.875973)

--------------------------
THERMOCHEMISTRY AT 298.15K
--------------------------

Temperature         ... 298.15 K
Pressure            ... 1.00 atm
Total Mass          ... 72.13 AMU

Throughout the following assumptions are being made:
  (1) The electronic state is orbitally nondegenerate
  (2) There are no thermally accessible electronically excited states
  (3) Hindered rotations indicated by low frequency modes) are not
      treated as such but are treated as vibrations and this may
      case some error
  (4) All equations used are the standard statistical mechanics
      equations for an ideal gas
  (5) All vibrations are strinctly harmonic

------------
INNER ENERGY
------------

The inner energy is: U= E(el) + E(ZPE) + E(vib) + E(rot) + E(trans)
    E(el)   - is the total energy from the electronic structure calculation
              = E(kin-el) + E(nuc-el) + E(el-el) + E(nuc-nuc)
    E(ZPE)  - the the zero temperature vibrational energy from the frequency calculation
    E(vib)  - the the finite temperature correction to E(ZPE) due to population
              of excietd vibrational states
    E(rot)  - is the rotational thermal energy
    E(trans)- is the translational thermal energy

Summary of contributions to the inner energy U:
Electronic energy                ...   -212.74479582 Eh
Zero point energy                ...      0.14183698 Eh      89.00 kcal/mol
Thermal vibrational correction   ...      0.00323547 Eh       2.03 kcal/mol
Thermal rotational correction    ...      0.00141627 Eh       0.89 kcal/mol
Thermal translational correction ...      0.00141627 Eh       0.89 kcal/mol
-----------------------------------------------------------------------
Total thermal energy                   -212.59689082 Eh

Summary of corrections to the electronic energy:
(perhaps to be used in another calculation)
Total thermal correction                  0.00606802 Eh       3.81 kcal/mol
Non-thermal (ZPE) correction              0.14183698 Eh      89.00 kcal/mol
-----------------------------------------------------------------------
Total correction                          0.14790499 Eh      92.81 kcal/mol

--------
ENTHALPY
--------

The enthalpy is H = U + kB*T
                kB is Boltzmann's constant
Total free energy                 ...   -212.59689082 Eh
Thermal Enthalpy correction       ...      0.00094421 Eh       0.59 kcal/mol
-----------------------------------------------------------------------
Total Enthalpy                    ...   -212.59594661 Eh

-------
ENTROPY
-------

The entropy contributions are T*S = T*(S(el)+S(vib)+S(rot)+S(trans)
     S(el)   - electronic entropy
     S(vib)  - vibrational entropy
     S(rot)  - rotational entropy
     S(trans)- translational entropy
The entropies will be listed as mutliplied by the temperature to get
units of energy

Electronic entropy                ...      0.00000000 Eh      0.00 kcal/mol
Vibrational entropy               ...      0.00518350 Eh      3.25 kcal/mol
Rotational entropy                ...      0.01111835 Eh      6.98 kcal/mol
Translational entropy             ...      0.01840857 Eh     11.55 kcal/mol
-----------------------------------------------------------------------
Final entropy term                ...      0.03471042 Eh     21.78 kcal/mol

CAUTION: The rotational entropy is not quite correctly treated here
         because it includes a symmetry number that is not yet correctly
         implemented in ORCA!
For a nonlinear molecule the correct rotational entropy is:
    S(rot) = R*(ln(qrot/sn)+1.5)
    R    = 8.31441 J/mol/K = 1.987191683e-3 kcal/mol/K
    qrot = 87053.0941440
    sn is the rotational symmetry number. We have assumed 3 here
       if it is different for your molecule then you should correct
       the printed rotational entropy by manually evaluating the equation
       as given above

For convenience we print out the resulting values for sn=1 - 12:
 sn= 1  qrot/sn=   87053.0941 T*S(rot)=     7.63 kcal/mol T*S(tot)=    22.43 kcal/mol
 sn= 2  qrot/sn=   43526.5471 T*S(rot)=     7.22 kcal/mol T*S(tot)=    22.02 kcal/mol
 sn= 3  qrot/sn=   29017.6980 T*S(rot)=     6.98 kcal/mol T*S(tot)=    21.78 kcal/mol
 sn= 4  qrot/sn=   21763.2735 T*S(rot)=     6.81 kcal/mol T*S(tot)=    21.61 kcal/mol
 sn= 5  qrot/sn=   17410.6188 T*S(rot)=     6.67 kcal/mol T*S(tot)=    21.48 kcal/mol
 sn= 6  qrot/sn=   14508.8490 T*S(rot)=     6.57 kcal/mol T*S(tot)=    21.37 kcal/mol
 sn= 7  qrot/sn=   12436.1563 T*S(rot)=     6.47 kcal/mol T*S(tot)=    21.28 kcal/mol
 sn= 8  qrot/sn=   10881.6368 T*S(rot)=     6.40 kcal/mol T*S(tot)=    21.20 kcal/mol
 sn= 9  qrot/sn=    9672.5660 T*S(rot)=     6.33 kcal/mol T*S(tot)=    21.13 kcal/mol
 sn=10  qrot/sn=    8705.3094 T*S(rot)=     6.26 kcal/mol T*S(tot)=    21.07 kcal/mol
 sn=11  qrot/sn=    7913.9176 T*S(rot)=     6.21 kcal/mol T*S(tot)=    21.01 kcal/mol
 sn=12  qrot/sn=    7254.4245 T*S(rot)=     6.16 kcal/mol T*S(tot)=    20.96 kcal/mol

-------------------
GIBBS FREE ENTHALPY
-------------------

The Gibbs free enthalpy is G = H - T*S

Total enthalpy                    ...   -212.59594661 Eh
Total entropy correction          ...     -0.03471042 Eh    -21.78 kcal/mol
-----------------------------------------------------------------------
Final Gibbs free enthalpy         ...   -212.63065703 Eh

For completeness - the Gibbs free enthalpy minus the electronic energy
G-E(el)                           ...      0.11413878 Eh     71.62 kcal/mol

                             ****ORCA TERMINATED NORMALLY****
TOTAL RUN TIME: 0 days 0 hours 12 minutes 26 seconds 603 msec
