                         Program Version 3.0.3 - RELEASE   -
|  1> ! NORI PBE0 def2-TZVP UseSym TightOPT Freq TightSCF Grid3 FinalGrid5 XYZFile
|  2> % pal
|  3>     nprocs 8
|  4> end
|  5> %method
|  6>     SymThresh 5.0e-2
|  7> end
|  8> % geom
|  9>     MaxIter 10
| 10> end
| 11> % maxcore 2000
| 12> % output
| 13>     printlevel mini
| 14>     print[ P_Basis ] 0
| 15>     print[ P_SCFInfo ] 1
| 16>     print[ P_SCFIterInfo ] 1
| 17>     print[ P_OrbEn ] 0
| 18>     print[ P_Cartesian ] 0
| 19> end
| 20> % elprop
| 21>     Dipole false
| 22> end
| 23> *xyz 1 1
| 24>  C        1.0913047651    -0.0442722316     0.1246496589
| 25>  C        2.5734339116     0.1645289739     0.0757282768
| 26>  C        3.2557446735     1.1843977456     1.0017663672
| 27>  C        4.3093050179     0.1231518341     1.3270245717
| 28>  N        3.4062674194    -0.9445747105     0.7415422749
| 29>  H        0.7813539982    -0.9055287974    -0.4710583187
| 30>  H        0.5998434443     0.8373381426    -0.2929392785
| 31>  H        0.7333270545    -0.1657038319     1.1503825881
| 32>  H        2.9424167475     0.2423479632    -0.9483251740
| 33>  H        2.6359854063     1.4413707186     1.8612359386
| 34>  H        3.6158348151     2.0967343844     0.5334930069
| 35>  H        5.2110453048     0.1881231366     0.7218143989
| 36>  H        4.5674087143    -0.0691826942     2.3654064996
| 37>  H        3.8376003609    -1.6362531304     0.1300674114
| 38>  H        2.8710083668    -1.4381675030     1.4556417780
| 39> *
| 40>
| 41>                          ****END OF INPUT****
 Total Charge           Charge          ....    1
 Multiplicity           Mult            ....    1
 Number of Electrons    NEL             ....   40
FINAL SINGLE POINT ENERGY      -212.756117923534

CARTESIAN COORDINATES (ANGSTROEM)
---------------------------------
  C      1.758911    0.000150   -0.737611
  C      0.409372    0.466730   -0.285946
  C     -0.872041   -0.181239   -0.835148
  C     -1.399783   -0.257311    0.599266
  N      0.000015   -0.000084    1.121737
  H      2.562223    0.441333   -0.143726
  H      1.907791    0.311570   -1.773876
  H      1.841740   -1.089370   -0.706238
  H      0.335539    1.555492   -0.273799
  H     -0.684603   -1.164162   -1.268671
  H     -1.453165    0.414546   -1.534177
  H     -2.038056    0.576177    0.885867
  H     -1.817936   -1.192646    0.963201
  H      0.097741    0.669863    1.883167
  H      0.481922   -0.858928    1.387177

FINAL SINGLE POINT ENERGY      -212.756118200060
                    ***********************HURRAY********************
 Multiplicity           Mult            ....    1
 Number of Electrons    NEL             ....   40
 Basis Dimension        Dim             ....  215
FINAL SINGLE POINT ENERGY      -212.756118328105

VIBRATIONAL FREQUENCIES
-----------------------

   0:         0.00 cm**-1
   1:         0.00 cm**-1
   2:         0.00 cm**-1
   3:         0.00 cm**-1
   4:         0.00 cm**-1
   5:         0.00 cm**-1
   6:       125.68 cm**-1
   7:       243.38 cm**-1
   8:       320.72 cm**-1
   9:       410.34 cm**-1
  10:       640.34 cm**-1
  11:       763.58 cm**-1
  12:       802.36 cm**-1
  13:       860.17 cm**-1
  14:       919.08 cm**-1
  15:       924.59 cm**-1
  16:       950.73 cm**-1
  17:      1006.77 cm**-1
  18:      1025.03 cm**-1
  19:      1097.75 cm**-1
  20:      1153.20 cm**-1
  21:      1203.35 cm**-1
  22:      1244.35 cm**-1
  23:      1268.51 cm**-1
  24:      1287.54 cm**-1
  25:      1303.40 cm**-1
  26:      1328.39 cm**-1
  27:      1352.58 cm**-1
  28:      1391.49 cm**-1
  29:      1420.72 cm**-1
  30:      1479.51 cm**-1
  31:      1480.84 cm**-1
  32:      1490.00 cm**-1
  33:      1503.77 cm**-1
  34:      1643.80 cm**-1
  35:      3055.61 cm**-1
  36:      3107.71 cm**-1
  37:      3116.00 cm**-1
  38:      3126.86 cm**-1
  39:      3140.37 cm**-1
  40:      3143.78 cm**-1
  41:      3181.55 cm**-1
  42:      3197.72 cm**-1
  43:      3462.52 cm**-1
  44:      3535.48 cm**-1

IR SPECTRUM
-----------

 Mode    freq (cm**-1)   T**2         TX         TY         TZ
-------------------------------------------------------------------
   6:       125.68    1.521882  ( -0.115958  -1.152690  -0.423959)
   7:       243.38    0.570014  (  0.324256   0.664312   0.153498)
   8:       320.72    1.544491  ( -0.958879   0.327676   0.719494)
   9:       410.34    1.946368  ( -0.679271   0.728870   0.976580)
  10:       640.34    4.314693  (  0.329858  -1.930972  -0.690822)
  11:       763.58    3.693482  (  1.074017   1.098368  -1.154798)
  12:       802.36    0.796162  (  0.581669   0.500571  -0.455249)
  13:       860.17    9.628045  ( -1.047566   1.449517   2.535656)
  14:       919.08    2.316620  ( -1.298897   0.548980  -0.572808)
  15:       924.59   10.237548  ( -2.911155  -1.324317  -0.094375)
  16:       950.73    2.219430  ( -0.428391   0.032568  -1.426482)
  17:      1006.77    0.884382  ( -0.824210  -0.244604  -0.381089)
  18:      1025.03    6.772429  ( -0.514776  -0.722438   2.446532)
  19:      1097.75    8.339065  (  0.445087   0.654252  -2.777214)
  20:      1153.20    4.193635  ( -0.626187  -0.434236   1.900780)
  21:      1203.35    1.502309  ( -0.097977   1.216707   0.111059)
  22:      1244.35    2.106611  (  1.198429  -0.801236  -0.168525)
  23:      1268.51   55.068376  (  6.031580   2.027659  -3.817986)
  24:      1287.54   12.965211  ( -3.179850  -0.822189   1.475727)
  25:      1303.40   12.347599  (  2.212850   2.052004  -1.800048)
  26:      1328.39   19.626585  (  3.691524   2.298881  -0.845209)
  27:      1352.58    1.240194  ( -0.130830  -1.065074  -0.297816)
  28:      1391.49    9.650771  ( -2.325948  -0.722323   1.928467)
  29:      1420.72   18.034499  (  3.495924  -0.996190  -2.195591)
  30:      1479.51   10.801273  (  1.285825   1.118442   2.810163)
  31:      1480.84   11.839375  (  0.746764   2.942891  -1.618985)
  32:      1490.00   13.605673  ( -0.315287   2.469378   2.721845)
  33:      1503.77    8.450494  ( -2.866405  -0.335883  -0.348426)
  34:      1643.80   53.073483  (  2.917035  -2.039297   6.356544)
  35:      3055.61    2.290767  ( -0.000355   1.040523  -1.099126)
  36:      3107.71    0.264359  ( -0.088608  -0.411704  -0.294969)
  37:      3116.00    0.881684  (  0.551246  -0.642334  -0.406471)
  38:      3126.86    1.160014  (  0.752952  -0.025448  -0.769694)
  39:      3140.37    3.875278  ( -0.176599   1.856539   0.630361)
  40:      3143.78    1.469966  ( -1.073366  -0.562315  -0.040652)
  41:      3181.55    0.127823  ( -0.279717   0.143670   0.170117)
  42:      3197.72    0.236715  ( -0.459571   0.143094   0.070950)
  43:      3462.52   54.704415  ( -3.191085   1.209967  -6.561812)
  44:      3535.48   79.404855  ( -1.979515   8.042703   3.286533)

--------------------------
THERMOCHEMISTRY AT 298.15K
--------------------------

Temperature         ... 298.15 K
Pressure            ... 1.00 atm
Total Mass          ... 72.13 AMU

Throughout the following assumptions are being made:
  (1) The electronic state is orbitally nondegenerate
  (2) There are no thermally accessible electronically excited states
  (3) Hindered rotations indicated by low frequency modes) are not
      treated as such but are treated as vibrations and this may
      case some error
  (4) All equations used are the standard statistical mechanics
      equations for an ideal gas
  (5) All vibrations are strinctly harmonic

------------
INNER ENERGY
------------

The inner energy is: U= E(el) + E(ZPE) + E(vib) + E(rot) + E(trans)
    E(el)   - is the total energy from the electronic structure calculation
              = E(kin-el) + E(nuc-el) + E(el-el) + E(nuc-nuc)
    E(ZPE)  - the the zero temperature vibrational energy from the frequency calculation
    E(vib)  - the the finite temperature correction to E(ZPE) due to population
              of excietd vibrational states
    E(rot)  - is the rotational thermal energy
    E(trans)- is the translational thermal energy

Summary of contributions to the inner energy U:
Electronic energy                ...   -212.75611833 Eh
Zero point energy                ...      0.14286295 Eh      89.65 kcal/mol
Thermal vibrational correction   ...      0.00262763 Eh       1.65 kcal/mol
Thermal rotational correction    ...      0.00141627 Eh       0.89 kcal/mol
Thermal translational correction ...      0.00141627 Eh       0.89 kcal/mol
-----------------------------------------------------------------------
Total thermal energy                   -212.60779520 Eh

Summary of corrections to the electronic energy:
(perhaps to be used in another calculation)
Total thermal correction                  0.00546018 Eh       3.43 kcal/mol
Non-thermal (ZPE) correction              0.14286295 Eh      89.65 kcal/mol
-----------------------------------------------------------------------
Total correction                          0.14832312 Eh      93.07 kcal/mol

--------
ENTHALPY
--------

The enthalpy is H = U + kB*T
                kB is Boltzmann's constant
Total free energy                 ...   -212.60779520 Eh
Thermal Enthalpy correction       ...      0.00094421 Eh       0.59 kcal/mol
-----------------------------------------------------------------------
Total Enthalpy                    ...   -212.60685100 Eh

-------
ENTROPY
-------

The entropy contributions are T*S = T*(S(el)+S(vib)+S(rot)+S(trans)
     S(el)   - electronic entropy
     S(vib)  - vibrational entropy
     S(rot)  - rotational entropy
     S(trans)- translational entropy
The entropies will be listed as mutliplied by the temperature to get
units of energy

Electronic entropy                ...      0.00000000 Eh      0.00 kcal/mol
Vibrational entropy               ...      0.00426307 Eh      2.68 kcal/mol
Rotational entropy                ...      0.01097498 Eh      6.89 kcal/mol
Translational entropy             ...      0.01840857 Eh     11.55 kcal/mol
-----------------------------------------------------------------------
Final entropy term                ...      0.03364661 Eh     21.11 kcal/mol

CAUTION: The rotational entropy is not quite correctly treated here
         because it includes a symmetry number that is not yet correctly
         implemented in ORCA!
For a nonlinear molecule the correct rotational entropy is:
    S(rot) = R*(ln(qrot/sn)+1.5)
    R    = 8.31441 J/mol/K = 1.987191683e-3 kcal/mol/K
    qrot = 74788.8673293
    sn is the rotational symmetry number. We have assumed 3 here
       if it is different for your molecule then you should correct
       the printed rotational entropy by manually evaluating the equation
       as given above

For convenience we print out the resulting values for sn=1 - 12:
 sn= 1  qrot/sn=   74788.8673 T*S(rot)=     7.54 kcal/mol T*S(tot)=    21.76 kcal/mol
 sn= 2  qrot/sn=   37394.4337 T*S(rot)=     7.13 kcal/mol T*S(tot)=    21.35 kcal/mol
 sn= 3  qrot/sn=   24929.6224 T*S(rot)=     6.89 kcal/mol T*S(tot)=    21.11 kcal/mol
 sn= 4  qrot/sn=   18697.2168 T*S(rot)=     6.72 kcal/mol T*S(tot)=    20.94 kcal/mol
 sn= 5  qrot/sn=   14957.7735 T*S(rot)=     6.58 kcal/mol T*S(tot)=    20.81 kcal/mol
 sn= 6  qrot/sn=   12464.8112 T*S(rot)=     6.48 kcal/mol T*S(tot)=    20.70 kcal/mol
 sn= 7  qrot/sn=   10684.1239 T*S(rot)=     6.38 kcal/mol T*S(tot)=    20.61 kcal/mol
 sn= 8  qrot/sn=    9348.6084 T*S(rot)=     6.31 kcal/mol T*S(tot)=    20.53 kcal/mol
 sn= 9  qrot/sn=    8309.8741 T*S(rot)=     6.24 kcal/mol T*S(tot)=    20.46 kcal/mol
 sn=10  qrot/sn=    7478.8867 T*S(rot)=     6.17 kcal/mol T*S(tot)=    20.40 kcal/mol
 sn=11  qrot/sn=    6798.9879 T*S(rot)=     6.12 kcal/mol T*S(tot)=    20.34 kcal/mol
 sn=12  qrot/sn=    6232.4056 T*S(rot)=     6.07 kcal/mol T*S(tot)=    20.29 kcal/mol

-------------------
GIBBS FREE ENTHALPY
-------------------

The Gibbs free enthalpy is G = H - T*S

Total enthalpy                    ...   -212.60685100 Eh
Total entropy correction          ...     -0.03364661 Eh    -21.11 kcal/mol
-----------------------------------------------------------------------
Final Gibbs free enthalpy         ...   -212.64049761 Eh

For completeness - the Gibbs free enthalpy minus the electronic energy
G-E(el)                           ...      0.11562072 Eh     72.55 kcal/mol

                             ****ORCA TERMINATED NORMALLY****
TOTAL RUN TIME: 0 days 0 hours 13 minutes 2 seconds 521 msec
