                         Program Version 3.0.3 - RELEASE   -
|  1> ! NORI PBE0 def2-TZVP UseSym TightOPT Freq TightSCF Grid3 FinalGrid5 XYZFile
|  2> % pal
|  3>     nprocs 8
|  4> end
|  5> %method
|  6>     SymThresh 5.0e-2
|  7> end
|  8> % geom
|  9>     MaxIter 10
| 10> end
| 11> % maxcore 2000
| 12> % output
| 13>     printlevel mini
| 14>     print[ P_Basis ] 0
| 15>     print[ P_SCFInfo ] 1
| 16>     print[ P_SCFIterInfo ] 1
| 17>     print[ P_OrbEn ] 0
| 18>     print[ P_Cartesian ] 0
| 19> end
| 20> % elprop
| 21>     Dipole false
| 22> end
| 23> *xyz 1 1
| 24>  C        0.8531835571     0.0030786432    -0.2222919707
| 25>  C        2.3023260284    -0.1840880595     0.1140679881
| 26>  C        2.6829639420    -0.1262395628     1.5632197900
| 27>  C        3.1695289955    -0.9144738276    -0.8283511843
| 28>  N        3.2487390987     0.5670426033    -0.7991864103
| 29>  H        0.6713715264    -0.0080484533    -1.2992637589
| 30>  H        0.4713737820     0.9352620286     0.1973713301
| 31>  H        0.2849973061    -0.8193783668     0.2164557092
| 32>  H        3.7613177878    -0.2148661335     1.7135482063
| 33>  H        2.2078421283    -0.9604483965     2.0828074134
| 34>  H        2.3308027274     0.7991142934     2.0222466565
| 35>  H        4.0639819692    -1.4056904419    -0.4658101033
| 36>  H        2.7515676181    -1.3099988355    -1.7456705149
| 37>  H        2.8600742342     1.0805539652    -1.5825305659
| 38>  H        4.0756492988     0.9905805437    -0.3928925852
| 39> *
| 40>
| 41>                          ****END OF INPUT****
 Total Charge           Charge          ....    1
 Multiplicity           Mult            ....    1
 Number of Electrons    NEL             ....   40
FINAL SINGLE POINT ENERGY      -212.752138058588

CARTESIAN COORDINATES (ANGSTROEM)
---------------------------------
  C     -0.820715   -0.557743    1.279688
  C     -0.228061   -0.048627    0.000000
  C     -0.820715   -0.557743   -1.279688
  C      0.478499    1.245318    0.000000
  N      1.285778    0.000162    0.000000
  H     -0.298267   -0.177676    2.160181
  H     -0.819270   -1.648672    1.303783
  H     -1.857741   -0.222311    1.341181
  H     -0.298267   -0.177676   -2.160181
  H     -1.857741   -0.222311   -1.341181
  H     -0.819270   -1.648672   -1.303783
  H      0.556155    1.814782   -0.917732
  H      0.556155    1.814782    0.917732
  H      1.776839   -0.248614    0.851515
  H      1.776839   -0.248614   -0.851515

FINAL SINGLE POINT ENERGY      -212.752138398434
                    ***********************HURRAY********************
 Multiplicity           Mult            ....    1
 Number of Electrons    NEL             ....   40
 Basis Dimension        Dim             ....  215
FINAL SINGLE POINT ENERGY      -212.752138496517

VIBRATIONAL FREQUENCIES
-----------------------

   0:         0.00 cm**-1
   1:         0.00 cm**-1
   2:         0.00 cm**-1
   3:         0.00 cm**-1
   4:         0.00 cm**-1
   5:         0.00 cm**-1
   6:       201.71 cm**-1
   7:       242.24 cm**-1
   8:       333.83 cm**-1
   9:       352.29 cm**-1
  10:       370.34 cm**-1
  11:       418.15 cm**-1
  12:       675.51 cm**-1
  13:       794.52 cm**-1
  14:       860.11 cm**-1
  15:       896.88 cm**-1
  16:       947.45 cm**-1
  17:       951.40 cm**-1
  18:       972.77 cm**-1
  19:      1006.54 cm**-1
  20:      1054.83 cm**-1
  21:      1078.19 cm**-1
  22:      1131.08 cm**-1
  23:      1185.43 cm**-1
  24:      1243.88 cm**-1
  25:      1356.85 cm**-1
  26:      1368.74 cm**-1
  27:      1426.55 cm**-1
  28:      1429.35 cm**-1
  29:      1463.78 cm**-1
  30:      1477.94 cm**-1
  31:      1481.94 cm**-1
  32:      1495.95 cm**-1
  33:      1510.34 cm**-1
  34:      1627.05 cm**-1
  35:      3062.49 cm**-1
  36:      3065.72 cm**-1
  37:      3144.25 cm**-1
  38:      3146.63 cm**-1
  39:      3150.58 cm**-1
  40:      3153.85 cm**-1
  41:      3168.56 cm**-1
  42:      3268.83 cm**-1
  43:      3514.52 cm**-1
  44:      3622.07 cm**-1

IR SPECTRUM
-----------

 Mode    freq (cm**-1)   T**2         TX         TY         TZ
-------------------------------------------------------------------
   6:       201.71    0.000278  ( -0.000012   0.000002  -0.016681)
   7:       242.24    0.985877  (  0.133747  -0.983864  -0.000004)
   8:       333.83    1.437402  (  0.000033   0.000017  -1.198917)
   9:       352.29    1.230603  (  0.923167   0.615114   0.000046)
  10:       370.34    0.129938  (  0.000018   0.000052  -0.360470)
  11:       418.15    1.798753  ( -0.080063  -1.338784  -0.000006)
  12:       675.51    1.456680  (  1.197039   0.154199  -0.000005)
  13:       794.52   19.828263  ( -4.373469   0.837278  -0.000008)
  14:       860.11    0.010152  (  0.000001  -0.000004  -0.100755)
  15:       896.88    2.016602  (  0.000009  -0.000002  -1.420071)
  16:       947.45    6.599457  (  2.531961  -0.434315   0.000020)
  17:       951.40    3.072838  ( -0.000028   0.000002   1.752951)
  18:       972.77    0.189399  ( -0.000049  -0.000006   0.435200)
  19:      1006.54   92.238131  ( -5.893763  -7.582986  -0.000003)
  20:      1054.83    0.093596  (  0.000008   0.000004  -0.305934)
  21:      1078.19    6.899554  (  0.740766   2.520083  -0.000011)
  22:      1131.08   21.562247  ( -3.908041   2.507881   0.000005)
  23:      1185.43    3.435580  (  1.798618  -0.447833   0.000001)
  24:      1243.88    2.063909  ( -0.000012   0.000000   1.436631)
  25:      1356.85    2.292748  (  0.000006   0.000025  -1.514182)
  26:      1368.74    9.904268  (  2.481802   1.935181   0.000022)
  27:      1426.55   29.158518  ( -0.000120  -0.000029   5.399863)
  28:      1429.35    8.379160  ( -2.608075  -1.255829  -0.000227)
  29:      1463.78    0.189790  ( -0.000062  -0.000011   0.435649)
  30:      1477.94    4.409612  (  0.000011  -0.000287  -2.099908)
  31:      1481.94   32.203981  (  1.336944  -5.515121   0.000124)
  32:      1495.95   11.406979  (  3.090600   1.362046  -0.000018)
  33:      1510.34    0.817859  ( -0.858023  -0.285755   0.000037)
  34:      1627.05   71.773200  ( -8.156867   2.288825   0.000000)
  35:      3062.49    0.887064  (  0.000149   0.000008  -0.941841)
  36:      3065.72    1.841194  (  1.356624   0.027670   0.000089)
  37:      3144.25    3.935199  (  0.000138   0.000187  -1.983734)
  38:      3146.63    1.903229  (  0.805666   1.119880   0.000311)
  39:      3150.58    0.047188  ( -0.000018  -0.000031  -0.217228)
  40:      3153.85    2.057453  ( -0.949006  -1.075565  -0.000021)
  41:      3168.56    1.534803  (  0.073862   1.236668  -0.000002)
  42:      3268.83    3.310434  ( -0.000000   0.000000  -1.819460)
  43:      3514.52   98.697017  ( -9.183194   3.790247  -0.000000)
  44:      3622.07  109.633392  (  0.000005   0.000000  10.470597)

--------------------------
THERMOCHEMISTRY AT 298.15K
--------------------------

Temperature         ... 298.15 K
Pressure            ... 1.00 atm
Total Mass          ... 72.13 AMU

Throughout the following assumptions are being made:
  (1) The electronic state is orbitally nondegenerate
  (2) There are no thermally accessible electronically excited states
  (3) Hindered rotations indicated by low frequency modes) are not
      treated as such but are treated as vibrations and this may
      case some error
  (4) All equations used are the standard statistical mechanics
      equations for an ideal gas
  (5) All vibrations are strinctly harmonic

------------
INNER ENERGY
------------

The inner energy is: U= E(el) + E(ZPE) + E(vib) + E(rot) + E(trans)
    E(el)   - is the total energy from the electronic structure calculation
              = E(kin-el) + E(nuc-el) + E(el-el) + E(nuc-nuc)
    E(ZPE)  - the the zero temperature vibrational energy from the frequency calculation
    E(vib)  - the the finite temperature correction to E(ZPE) due to population
              of excietd vibrational states
    E(rot)  - is the rotational thermal energy
    E(trans)- is the translational thermal energy

Summary of contributions to the inner energy U:
Electronic energy                ...   -212.75213850 Eh
Zero point energy                ...      0.14045613 Eh      88.14 kcal/mol
Thermal vibrational correction   ...      0.00308249 Eh       1.93 kcal/mol
Thermal rotational correction    ...      0.00141627 Eh       0.89 kcal/mol
Thermal translational correction ...      0.00141627 Eh       0.89 kcal/mol
-----------------------------------------------------------------------
Total thermal energy                   -212.60576734 Eh

Summary of corrections to the electronic energy:
(perhaps to be used in another calculation)
Total thermal correction                  0.00591503 Eh       3.71 kcal/mol
Non-thermal (ZPE) correction              0.14045613 Eh      88.14 kcal/mol
-----------------------------------------------------------------------
Total correction                          0.14637116 Eh      91.85 kcal/mol

--------
ENTHALPY
--------

The enthalpy is H = U + kB*T
                kB is Boltzmann's constant
Total free energy                 ...   -212.60576734 Eh
Thermal Enthalpy correction       ...      0.00094421 Eh       0.59 kcal/mol
-----------------------------------------------------------------------
Total Enthalpy                    ...   -212.60482313 Eh

-------
ENTROPY
-------

The entropy contributions are T*S = T*(S(el)+S(vib)+S(rot)+S(trans)
     S(el)   - electronic entropy
     S(vib)  - vibrational entropy
     S(rot)  - rotational entropy
     S(trans)- translational entropy
The entropies will be listed as mutliplied by the temperature to get
units of energy

Electronic entropy                ...      0.00000000 Eh      0.00 kcal/mol
Vibrational entropy               ...      0.00473997 Eh      2.97 kcal/mol
Rotational entropy                ...      0.01101945 Eh      6.91 kcal/mol
Translational entropy             ...      0.01840857 Eh     11.55 kcal/mol
-----------------------------------------------------------------------
Final entropy term                ...      0.03416798 Eh     21.44 kcal/mol

CAUTION: The rotational entropy is not quite correctly treated here
         because it includes a symmetry number that is not yet correctly
         implemented in ORCA!
For a nonlinear molecule the correct rotational entropy is:
    S(rot) = R*(ln(qrot/sn)+1.5)
    R    = 8.31441 J/mol/K = 1.987191683e-3 kcal/mol/K
    qrot = 78395.3237352
    sn is the rotational symmetry number. We have assumed 3 here
       if it is different for your molecule then you should correct
       the printed rotational entropy by manually evaluating the equation
       as given above

For convenience we print out the resulting values for sn=1 - 12:
 sn= 1  qrot/sn=   78395.3237 T*S(rot)=     7.57 kcal/mol T*S(tot)=    22.09 kcal/mol
 sn= 2  qrot/sn=   39197.6619 T*S(rot)=     7.16 kcal/mol T*S(tot)=    21.68 kcal/mol
 sn= 3  qrot/sn=   26131.7746 T*S(rot)=     6.91 kcal/mol T*S(tot)=    21.44 kcal/mol
 sn= 4  qrot/sn=   19598.8309 T*S(rot)=     6.74 kcal/mol T*S(tot)=    21.27 kcal/mol
 sn= 5  qrot/sn=   15679.0647 T*S(rot)=     6.61 kcal/mol T*S(tot)=    21.14 kcal/mol
 sn= 6  qrot/sn=   13065.8873 T*S(rot)=     6.50 kcal/mol T*S(tot)=    21.03 kcal/mol
 sn= 7  qrot/sn=   11199.3320 T*S(rot)=     6.41 kcal/mol T*S(tot)=    20.94 kcal/mol
 sn= 8  qrot/sn=    9799.4155 T*S(rot)=     6.33 kcal/mol T*S(tot)=    20.86 kcal/mol
 sn= 9  qrot/sn=    8710.5915 T*S(rot)=     6.26 kcal/mol T*S(tot)=    20.79 kcal/mol
 sn=10  qrot/sn=    7839.5324 T*S(rot)=     6.20 kcal/mol T*S(tot)=    20.73 kcal/mol
 sn=11  qrot/sn=    7126.8476 T*S(rot)=     6.14 kcal/mol T*S(tot)=    20.67 kcal/mol
 sn=12  qrot/sn=    6532.9436 T*S(rot)=     6.09 kcal/mol T*S(tot)=    20.62 kcal/mol

-------------------
GIBBS FREE ENTHALPY
-------------------

The Gibbs free enthalpy is G = H - T*S

Total enthalpy                    ...   -212.60482313 Eh
Total entropy correction          ...     -0.03416798 Eh    -21.44 kcal/mol
-----------------------------------------------------------------------
Final Gibbs free enthalpy         ...   -212.63899111 Eh

For completeness - the Gibbs free enthalpy minus the electronic energy
G-E(el)                           ...      0.11314739 Eh     71.00 kcal/mol

                             ****ORCA TERMINATED NORMALLY****
TOTAL RUN TIME: 0 days 0 hours 13 minutes 14 seconds 148 msec
