                         Program Version 3.0.3 - RELEASE   -
|  1> ! NORI PBE0 def2-TZVP UseSym TightOPT Freq TightSCF Grid3 FinalGrid5 XYZFile
|  2> % pal
|  3>     nprocs 8
|  4> end
|  5> %method
|  6>     SymThresh 5.0e-2
|  7> end
|  8> % geom
|  9>     MaxIter 10
| 10> end
| 11> % maxcore 2000
| 12> % output
| 13>     printlevel mini
| 14>     print[ P_Basis ] 0
| 15>     print[ P_SCFInfo ] 1
| 16>     print[ P_SCFIterInfo ] 1
| 17>     print[ P_OrbEn ] 0
| 18>     print[ P_Cartesian ] 0
| 19> end
| 20> % elprop
| 21>     Dipole false
| 22> end
| 23> *xyz 1 1
| 24>  C        0.9975718138     0.0378588139     0.0429139685
| 25>  C        2.4871401995    -0.0454095768     0.0978967030
| 26>  C        3.2740408495    -0.8043202072    -0.8912281960
| 27>  N        3.2628609992     0.6742813518    -0.9536387662
| 28>  C        4.4602760202     1.4660479312    -0.6469073778
| 29>  H        0.5784460158    -0.7748134080     0.6394542269
| 30>  H        0.6201925285    -0.0717283231    -0.9765160270
| 31>  H        0.6381232224     0.9793317467     0.4609490028
| 32>  H        2.9465925397     0.0889401463     1.0718322199
| 33>  H        4.2338953839    -1.2212610832    -0.6144967524
| 34>  H        2.7612364288    -1.2918593593    -1.7114844271
| 35>  H        2.6908265616     1.0590869306    -1.6993537347
| 36>  H        5.0048988857     0.9818849357     0.1617550601
| 37>  H        4.1560233077     2.4656798905    -0.3400361469
| 38>  H        5.0896052437     1.5178802109    -1.5349297534
| 39> *
| 40>
| 41>                          ****END OF INPUT****
 Total Charge           Charge          ....    1
 Multiplicity           Mult            ....    1
 Number of Electrons    NEL             ....   40
FINAL SINGLE POINT ENERGY      -212.743723398994

CARTESIAN COORDINATES (ANGSTROEM)
---------------------------------
  C      1.357052   -0.000067   -1.459418
  C      0.030413    0.099617   -0.781858
  C     -0.613628   -1.055218   -0.130171
  N      0.000340   -0.000194    0.706563
  C     -0.815141    0.892037    1.539735
  H      1.196230   -0.242004   -2.511829
  H      1.976388   -0.790699   -1.029412
  H      1.897268    0.946634   -1.412712
  H     -0.634186    0.885357   -1.126071
  H     -1.692396   -1.100285   -0.051871
  H     -0.094330   -2.005522   -0.107104
  H      0.890256   -0.257997    1.122230
  H     -1.741426    1.116132    1.013433
  H     -0.262054    1.812681    1.721110
  H     -1.039207    0.393163    2.481982

FINAL SINGLE POINT ENERGY      -212.743724085784
                    ***********************HURRAY********************
 Multiplicity           Mult            ....    1
 Number of Electrons    NEL             ....   40
 Basis Dimension        Dim             ....  215
FINAL SINGLE POINT ENERGY      -212.743724617406

VIBRATIONAL FREQUENCIES
-----------------------

   0:         0.00 cm**-1
   1:         0.00 cm**-1
   2:         0.00 cm**-1
   3:         0.00 cm**-1
   4:         0.00 cm**-1
   5:         0.00 cm**-1
   6:       191.11 cm**-1
   7:       214.25 cm**-1
   8:       237.44 cm**-1
   9:       296.40 cm**-1
  10:       410.75 cm**-1
  11:       439.56 cm**-1
  12:       774.21 cm**-1
  13:       800.87 cm**-1
  14:       888.44 cm**-1
  15:       925.03 cm**-1
  16:       964.22 cm**-1
  17:      1051.25 cm**-1
  18:      1089.09 cm**-1
  19:      1125.77 cm**-1
  20:      1159.17 cm**-1
  21:      1161.08 cm**-1
  22:      1197.35 cm**-1
  23:      1228.07 cm**-1
  24:      1241.89 cm**-1
  25:      1293.53 cm**-1
  26:      1393.60 cm**-1
  27:      1426.66 cm**-1
  28:      1454.66 cm**-1
  29:      1461.84 cm**-1
  30:      1474.74 cm**-1
  31:      1482.32 cm**-1
  32:      1488.39 cm**-1
  33:      1496.76 cm**-1
  34:      1521.41 cm**-1
  35:      3063.22 cm**-1
  36:      3083.72 cm**-1
  37:      3142.44 cm**-1
  38:      3152.51 cm**-1
  39:      3167.38 cm**-1
  40:      3181.45 cm**-1
  41:      3184.89 cm**-1
  42:      3192.06 cm**-1
  43:      3269.07 cm**-1
  44:      3539.24 cm**-1

IR SPECTRUM
-----------

 Mode    freq (cm**-1)   T**2         TX         TY         TZ
-------------------------------------------------------------------
   6:       191.11    0.018612  ( -0.109871  -0.063241  -0.050413)
   7:       214.25    0.155250  (  0.208959   0.266706   0.201132)
   8:       237.44    0.067929  ( -0.043657  -0.184979  -0.178342)
   9:       296.40    0.985154  ( -0.007318  -0.759245   0.639255)
  10:       410.75    0.840836  ( -0.746652  -0.302320   0.438120)
  11:       439.56    0.368134  (  0.521757  -0.125877   0.282946)
  12:       774.21    4.995538  ( -0.950551  -0.394922   1.983942)
  13:       800.87   10.365514  (  1.566415   0.484049   2.770840)
  14:       888.44    7.742704  ( -0.013322  -0.239221  -2.772237)
  15:       925.03    5.936041  ( -0.251433  -2.324199  -0.686238)
  16:       964.22   23.224526  (  1.960531   3.082400  -3.143192)
  17:      1051.25   25.409784  ( -0.567231  -1.993707  -4.594906)
  18:      1089.09   12.392224  ( -1.210097   0.125668   3.303346)
  19:      1125.77   16.143354  ( -0.483049  -3.400256  -2.085252)
  20:      1159.17    3.995208  (  0.969697  -1.699219   0.409329)
  21:      1161.08   10.067562  ( -1.728006  -0.928800   2.493770)
  22:      1197.35    1.770614  ( -0.235828  -0.290291   1.277000)
  23:      1228.07    5.071156  ( -0.709909  -2.100998   0.391146)
  24:      1241.89    4.193895  (  0.910216  -1.153942  -1.426120)
  25:      1293.53    3.401236  ( -1.232752   0.116464  -1.366746)
  26:      1393.60    2.357683  (  0.746227  -1.339311  -0.084108)
  27:      1426.66    6.011645  (  2.221891   0.335442  -0.980981)
  28:      1454.66    4.800704  ( -0.927507   1.974053  -0.208688)
  29:      1461.84   22.035459  ( -1.012453   3.215846   3.266302)
  30:      1474.74    7.452248  (  1.875860   1.813706   0.802413)
  31:      1482.32   20.820647  ( -1.714830  -3.394434   2.521473)
  32:      1488.39   10.642855  ( -0.700774   2.604309  -1.835578)
  33:      1496.76   29.937807  ( -4.059558  -0.039077  -3.668278)
  34:      1521.41   27.491188  ( -1.816465   0.721769   4.865254)
  35:      3063.22    1.733984  ( -0.517630   0.455562  -1.121831)
  36:      3083.72    0.413128  (  0.365919  -0.366924  -0.380260)
  37:      3142.44    1.618485  ( -0.498719   1.121697  -0.334007)
  38:      3152.51    1.111089  (  0.338622   0.579897  -0.812492)
  39:      3167.38    1.967002  (  0.726739   1.195229   0.101395)
  40:      3181.45    0.133101  ( -0.101455  -0.337291   0.095092)
  41:      3184.89    0.322243  ( -0.349221   0.032825   0.446330)
  42:      3192.06    0.893072  ( -0.150120  -0.456717   0.813600)
  43:      3269.07    4.166749  (  1.800955  -0.959925   0.043060)
  44:      3539.24   76.744644  ( -7.111720   1.399137  -4.920416)

--------------------------
THERMOCHEMISTRY AT 298.15K
--------------------------

Temperature         ... 298.15 K
Pressure            ... 1.00 atm
Total Mass          ... 72.13 AMU

Throughout the following assumptions are being made:
  (1) The electronic state is orbitally nondegenerate
  (2) There are no thermally accessible electronically excited states
  (3) Hindered rotations indicated by low frequency modes) are not
      treated as such but are treated as vibrations and this may
      case some error
  (4) All equations used are the standard statistical mechanics
      equations for an ideal gas
  (5) All vibrations are strinctly harmonic

------------
INNER ENERGY
------------

The inner energy is: U= E(el) + E(ZPE) + E(vib) + E(rot) + E(trans)
    E(el)   - is the total energy from the electronic structure calculation
              = E(kin-el) + E(nuc-el) + E(el-el) + E(nuc-nuc)
    E(ZPE)  - the the zero temperature vibrational energy from the frequency calculation
    E(vib)  - the the finite temperature correction to E(ZPE) due to population
              of excietd vibrational states
    E(rot)  - is the rotational thermal energy
    E(trans)- is the translational thermal energy

Summary of contributions to the inner energy U:
Electronic energy                ...   -212.74372462 Eh
Zero point energy                ...      0.14094073 Eh      88.44 kcal/mol
Thermal vibrational correction   ...      0.00315375 Eh       1.98 kcal/mol
Thermal rotational correction    ...      0.00141627 Eh       0.89 kcal/mol
Thermal translational correction ...      0.00141627 Eh       0.89 kcal/mol
-----------------------------------------------------------------------
Total thermal energy                   -212.59679760 Eh

Summary of corrections to the electronic energy:
(perhaps to be used in another calculation)
Total thermal correction                  0.00598629 Eh       3.76 kcal/mol
Non-thermal (ZPE) correction              0.14094073 Eh      88.44 kcal/mol
-----------------------------------------------------------------------
Total correction                          0.14692702 Eh      92.20 kcal/mol

--------
ENTHALPY
--------

The enthalpy is H = U + kB*T
                kB is Boltzmann's constant
Total free energy                 ...   -212.59679760 Eh
Thermal Enthalpy correction       ...      0.00094421 Eh       0.59 kcal/mol
-----------------------------------------------------------------------
Total Enthalpy                    ...   -212.59585339 Eh

-------
ENTROPY
-------

The entropy contributions are T*S = T*(S(el)+S(vib)+S(rot)+S(trans)
     S(el)   - electronic entropy
     S(vib)  - vibrational entropy
     S(rot)  - rotational entropy
     S(trans)- translational entropy
The entropies will be listed as mutliplied by the temperature to get
units of energy

Electronic entropy                ...      0.00000000 Eh      0.00 kcal/mol
Vibrational entropy               ...      0.00504208 Eh      3.16 kcal/mol
Rotational entropy                ...      0.01106929 Eh      6.95 kcal/mol
Translational entropy             ...      0.01840857 Eh     11.55 kcal/mol
-----------------------------------------------------------------------
Final entropy term                ...      0.03451994 Eh     21.66 kcal/mol

CAUTION: The rotational entropy is not quite correctly treated here
         because it includes a symmetry number that is not yet correctly
         implemented in ORCA!
For a nonlinear molecule the correct rotational entropy is:
    S(rot) = R*(ln(qrot/sn)+1.5)
    R    = 8.31441 J/mol/K = 1.987191683e-3 kcal/mol/K
    qrot = 82645.0768547
    sn is the rotational symmetry number. We have assumed 3 here
       if it is different for your molecule then you should correct
       the printed rotational entropy by manually evaluating the equation
       as given above

For convenience we print out the resulting values for sn=1 - 12:
 sn= 1  qrot/sn=   82645.0769 T*S(rot)=     7.60 kcal/mol T*S(tot)=    22.31 kcal/mol
 sn= 2  qrot/sn=   41322.5384 T*S(rot)=     7.19 kcal/mol T*S(tot)=    21.90 kcal/mol
 sn= 3  qrot/sn=   27548.3590 T*S(rot)=     6.95 kcal/mol T*S(tot)=    21.66 kcal/mol
 sn= 4  qrot/sn=   20661.2692 T*S(rot)=     6.78 kcal/mol T*S(tot)=    21.49 kcal/mol
 sn= 5  qrot/sn=   16529.0154 T*S(rot)=     6.64 kcal/mol T*S(tot)=    21.36 kcal/mol
 sn= 6  qrot/sn=   13774.1795 T*S(rot)=     6.54 kcal/mol T*S(tot)=    21.25 kcal/mol
 sn= 7  qrot/sn=   11806.4396 T*S(rot)=     6.44 kcal/mol T*S(tot)=    21.16 kcal/mol
 sn= 8  qrot/sn=   10330.6346 T*S(rot)=     6.36 kcal/mol T*S(tot)=    21.08 kcal/mol
 sn= 9  qrot/sn=    9182.7863 T*S(rot)=     6.30 kcal/mol T*S(tot)=    21.01 kcal/mol
 sn=10  qrot/sn=    8264.5077 T*S(rot)=     6.23 kcal/mol T*S(tot)=    20.95 kcal/mol
 sn=11  qrot/sn=    7513.1888 T*S(rot)=     6.18 kcal/mol T*S(tot)=    20.89 kcal/mol
 sn=12  qrot/sn=    6887.0897 T*S(rot)=     6.12 kcal/mol T*S(tot)=    20.84 kcal/mol

-------------------
GIBBS FREE ENTHALPY
-------------------

The Gibbs free enthalpy is G = H - T*S

Total enthalpy                    ...   -212.59585339 Eh
Total entropy correction          ...     -0.03451994 Eh    -21.66 kcal/mol
-----------------------------------------------------------------------
Final Gibbs free enthalpy         ...   -212.63037332 Eh

For completeness - the Gibbs free enthalpy minus the electronic energy
G-E(el)                           ...      0.11335129 Eh     71.13 kcal/mol

                             ****ORCA TERMINATED NORMALLY****
TOTAL RUN TIME: 0 days 0 hours 12 minutes 36 seconds 833 msec
