                         Program Version 3.0.3 - RELEASE   -
|  1> ! NORI PBE0 def2-TZVP UseSym TightOPT Freq TightSCF Grid3 FinalGrid5 XYZFile
|  2> % pal
|  3>     nprocs 8
|  4> end
|  5> %method
|  6>     SymThresh 5.0e-2
|  7> end
|  8> % geom
|  9>     MaxIter 10
| 10> end
| 11> % maxcore 2000
| 12> % output
| 13>     printlevel mini
| 14>     print[ P_Basis ] 0
| 15>     print[ P_SCFInfo ] 1
| 16>     print[ P_SCFIterInfo ] 1
| 17>     print[ P_OrbEn ] 0
| 18>     print[ P_Cartesian ] 0
| 19> end
| 20> % elprop
| 21>     Dipole false
| 22> end
| 23> *xyz 1 1
| 24>  C        0.9829667553     0.0449219636     0.0701065085
| 25>  C        2.4896635838     0.0516220631     0.0486201203
| 26>  C        3.2246794608     1.1322099712     0.8613707350
| 27>  N        4.2066530417     0.0831613281     1.3526040899
| 28>  C        3.2365909636    -0.9927927640     0.8970509483
| 29>  H        0.5852051265     0.9162267705    -0.4535750026
| 30>  H        0.5982591865     0.0570050613     1.0930927535
| 31>  H        0.5920988523    -0.8429079997    -0.4303530270
| 32>  H        2.8623293653     0.0360130981    -0.9786915823
| 33>  H        2.6531335033     1.4953257984     1.7149328966
| 34>  H        3.7100313306     1.9598150424     0.3485544934
| 35>  H        4.4481767301     0.1014503084     2.3423988178
| 36>  H        5.0721078829     0.0786625446     0.8149360832
| 37>  H        3.7314837751    -1.8309760417     0.4112662919
| 38>  H        2.6699504422    -1.3352571442     1.7623558734
| 39> *
| 40>
| 41>                          ****END OF INPUT****
 Total Charge           Charge          ....    1
 Multiplicity           Mult            ....    1
 Number of Electrons    NEL             ....   40
FINAL SINGLE POINT ENERGY      -212.751257640087

CARTESIAN COORDINATES (ANGSTROEM)
---------------------------------
  C     -1.934499   -0.304692    0.000000
  C     -0.597907    0.391457   -0.000000
  C      0.437714   -0.016803    1.062658
  N      1.522307    0.000580    0.000000
  C      0.437714   -0.016803   -1.062658
  H     -2.516653   -0.024133    0.879612
  H     -1.818686   -1.391467    0.000000
  H     -2.516653   -0.024133   -0.879612
  H     -0.727299    1.476747    0.000000
  H      0.316884   -1.040790    1.415136
  H      0.650250    0.649409    1.895785
  H      2.184191   -0.774184    0.000000
  H      2.052513    0.870893    0.000000
  H      0.650250    0.649409   -1.895785
  H      0.316884   -1.040790   -1.415136

FINAL SINGLE POINT ENERGY      -212.751258372052
                    ***********************HURRAY********************
 Multiplicity           Mult            ....    1
 Number of Electrons    NEL             ....   40
 Basis Dimension        Dim             ....  215
FINAL SINGLE POINT ENERGY      -212.751259013972

VIBRATIONAL FREQUENCIES
-----------------------

   0:         0.00 cm**-1
   1:         0.00 cm**-1
   2:         0.00 cm**-1
   3:         0.00 cm**-1
   4:         0.00 cm**-1
   5:         0.00 cm**-1
   6:       132.64 cm**-1
   7:       227.77 cm**-1
   8:       311.24 cm**-1
   9:       401.71 cm**-1
  10:       648.33 cm**-1
  11:       799.37 cm**-1
  12:       816.21 cm**-1
  13:       890.73 cm**-1
  14:       901.99 cm**-1
  15:       924.27 cm**-1
  16:       936.35 cm**-1
  17:       973.99 cm**-1
  18:      1032.61 cm**-1
  19:      1142.97 cm**-1
  20:      1150.47 cm**-1
  21:      1206.74 cm**-1
  22:      1249.59 cm**-1
  23:      1290.39 cm**-1
  24:      1296.61 cm**-1
  25:      1321.98 cm**-1
  26:      1329.89 cm**-1
  27:      1332.70 cm**-1
  28:      1402.57 cm**-1
  29:      1422.12 cm**-1
  30:      1481.90 cm**-1
  31:      1485.30 cm**-1
  32:      1490.80 cm**-1
  33:      1503.32 cm**-1
  34:      1649.37 cm**-1
  35:      3058.84 cm**-1
  36:      3088.34 cm**-1
  37:      3114.15 cm**-1
  38:      3117.81 cm**-1
  39:      3138.79 cm**-1
  40:      3146.24 cm**-1
  41:      3190.56 cm**-1
  42:      3191.44 cm**-1
  43:      3470.22 cm**-1
  44:      3537.46 cm**-1

IR SPECTRUM
-----------

 Mode    freq (cm**-1)   T**2         TX         TY         TZ
-------------------------------------------------------------------
   6:       132.64    2.712996  (  0.203867  -1.634452   0.000000)
   7:       227.77    0.276178  (  0.000000  -0.000001  -0.525526)
   8:       311.24    0.357593  ( -0.000001  -0.000000  -0.597991)
   9:       401.71    1.208699  (  1.007881   0.439176   0.000000)
  10:       648.33    4.972411  (  0.515487  -2.169489  -0.000000)
  11:       799.37    2.326960  ( -0.894275  -1.235813   0.000006)
  12:       816.21    4.892135  ( -0.000003  -0.000008  -2.211817)
  13:       890.73    8.193044  (  1.979370  -2.067641  -0.000000)
  14:       901.99    1.601369  ( -0.000000  -0.000005   1.265452)
  15:       924.27    0.523330  (  0.000000  -0.000001  -0.723416)
  16:       936.35    1.680352  ( -0.051643   1.295255  -0.000000)
  17:       973.99    7.890235  ( -2.792910   0.299816   0.000000)
  18:      1032.61    1.016256  (  0.000000   0.000020   1.008095)
  19:      1142.97    0.204789  (  0.412585   0.185912  -0.000002)
  20:      1150.47    5.208158  (  0.000001  -0.000014   2.282139)
  21:      1206.74    0.114000  (  0.127649  -0.312579  -0.000003)
  22:      1249.59   30.431808  (  0.000000   0.000008  -5.516503)
  23:      1290.39    3.160132  (  0.082448   1.775763   0.000000)
  24:      1296.61   19.196458  ( -0.000000  -0.000014  -4.381376)
  25:      1321.98    0.175496  ( -0.000000  -0.000008  -0.418922)
  26:      1329.89   26.793496  ( -0.000000   0.000003   5.176243)
  27:      1332.70    0.817626  (  0.708786  -0.561469   0.000003)
  28:      1402.57    0.910800  (  0.762868  -0.573439  -0.000000)
  29:      1422.12    6.463670  (  2.149903   1.357050  -0.000000)
  30:      1481.90   22.295302  (  0.000000   0.000001   4.721790)
  31:      1485.30    0.694244  ( -0.000000  -0.000002   0.833213)
  32:      1490.80    9.694165  (  1.743889  -2.579344  -0.000000)
  33:      1503.32   12.670223  (  1.387271  -3.278064  -0.000000)
  34:      1649.37   59.346668  ( -7.672072  -0.697126   0.000000)
  35:      3058.84    2.828727  ( -0.679914  -1.538325  -0.000000)
  36:      3088.34    2.527605  ( -0.887454  -1.319102   0.000000)
  37:      3114.15    1.056934  (  0.000000   0.000004   1.028073)
  38:      3117.81    0.664460  ( -0.201580   0.789826   0.000000)
  39:      3138.79    7.318837  ( -0.910810   2.547403   0.000000)
  40:      3146.24    2.168139  (  0.000000   0.000000   1.472460)
  41:      3190.56    0.440903  (  0.000000   0.000002   0.664005)
  42:      3191.44    0.002914  ( -0.044677   0.030300   0.000001)
  43:      3470.22   69.689415  (  8.337845   0.412008  -0.000000)
  44:      3537.46   88.560940  (  0.287633  -9.406285   0.000000)

--------------------------
THERMOCHEMISTRY AT 298.15K
--------------------------

Temperature         ... 298.15 K
Pressure            ... 1.00 atm
Total Mass          ... 72.13 AMU

Throughout the following assumptions are being made:
  (1) The electronic state is orbitally nondegenerate
  (2) There are no thermally accessible electronically excited states
  (3) Hindered rotations indicated by low frequency modes) are not
      treated as such but are treated as vibrations and this may
      case some error
  (4) All equations used are the standard statistical mechanics
      equations for an ideal gas
  (5) All vibrations are strinctly harmonic

------------
INNER ENERGY
------------

The inner energy is: U= E(el) + E(ZPE) + E(vib) + E(rot) + E(trans)
    E(el)   - is the total energy from the electronic structure calculation
              = E(kin-el) + E(nuc-el) + E(el-el) + E(nuc-nuc)
    E(ZPE)  - the the zero temperature vibrational energy from the frequency calculation
    E(vib)  - the the finite temperature correction to E(ZPE) due to population
              of excietd vibrational states
    E(rot)  - is the rotational thermal energy
    E(trans)- is the translational thermal energy

Summary of contributions to the inner energy U:
Electronic energy                ...   -212.75125901 Eh
Zero point energy                ...      0.14308668 Eh      89.79 kcal/mol
Thermal vibrational correction   ...      0.00263502 Eh       1.65 kcal/mol
Thermal rotational correction    ...      0.00141627 Eh       0.89 kcal/mol
Thermal translational correction ...      0.00141627 Eh       0.89 kcal/mol
-----------------------------------------------------------------------
Total thermal energy                   -212.60270478 Eh

Summary of corrections to the electronic energy:
(perhaps to be used in another calculation)
Total thermal correction                  0.00546756 Eh       3.43 kcal/mol
Non-thermal (ZPE) correction              0.14308668 Eh      89.79 kcal/mol
-----------------------------------------------------------------------
Total correction                          0.14855424 Eh      93.22 kcal/mol

--------
ENTHALPY
--------

The enthalpy is H = U + kB*T
                kB is Boltzmann's constant
Total free energy                 ...   -212.60270478 Eh
Thermal Enthalpy correction       ...      0.00094421 Eh       0.59 kcal/mol
-----------------------------------------------------------------------
Total Enthalpy                    ...   -212.60176057 Eh

-------
ENTROPY
-------

The entropy contributions are T*S = T*(S(el)+S(vib)+S(rot)+S(trans)
     S(el)   - electronic entropy
     S(vib)  - vibrational entropy
     S(rot)  - rotational entropy
     S(trans)- translational entropy
The entropies will be listed as mutliplied by the temperature to get
units of energy

Electronic entropy                ...      0.00000000 Eh      0.00 kcal/mol
Vibrational entropy               ...      0.00427826 Eh      2.68 kcal/mol
Rotational entropy                ...      0.01098417 Eh      6.89 kcal/mol
Translational entropy             ...      0.01840857 Eh     11.55 kcal/mol
-----------------------------------------------------------------------
Final entropy term                ...      0.03367100 Eh     21.13 kcal/mol

CAUTION: The rotational entropy is not quite correctly treated here
         because it includes a symmetry number that is not yet correctly
         implemented in ORCA!
For a nonlinear molecule the correct rotational entropy is:
    S(rot) = R*(ln(qrot/sn)+1.5)
    R    = 8.31441 J/mol/K = 1.987191683e-3 kcal/mol/K
    qrot = 75520.0488551
    sn is the rotational symmetry number. We have assumed 3 here
       if it is different for your molecule then you should correct
       the printed rotational entropy by manually evaluating the equation
       as given above

For convenience we print out the resulting values for sn=1 - 12:
 sn= 1  qrot/sn=   75520.0489 T*S(rot)=     7.54 kcal/mol T*S(tot)=    21.78 kcal/mol
 sn= 2  qrot/sn=   37760.0244 T*S(rot)=     7.13 kcal/mol T*S(tot)=    21.37 kcal/mol
 sn= 3  qrot/sn=   25173.3496 T*S(rot)=     6.89 kcal/mol T*S(tot)=    21.13 kcal/mol
 sn= 4  qrot/sn=   18880.0122 T*S(rot)=     6.72 kcal/mol T*S(tot)=    20.96 kcal/mol
 sn= 5  qrot/sn=   15104.0098 T*S(rot)=     6.59 kcal/mol T*S(tot)=    20.83 kcal/mol
 sn= 6  qrot/sn=   12586.6748 T*S(rot)=     6.48 kcal/mol T*S(tot)=    20.72 kcal/mol
 sn= 7  qrot/sn=   10788.5784 T*S(rot)=     6.39 kcal/mol T*S(tot)=    20.63 kcal/mol
 sn= 8  qrot/sn=    9440.0061 T*S(rot)=     6.31 kcal/mol T*S(tot)=    20.55 kcal/mol
 sn= 9  qrot/sn=    8391.1165 T*S(rot)=     6.24 kcal/mol T*S(tot)=    20.48 kcal/mol
 sn=10  qrot/sn=    7552.0049 T*S(rot)=     6.18 kcal/mol T*S(tot)=    20.42 kcal/mol
 sn=11  qrot/sn=    6865.4590 T*S(rot)=     6.12 kcal/mol T*S(tot)=    20.36 kcal/mol
 sn=12  qrot/sn=    6293.3374 T*S(rot)=     6.07 kcal/mol T*S(tot)=    20.31 kcal/mol

-------------------
GIBBS FREE ENTHALPY
-------------------

The Gibbs free enthalpy is G = H - T*S

Total enthalpy                    ...   -212.60176057 Eh
Total entropy correction          ...     -0.03367100 Eh    -21.13 kcal/mol
-----------------------------------------------------------------------
Final Gibbs free enthalpy         ...   -212.63543156 Eh

For completeness - the Gibbs free enthalpy minus the electronic energy
G-E(el)                           ...      0.11582745 Eh     72.68 kcal/mol

                             ****ORCA TERMINATED NORMALLY****
TOTAL RUN TIME: 0 days 0 hours 13 minutes 16 seconds 915 msec
