                         Program Version 3.0.3 - RELEASE   -
|  1> ! NORI PBE0 def2-TZVP UseSym TightOPT Freq TightSCF Grid3 FinalGrid5 XYZFile
|  2> % pal
|  3>     nprocs 8
|  4> end
|  5> %method
|  6>     SymThresh 5.0e-2
|  7> end
|  8> % geom
|  9>     MaxIter 10
| 10> end
| 11> % maxcore 2000
| 12> % output
| 13>     printlevel mini
| 14>     print[ P_Basis ] 0
| 15>     print[ P_SCFInfo ] 1
| 16>     print[ P_SCFIterInfo ] 1
| 17>     print[ P_OrbEn ] 0
| 18>     print[ P_Cartesian ] 0
| 19> end
| 20> % elprop
| 21>     Dipole false
| 22> end
| 23> *xyz 1 1
| 24>  C        0.9609238730     0.0682532422    -0.0522236892
| 25>  C        2.4419834226     0.2026992214     0.0729443606
| 26>  N        3.2797876463    -0.5969366934    -0.8790273076
| 27>  C        3.2724438995     0.9020213033    -0.9228886228
| 28>  C        4.5468814393     1.5982319429    -0.5807493831
| 29>  H        0.4885443204     0.9064832076     0.4637271100
| 30>  H        0.6064510719    -0.8530773232     0.4124052063
| 31>  H        0.6370010617     0.0939466624    -1.0952098881
| 32>  H        2.8518107287     0.1515753702     1.0774068366
| 33>  H        4.1131244170    -1.0559622231    -0.5277743866
| 34>  H        2.8021290213    -1.1062355681    -1.6146577934
| 35>  H        2.7500789762     1.2536210635    -1.8077249406
| 36>  H        5.0273335351     1.1617601763     0.2975499430
| 37>  H        4.3238627350     2.6425520635    -0.3535332587
| 38>  H        5.2444638520     1.5805875546    -1.4200041863
| 39> *
| 40>
| 41>                          ****END OF INPUT****
 Total Charge           Charge          ....    1
 Multiplicity           Mult            ....    1
 Number of Electrons    NEL             ....   40
FINAL SINGLE POINT ENERGY      -212.753524485683

CARTESIAN COORDINATES (ANGSTROEM)
---------------------------------
  C      1.967336   -0.000036    0.477852
  C      0.581247    0.452441    0.159682
  N     -0.000000    0.000000   -1.146369
  C     -0.581247   -0.452441    0.159682
  C     -1.967336    0.000036    0.477852
  H      2.140699    0.130978    1.547758
  H      2.709682    0.594803   -0.056394
  H      2.115028   -1.056691    0.243598
  H      0.361741    1.502089    0.330954
  H     -0.534481    0.663267   -1.696785
  H      0.534481   -0.663267   -1.696785
  H     -0.361741   -1.502089    0.330954
  H     -2.115028    1.056691    0.243598
  H     -2.140699   -0.130978    1.547758
  H     -2.709682   -0.594803   -0.056394

FINAL SINGLE POINT ENERGY      -212.753524865426
                    ***********************HURRAY********************
 Multiplicity           Mult            ....    1
 Number of Electrons    NEL             ....   40
 Basis Dimension        Dim             ....  215
FINAL SINGLE POINT ENERGY      -212.753525083462

VIBRATIONAL FREQUENCIES
-----------------------

   0:         0.00 cm**-1
   1:         0.00 cm**-1
   2:         0.00 cm**-1
   3:         0.00 cm**-1
   4:         0.00 cm**-1
   5:         0.00 cm**-1
   6:       209.60 cm**-1
   7:       222.21 cm**-1
   8:       247.55 cm**-1
   9:       277.28 cm**-1
  10:       429.06 cm**-1
  11:       430.24 cm**-1
  12:       730.65 cm**-1
  13:       813.38 cm**-1
  14:       878.60 cm**-1
  15:       904.64 cm**-1
  16:       917.21 cm**-1
  17:       991.48 cm**-1
  18:      1005.70 cm**-1
  19:      1047.71 cm**-1
  20:      1095.16 cm**-1
  21:      1161.67 cm**-1
  22:      1162.67 cm**-1
  23:      1232.23 cm**-1
  24:      1239.69 cm**-1
  25:      1278.29 cm**-1
  26:      1360.77 cm**-1
  27:      1419.37 cm**-1
  28:      1423.57 cm**-1
  29:      1463.91 cm**-1
  30:      1472.86 cm**-1
  31:      1475.51 cm**-1
  32:      1487.21 cm**-1
  33:      1504.65 cm**-1
  34:      1625.64 cm**-1
  35:      3063.76 cm**-1
  36:      3064.07 cm**-1
  37:      3143.10 cm**-1
  38:      3143.82 cm**-1
  39:      3152.83 cm**-1
  40:      3152.86 cm**-1
  41:      3180.29 cm**-1
  42:      3188.76 cm**-1
  43:      3511.32 cm**-1
  44:      3619.68 cm**-1

IR SPECTRUM
-----------

 Mode    freq (cm**-1)   T**2         TX         TY         TZ
-------------------------------------------------------------------
   6:       209.60    0.002792  (  0.000002  -0.000000   0.052842)
   7:       222.21    1.145332  ( -0.211657  -1.049063   0.000000)
   8:       247.55    0.367732  ( -0.000001   0.000002  -0.606409)
   9:       277.28    0.116205  (  0.185166   0.286215   0.000002)
  10:       429.06    2.262420  ( -1.501780  -0.084119  -0.000150)
  11:       430.24    0.929456  (  0.000236   0.000011  -0.964083)
  12:       730.65    5.415786  (  2.143174  -0.906968   0.000000)
  13:       813.38    5.121728  (  0.000000   0.000001   2.263124)
  14:       878.60   21.324752  (  0.000003   0.000006  -4.617873)
  15:       904.64    3.764784  (  0.082180  -1.938564  -0.000009)
  16:       917.21    0.087628  ( -0.000002   0.000001  -0.296021)
  17:       991.48   19.027850  ( -3.161118  -3.005858   0.000004)
  18:      1005.70   74.955441  (  6.850602   5.293835   0.000004)
  19:      1047.71   10.697599  ( -2.525109  -2.078804  -0.000000)
  20:      1095.16   22.711619  ( -0.000001  -0.000000   4.765671)
  21:      1161.67    5.647667  ( -2.140906  -1.031594  -0.000192)
  22:      1162.67    0.602245  (  0.000526   0.000258  -0.776044)
  23:      1232.23    0.009286  ( -0.000026   0.000011   0.096363)
  24:      1239.69    4.773814  ( -2.078525   0.673461  -0.000003)
  25:      1278.29    0.110669  ( -0.000011  -0.000001  -0.332670)
  26:      1360.77    4.025652  (  1.997732  -0.186325  -0.000008)
  27:      1419.37    2.585867  ( -0.000016   0.000009  -1.608063)
  28:      1423.57   18.852826  (  3.801300  -2.098320  -0.000011)
  29:      1463.91    1.862831  ( -0.000013  -0.000013  -1.364856)
  30:      1472.86    9.011638  ( -1.562022  -2.563537  -0.000002)
  31:      1475.51   17.568282  (  0.000003  -0.000003  -4.191453)
  32:      1487.21   27.874904  (  0.427636   5.262322  -0.000008)
  33:      1504.65    0.219201  (  0.000004  -0.000021  -0.468189)
  34:      1625.64   70.778178  (  0.000000  -0.000001   8.412977)
  35:      3063.76    1.661137  ( -0.213032  -1.271123   0.000000)
  36:      3064.07    1.664376  ( -0.000014   0.000001   1.290107)
  37:      3143.10    3.076699  (  0.068160   1.752727   0.000000)
  38:      3143.82    0.011173  ( -0.000014   0.000000  -0.105703)
  39:      3152.83    0.306219  (  0.000006   0.000002  -0.553371)
  40:      3152.86    1.923078  ( -1.155743  -0.766378  -0.000001)
  41:      3180.29    0.328373  ( -0.000003   0.000000  -0.573038)
  42:      3188.76    1.321288  (  0.984328   0.593622   0.000001)
  43:      3511.32   96.642013  ( -0.000000   0.000000   9.830667)
  44:      3619.68  111.117656  ( -6.771832   8.078363   0.000000)

--------------------------
THERMOCHEMISTRY AT 298.15K
--------------------------

Temperature         ... 298.15 K
Pressure            ... 1.00 atm
Total Mass          ... 72.13 AMU

Throughout the following assumptions are being made:
  (1) The electronic state is orbitally nondegenerate
  (2) There are no thermally accessible electronically excited states
  (3) Hindered rotations indicated by low frequency modes) are not
      treated as such but are treated as vibrations and this may
      case some error
  (4) All equations used are the standard statistical mechanics
      equations for an ideal gas
  (5) All vibrations are strinctly harmonic

------------
INNER ENERGY
------------

The inner energy is: U= E(el) + E(ZPE) + E(vib) + E(rot) + E(trans)
    E(el)   - is the total energy from the electronic structure calculation
              = E(kin-el) + E(nuc-el) + E(el-el) + E(nuc-nuc)
    E(ZPE)  - the the zero temperature vibrational energy from the frequency calculation
    E(vib)  - the the finite temperature correction to E(ZPE) due to population
              of excietd vibrational states
    E(rot)  - is the rotational thermal energy
    E(trans)- is the translational thermal energy

Summary of contributions to the inner energy U:
Electronic energy                ...   -212.75352508 Eh
Zero point energy                ...      0.14062898 Eh      88.25 kcal/mol
Thermal vibrational correction   ...      0.00317528 Eh       1.99 kcal/mol
Thermal rotational correction    ...      0.00141627 Eh       0.89 kcal/mol
Thermal translational correction ...      0.00141627 Eh       0.89 kcal/mol
-----------------------------------------------------------------------
Total thermal energy                   -212.60688828 Eh

Summary of corrections to the electronic energy:
(perhaps to be used in another calculation)
Total thermal correction                  0.00600782 Eh       3.77 kcal/mol
Non-thermal (ZPE) correction              0.14062898 Eh      88.25 kcal/mol
-----------------------------------------------------------------------
Total correction                          0.14663680 Eh      92.02 kcal/mol

--------
ENTHALPY
--------

The enthalpy is H = U + kB*T
                kB is Boltzmann's constant
Total free energy                 ...   -212.60688828 Eh
Thermal Enthalpy correction       ...      0.00094421 Eh       0.59 kcal/mol
-----------------------------------------------------------------------
Total Enthalpy                    ...   -212.60594407 Eh

-------
ENTROPY
-------

The entropy contributions are T*S = T*(S(el)+S(vib)+S(rot)+S(trans)
     S(el)   - electronic entropy
     S(vib)  - vibrational entropy
     S(rot)  - rotational entropy
     S(trans)- translational entropy
The entropies will be listed as mutliplied by the temperature to get
units of energy

Electronic entropy                ...      0.00000000 Eh      0.00 kcal/mol
Vibrational entropy               ...      0.00501081 Eh      3.14 kcal/mol
Rotational entropy                ...      0.01109260 Eh      6.96 kcal/mol
Translational entropy             ...      0.01840857 Eh     11.55 kcal/mol
-----------------------------------------------------------------------
Final entropy term                ...      0.03451197 Eh     21.66 kcal/mol

CAUTION: The rotational entropy is not quite correctly treated here
         because it includes a symmetry number that is not yet correctly
         implemented in ORCA!
For a nonlinear molecule the correct rotational entropy is:
    S(rot) = R*(ln(qrot/sn)+1.5)
    R    = 8.31441 J/mol/K = 1.987191683e-3 kcal/mol/K
    qrot = 84710.8053175
    sn is the rotational symmetry number. We have assumed 3 here
       if it is different for your molecule then you should correct
       the printed rotational entropy by manually evaluating the equation
       as given above

For convenience we print out the resulting values for sn=1 - 12:
 sn= 1  qrot/sn=   84710.8053 T*S(rot)=     7.61 kcal/mol T*S(tot)=    22.31 kcal/mol
 sn= 2  qrot/sn=   42355.4027 T*S(rot)=     7.20 kcal/mol T*S(tot)=    21.90 kcal/mol
 sn= 3  qrot/sn=   28236.9351 T*S(rot)=     6.96 kcal/mol T*S(tot)=    21.66 kcal/mol
 sn= 4  qrot/sn=   21177.7013 T*S(rot)=     6.79 kcal/mol T*S(tot)=    21.49 kcal/mol
 sn= 5  qrot/sn=   16942.1611 T*S(rot)=     6.66 kcal/mol T*S(tot)=    21.35 kcal/mol
 sn= 6  qrot/sn=   14118.4676 T*S(rot)=     6.55 kcal/mol T*S(tot)=    21.25 kcal/mol
 sn= 7  qrot/sn=   12101.5436 T*S(rot)=     6.46 kcal/mol T*S(tot)=    21.15 kcal/mol
 sn= 8  qrot/sn=   10588.8507 T*S(rot)=     6.38 kcal/mol T*S(tot)=    21.08 kcal/mol
 sn= 9  qrot/sn=    9412.3117 T*S(rot)=     6.31 kcal/mol T*S(tot)=    21.01 kcal/mol
 sn=10  qrot/sn=    8471.0805 T*S(rot)=     6.25 kcal/mol T*S(tot)=    20.94 kcal/mol
 sn=11  qrot/sn=    7700.9823 T*S(rot)=     6.19 kcal/mol T*S(tot)=    20.89 kcal/mol
 sn=12  qrot/sn=    7059.2338 T*S(rot)=     6.14 kcal/mol T*S(tot)=    20.84 kcal/mol

-------------------
GIBBS FREE ENTHALPY
-------------------

The Gibbs free enthalpy is G = H - T*S

Total enthalpy                    ...   -212.60594407 Eh
Total entropy correction          ...     -0.03451197 Eh    -21.66 kcal/mol
-----------------------------------------------------------------------
Final Gibbs free enthalpy         ...   -212.64045605 Eh

For completeness - the Gibbs free enthalpy minus the electronic energy
G-E(el)                           ...      0.11306903 Eh     70.95 kcal/mol

                             ****ORCA TERMINATED NORMALLY****
TOTAL RUN TIME: 0 days 0 hours 12 minutes 29 seconds 358 msec
