                         Program Version 3.0.3 - RELEASE   -
|  1> ! NORI PBE0 def2-TZVP UseSym TightOPT Freq TightSCF Grid3 FinalGrid5 XYZFile
|  2> % pal
|  3>     nprocs 8
|  4> end
|  5> %method
|  6>     SymThresh 5.0e-2
|  7> end
|  8> % geom
|  9>     MaxIter 10
| 10> end
| 11> % maxcore 2000
| 12> % output
| 13>     printlevel mini
| 14>     print[ P_Basis ] 0
| 15>     print[ P_SCFInfo ] 1
| 16>     print[ P_SCFIterInfo ] 1
| 17>     print[ P_OrbEn ] 0
| 18>     print[ P_Cartesian ] 0
| 19> end
| 20> % elprop
| 21>     Dipole false
| 22> end
| 23> *xyz 1 1
| 24>  C        0.9197171362     0.0683436813    -0.1365201093
| 25>  C        2.4155099961     0.1025014618    -0.0886823715
| 26>  N        2.9151232850     0.2294374154     1.3141477708
| 27>  C        3.2782198485    -0.7090157030    -0.9935478354
| 28>  C        3.2458982045     0.7883892876    -1.1193021097
| 29>  H        0.5965654656    -0.0257593958    -1.1728094941
| 30>  H        0.4784940875     0.9870486648     0.2610274219
| 31>  H        0.5141879237    -0.7869524863     0.4114684897
| 32>  H        3.9363664629     0.2526532299     1.3477057272
| 33>  H        2.6022614698    -0.5595786650     1.8869847581
| 34>  H        2.5687217888     1.0888344437     1.7497856717
| 35>  H        4.1823234317    -1.1613094594    -0.6007876083
| 36>  H        2.7729574018    -1.3102260245    -1.7383329744
| 37>  H        2.7158571560     1.2335005766    -1.9513653173
| 38>  H        4.1281563419     1.3397629729    -0.8125520194
| 39> *
| 40>
| 41>                          ****END OF INPUT****
 Total Charge           Charge          ....    1
 Multiplicity           Mult            ....    1
 Number of Electrons    NEL             ....   40
FINAL SINGLE POINT ENERGY      -212.748259075136

CARTESIAN COORDINATES (ANGSTROEM)
---------------------------------
  C     -0.391513    1.583136    0.000000
  C      0.019615    0.143659    0.000000
  N      1.507383   -0.000065   -0.000000
  C     -0.716014   -0.912787    0.751510
  C     -0.716014   -0.912787   -0.751510
  H     -1.479410    1.645363   -0.000000
  H     -0.034195    2.108510   -0.890351
  H     -0.034195    2.108510    0.890351
  H      1.789020   -0.982325    0.000000
  H      1.917816    0.442212    0.827144
  H      1.917816    0.442212   -0.827144
  H     -0.157122   -1.693778    1.255497
  H     -1.609825   -0.602221    1.276802
  H     -1.609825   -0.602221   -1.276802
  H     -0.157122   -1.693778   -1.255497

FINAL SINGLE POINT ENERGY      -212.748259421193
                    ***********************HURRAY********************
 Multiplicity           Mult            ....    1
 Number of Electrons    NEL             ....   40
 Basis Dimension        Dim             ....  215
FINAL SINGLE POINT ENERGY      -212.748259579009

VIBRATIONAL FREQUENCIES
-----------------------

   0:         0.00 cm**-1
   1:         0.00 cm**-1
   2:         0.00 cm**-1
   3:         0.00 cm**-1
   4:         0.00 cm**-1
   5:         0.00 cm**-1
   6:       206.50 cm**-1
   7:       232.60 cm**-1
   8:       320.40 cm**-1
   9:       344.59 cm**-1
  10:       359.15 cm**-1
  11:       401.51 cm**-1
  12:       683.62 cm**-1
  13:       769.14 cm**-1
  14:       895.16 cm**-1
  15:       902.74 cm**-1
  16:       907.20 cm**-1
  17:       956.87 cm**-1
  18:       977.49 cm**-1
  19:      1065.65 cm**-1
  20:      1075.93 cm**-1
  21:      1100.96 cm**-1
  22:      1107.54 cm**-1
  23:      1185.01 cm**-1
  24:      1201.99 cm**-1
  25:      1272.65 cm**-1
  26:      1399.70 cm**-1
  27:      1437.26 cm**-1
  28:      1464.04 cm**-1
  29:      1480.56 cm**-1
  30:      1481.74 cm**-1
  31:      1499.70 cm**-1
  32:      1527.87 cm**-1
  33:      1648.09 cm**-1
  34:      1659.04 cm**-1
  35:      3050.34 cm**-1
  36:      3120.35 cm**-1
  37:      3153.70 cm**-1
  38:      3156.16 cm**-1
  39:      3159.30 cm**-1
  40:      3241.06 cm**-1
  41:      3251.67 cm**-1
  42:      3405.08 cm**-1
  43:      3479.94 cm**-1
  44:      3503.64 cm**-1

IR SPECTRUM
-----------

 Mode    freq (cm**-1)   T**2         TX         TY         TZ
-------------------------------------------------------------------
   6:       206.50    0.287411  ( -0.000049  -0.000074   0.536107)
   7:       232.60    0.190856  (  0.000027  -0.000056  -0.436870)
   8:       320.40    0.670000  ( -0.000078   0.000052  -0.818535)
   9:       344.59    8.559164  (  2.839809  -0.703311  -0.000005)
  10:       359.15    6.162744  (  0.693109   2.383767  -0.000067)
  11:       401.51    7.801546  ( -0.000018  -0.000054  -2.793125)
  12:       683.62    1.727430  (  0.095811  -1.310821   0.000002)
  13:       769.14    0.343643  ( -0.005883  -0.586181   0.000003)
  14:       895.16    0.095022  ( -0.000004   0.000040  -0.308256)
  15:       902.74    4.029493  (  0.183928  -1.998915   0.000008)
  16:       907.20    1.356319  ( -0.000002   0.000014   1.164611)
  17:       956.87    1.492127  (  1.137242   0.445877  -0.000003)
  18:       977.49   21.296258  (  1.080011   4.486628  -0.000006)
  19:      1065.65   10.033764  (  2.412400   2.052825  -0.000003)
  20:      1075.93    3.143974  (  0.000001  -0.000000   1.773126)
  21:      1100.96   13.401699  ( -2.314909  -2.836000  -0.000021)
  22:      1107.54    2.309234  ( -0.000033  -0.000042   1.519616)
  23:      1185.01    0.507239  (  0.000001  -0.000002  -0.712207)
  24:      1201.99   18.965554  ( -0.000015   0.000003  -4.354946)
  25:      1272.65   14.733905  ( -3.720949   0.942573   0.000001)
  26:      1399.70    3.505475  (  1.870850   0.073456  -0.000002)
  27:      1437.26   22.408846  ( -3.574169   3.103895   0.000002)
  28:      1464.04   16.409054  ( -0.000011  -0.000005   4.050809)
  29:      1480.56    5.607423  (  0.000033   0.000027   2.368000)
  30:      1481.74   15.483843  (  3.920457   0.337428  -0.000030)
  31:      1499.70   91.099420  ( -9.540893  -0.266030   0.000017)
  32:      1527.87   43.282640  ( -5.442711   3.695881   0.000014)
  33:      1648.09   39.728038  (  0.000059  -0.000764   6.303018)
  34:      1659.04   37.286736  ( -0.213959   6.102537   0.000801)
  35:      3050.34    6.377166  ( -1.647740  -1.913666  -0.000005)
  36:      3120.35    4.848146  ( -0.000013   0.000017   2.201851)
  37:      3153.70    0.044589  ( -0.000002   0.000001  -0.211162)
  38:      3156.16    3.532848  (  1.783485   0.593320  -0.000012)
  39:      3159.30    1.541955  (  0.683421  -1.036769   0.000023)
  40:      3241.06    0.328939  (  0.000002  -0.000001   0.573532)
  41:      3251.67    0.728491  (  0.836265  -0.170740  -0.000004)
  42:      3405.08   30.475183  (  5.467050   0.765862   0.000073)
  43:      3479.94   80.730870  ( -0.000047   0.000087   8.985036)
  44:      3503.64   73.677869  (  0.393657  -8.574550   0.000101)

--------------------------
THERMOCHEMISTRY AT 298.15K
--------------------------

Temperature         ... 298.15 K
Pressure            ... 1.00 atm
Total Mass          ... 72.13 AMU

Throughout the following assumptions are being made:
  (1) The electronic state is orbitally nondegenerate
  (2) There are no thermally accessible electronically excited states
  (3) Hindered rotations indicated by low frequency modes) are not
      treated as such but are treated as vibrations and this may
      case some error
  (4) All equations used are the standard statistical mechanics
      equations for an ideal gas
  (5) All vibrations are strinctly harmonic

------------
INNER ENERGY
------------

The inner energy is: U= E(el) + E(ZPE) + E(vib) + E(rot) + E(trans)
    E(el)   - is the total energy from the electronic structure calculation
              = E(kin-el) + E(nuc-el) + E(el-el) + E(nuc-nuc)
    E(ZPE)  - the the zero temperature vibrational energy from the frequency calculation
    E(vib)  - the the finite temperature correction to E(ZPE) due to population
              of excietd vibrational states
    E(rot)  - is the rotational thermal energy
    E(trans)- is the translational thermal energy

Summary of contributions to the inner energy U:
Electronic energy                ...   -212.74825958 Eh
Zero point energy                ...      0.14144220 Eh      88.76 kcal/mol
Thermal vibrational correction   ...      0.00313234 Eh       1.97 kcal/mol
Thermal rotational correction    ...      0.00141627 Eh       0.89 kcal/mol
Thermal translational correction ...      0.00141627 Eh       0.89 kcal/mol
-----------------------------------------------------------------------
Total thermal energy                   -212.60085249 Eh

Summary of corrections to the electronic energy:
(perhaps to be used in another calculation)
Total thermal correction                  0.00596488 Eh       3.74 kcal/mol
Non-thermal (ZPE) correction              0.14144220 Eh      88.76 kcal/mol
-----------------------------------------------------------------------
Total correction                          0.14740708 Eh      92.50 kcal/mol

--------
ENTHALPY
--------

The enthalpy is H = U + kB*T
                kB is Boltzmann's constant
Total free energy                 ...   -212.60085249 Eh
Thermal Enthalpy correction       ...      0.00094421 Eh       0.59 kcal/mol
-----------------------------------------------------------------------
Total Enthalpy                    ...   -212.59990829 Eh

-------
ENTROPY
-------

The entropy contributions are T*S = T*(S(el)+S(vib)+S(rot)+S(trans)
     S(el)   - electronic entropy
     S(vib)  - vibrational entropy
     S(rot)  - rotational entropy
     S(trans)- translational entropy
The entropies will be listed as mutliplied by the temperature to get
units of energy

Electronic entropy                ...      0.00000000 Eh      0.00 kcal/mol
Vibrational entropy               ...      0.00484200 Eh      3.04 kcal/mol
Rotational entropy                ...      0.01102996 Eh      6.92 kcal/mol
Translational entropy             ...      0.01840857 Eh     11.55 kcal/mol
-----------------------------------------------------------------------
Final entropy term                ...      0.03428053 Eh     21.51 kcal/mol

CAUTION: The rotational entropy is not quite correctly treated here
         because it includes a symmetry number that is not yet correctly
         implemented in ORCA!
For a nonlinear molecule the correct rotational entropy is:
    S(rot) = R*(ln(qrot/sn)+1.5)
    R    = 8.31441 J/mol/K = 1.987191683e-3 kcal/mol/K
    qrot = 79273.3008764
    sn is the rotational symmetry number. We have assumed 3 here
       if it is different for your molecule then you should correct
       the printed rotational entropy by manually evaluating the equation
       as given above

For convenience we print out the resulting values for sn=1 - 12:
 sn= 1  qrot/sn=   79273.3009 T*S(rot)=     7.57 kcal/mol T*S(tot)=    22.16 kcal/mol
 sn= 2  qrot/sn=   39636.6504 T*S(rot)=     7.16 kcal/mol T*S(tot)=    21.75 kcal/mol
 sn= 3  qrot/sn=   26424.4336 T*S(rot)=     6.92 kcal/mol T*S(tot)=    21.51 kcal/mol
 sn= 4  qrot/sn=   19818.3252 T*S(rot)=     6.75 kcal/mol T*S(tot)=    21.34 kcal/mol
 sn= 5  qrot/sn=   15854.6602 T*S(rot)=     6.62 kcal/mol T*S(tot)=    21.21 kcal/mol
 sn= 6  qrot/sn=   13212.2168 T*S(rot)=     6.51 kcal/mol T*S(tot)=    21.10 kcal/mol
 sn= 7  qrot/sn=   11324.7573 T*S(rot)=     6.42 kcal/mol T*S(tot)=    21.01 kcal/mol
 sn= 8  qrot/sn=    9909.1626 T*S(rot)=     6.34 kcal/mol T*S(tot)=    20.93 kcal/mol
 sn= 9  qrot/sn=    8808.1445 T*S(rot)=     6.27 kcal/mol T*S(tot)=    20.86 kcal/mol
 sn=10  qrot/sn=    7927.3301 T*S(rot)=     6.21 kcal/mol T*S(tot)=    20.80 kcal/mol
 sn=11  qrot/sn=    7206.6637 T*S(rot)=     6.15 kcal/mol T*S(tot)=    20.74 kcal/mol
 sn=12  qrot/sn=    6606.1084 T*S(rot)=     6.10 kcal/mol T*S(tot)=    20.69 kcal/mol

-------------------
GIBBS FREE ENTHALPY
-------------------

The Gibbs free enthalpy is G = H - T*S

Total enthalpy                    ...   -212.59990829 Eh
Total entropy correction          ...     -0.03428053 Eh    -21.51 kcal/mol
-----------------------------------------------------------------------
Final Gibbs free enthalpy         ...   -212.63418882 Eh

For completeness - the Gibbs free enthalpy minus the electronic energy
G-E(el)                           ...      0.11407076 Eh     71.58 kcal/mol

                             ****ORCA TERMINATED NORMALLY****
TOTAL RUN TIME: 0 days 0 hours 13 minutes 10 seconds 368 msec
