                         Program Version 3.0.3 - RELEASE   -
|  1> ! NORI PBE0 def2-TZVP UseSym TightOPT Freq TightSCF Grid3 FinalGrid5 XYZFile
|  2> % pal
|  3>     nprocs 8
|  4> end
|  5> %method
|  6>     SymThresh 5.0e-2
|  7> end
|  8> % geom
|  9>     MaxIter 10
| 10> end
| 11> % maxcore 2000
| 12> % output
| 13>     printlevel mini
| 14>     print[ P_Basis ] 0
| 15>     print[ P_SCFInfo ] 1
| 16>     print[ P_SCFIterInfo ] 1
| 17>     print[ P_OrbEn ] 0
| 18>     print[ P_Cartesian ] 0
| 19> end
| 20> % elprop
| 21>     Dipole false
| 22> end
| 23> *xyz 1 1
| 24>  C        0.9900901749    -0.0152687692     0.2204151776
| 25>  C        2.4734169296     0.2436276036     0.0104171918
| 26>  C        3.0380908644    -0.4749816043    -1.1749685287
| 27>  C        4.4358953697    -0.9237435502    -1.2428326484
| 28>  N        3.3708070820    -1.9266510890    -0.9908262023
| 29>  H        0.6264710832     0.5579201819     1.0730707980
| 30>  H        0.7820115445    -1.0688444270     0.4229260400
| 31>  H        0.4058875377     0.2840700399    -0.6523522196
| 32>  H        2.6527409264     1.3094248980    -0.1645860241
| 33>  H        3.0530003770    -0.0141689429     0.9044549356
| 34>  H        2.5361897869    -0.3143202275    -2.1242934194
| 35>  H        5.0848103168    -0.7573445204    -0.3916705826
| 36>  H        4.9272320039    -1.0348866981    -2.2009751402
| 37>  H        3.2937631030    -2.3090466904    -0.0542563815
| 38>  H        3.1438329000    -2.5861262042    -1.7267429961
| 39> *
| 40>
| 41>                          ****END OF INPUT****
 Total Charge           Charge          ....    1
 Multiplicity           Mult            ....    1
 Number of Electrons    NEL             ....   40
FINAL SINGLE POINT ENERGY      -212.743872492561

CARTESIAN COORDINATES (ANGSTROEM)
---------------------------------
  C      1.552020    0.000408   -1.469002
  C      0.118394   -0.346297   -1.100601
  C     -0.405573    0.450330    0.053361
  C     -1.416207   -0.068444    0.985964
  N     -0.000391   -0.000726    1.426221
  H      1.868933   -0.583529   -2.332985
  H      2.248955   -0.216324   -0.655366
  H      1.652082    1.056248   -1.728976
  H     -0.551204   -0.141776   -1.942121
  H      0.010305   -1.415814   -0.885617
  H     -0.336302    1.530583   -0.031247
  H     -1.782209   -1.079658    0.857503
  H     -2.073458    0.612002    1.511793
  H      0.513978   -0.872185    1.499646
  H      0.257083    0.691248    2.121057

FINAL SINGLE POINT ENERGY      -212.743873201676
                    ***********************HURRAY********************
 Multiplicity           Mult            ....    1
 Number of Electrons    NEL             ....   40
 Basis Dimension        Dim             ....  215
FINAL SINGLE POINT ENERGY      -212.743873792893

VIBRATIONAL FREQUENCIES
-----------------------

   0:         0.00 cm**-1
   1:         0.00 cm**-1
   2:         0.00 cm**-1
   3:         0.00 cm**-1
   4:         0.00 cm**-1
   5:         0.00 cm**-1
   6:       108.41 cm**-1
   7:       207.72 cm**-1
   8:       233.92 cm**-1
   9:       370.54 cm**-1
  10:       453.58 cm**-1
  11:       736.29 cm**-1
  12:       793.70 cm**-1
  13:       829.60 cm**-1
  14:       872.33 cm**-1
  15:       901.01 cm**-1
  16:       945.22 cm**-1
  17:      1000.62 cm**-1
  18:      1021.47 cm**-1
  19:      1048.76 cm**-1
  20:      1109.50 cm**-1
  21:      1160.24 cm**-1
  22:      1187.02 cm**-1
  23:      1219.90 cm**-1
  24:      1249.60 cm**-1
  25:      1278.24 cm**-1
  26:      1309.60 cm**-1
  27:      1340.47 cm**-1
  28:      1421.54 cm**-1
  29:      1440.70 cm**-1
  30:      1467.44 cm**-1
  31:      1492.43 cm**-1
  32:      1494.60 cm**-1
  33:      1498.21 cm**-1
  34:      1632.64 cm**-1
  35:      3047.67 cm**-1
  36:      3059.37 cm**-1
  37:      3094.66 cm**-1
  38:      3132.92 cm**-1
  39:      3155.00 cm**-1
  40:      3171.45 cm**-1
  41:      3186.94 cm**-1
  42:      3273.08 cm**-1
  43:      3513.59 cm**-1
  44:      3618.36 cm**-1

IR SPECTRUM
-----------

 Mode    freq (cm**-1)   T**2         TX         TY         TZ
-------------------------------------------------------------------
   6:       108.41    2.946013  ( -0.945290  -0.782333   1.200164)
   7:       207.72    2.012764  (  0.756828  -0.640675  -1.014648)
   8:       233.92    0.870045  (  0.621007  -0.247040  -0.650666)
   9:       370.54    1.783066  ( -0.447600   0.242297   1.234509)
  10:       453.58    0.396587  ( -0.440334   0.427005   0.142689)
  11:       736.29    0.942198  (  0.056004  -0.960365   0.129461)
  12:       793.70    5.195714  ( -0.242560   0.999675  -2.034092)
  13:       829.60   17.177330  (  2.815723   0.016908   3.041176)
  14:       872.33    4.569741  ( -0.074700   0.521978   2.071642)
  15:       901.01    1.391642  ( -0.292155  -0.827498   0.788374)
  16:       945.22   20.366097  ( -2.090586   1.255680  -3.797211)
  17:      1000.62    6.750401  (  0.006875  -2.461386  -0.831825)
  18:      1021.47   95.375480  (  6.238725   3.291441  -6.754273)
  19:      1048.76    4.127679  ( -1.431014  -0.676230   1.273810)
  20:      1109.50    1.801387  ( -1.074250   0.733240   0.331258)
  21:      1160.24    1.391123  (  0.525306  -1.025015   0.254012)
  22:      1187.02    2.277071  (  0.163010   0.498624  -1.414875)
  23:      1219.90    0.335519  (  0.463197  -0.163847  -0.306793)
  24:      1249.60    4.077887  (  0.650864  -1.365257  -1.338035)
  25:      1278.24    3.495496  ( -1.027402   1.280002  -0.895285)
  26:      1309.60    1.280537  ( -0.874079   0.192005   0.692572)
  27:      1340.47    4.236384  (  0.264242   0.223459   2.028947)
  28:      1421.54    3.883598  ( -1.857610  -0.606116   0.255943)
  29:      1440.70    0.486773  (  0.012809  -0.697373   0.016731)
  30:      1467.44    9.640909  ( -2.372681  -2.002496  -0.036075)
  31:      1492.43   16.589108  (  0.773356   3.969953  -0.480110)
  32:      1494.60   12.765448  ( -2.269114   0.374564  -2.734277)
  33:      1498.21   11.463037  ( -2.055475   0.602623   2.622004)
  34:      1632.64   59.397346  ( -4.447081   1.928531  -5.991793)
  35:      3047.67    8.326630  (  1.409885   1.917107  -1.632040)
  36:      3059.37   10.093348  (  2.805512   1.213652   0.865736)
  37:      3094.66    0.478846  (  0.116545  -0.490859  -0.473625)
  38:      3132.92   11.686215  ( -1.198401   2.222017  -2.304927)
  39:      3155.00    2.650918  (  0.155718   1.357339   0.885608)
  40:      3171.45    2.665402  ( -1.529779  -0.276676   0.498627)
  41:      3186.94    0.535448  (  0.095947   0.446245  -0.571933)
  42:      3273.08    5.572097  (  0.370451  -2.200704  -0.769263)
  43:      3513.59  100.506174  (  6.374791  -1.298899   7.627652)
  44:      3618.36  124.151568  (  1.284348  -9.948878  -4.849933)

--------------------------
THERMOCHEMISTRY AT 298.15K
--------------------------

Temperature         ... 298.15 K
Pressure            ... 1.00 atm
Total Mass          ... 72.13 AMU

Throughout the following assumptions are being made:
  (1) The electronic state is orbitally nondegenerate
  (2) There are no thermally accessible electronically excited states
  (3) Hindered rotations indicated by low frequency modes) are not
      treated as such but are treated as vibrations and this may
      case some error
  (4) All equations used are the standard statistical mechanics
      equations for an ideal gas
  (5) All vibrations are strinctly harmonic

------------
INNER ENERGY
------------

The inner energy is: U= E(el) + E(ZPE) + E(vib) + E(rot) + E(trans)
    E(el)   - is the total energy from the electronic structure calculation
              = E(kin-el) + E(nuc-el) + E(el-el) + E(nuc-nuc)
    E(ZPE)  - the the zero temperature vibrational energy from the frequency calculation
    E(vib)  - the the finite temperature correction to E(ZPE) due to population
              of excietd vibrational states
    E(rot)  - is the rotational thermal energy
    E(trans)- is the translational thermal energy

Summary of contributions to the inner energy U:
Electronic energy                ...   -212.74387379 Eh
Zero point energy                ...      0.14142482 Eh      88.75 kcal/mol
Thermal vibrational correction   ...      0.00304632 Eh       1.91 kcal/mol
Thermal rotational correction    ...      0.00141627 Eh       0.89 kcal/mol
Thermal translational correction ...      0.00141627 Eh       0.89 kcal/mol
-----------------------------------------------------------------------
Total thermal energy                   -212.59657011 Eh

Summary of corrections to the electronic energy:
(perhaps to be used in another calculation)
Total thermal correction                  0.00587886 Eh       3.69 kcal/mol
Non-thermal (ZPE) correction              0.14142482 Eh      88.75 kcal/mol
-----------------------------------------------------------------------
Total correction                          0.14730368 Eh      92.43 kcal/mol

--------
ENTHALPY
--------

The enthalpy is H = U + kB*T
                kB is Boltzmann's constant
Total free energy                 ...   -212.59657011 Eh
Thermal Enthalpy correction       ...      0.00094421 Eh       0.59 kcal/mol
-----------------------------------------------------------------------
Total Enthalpy                    ...   -212.59562591 Eh

-------
ENTROPY
-------

The entropy contributions are T*S = T*(S(el)+S(vib)+S(rot)+S(trans)
     S(el)   - electronic entropy
     S(vib)  - vibrational entropy
     S(rot)  - rotational entropy
     S(trans)- translational entropy
The entropies will be listed as mutliplied by the temperature to get
units of energy

Electronic entropy                ...      0.00000000 Eh      0.00 kcal/mol
Vibrational entropy               ...      0.00512854 Eh      3.22 kcal/mol
Rotational entropy                ...      0.01109641 Eh      6.96 kcal/mol
Translational entropy             ...      0.01840857 Eh     11.55 kcal/mol
-----------------------------------------------------------------------
Final entropy term                ...      0.03463351 Eh     21.73 kcal/mol

CAUTION: The rotational entropy is not quite correctly treated here
         because it includes a symmetry number that is not yet correctly
         implemented in ORCA!
For a nonlinear molecule the correct rotational entropy is:
    S(rot) = R*(ln(qrot/sn)+1.5)
    R    = 8.31441 J/mol/K = 1.987191683e-3 kcal/mol/K
    qrot = 85052.8518206
    sn is the rotational symmetry number. We have assumed 3 here
       if it is different for your molecule then you should correct
       the printed rotational entropy by manually evaluating the equation
       as given above

For convenience we print out the resulting values for sn=1 - 12:
 sn= 1  qrot/sn=   85052.8518 T*S(rot)=     7.61 kcal/mol T*S(tot)=    22.38 kcal/mol
 sn= 2  qrot/sn=   42526.4259 T*S(rot)=     7.20 kcal/mol T*S(tot)=    21.97 kcal/mol
 sn= 3  qrot/sn=   28350.9506 T*S(rot)=     6.96 kcal/mol T*S(tot)=    21.73 kcal/mol
 sn= 4  qrot/sn=   21263.2130 T*S(rot)=     6.79 kcal/mol T*S(tot)=    21.56 kcal/mol
 sn= 5  qrot/sn=   17010.5704 T*S(rot)=     6.66 kcal/mol T*S(tot)=    21.43 kcal/mol
 sn= 6  qrot/sn=   14175.4753 T*S(rot)=     6.55 kcal/mol T*S(tot)=    21.32 kcal/mol
 sn= 7  qrot/sn=   12150.4074 T*S(rot)=     6.46 kcal/mol T*S(tot)=    21.23 kcal/mol
 sn= 8  qrot/sn=   10631.6065 T*S(rot)=     6.38 kcal/mol T*S(tot)=    21.15 kcal/mol
 sn= 9  qrot/sn=    9450.3169 T*S(rot)=     6.31 kcal/mol T*S(tot)=    21.08 kcal/mol
 sn=10  qrot/sn=    8505.2852 T*S(rot)=     6.25 kcal/mol T*S(tot)=    21.02 kcal/mol
 sn=11  qrot/sn=    7732.0774 T*S(rot)=     6.19 kcal/mol T*S(tot)=    20.96 kcal/mol
 sn=12  qrot/sn=    7087.7377 T*S(rot)=     6.14 kcal/mol T*S(tot)=    20.91 kcal/mol

-------------------
GIBBS FREE ENTHALPY
-------------------

The Gibbs free enthalpy is G = H - T*S

Total enthalpy                    ...   -212.59562591 Eh
Total entropy correction          ...     -0.03463351 Eh    -21.73 kcal/mol
-----------------------------------------------------------------------
Final Gibbs free enthalpy         ...   -212.63025942 Eh

For completeness - the Gibbs free enthalpy minus the electronic energy
G-E(el)                           ...      0.11361437 Eh     71.29 kcal/mol

                             ****ORCA TERMINATED NORMALLY****
TOTAL RUN TIME: 0 days 0 hours 12 minutes 22 seconds 628 msec
