                         Program Version 3.0.3 - RELEASE   -
|  1> ! NORI PBE0 def2-TZVP UseSym TightOPT Freq TightSCF Grid3 FinalGrid5 XYZFile
|  2> % pal
|  3>     nprocs 8
|  4> end
|  5> %method
|  6>     SymThresh 5.0e-2
|  7> end
|  8> % geom
|  9>     MaxIter 10
| 10> end
| 11> % maxcore 2000
| 12> % output
| 13>     printlevel mini
| 14>     print[ P_Basis ] 0
| 15>     print[ P_SCFInfo ] 1
| 16>     print[ P_SCFIterInfo ] 1
| 17>     print[ P_OrbEn ] 0
| 18>     print[ P_Cartesian ] 0
| 19> end
| 20> % elprop
| 21>     Dipole false
| 22> end
| 23> *xyz 1 1
| 24>  C        2.4322203346    -0.8471447914    -0.7594519054
| 25>  C        2.2184105354     0.1770656762     0.0546059088
| 26>  C        3.0548246256     0.4619555425     1.2362050747
| 27>  C        4.4784165716     0.1092527818     1.3188223425
| 28>  N        4.1176270573     1.5241553825     1.0718470317
| 29>  H        1.7718887556    -1.0359714696    -1.5970155553
| 30>  H        3.2477964779    -1.5483666597    -0.6162738227
| 31>  H        1.3647284063     0.8330549084    -0.0871021664
| 32>  H        2.5356065121     0.5978158258     2.1806911622
| 33>  H        4.9320123845    -0.0682349443     2.2853104291
| 34>  H        4.9592113056    -0.3665518269     0.4738919230
| 35>  H        4.2631731078     2.2015863265     1.8128824492
| 36>  H        4.2587639257     1.8856832483     0.1337971283
| 37> *
| 38>
| 39>                          ****END OF INPUT****
 Total Charge           Charge          ....    1
 Multiplicity           Mult            ....    1
 Number of Electrons    NEL             ....   38
FINAL SINGLE POINT ENERGY      -211.506816967226

CARTESIAN COORDINATES (ANGSTROEM)
---------------------------------
  C      0.838553    0.000045   -1.806858
  C      0.348407    0.791048   -0.862579
  C     -0.592409    0.328124    0.175425
  C     -0.616564   -1.050063    0.683444
  N      0.000157   -0.000048    1.526620
  H      1.501669    0.391808   -2.568377
  H      0.585603   -1.052630   -1.878129
  H      0.582579    1.851277   -0.846502
  H     -1.504829    0.904299    0.299290
  H     -1.534541   -1.457180    1.086775
  H      0.095708   -1.770535    0.303160
  H     -0.483193    0.297399    2.367423
  H      1.013044    0.010078    1.594311

FINAL SINGLE POINT ENERGY      -211.506817244463
                    ***********************HURRAY********************
 Multiplicity           Mult            ....    1
 Number of Electrons    NEL             ....   38
 Basis Dimension        Dim             ....  203
FINAL SINGLE POINT ENERGY      -211.506817341283

VIBRATIONAL FREQUENCIES
-----------------------

   0:         0.00 cm**-1
   1:         0.00 cm**-1
   2:         0.00 cm**-1
   3:         0.00 cm**-1
   4:         0.00 cm**-1
   5:         0.00 cm**-1
   6:       117.63 cm**-1
   7:       261.12 cm**-1
   8:       324.99 cm**-1
   9:       529.85 cm**-1
  10:       656.93 cm**-1
  11:       765.15 cm**-1
  12:       833.98 cm**-1
  13:       877.90 cm**-1
  14:       902.48 cm**-1
  15:       947.72 cm**-1
  16:      1012.19 cm**-1
  17:      1023.82 cm**-1
  18:      1035.04 cm**-1
  19:      1086.33 cm**-1
  20:      1128.37 cm**-1
  21:      1159.74 cm**-1
  22:      1193.73 cm**-1
  23:      1251.80 cm**-1
  24:      1277.82 cm**-1
  25:      1334.20 cm**-1
  26:      1422.71 cm**-1
  27:      1460.12 cm**-1
  28:      1493.96 cm**-1
  29:      1626.02 cm**-1
  30:      1718.40 cm**-1
  31:      3167.64 cm**-1
  32:      3178.22 cm**-1
  33:      3178.82 cm**-1
  34:      3189.45 cm**-1
  35:      3261.69 cm**-1
  36:      3278.36 cm**-1
  37:      3503.96 cm**-1
  38:      3613.58 cm**-1

IR SPECTRUM
-----------

 Mode    freq (cm**-1)   T**2         TX         TY         TZ
-------------------------------------------------------------------
   6:       117.63    2.773579  ( -1.516577   0.428627   0.538379)
   7:       261.12    0.493269  (  0.016523   0.121167   0.691603)
   8:       324.99    1.781992  (  1.112197   0.678865  -0.290089)
   9:       529.85    0.500301  ( -0.683914   0.167745   0.066517)
  10:       656.93   12.027479  (  2.827635  -1.095958   1.682508)
  11:       765.15   20.990948  (  0.816288   0.167083   4.505187)
  12:       833.98   21.980551  (  0.986870   0.652451   4.536623)
  13:       877.90    8.717188  ( -0.034221   1.447200  -2.573252)
  14:       902.48    3.670439  (  1.216998  -1.373800  -0.549572)
  15:       947.72    8.761594  (  1.560970   0.208593   2.506283)
  16:      1012.19  103.042290  (  2.458726  -8.031603   5.700027)
  17:      1023.82   36.783409  (  4.762998   2.820800   2.477971)
  18:      1035.04   11.929152  (  1.913509  -2.534311   1.358273)
  19:      1086.33    6.146173  (  0.403458   1.640273   1.814635)
  20:      1128.37    9.387416  ( -2.861220  -1.056866   0.289602)
  21:      1159.74    1.414684  (  0.606089  -1.003993   0.198342)
  22:      1193.73    4.356940  (  0.562790  -0.920427   1.786903)
  23:      1251.80    2.423476  (  1.338229   0.712800  -0.352895)
  24:      1277.82    5.251263  (  2.082902  -0.056446  -0.953727)
  25:      1334.20    0.986245  (  0.699798   0.018458   0.704405)
  26:      1422.71    4.205803  ( -1.073258   0.429538   1.693936)
  27:      1460.12   36.692571  (  2.350985  -3.457140  -4.383335)
  28:      1493.96   13.079883  ( -1.055817  -3.291963   1.062127)
  29:      1626.02   73.476142  (  3.571526   1.487660   7.649001)
  30:      1718.40    1.917937  (  1.108777   0.429604  -0.709923)
  31:      3167.64    2.611076  (  0.865413   0.915596  -1.011840)
  32:      3178.22    3.044402  (  0.299244   1.683376  -0.347993)
  33:      3178.82    1.614686  ( -0.980730   0.268048  -0.762237)
  34:      3189.45    0.826295  (  0.207307  -0.862607   0.198061)
  35:      3261.69    0.983182  (  0.665057   0.052183  -0.733593)
  36:      3278.36    6.435266  ( -2.297801   0.385899   1.003225)
  37:      3503.96  108.976538  ( -4.333649  -2.714390  -9.100995)
  38:      3613.58  128.451428  (  9.639242  -1.982485  -5.621939)

--------------------------
THERMOCHEMISTRY AT 298.15K
--------------------------

Temperature         ... 298.15 K
Pressure            ... 1.00 atm
Total Mass          ... 70.11 AMU

Throughout the following assumptions are being made:
  (1) The electronic state is orbitally nondegenerate
  (2) There are no thermally accessible electronically excited states
  (3) Hindered rotations indicated by low frequency modes) are not
      treated as such but are treated as vibrations and this may
      case some error
  (4) All equations used are the standard statistical mechanics
      equations for an ideal gas
  (5) All vibrations are strinctly harmonic

------------
INNER ENERGY
------------

The inner energy is: U= E(el) + E(ZPE) + E(vib) + E(rot) + E(trans)
    E(el)   - is the total energy from the electronic structure calculation
              = E(kin-el) + E(nuc-el) + E(el-el) + E(nuc-nuc)
    E(ZPE)  - the the zero temperature vibrational energy from the frequency calculation
    E(vib)  - the the finite temperature correction to E(ZPE) due to population
              of excietd vibrational states
    E(rot)  - is the rotational thermal energy
    E(trans)- is the translational thermal energy

Summary of contributions to the inner energy U:
Electronic energy                ...   -211.50681734 Eh
Zero point energy                ...      0.11804026 Eh      74.07 kcal/mol
Thermal vibrational correction   ...      0.00245653 Eh       1.54 kcal/mol
Thermal rotational correction    ...      0.00141627 Eh       0.89 kcal/mol
Thermal translational correction ...      0.00141627 Eh       0.89 kcal/mol
-----------------------------------------------------------------------
Total thermal energy                   -211.38348801 Eh

Summary of corrections to the electronic energy:
(perhaps to be used in another calculation)
Total thermal correction                  0.00528907 Eh       3.32 kcal/mol
Non-thermal (ZPE) correction              0.11804026 Eh      74.07 kcal/mol
-----------------------------------------------------------------------
Total correction                          0.12332933 Eh      77.39 kcal/mol

--------
ENTHALPY
--------

The enthalpy is H = U + kB*T
                kB is Boltzmann's constant
Total free energy                 ...   -211.38348801 Eh
Thermal Enthalpy correction       ...      0.00094421 Eh       0.59 kcal/mol
-----------------------------------------------------------------------
Total Enthalpy                    ...   -211.38254380 Eh

-------
ENTROPY
-------

The entropy contributions are T*S = T*(S(el)+S(vib)+S(rot)+S(trans)
     S(el)   - electronic entropy
     S(vib)  - vibrational entropy
     S(rot)  - rotational entropy
     S(trans)- translational entropy
The entropies will be listed as mutliplied by the temperature to get
units of energy

Electronic entropy                ...      0.00000000 Eh      0.00 kcal/mol
Vibrational entropy               ...      0.00402026 Eh      2.52 kcal/mol
Rotational entropy                ...      0.01095267 Eh      6.87 kcal/mol
Translational entropy             ...      0.01836842 Eh     11.53 kcal/mol
-----------------------------------------------------------------------
Final entropy term                ...      0.03334135 Eh     20.92 kcal/mol

CAUTION: The rotational entropy is not quite correctly treated here
         because it includes a symmetry number that is not yet correctly
         implemented in ORCA!
For a nonlinear molecule the correct rotational entropy is:
    S(rot) = R*(ln(qrot/sn)+1.5)
    R    = 8.31441 J/mol/K = 1.987191683e-3 kcal/mol/K
    qrot = 73042.4667390
    sn is the rotational symmetry number. We have assumed 3 here
       if it is different for your molecule then you should correct
       the printed rotational entropy by manually evaluating the equation
       as given above

For convenience we print out the resulting values for sn=1 - 12:
 sn= 1  qrot/sn=   73042.4667 T*S(rot)=     7.52 kcal/mol T*S(tot)=    21.57 kcal/mol
 sn= 2  qrot/sn=   36521.2334 T*S(rot)=     7.11 kcal/mol T*S(tot)=    21.16 kcal/mol
 sn= 3  qrot/sn=   24347.4889 T*S(rot)=     6.87 kcal/mol T*S(tot)=    20.92 kcal/mol
 sn= 4  qrot/sn=   18260.6167 T*S(rot)=     6.70 kcal/mol T*S(tot)=    20.75 kcal/mol
 sn= 5  qrot/sn=   14608.4933 T*S(rot)=     6.57 kcal/mol T*S(tot)=    20.62 kcal/mol
 sn= 6  qrot/sn=   12173.7445 T*S(rot)=     6.46 kcal/mol T*S(tot)=    20.51 kcal/mol
 sn= 7  qrot/sn=   10434.6381 T*S(rot)=     6.37 kcal/mol T*S(tot)=    20.42 kcal/mol
 sn= 8  qrot/sn=    9130.3083 T*S(rot)=     6.29 kcal/mol T*S(tot)=    20.34 kcal/mol
 sn= 9  qrot/sn=    8115.8296 T*S(rot)=     6.22 kcal/mol T*S(tot)=    20.27 kcal/mol
 sn=10  qrot/sn=    7304.2467 T*S(rot)=     6.16 kcal/mol T*S(tot)=    20.21 kcal/mol
 sn=11  qrot/sn=    6640.2242 T*S(rot)=     6.10 kcal/mol T*S(tot)=    20.15 kcal/mol
 sn=12  qrot/sn=    6086.8722 T*S(rot)=     6.05 kcal/mol T*S(tot)=    20.10 kcal/mol

-------------------
GIBBS FREE ENTHALPY
-------------------

The Gibbs free enthalpy is G = H - T*S

Total enthalpy                    ...   -211.38254380 Eh
Total entropy correction          ...     -0.03334135 Eh    -20.92 kcal/mol
-----------------------------------------------------------------------
Final Gibbs free enthalpy         ...   -211.41588515 Eh

For completeness - the Gibbs free enthalpy minus the electronic energy
G-E(el)                           ...      0.09093219 Eh     57.06 kcal/mol

                             ****ORCA TERMINATED NORMALLY****
TOTAL RUN TIME: 0 days 0 hours 9 minutes 34 seconds 421 msec
