                         Program Version 3.0.3 - RELEASE   -
|  1> ! NORI PBE0 def2-TZVP UseSym TightOPT Freq TightSCF Grid3 FinalGrid5 XYZFile
|  2> % pal
|  3>     nprocs 8
|  4> end
|  5> %method
|  6>     SymThresh 5.0e-2
|  7> end
|  8> % geom
|  9>     MaxIter 10
| 10> end
| 11> % maxcore 2000
| 12> % output
| 13>     printlevel mini
| 14>     print[ P_Basis ] 0
| 15>     print[ P_SCFInfo ] 1
| 16>     print[ P_SCFIterInfo ] 1
| 17>     print[ P_OrbEn ] 0
| 18>     print[ P_Cartesian ] 0
| 19> end
| 20> % elprop
| 21>     Dipole false
| 22> end
| 23> *xyz 1 1
| 24>  C        0.9855787700     0.0987659598    -0.0685367668
| 25>  C        2.1811889899     0.0383486508    -0.0220296668
| 26>  C        3.6008012618    -0.0521845751     0.0549829111
| 27>  C        4.3891264668    -0.7477589156    -0.9846398105
| 28>  N        4.3706326723     0.7310063244    -0.9798629334
| 29>  H       -0.0810860098     0.1528456837    -0.1082986109
| 30>  H        4.0497214163     0.0367224332     1.0398463579
| 31>  H        5.3460759101    -1.1793340433    -0.7218698068
| 32>  H        3.8661715650    -1.1905293871    -1.8222666295
| 33>  H        3.8200408820     1.2036706391    -1.6907230224
| 34>  H        5.2042480756     1.2312772299    -0.6879820220
| 35> *
| 36>
| 37>                          ****END OF INPUT****
 Total Charge           Charge          ....    1
 Multiplicity           Mult            ....    1
 Number of Electrons    NEL             ....   36
FINAL SINGLE POINT ENERGY      -210.245171969050

CARTESIAN COORDINATES (ANGSTROEM)
---------------------------------
  C      1.225197    0.000086   -1.877576
  C      0.477092    0.209869   -0.965585
  C     -0.431443    0.470522    0.100275
  C     -1.155112   -0.622033    0.784796
  N      0.000028   -0.000098    1.467620
  H      1.892026   -0.185364   -2.691794
  H     -0.876964    1.460037    0.139718
  H     -2.109476   -0.413218    1.250434
  H     -0.979592   -1.640656    0.464548
  H      0.868103   -0.525673    1.511726
  H     -0.168719    0.605990    2.264262

FINAL SINGLE POINT ENERGY      -210.245172206158
                    ***********************HURRAY********************
 Multiplicity           Mult            ....    1
 Number of Electrons    NEL             ....   36
 Basis Dimension        Dim             ....  191
FINAL SINGLE POINT ENERGY      -210.245172395294

VIBRATIONAL FREQUENCIES
-----------------------

   0:         0.00 cm**-1
   1:         0.00 cm**-1
   2:         0.00 cm**-1
   3:         0.00 cm**-1
   4:         0.00 cm**-1
   5:         0.00 cm**-1
   6:       190.48 cm**-1
   7:       201.78 cm**-1
   8:       495.74 cm**-1
   9:       504.76 cm**-1
  10:       741.77 cm**-1
  11:       752.55 cm**-1
  12:       781.98 cm**-1
  13:       824.36 cm**-1
  14:       877.17 cm**-1
  15:       913.42 cm**-1
  16:       959.26 cm**-1
  17:      1031.02 cm**-1
  18:      1139.94 cm**-1
  19:      1156.95 cm**-1
  20:      1181.55 cm**-1
  21:      1247.20 cm**-1
  22:      1263.02 cm**-1
  23:      1410.00 cm**-1
  24:      1488.27 cm**-1
  25:      1624.59 cm**-1
  26:      2261.69 cm**-1
  27:      3176.90 cm**-1
  28:      3184.26 cm**-1
  29:      3284.03 cm**-1
  30:      3448.53 cm**-1
  31:      3499.50 cm**-1
  32:      3607.94 cm**-1

IR SPECTRUM
-----------

 Mode    freq (cm**-1)   T**2         TX         TY         TZ
-------------------------------------------------------------------
   6:       190.48    7.303899  (  2.033681  -1.750536   0.321970)
   7:       201.78    6.433475  (  1.902208   1.644321   0.333601)
   8:       495.74   16.556448  ( -0.530499   3.232601  -2.413567)
   9:       504.76    9.831854  (  2.203365   1.396153   1.740056)
  10:       741.77   36.349990  (  2.338182   5.481088   0.916829)
  11:       752.55    9.558939  ( -0.645840  -0.509776   2.980261)
  12:       781.98   32.545190  ( -3.758434   2.240458  -3.660562)
  13:       824.36   27.114867  ( -1.319718  -0.578312  -5.003875)
  14:       877.17    7.131227  ( -1.065429   0.279148   2.432728)
  15:       913.42    5.281486  ( -0.062965   1.382179  -1.834967)
  16:       959.26   18.277197  ( -1.630135   0.789570  -3.872523)
  17:      1031.02   90.601210  ( -4.518221  -7.433304   3.864308)
  18:      1139.94   10.350976  (  2.807642  -0.761488  -1.374138)
  19:      1156.95    2.592300  ( -0.915421   0.093489   1.321198)
  20:      1181.55    2.123015  ( -0.773140   1.084811  -0.590301)
  21:      1247.20    2.164527  (  0.301789   0.020989  -1.439795)
  22:      1263.02    7.141145  ( -2.425032   1.109717  -0.169986)
  23:      1410.00   25.399417  (  2.468774  -1.354855  -4.179586)
  24:      1488.27   14.712656  ( -2.775655  -2.291837   1.325095)
  25:      1624.59   68.605180  (  4.282003  -0.047604   7.089948)
  26:      2261.69   58.792317  ( -4.375657   0.884796   6.234026)
  27:      3176.90    7.048739  (  1.796497   1.862219  -0.594540)
  28:      3184.26    7.774716  ( -0.415558   2.406567  -1.345533)
  29:      3284.03   10.788221  ( -1.755100   2.467009   1.273465)
  30:      3448.53   99.593848  (  5.938245  -1.365477  -7.903579)
  31:      3499.50  124.587849  (  5.744523   0.517977   9.556150)
  32:      3607.94  142.142843  (  7.090539  -7.858186  -5.487806)

--------------------------
THERMOCHEMISTRY AT 298.15K
--------------------------

Temperature         ... 298.15 K
Pressure            ... 1.00 atm
Total Mass          ... 68.10 AMU

Throughout the following assumptions are being made:
  (1) The electronic state is orbitally nondegenerate
  (2) There are no thermally accessible electronically excited states
  (3) Hindered rotations indicated by low frequency modes) are not
      treated as such but are treated as vibrations and this may
      case some error
  (4) All equations used are the standard statistical mechanics
      equations for an ideal gas
  (5) All vibrations are strinctly harmonic

------------
INNER ENERGY
------------

The inner energy is: U= E(el) + E(ZPE) + E(vib) + E(rot) + E(trans)
    E(el)   - is the total energy from the electronic structure calculation
              = E(kin-el) + E(nuc-el) + E(el-el) + E(nuc-nuc)
    E(ZPE)  - the the zero temperature vibrational energy from the frequency calculation
    E(vib)  - the the finite temperature correction to E(ZPE) due to population
              of excietd vibrational states
    E(rot)  - is the rotational thermal energy
    E(trans)- is the translational thermal energy

Summary of contributions to the inner energy U:
Electronic energy                ...   -210.24517240 Eh
Zero point energy                ...      0.09397135 Eh      58.97 kcal/mol
Thermal vibrational correction   ...      0.00221484 Eh       1.39 kcal/mol
Thermal rotational correction    ...      0.00141627 Eh       0.89 kcal/mol
Thermal translational correction ...      0.00141627 Eh       0.89 kcal/mol
-----------------------------------------------------------------------
Total thermal energy                   -210.14615366 Eh

Summary of corrections to the electronic energy:
(perhaps to be used in another calculation)
Total thermal correction                  0.00504738 Eh       3.17 kcal/mol
Non-thermal (ZPE) correction              0.09397135 Eh      58.97 kcal/mol
-----------------------------------------------------------------------
Total correction                          0.09901873 Eh      62.14 kcal/mol

--------
ENTHALPY
--------

The enthalpy is H = U + kB*T
                kB is Boltzmann's constant
Total free energy                 ...   -210.14615366 Eh
Thermal Enthalpy correction       ...      0.00094421 Eh       0.59 kcal/mol
-----------------------------------------------------------------------
Total Enthalpy                    ...   -210.14520945 Eh

-------
ENTROPY
-------

The entropy contributions are T*S = T*(S(el)+S(vib)+S(rot)+S(trans)
     S(el)   - electronic entropy
     S(vib)  - vibrational entropy
     S(rot)  - rotational entropy
     S(trans)- translational entropy
The entropies will be listed as mutliplied by the temperature to get
units of energy

Electronic entropy                ...      0.00000000 Eh      0.00 kcal/mol
Vibrational entropy               ...      0.00347031 Eh      2.18 kcal/mol
Rotational entropy                ...      0.01086858 Eh      6.82 kcal/mol
Translational entropy             ...      0.01832710 Eh     11.50 kcal/mol
-----------------------------------------------------------------------
Final entropy term                ...      0.03266599 Eh     20.50 kcal/mol

CAUTION: The rotational entropy is not quite correctly treated here
         because it includes a symmetry number that is not yet correctly
         implemented in ORCA!
For a nonlinear molecule the correct rotational entropy is:
    S(rot) = R*(ln(qrot/sn)+1.5)
    R    = 8.31441 J/mol/K = 1.987191683e-3 kcal/mol/K
    qrot = 66818.2666225
    sn is the rotational symmetry number. We have assumed 3 here
       if it is different for your molecule then you should correct
       the printed rotational entropy by manually evaluating the equation
       as given above

For convenience we print out the resulting values for sn=1 - 12:
 sn= 1  qrot/sn=   66818.2666 T*S(rot)=     7.47 kcal/mol T*S(tot)=    21.15 kcal/mol
 sn= 2  qrot/sn=   33409.1333 T*S(rot)=     7.06 kcal/mol T*S(tot)=    20.74 kcal/mol
 sn= 3  qrot/sn=   22272.7555 T*S(rot)=     6.82 kcal/mol T*S(tot)=    20.50 kcal/mol
 sn= 4  qrot/sn=   16704.5667 T*S(rot)=     6.65 kcal/mol T*S(tot)=    20.33 kcal/mol
 sn= 5  qrot/sn=   13363.6533 T*S(rot)=     6.52 kcal/mol T*S(tot)=    20.20 kcal/mol
 sn= 6  qrot/sn=   11136.3778 T*S(rot)=     6.41 kcal/mol T*S(tot)=    20.09 kcal/mol
 sn= 7  qrot/sn=    9545.4667 T*S(rot)=     6.32 kcal/mol T*S(tot)=    20.00 kcal/mol
 sn= 8  qrot/sn=    8352.2833 T*S(rot)=     6.24 kcal/mol T*S(tot)=    19.92 kcal/mol
 sn= 9  qrot/sn=    7424.2518 T*S(rot)=     6.17 kcal/mol T*S(tot)=    19.85 kcal/mol
 sn=10  qrot/sn=    6681.8267 T*S(rot)=     6.11 kcal/mol T*S(tot)=    19.78 kcal/mol
 sn=11  qrot/sn=    6074.3879 T*S(rot)=     6.05 kcal/mol T*S(tot)=    19.73 kcal/mol
 sn=12  qrot/sn=    5568.1889 T*S(rot)=     6.00 kcal/mol T*S(tot)=    19.68 kcal/mol

-------------------
GIBBS FREE ENTHALPY
-------------------

The Gibbs free enthalpy is G = H - T*S

Total enthalpy                    ...   -210.14520945 Eh
Total entropy correction          ...     -0.03266599 Eh    -20.50 kcal/mol
-----------------------------------------------------------------------
Final Gibbs free enthalpy         ...   -210.17787544 Eh

For completeness - the Gibbs free enthalpy minus the electronic energy
G-E(el)                           ...      0.06729695 Eh     42.23 kcal/mol

                             ****ORCA TERMINATED NORMALLY****
TOTAL RUN TIME: 0 days 0 hours 8 minutes 12 seconds 220 msec
