                         Program Version 3.0.3 - RELEASE   -
|  1> ! NORI PBE0 def2-TZVP UseSym TightOPT Freq TightSCF Grid3 FinalGrid5 XYZFile
|  2> % pal
|  3>     nprocs 8
|  4> end
|  5> %method
|  6>     SymThresh 5.0e-2
|  7> end
|  8> % geom
|  9>     MaxIter 10
| 10> end
| 11> % maxcore 2000
| 12> % output
| 13>     printlevel mini
| 14>     print[ P_Basis ] 0
| 15>     print[ P_SCFInfo ] 1
| 16>     print[ P_SCFIterInfo ] 1
| 17>     print[ P_OrbEn ] 0
| 18>     print[ P_Cartesian ] 0
| 19> end
| 20> % elprop
| 21>     Dipole false
| 22> end
| 23> *xyz 1 1
| 24>  C        0.9695520473     0.0047053180    -0.0178912683
| 25>  C        2.4869657913     0.0219409580    -0.0669004511
| 26>  C        3.0180658940     1.0108132217    -1.0987790921
| 27>  C        4.5277264732     1.0113823161    -1.1343233837
| 28>  N        5.0394629420     1.9966428009    -2.1567063637
| 29>  H        0.6172740599    -0.7087427902     0.7275249100
| 30>  H        0.5428689309    -0.2849843601    -0.9810682104
| 31>  H        0.5679762544     0.9856496273     0.2468649279
| 32>  H        2.8871416390     0.2801131928     0.9193341442
| 33>  H        2.8618465181    -0.9800766612    -0.3011448371
| 34>  H        2.6227922349     0.7504258623    -2.0883214141
| 35>  H        2.6512617311     2.0166531460    -0.8600924696
| 36>  H        4.9635794612     1.3072992188    -0.1788954050
| 37>  H        4.9350668241     0.0390878026    -1.4155528598
| 38>  H        4.7192801234     2.9431167957    -1.9401219401
| 39>  H        4.6914034265     1.7646680286    -3.0895906108
| 40>  H        6.0606356489     2.0125055226    -2.1978356761
| 41> *
| 42>
| 43>                          ****END OF INPUT****
 Total Charge           Charge          ....    1
 Multiplicity           Mult            ....    1
 Number of Electrons    NEL             ....   42
FINAL SINGLE POINT ENERGY      -213.980947440913

CARTESIAN COORDINATES (ANGSTROEM)
---------------------------------
  C     -2.516536   -0.655673    0.000000
  C     -1.377641    0.348893   -0.000000
  C     -0.011831   -0.329946    0.000000
  C      1.106511    0.685096    0.000000
  N      2.451592    0.000009   -0.000000
  H     -3.479770   -0.144732   -0.000000
  H     -2.482048   -1.297244    0.883777
  H     -2.482048   -1.297244   -0.883777
  H     -1.457022    0.999649   -0.877309
  H     -1.457022    0.999649    0.877309
  H      0.072505   -0.976389    0.882314
  H      0.072505   -0.976389   -0.882314
  H      1.086983    1.321710   -0.885863
  H      1.086983    1.321710    0.885863
  H      2.553968   -0.597557   -0.823252
  H      2.553968   -0.597557    0.823252
  H      3.223917    0.669363    0.000000

FINAL SINGLE POINT ENERGY      -213.980948022520
                    ***********************HURRAY********************
 Multiplicity           Mult            ....    1
 Number of Electrons    NEL             ....   42
 Basis Dimension        Dim             ....  227
FINAL SINGLE POINT ENERGY      -213.980948161519

VIBRATIONAL FREQUENCIES
-----------------------

   0:         0.00 cm**-1
   1:         0.00 cm**-1
   2:         0.00 cm**-1
   3:         0.00 cm**-1
   4:         0.00 cm**-1
   5:         0.00 cm**-1
   6:       105.16 cm**-1
   7:       110.62 cm**-1
   8:       172.59 cm**-1
   9:       225.12 cm**-1
  10:       248.37 cm**-1
  11:       390.60 cm**-1
  12:       399.84 cm**-1
  13:       744.68 cm**-1
  14:       789.71 cm**-1
  15:       890.48 cm**-1
  16:       894.37 cm**-1
  17:       916.33 cm**-1
  18:       998.74 cm**-1
  19:       999.12 cm**-1
  20:      1064.52 cm**-1
  21:      1086.22 cm**-1
  22:      1182.02 cm**-1
  23:      1211.61 cm**-1
  24:      1293.61 cm**-1
  25:      1305.99 cm**-1
  26:      1338.76 cm**-1
  27:      1352.75 cm**-1
  28:      1389.02 cm**-1
  29:      1409.99 cm**-1
  30:      1418.30 cm**-1
  31:      1480.12 cm**-1
  32:      1482.93 cm**-1
  33:      1493.12 cm**-1
  34:      1495.90 cm**-1
  35:      1504.14 cm**-1
  36:      1510.08 cm**-1
  37:      1657.36 cm**-1
  38:      1664.54 cm**-1
  39:      3025.85 cm**-1
  40:      3046.51 cm**-1
  41:      3057.53 cm**-1
  42:      3063.62 cm**-1
  43:      3089.57 cm**-1
  44:      3097.36 cm**-1
  45:      3130.00 cm**-1
  46:      3147.06 cm**-1
  47:      3156.75 cm**-1
  48:      3421.81 cm**-1
  49:      3503.19 cm**-1
  50:      3508.92 cm**-1

IR SPECTRUM
-----------

 Mode    freq (cm**-1)   T**2         TX         TY         TZ
-------------------------------------------------------------------
   6:       105.16    0.002641  ( -0.000074  -0.000105  -0.051389)
   7:       110.62    4.605478  ( -0.000019  -0.000038   2.146038)
   8:       172.59    5.962166  ( -1.222857  -2.113478  -0.000031)
   9:       225.12    0.002096  (  0.000032   0.000056  -0.045777)
  10:       248.37    0.013166  ( -0.000019  -0.000039   0.114741)
  11:       390.60    2.372251  (  1.538751  -0.067062   0.000012)
  12:       399.84    8.321088  ( -2.815971  -0.625617   0.000014)
  13:       744.68    6.736091  ( -0.000010   0.000025  -2.595398)
  14:       789.71    1.298105  ( -0.000014   0.000005   1.139344)
  15:       890.48   15.704636  (  3.375372   2.076415   0.000071)
  16:       894.37    8.514574  ( -0.000144  -0.000029   2.917974)
  17:       916.33    6.243912  (  2.427486  -0.592643   0.000079)
  18:       998.74    2.531471  (  0.000015   0.000138  -1.591060)
  19:       999.12    3.277578  (  0.047881   1.809775   0.000071)
  20:      1064.52   10.637377  ( -2.857694  -1.571929   0.000024)
  21:      1086.22   11.946224  ( -3.455419  -0.079403  -0.000005)
  22:      1182.02    9.104643  ( -0.669498  -2.942179   0.000012)
  23:      1211.61    1.365894  (  0.000011   0.000007   1.168715)
  24:      1293.61    2.065053  (  0.000019   0.000026  -1.437029)
  25:      1305.99    1.460487  ( -0.609511  -1.043544  -0.000053)
  26:      1338.76    1.816122  (  0.000005  -0.000004  -1.347636)
  27:      1352.75    2.435810  ( -0.000038   0.000052  -1.560708)
  28:      1389.02    1.665860  ( -1.012210   0.800806   0.000007)
  29:      1409.99   16.566765  (  4.068809  -0.107517  -0.000020)
  30:      1418.30    2.849873  ( -0.161887   1.680376  -0.000032)
  31:      1480.12    1.253035  ( -0.160674  -1.107799   0.000020)
  32:      1482.93    4.133865  ( -1.887681   0.755332  -0.000198)
  33:      1493.12   13.039649  (  0.000077   0.000016   3.611045)
  34:      1495.90    1.218922  (  1.071586   0.265753  -0.000928)
  35:      1504.14   60.512272  ( -7.776201   0.207294  -0.000110)
  36:      1510.08  104.146243  ( -7.766320   6.620462   0.000042)
  37:      1657.36   53.079713  ( -0.000811  -0.001267   7.285582)
  38:      1664.54   36.679248  (  3.124512   5.188128   0.001836)
  39:      3025.85    9.369035  ( -2.341446   1.971463  -0.000019)
  40:      3046.51   14.858223  (  0.529487  -3.818097  -0.000042)
  41:      3057.53   18.567234  ( -1.640704  -3.984385   0.000066)
  42:      3063.62    1.507885  ( -0.000040  -0.000170  -1.227960)
  43:      3089.57   11.315311  (  0.000024   0.000068  -3.363824)
  44:      3097.36    3.012502  ( -0.511730  -1.658504   0.000035)
  45:      3130.00   23.281419  ( -0.000076   0.000009  -4.825082)
  46:      3147.06    8.763164  (  1.986559  -2.194709  -0.000118)
  47:      3156.75    1.480868  ( -0.000016  -0.000017  -1.216909)
  48:      3421.81   44.603545  ( -6.308698   2.191773   0.000121)
  49:      3503.19   91.910263  ( -0.000636  -0.001020  -9.586984)
  50:      3508.92   98.105037  ( -4.763305  -8.684237   0.001119)

--------------------------
THERMOCHEMISTRY AT 298.15K
--------------------------

Temperature         ... 298.15 K
Pressure            ... 1.00 atm
Total Mass          ... 74.15 AMU

Throughout the following assumptions are being made:
  (1) The electronic state is orbitally nondegenerate
  (2) There are no thermally accessible electronically excited states
  (3) Hindered rotations indicated by low frequency modes) are not
      treated as such but are treated as vibrations and this may
      case some error
  (4) All equations used are the standard statistical mechanics
      equations for an ideal gas
  (5) All vibrations are strinctly harmonic

------------
INNER ENERGY
------------

The inner energy is: U= E(el) + E(ZPE) + E(vib) + E(rot) + E(trans)
    E(el)   - is the total energy from the electronic structure calculation
              = E(kin-el) + E(nuc-el) + E(el-el) + E(nuc-nuc)
    E(ZPE)  - the the zero temperature vibrational energy from the frequency calculation
    E(vib)  - the the finite temperature correction to E(ZPE) due to population
              of excietd vibrational states
    E(rot)  - is the rotational thermal energy
    E(trans)- is the translational thermal energy

Summary of contributions to the inner energy U:
Electronic energy                ...   -213.98094816 Eh
Zero point energy                ...      0.16510991 Eh     103.61 kcal/mol
Thermal vibrational correction   ...      0.00428403 Eh       2.69 kcal/mol
Thermal rotational correction    ...      0.00141627 Eh       0.89 kcal/mol
Thermal translational correction ...      0.00141627 Eh       0.89 kcal/mol
-----------------------------------------------------------------------
Total thermal energy                   -213.80872167 Eh

Summary of corrections to the electronic energy:
(perhaps to be used in another calculation)
Total thermal correction                  0.00711657 Eh       4.47 kcal/mol
Non-thermal (ZPE) correction              0.16510991 Eh     103.61 kcal/mol
-----------------------------------------------------------------------
Total correction                          0.17222649 Eh     108.07 kcal/mol

--------
ENTHALPY
--------

The enthalpy is H = U + kB*T
                kB is Boltzmann's constant
Total free energy                 ...   -213.80872167 Eh
Thermal Enthalpy correction       ...      0.00094421 Eh       0.59 kcal/mol
-----------------------------------------------------------------------
Total Enthalpy                    ...   -213.80777746 Eh

-------
ENTROPY
-------

The entropy contributions are T*S = T*(S(el)+S(vib)+S(rot)+S(trans)
     S(el)   - electronic entropy
     S(vib)  - vibrational entropy
     S(rot)  - rotational entropy
     S(trans)- translational entropy
The entropies will be listed as mutliplied by the temperature to get
units of energy

Electronic entropy                ...      0.00000000 Eh      0.00 kcal/mol
Vibrational entropy               ...      0.00768810 Eh      4.82 kcal/mol
Rotational entropy                ...      0.01136166 Eh      7.13 kcal/mol
Translational entropy             ...      0.01844761 Eh     11.58 kcal/mol
-----------------------------------------------------------------------
Final entropy term                ...      0.03749736 Eh     23.53 kcal/mol

CAUTION: The rotational entropy is not quite correctly treated here
         because it includes a symmetry number that is not yet correctly
         implemented in ORCA!
For a nonlinear molecule the correct rotational entropy is:
    S(rot) = R*(ln(qrot/sn)+1.5)
    R    = 8.31441 J/mol/K = 1.987191683e-3 kcal/mol/K
    qrot = 112640.7935966
    sn is the rotational symmetry number. We have assumed 3 here
       if it is different for your molecule then you should correct
       the printed rotational entropy by manually evaluating the equation
       as given above

For convenience we print out the resulting values for sn=1 - 12:
 sn= 1  qrot/sn=  112640.7936 T*S(rot)=     7.78 kcal/mol T*S(tot)=    24.18 kcal/mol
 sn= 2  qrot/sn=   56320.3968 T*S(rot)=     7.37 kcal/mol T*S(tot)=    23.77 kcal/mol
 sn= 3  qrot/sn=   37546.9312 T*S(rot)=     7.13 kcal/mol T*S(tot)=    23.53 kcal/mol
 sn= 4  qrot/sn=   28160.1984 T*S(rot)=     6.96 kcal/mol T*S(tot)=    23.36 kcal/mol
 sn= 5  qrot/sn=   22528.1587 T*S(rot)=     6.83 kcal/mol T*S(tot)=    23.23 kcal/mol
 sn= 6  qrot/sn=   18773.4656 T*S(rot)=     6.72 kcal/mol T*S(tot)=    23.12 kcal/mol
 sn= 7  qrot/sn=   16091.5419 T*S(rot)=     6.63 kcal/mol T*S(tot)=    23.03 kcal/mol
 sn= 8  qrot/sn=   14080.0992 T*S(rot)=     6.55 kcal/mol T*S(tot)=    22.95 kcal/mol
 sn= 9  qrot/sn=   12515.6437 T*S(rot)=     6.48 kcal/mol T*S(tot)=    22.88 kcal/mol
 sn=10  qrot/sn=   11264.0794 T*S(rot)=     6.42 kcal/mol T*S(tot)=    22.82 kcal/mol
 sn=11  qrot/sn=   10240.0721 T*S(rot)=     6.36 kcal/mol T*S(tot)=    22.76 kcal/mol
 sn=12  qrot/sn=    9386.7328 T*S(rot)=     6.31 kcal/mol T*S(tot)=    22.71 kcal/mol

-------------------
GIBBS FREE ENTHALPY
-------------------

The Gibbs free enthalpy is G = H - T*S

Total enthalpy                    ...   -213.80777746 Eh
Total entropy correction          ...     -0.03749736 Eh    -23.53 kcal/mol
-----------------------------------------------------------------------
Final Gibbs free enthalpy         ...   -213.84527483 Eh

For completeness - the Gibbs free enthalpy minus the electronic energy
G-E(el)                           ...      0.13567333 Eh     85.14 kcal/mol

                             ****ORCA TERMINATED NORMALLY****
TOTAL RUN TIME: 0 days 0 hours 13 minutes 27 seconds 534 msec
