                         Program Version 3.0.3 - RELEASE   -
|  1> ! NORI PBE0 def2-TZVP UseSym TightOPT Freq TightSCF Grid3 FinalGrid5 XYZFile
|  2> % pal
|  3>     nprocs 8
|  4> end
|  5> %method
|  6>     SymThresh 5.0e-2
|  7> end
|  8> % geom
|  9>     MaxIter 10
| 10> end
| 11> % maxcore 2000
| 12> % output
| 13>     printlevel mini
| 14>     print[ P_Basis ] 0
| 15>     print[ P_SCFInfo ] 1
| 16>     print[ P_SCFIterInfo ] 1
| 17>     print[ P_OrbEn ] 0
| 18>     print[ P_Cartesian ] 0
| 19> end
| 20> % elprop
| 21>     Dipole false
| 22> end
| 23> *xyz 1 1
| 24>  C        0.9835405163    -0.1741700739    -0.1341620900
| 25>  C        2.4671869438     0.0245784751    -0.1604016520
| 26>  C        3.0791336625     0.9595797688    -0.8804791594
| 27>  C        3.2861820371    -0.8639393828     0.7215205883
| 28>  N        3.2553772326    -2.2913562694     0.2041690885
| 29>  H        0.4828241703     0.5497155505    -0.7753839751
| 30>  H        0.5895981087    -0.0579068378     0.8803188599
| 31>  H        0.6771744842    -1.1668931817    -0.4862115934
| 32>  H        2.5182721004     1.6416646574    -1.5084480980
| 33>  H        4.1550202586     1.0951127993    -0.8530018300
| 34>  H        2.9016670469    -0.9126886579     1.7427935166
| 35>  H        4.3348885901    -0.5706162392     0.7458291398
| 36>  H        2.2962684085    -2.6423294934     0.1693784697
| 37>  H        3.8021891474    -2.9241429391     0.7915816973
| 38>  H        3.6302872928    -2.3279481759    -0.7464629621
| 39> *
| 40>
| 41>                          ****END OF INPUT****
 Total Charge           Charge          ....    1
 Multiplicity           Mult            ....    1
 Number of Electrons    NEL             ....   40
FINAL SINGLE POINT ENERGY      -212.750579142194

CARTESIAN COORDINATES (ANGSTROEM)
---------------------------------
  C      1.407482   -0.000400   -0.925616
  C     -0.055365    0.044321   -0.609730
  C     -0.960569    0.658231   -1.365251
  C     -0.507969   -0.692968    0.610648
  N     -0.000064    0.000432    1.862611
  H      1.621543    0.530028   -1.852280
  H      1.753698   -1.032671   -1.038016
  H      2.028523    0.464396   -0.149661
  H     -0.675707    1.178517   -2.272193
  H     -2.017438    0.646449   -1.121350
  H     -0.113601   -1.710634    0.657434
  H     -1.593126   -0.723722    0.697415
  H      1.020603    0.051550    1.858214
  H     -0.288222   -0.485853    2.714073
  H     -0.355164    0.958562    1.901692

FINAL SINGLE POINT ENERGY      -212.750579596672
                    ***********************HURRAY********************
 Multiplicity           Mult            ....    1
 Number of Electrons    NEL             ....   40
 Basis Dimension        Dim             ....  215
FINAL SINGLE POINT ENERGY      -212.750579835671

VIBRATIONAL FREQUENCIES
-----------------------

   0:         0.00 cm**-1
   1:         0.00 cm**-1
   2:         0.00 cm**-1
   3:         0.00 cm**-1
   4:         0.00 cm**-1
   5:         0.00 cm**-1
   6:        71.18 cm**-1
   7:       170.35 cm**-1
   8:       205.16 cm**-1
   9:       239.86 cm**-1
  10:       392.75 cm**-1
  11:       429.90 cm**-1
  12:       538.69 cm**-1
  13:       728.11 cm**-1
  14:       795.93 cm**-1
  15:       850.58 cm**-1
  16:       902.58 cm**-1
  17:       982.60 cm**-1
  18:       993.69 cm**-1
  19:      1003.81 cm**-1
  20:      1053.70 cm**-1
  21:      1094.51 cm**-1
  22:      1116.24 cm**-1
  23:      1303.13 cm**-1
  24:      1335.41 cm**-1
  25:      1398.81 cm**-1
  26:      1416.79 cm**-1
  27:      1449.62 cm**-1
  28:      1471.47 cm**-1
  29:      1477.10 cm**-1
  30:      1491.50 cm**-1
  31:      1498.00 cm**-1
  32:      1651.57 cm**-1
  33:      1663.53 cm**-1
  34:      1733.71 cm**-1
  35:      3027.12 cm**-1
  36:      3088.20 cm**-1
  37:      3091.65 cm**-1
  38:      3159.62 cm**-1
  39:      3163.34 cm**-1
  40:      3165.65 cm**-1
  41:      3254.99 cm**-1
  42:      3419.74 cm**-1
  43:      3504.43 cm**-1
  44:      3510.34 cm**-1

IR SPECTRUM
-----------

 Mode    freq (cm**-1)   T**2         TX         TY         TZ
-------------------------------------------------------------------
   6:        71.18    5.372566  ( -1.952550   1.246177   0.084595)
   7:       170.35    0.974595  (  0.585525  -0.657386  -0.446765)
   8:       205.16    1.110614  (  0.384272   0.010498  -0.981244)
   9:       239.86   14.994057  ( -1.401610  -1.918669   3.057492)
  10:       392.75    1.567542  (  0.161643  -1.234576  -0.131289)
  11:       429.90    2.714427  ( -0.375164   0.206711   1.590896)
  12:       538.69   17.073998  ( -0.259680  -2.191532  -3.493387)
  13:       728.11    0.039470  (  0.151835  -0.128112  -0.001791)
  14:       795.93    6.964884  (  0.766006   0.255085  -2.512579)
  15:       850.58    7.789388  (  2.493841  -1.108446   0.584376)
  16:       902.58   20.350619  ( -0.106246   0.206431   4.505188)
  17:       982.60    8.407775  (  2.205285   0.397435   1.840255)
  18:       993.69    3.806545  (  1.925074   0.130859   0.288984)
  19:      1003.81   36.925145  (  0.006145   5.270358   3.024638)
  20:      1053.70    8.224183  (  0.653168   2.355820  -1.499222)
  21:      1094.51   21.702924  ( -1.342202  -2.963708   3.334345)
  22:      1116.24    6.559326  ( -0.903474  -2.395948   0.049928)
  23:      1303.13    0.336276  (  0.089934  -0.294123   0.491609)
  24:      1335.41    9.590555  ( -2.529651   1.628560  -0.734313)
  25:      1398.81   17.885756  (  0.844522  -1.349648   3.918034)
  26:      1416.79    8.828029  (  2.902326  -0.565516  -0.291070)
  27:      1449.62    0.408087  ( -0.316117   0.204562  -0.516053)
  28:      1471.47   11.494732  (  0.037855  -0.156465   3.386564)
  29:      1477.10   48.142122  (  0.921684  -2.633690   6.352661)
  30:      1491.50   44.268475  (  3.865604   3.517155   4.117669)
  31:      1498.00  113.347118  (  2.346621   5.781136   8.626642)
  32:      1651.57   49.336189  (  6.077828  -3.519018  -0.112719)
  33:      1663.53   36.085837  (  2.283245   3.693669  -4.150835)
  34:      1733.71    3.323567  ( -1.608017   0.417760   0.750549)
  35:      3027.12   16.184586  (  2.673308   0.410145   2.978220)
  36:      3088.20    6.355446  ( -0.403347  -1.740019  -1.779071)
  37:      3091.65    2.872365  ( -0.088364  -1.346005   1.026074)
  38:      3159.62    0.926657  (  0.054517   0.466132  -0.840480)
  39:      3163.34    0.301911  ( -0.053178   0.310929  -0.449897)
  40:      3165.65    0.522496  (  0.600554   0.158760  -0.369629)
  41:      3254.99    0.461592  ( -0.671691   0.101375   0.012079)
  42:      3419.74   36.239089  (  1.420257   2.398880   5.335479)
  43:      3504.43   88.896412  ( -6.896931   6.411278  -0.473562)
  44:      3510.34  102.054556  (  5.681830   5.625876  -6.174211)

--------------------------
THERMOCHEMISTRY AT 298.15K
--------------------------

Temperature         ... 298.15 K
Pressure            ... 1.00 atm
Total Mass          ... 72.13 AMU

Throughout the following assumptions are being made:
  (1) The electronic state is orbitally nondegenerate
  (2) There are no thermally accessible electronically excited states
  (3) Hindered rotations indicated by low frequency modes) are not
      treated as such but are treated as vibrations and this may
      case some error
  (4) All equations used are the standard statistical mechanics
      equations for an ideal gas
  (5) All vibrations are strinctly harmonic

------------
INNER ENERGY
------------

The inner energy is: U= E(el) + E(ZPE) + E(vib) + E(rot) + E(trans)
    E(el)   - is the total energy from the electronic structure calculation
              = E(kin-el) + E(nuc-el) + E(el-el) + E(nuc-nuc)
    E(ZPE)  - the the zero temperature vibrational energy from the frequency calculation
    E(vib)  - the the finite temperature correction to E(ZPE) due to population
              of excietd vibrational states
    E(rot)  - is the rotational thermal energy
    E(trans)- is the translational thermal energy

Summary of contributions to the inner energy U:
Electronic energy                ...   -212.75057984 Eh
Zero point energy                ...      0.14089409 Eh      88.41 kcal/mol
Thermal vibrational correction   ...      0.00380990 Eh       2.39 kcal/mol
Thermal rotational correction    ...      0.00141627 Eh       0.89 kcal/mol
Thermal translational correction ...      0.00141627 Eh       0.89 kcal/mol
-----------------------------------------------------------------------
Total thermal energy                   -212.60304330 Eh

Summary of corrections to the electronic energy:
(perhaps to be used in another calculation)
Total thermal correction                  0.00664244 Eh       4.17 kcal/mol
Non-thermal (ZPE) correction              0.14089409 Eh      88.41 kcal/mol
-----------------------------------------------------------------------
Total correction                          0.14753653 Eh      92.58 kcal/mol

--------
ENTHALPY
--------

The enthalpy is H = U + kB*T
                kB is Boltzmann's constant
Total free energy                 ...   -212.60304330 Eh
Thermal Enthalpy correction       ...      0.00094421 Eh       0.59 kcal/mol
-----------------------------------------------------------------------
Total Enthalpy                    ...   -212.60209910 Eh

-------
ENTROPY
-------

The entropy contributions are T*S = T*(S(el)+S(vib)+S(rot)+S(trans)
     S(el)   - electronic entropy
     S(vib)  - vibrational entropy
     S(rot)  - rotational entropy
     S(trans)- translational entropy
The entropies will be listed as mutliplied by the temperature to get
units of energy

Electronic entropy                ...      0.00000000 Eh      0.00 kcal/mol
Vibrational entropy               ...      0.00679674 Eh      4.27 kcal/mol
Rotational entropy                ...      0.01124738 Eh      7.06 kcal/mol
Translational entropy             ...      0.01840857 Eh     11.55 kcal/mol
-----------------------------------------------------------------------
Final entropy term                ...      0.03645268 Eh     22.87 kcal/mol

CAUTION: The rotational entropy is not quite correctly treated here
         because it includes a symmetry number that is not yet correctly
         implemented in ORCA!
For a nonlinear molecule the correct rotational entropy is:
    S(rot) = R*(ln(qrot/sn)+1.5)
    R    = 8.31441 J/mol/K = 1.987191683e-3 kcal/mol/K
    qrot = 99799.9979181
    sn is the rotational symmetry number. We have assumed 3 here
       if it is different for your molecule then you should correct
       the printed rotational entropy by manually evaluating the equation
       as given above

For convenience we print out the resulting values for sn=1 - 12:
 sn= 1  qrot/sn=   99799.9979 T*S(rot)=     7.71 kcal/mol T*S(tot)=    23.53 kcal/mol
 sn= 2  qrot/sn=   49899.9990 T*S(rot)=     7.30 kcal/mol T*S(tot)=    23.11 kcal/mol
 sn= 3  qrot/sn=   33266.6660 T*S(rot)=     7.06 kcal/mol T*S(tot)=    22.87 kcal/mol
 sn= 4  qrot/sn=   24949.9995 T*S(rot)=     6.89 kcal/mol T*S(tot)=    22.70 kcal/mol
 sn= 5  qrot/sn=   19959.9996 T*S(rot)=     6.76 kcal/mol T*S(tot)=    22.57 kcal/mol
 sn= 6  qrot/sn=   16633.3330 T*S(rot)=     6.65 kcal/mol T*S(tot)=    22.46 kcal/mol
 sn= 7  qrot/sn=   14257.1426 T*S(rot)=     6.56 kcal/mol T*S(tot)=    22.37 kcal/mol
 sn= 8  qrot/sn=   12474.9997 T*S(rot)=     6.48 kcal/mol T*S(tot)=    22.29 kcal/mol
 sn= 9  qrot/sn=   11088.8887 T*S(rot)=     6.41 kcal/mol T*S(tot)=    22.22 kcal/mol
 sn=10  qrot/sn=    9979.9998 T*S(rot)=     6.34 kcal/mol T*S(tot)=    22.16 kcal/mol
 sn=11  qrot/sn=    9072.7271 T*S(rot)=     6.29 kcal/mol T*S(tot)=    22.10 kcal/mol
 sn=12  qrot/sn=    8316.6665 T*S(rot)=     6.24 kcal/mol T*S(tot)=    22.05 kcal/mol

-------------------
GIBBS FREE ENTHALPY
-------------------

The Gibbs free enthalpy is G = H - T*S

Total enthalpy                    ...   -212.60209910 Eh
Total entropy correction          ...     -0.03645268 Eh    -22.87 kcal/mol
-----------------------------------------------------------------------
Final Gibbs free enthalpy         ...   -212.63855178 Eh

For completeness - the Gibbs free enthalpy minus the electronic energy
G-E(el)                           ...      0.11202806 Eh     70.30 kcal/mol

                             ****ORCA TERMINATED NORMALLY****
TOTAL RUN TIME: 0 days 0 hours 12 minutes 21 seconds 700 msec
