                         Program Version 3.0.3 - RELEASE   -
|  1> ! NORI PBE0 def2-TZVP UseSym TightOPT Freq TightSCF Grid3 FinalGrid5 XYZFile
|  2> % pal
|  3>     nprocs 8
|  4> end
|  5> %method
|  6>     SymThresh 5.0e-2
|  7> end
|  8> % geom
|  9>     MaxIter 10
| 10> end
| 11> % maxcore 2000
| 12> % output
| 13>     printlevel mini
| 14>     print[ P_Basis ] 0
| 15>     print[ P_SCFInfo ] 1
| 16>     print[ P_SCFIterInfo ] 1
| 17>     print[ P_OrbEn ] 0
| 18>     print[ P_Cartesian ] 0
| 19> end
| 20> % elprop
| 21>     Dipole false
| 22> end
| 23> *xyz 1 1
| 24>  C        1.0504902004    -0.0733245848     0.0795209624
| 25>  C        2.5727972051    -0.1101052285     0.0228011669
| 26>  C        3.0695220105    -1.2198569025    -0.8954420364
| 27>  C        3.0626581064     1.2577131056    -0.4180905853
| 28>  N        4.5685340498     1.3165993510    -0.4496098567
| 29>  H        0.6661921747    -1.0268829984     0.4421750745
| 30>  H        0.6244142272     0.0993267390    -0.9125195282
| 31>  H        0.6868570733     0.7084422757     0.7496612454
| 32>  H        2.9467415466    -0.2923328386     1.0398480984
| 33>  H        2.7490862133    -1.0531033717    -1.9282170675
| 34>  H        2.6581831362    -2.1791078615    -0.5795032361
| 35>  H        4.1583251565    -1.3487853838    -0.8852796915
| 36>  H        2.7261434391     1.4977873717    -1.4287127615
| 37>  H        2.7370369698     2.0487008964     0.2581832974
| 38>  H        4.9365429308     0.6014814717    -1.0809857501
| 39>  H        4.9588379693     1.1354882532     0.4776335727
| 40>  H        4.9103775911     2.2263997056    -0.7634729043
| 41> *
| 42>
| 43>                          ****END OF INPUT****
 Total Charge           Charge          ....    1
 Multiplicity           Mult            ....    1
 Number of Electrons    NEL             ....   42
FINAL SINGLE POINT ENERGY      -213.982457944757
FINAL SINGLE POINT ENERGY      -213.982459397514

CARTESIAN COORDINATES (ANGSTROEM)
---------------------------------
  C      0.797995    0.000156   -1.769529
  C      0.025000    0.361020   -0.506519
  C     -1.452487    0.011816   -0.638729
  C      0.678346   -0.348767    0.665596
  N      0.000937   -0.000374    1.967062
  H      0.388080    0.537413   -2.625207
  H      0.724352   -1.069503   -1.983437
  H      1.855302    0.261291   -1.688595
  H      0.124813    1.443341   -0.345417
  H     -1.595759   -1.066289   -0.758924
  H     -1.873665    0.495419   -1.520943
  H     -2.064738    0.352556    0.204156
  H      0.609424   -1.434185    0.566997
  H      1.727122   -0.072102    0.780416
  H     -0.989726   -0.250765    1.929276
  H      0.055414    1.004339    2.147793
  H      0.422583   -0.486624    2.760249

FINAL SINGLE POINT ENERGY      -213.982459955910
                    ***********************HURRAY********************
 Multiplicity           Mult            ....    1
 Number of Electrons    NEL             ....   42
 Basis Dimension        Dim             ....  227
FINAL SINGLE POINT ENERGY      -213.982460082662

VIBRATIONAL FREQUENCIES
-----------------------

   0:         0.00 cm**-1
   1:         0.00 cm**-1
   2:         0.00 cm**-1
   3:         0.00 cm**-1
   4:         0.00 cm**-1
   5:         0.00 cm**-1
   6:       108.65 cm**-1
   7:       199.06 cm**-1
   8:       218.61 cm**-1
   9:       249.86 cm**-1
  10:       254.13 cm**-1
  11:       357.92 cm**-1
  12:       419.10 cm**-1
  13:       453.97 cm**-1
  14:       795.39 cm**-1
  15:       841.45 cm**-1
  16:       915.66 cm**-1
  17:       933.14 cm**-1
  18:       964.96 cm**-1
  19:       983.68 cm**-1
  20:       996.30 cm**-1
  21:      1040.69 cm**-1
  22:      1175.97 cm**-1
  23:      1205.75 cm**-1
  24:      1217.76 cm**-1
  25:      1334.00 cm**-1
  26:      1343.74 cm**-1
  27:      1374.97 cm**-1
  28:      1404.45 cm**-1
  29:      1408.16 cm**-1
  30:      1432.62 cm**-1
  31:      1469.38 cm**-1
  32:      1484.64 cm**-1
  33:      1490.89 cm**-1
  34:      1496.44 cm**-1
  35:      1500.21 cm**-1
  36:      1512.03 cm**-1
  37:      1653.12 cm**-1
  38:      1664.40 cm**-1
  39:      3020.86 cm**-1
  40:      3033.09 cm**-1
  41:      3056.75 cm**-1
  42:      3091.78 cm**-1
  43:      3101.52 cm**-1
  44:      3130.97 cm**-1
  45:      3142.69 cm**-1
  46:      3150.44 cm**-1
  47:      3154.04 cm**-1
  48:      3422.07 cm**-1
  49:      3499.82 cm**-1
  50:      3513.21 cm**-1

IR SPECTRUM
-----------

 Mode    freq (cm**-1)   T**2         TX         TY         TZ
-------------------------------------------------------------------
   6:       108.65    5.433637  ( -1.580538  -1.513792  -0.802477)
   7:       199.06    1.428411  ( -0.563947   0.039861  -1.052989)
   8:       218.61    0.857397  ( -0.368936   0.757442  -0.384142)
   9:       249.86    2.627603  (  0.955843  -0.485753   1.215735)
  10:       254.13    8.767902  ( -1.736351   0.837535  -2.247559)
  11:       357.92    6.065485  ( -0.224023   0.310396  -2.432890)
  12:       419.10    0.887875  ( -0.083807  -0.810939   0.472472)
  13:       453.97    6.509575  (  0.330446  -0.128165   2.526649)
  14:       795.39    6.768498  (  1.613972   0.694345   1.918718)
  15:       841.45    5.717232  (  1.899796   1.449234   0.087897)
  16:       915.66    5.737031  ( -0.914860   0.347462  -2.186169)
  17:       933.14    2.051682  ( -0.672262  -0.274144   1.234743)
  18:       964.96    7.827525  (  1.593785   0.600967  -2.219508)
  19:       983.68    7.199985  ( -0.193609   0.277504  -2.661859)
  20:       996.30   10.786618  (  0.386425  -3.199290   0.633907)
  21:      1040.69   22.049815  ( -2.923954   1.384970  -3.403258)
  22:      1175.97    5.419043  ( -1.321365   1.161330  -1.524582)
  23:      1205.75    0.294082  (  0.129865  -0.131134   0.509922)
  24:      1217.76    0.499767  (  0.055382  -0.699930   0.082455)
  25:      1334.00    2.997232  ( -1.414938  -0.875444  -0.478310)
  26:      1343.74    3.081959  (  0.336778   1.405810  -0.996111)
  27:      1374.97    3.906538  (  1.473284   0.611501   1.167064)
  28:      1404.45    0.057845  (  0.063876  -0.049936   0.226431)
  29:      1408.16    9.938963  (  3.144718   0.221634  -0.024244)
  30:      1432.62   12.208649  (  0.707979   1.472728   3.088444)
  31:      1469.38    6.739701  ( -0.680776   0.357140   2.479656)
  32:      1484.64   10.499412  (  0.639957  -1.155645  -2.958775)
  33:      1490.89   20.058211  ( -2.859958  -0.256543   3.437010)
  34:      1496.44   93.613514  ( -1.571696  -1.566476   9.417507)
  35:      1500.21    6.983600  (  2.588169   0.533778  -0.007730)
  36:      1512.03   75.526871  (  3.927711  -5.630199  -5.329242)
  37:      1653.12   47.947177  (  3.811904   5.777408  -0.195241)
  38:      1664.40   38.221138  ( -4.043093   2.200158  -4.127208)
  39:      3020.86    9.396370  (  0.710834   2.669748   1.327979)
  40:      3033.09   23.992850  (  2.949975   0.310504  -3.897959)
  41:      3056.75    5.404252  ( -1.459392   1.373667   1.177908)
  42:      3091.78    2.208043  ( -0.860648   0.949165  -0.752604)
  43:      3101.52   20.778352  ( -1.387817   2.870262   3.257900)
  44:      3130.97   10.234118  ( -1.984876  -2.472057  -0.428159)
  45:      3142.69    1.715764  ( -0.269307  -1.084346   0.683689)
  46:      3150.44    5.114938  ( -1.585022   1.211399  -1.065437)
  47:      3154.04    2.129990  (  0.961677   1.015945   0.415960)
  48:      3422.07   33.596913  (  2.744367  -1.190120  -4.964774)
  49:      3499.82   97.689815  ( -6.956579  -5.996868  -3.651492)
  50:      3513.21  107.356477  ( -4.898299   7.035656  -5.819166)

--------------------------
THERMOCHEMISTRY AT 298.15K
--------------------------

Temperature         ... 298.15 K
Pressure            ... 1.00 atm
Total Mass          ... 74.15 AMU

Throughout the following assumptions are being made:
  (1) The electronic state is orbitally nondegenerate
  (2) There are no thermally accessible electronically excited states
  (3) Hindered rotations indicated by low frequency modes) are not
      treated as such but are treated as vibrations and this may
      case some error
  (4) All equations used are the standard statistical mechanics
      equations for an ideal gas
  (5) All vibrations are strinctly harmonic

------------
INNER ENERGY
------------

The inner energy is: U= E(el) + E(ZPE) + E(vib) + E(rot) + E(trans)
    E(el)   - is the total energy from the electronic structure calculation
              = E(kin-el) + E(nuc-el) + E(el-el) + E(nuc-nuc)
    E(ZPE)  - the the zero temperature vibrational energy from the frequency calculation
    E(vib)  - the the finite temperature correction to E(ZPE) due to population
              of excietd vibrational states
    E(rot)  - is the rotational thermal energy
    E(trans)- is the translational thermal energy

Summary of contributions to the inner energy U:
Electronic energy                ...   -213.98246008 Eh
Zero point energy                ...      0.16452545 Eh     103.24 kcal/mol
Thermal vibrational correction   ...      0.00421454 Eh       2.64 kcal/mol
Thermal rotational correction    ...      0.00141627 Eh       0.89 kcal/mol
Thermal translational correction ...      0.00141627 Eh       0.89 kcal/mol
-----------------------------------------------------------------------
Total thermal energy                   -213.81088755 Eh

Summary of corrections to the electronic energy:
(perhaps to be used in another calculation)
Total thermal correction                  0.00704708 Eh       4.42 kcal/mol
Non-thermal (ZPE) correction              0.16452545 Eh     103.24 kcal/mol
-----------------------------------------------------------------------
Total correction                          0.17157253 Eh     107.66 kcal/mol

--------
ENTHALPY
--------

The enthalpy is H = U + kB*T
                kB is Boltzmann's constant
Total free energy                 ...   -213.81088755 Eh
Thermal Enthalpy correction       ...      0.00094421 Eh       0.59 kcal/mol
-----------------------------------------------------------------------
Total Enthalpy                    ...   -213.80994334 Eh

-------
ENTROPY
-------

The entropy contributions are T*S = T*(S(el)+S(vib)+S(rot)+S(trans)
     S(el)   - electronic entropy
     S(vib)  - vibrational entropy
     S(rot)  - rotational entropy
     S(trans)- translational entropy
The entropies will be listed as mutliplied by the temperature to get
units of energy

Electronic entropy                ...      0.00000000 Eh      0.00 kcal/mol
Vibrational entropy               ...      0.00712620 Eh      4.47 kcal/mol
Rotational entropy                ...      0.01133207 Eh      7.11 kcal/mol
Translational entropy             ...      0.01844761 Eh     11.58 kcal/mol
-----------------------------------------------------------------------
Final entropy term                ...      0.03690588 Eh     23.16 kcal/mol

CAUTION: The rotational entropy is not quite correctly treated here
         because it includes a symmetry number that is not yet correctly
         implemented in ORCA!
For a nonlinear molecule the correct rotational entropy is:
    S(rot) = R*(ln(qrot/sn)+1.5)
    R    = 8.31441 J/mol/K = 1.987191683e-3 kcal/mol/K
    qrot = 109165.7362722
    sn is the rotational symmetry number. We have assumed 3 here
       if it is different for your molecule then you should correct
       the printed rotational entropy by manually evaluating the equation
       as given above

For convenience we print out the resulting values for sn=1 - 12:
 sn= 1  qrot/sn=  109165.7363 T*S(rot)=     7.76 kcal/mol T*S(tot)=    23.81 kcal/mol
 sn= 2  qrot/sn=   54582.8681 T*S(rot)=     7.35 kcal/mol T*S(tot)=    23.40 kcal/mol
 sn= 3  qrot/sn=   36388.5788 T*S(rot)=     7.11 kcal/mol T*S(tot)=    23.16 kcal/mol
 sn= 4  qrot/sn=   27291.4341 T*S(rot)=     6.94 kcal/mol T*S(tot)=    22.99 kcal/mol
 sn= 5  qrot/sn=   21833.1473 T*S(rot)=     6.81 kcal/mol T*S(tot)=    22.86 kcal/mol
 sn= 6  qrot/sn=   18194.2894 T*S(rot)=     6.70 kcal/mol T*S(tot)=    22.75 kcal/mol
 sn= 7  qrot/sn=   15595.1052 T*S(rot)=     6.61 kcal/mol T*S(tot)=    22.66 kcal/mol
 sn= 8  qrot/sn=   13645.7170 T*S(rot)=     6.53 kcal/mol T*S(tot)=    22.58 kcal/mol
 sn= 9  qrot/sn=   12129.5263 T*S(rot)=     6.46 kcal/mol T*S(tot)=    22.51 kcal/mol
 sn=10  qrot/sn=   10916.5736 T*S(rot)=     6.40 kcal/mol T*S(tot)=    22.45 kcal/mol
 sn=11  qrot/sn=    9924.1578 T*S(rot)=     6.34 kcal/mol T*S(tot)=    22.39 kcal/mol
 sn=12  qrot/sn=    9097.1447 T*S(rot)=     6.29 kcal/mol T*S(tot)=    22.34 kcal/mol

-------------------
GIBBS FREE ENTHALPY
-------------------

The Gibbs free enthalpy is G = H - T*S

Total enthalpy                    ...   -213.80994334 Eh
Total entropy correction          ...     -0.03690588 Eh    -23.16 kcal/mol
-----------------------------------------------------------------------
Final Gibbs free enthalpy         ...   -213.84684922 Eh

For completeness - the Gibbs free enthalpy minus the electronic energy
G-E(el)                           ...      0.13561086 Eh     85.10 kcal/mol

                             ****ORCA TERMINATED NORMALLY****
TOTAL RUN TIME: 0 days 0 hours 15 minutes 46 seconds 360 msec
