                         Program Version 3.0.3 - RELEASE   -
|  1> ! NORI PBE0 def2-TZVP UseSym TightOPT Freq TightSCF Grid3 FinalGrid5 XYZFile
|  2> % pal
|  3>     nprocs 8
|  4> end
|  5> %method
|  6>     SymThresh 5.0e-2
|  7> end
|  8> % geom
|  9>     MaxIter 10
| 10> end
| 11> % maxcore 2000
| 12> % output
| 13>     printlevel mini
| 14>     print[ P_Basis ] 0
| 15>     print[ P_SCFInfo ] 1
| 16>     print[ P_SCFIterInfo ] 1
| 17>     print[ P_OrbEn ] 0
| 18>     print[ P_Cartesian ] 0
| 19> end
| 20> % elprop
| 21>     Dipole false
| 22> end
| 23> *xyz 1 1
| 24>  C        1.2136259978     0.0056154147     0.4882643928
| 25>  C        2.6576510210     0.4570311989     0.3730935151
| 26>  C        2.8413399590     1.5371218912    -0.6764578180
| 27>  C        3.6126854354    -0.7048929464     0.1775348489
| 28>  N        3.0208899574     1.0954207400     1.7198197051
| 29>  H        0.9084232122    -0.4527313110    -0.4528473101
| 30>  H        0.5378637939     0.8443740129     0.6757017559
| 31>  H        1.0796874600    -0.7430889056     1.2739571716
| 32>  H        2.5894078944     1.1277471579    -1.6551986498
| 33>  H        3.8759868695     1.8864054855    -0.7256373250
| 34>  H        2.1839071672     2.3929908189    -0.5022282012
| 35>  H        3.3930591213    -1.1914263993    -0.7735042879
| 36>  H        3.5041670153    -1.4593258340     0.9615335481
| 37>  H        4.6545008860    -0.3754381580     0.1414575632
| 38>  H        3.9855214328     1.4325955398     1.7152870768
| 39>  H        2.9262604184     0.4205398764     2.4814933907
| 40>  H        2.4095623584     1.8884814182     1.9229306238
| 41> *
| 42>
| 43>                          ****END OF INPUT****
 Total Charge           Charge          ....    1
 Multiplicity           Mult            ....    1
 Number of Electrons    NEL             ....   42
FINAL SINGLE POINT ENERGY      -213.992214334808

CARTESIAN COORDINATES (ANGSTROEM)
---------------------------------
  C     -0.727784   -0.519380    1.260396
  C     -0.000037   -0.090565    0.000000
  C     -0.727784   -0.519380   -1.260396
  C      1.455410   -0.519305   -0.000000
  N      0.000107    1.443421    0.000000
  H     -0.752568   -1.608591    1.303654
  H     -1.763247   -0.169194    1.273216
  H     -0.221576   -0.168920    2.163721
  H     -0.752568   -1.608591   -1.303654
  H     -0.221576   -0.168920   -2.163721
  H     -1.763247   -0.169194   -1.273216
  H      1.505365   -1.608447    0.000000
  H      1.984486   -0.168935    0.890205
  H      1.984486   -0.168935   -0.890205
  H      0.477521    1.807916   -0.826752
  H      0.477521    1.807916    0.826752
  H     -0.954508    1.808209    0.000000

FINAL SINGLE POINT ENERGY      -213.992214664502
                    ***********************HURRAY********************
 Multiplicity           Mult            ....    1
 Number of Electrons    NEL             ....   42
 Basis Dimension        Dim             ....  227
FINAL SINGLE POINT ENERGY      -213.992214764849

VIBRATIONAL FREQUENCIES
-----------------------

   0:         0.00 cm**-1
   1:         0.00 cm**-1
   2:         0.00 cm**-1
   3:         0.00 cm**-1
   4:         0.00 cm**-1
   5:         0.00 cm**-1
   6:       191.18 cm**-1
   7:       244.93 cm**-1
   8:       272.12 cm**-1
   9:       272.59 cm**-1
  10:       326.15 cm**-1
  11:       326.37 cm**-1
  12:       415.76 cm**-1
  13:       416.08 cm**-1
  14:       416.25 cm**-1
  15:       709.60 cm**-1
  16:       855.86 cm**-1
  17:       940.54 cm**-1
  18:       940.60 cm**-1
  19:       949.33 cm**-1
  20:       949.38 cm**-1
  21:       971.07 cm**-1
  22:      1087.93 cm**-1
  23:      1087.96 cm**-1
  24:      1204.59 cm**-1
  25:      1323.00 cm**-1
  26:      1323.00 cm**-1
  27:      1414.19 cm**-1
  28:      1414.34 cm**-1
  29:      1433.15 cm**-1
  30:      1466.15 cm**-1
  31:      1466.34 cm**-1
  32:      1469.88 cm**-1
  33:      1490.01 cm**-1
  34:      1499.57 cm**-1
  35:      1499.62 cm**-1
  36:      1505.46 cm**-1
  37:      1652.99 cm**-1
  38:      1653.07 cm**-1
  39:      3052.44 cm**-1
  40:      3052.72 cm**-1
  41:      3057.77 cm**-1
  42:      3126.89 cm**-1
  43:      3130.43 cm**-1
  44:      3130.88 cm**-1
  45:      3152.27 cm**-1
  46:      3152.70 cm**-1
  47:      3158.46 cm**-1
  48:      3418.11 cm**-1
  49:      3511.34 cm**-1
  50:      3511.71 cm**-1

IR SPECTRUM
-----------

 Mode    freq (cm**-1)   T**2         TX         TY         TZ
-------------------------------------------------------------------
   6:       191.18    0.000015  (  0.000011   0.000000  -0.003870)
   7:       244.93    0.000022  (  0.000011   0.000002   0.004691)
   8:       272.12    0.299356  (  0.547116   0.004456   0.000329)
   9:       272.59    0.289772  ( -0.000380   0.000018   0.538304)
  10:       326.15    3.819677  (  0.000124  -0.000005   1.954399)
  11:       326.37    3.844595  (  1.960764   0.000188  -0.000121)
  12:       415.76    6.838896  (  0.257049   2.602465  -0.000234)
  13:       416.08    2.737672  (  0.001082   0.000094   1.654591)
  14:       416.25    2.833189  ( -1.629222   0.422875   0.001054)
  15:       709.60    0.485154  (  0.002077   0.696527   0.000000)
  16:       855.86    5.376937  ( -0.003261   2.318820  -0.000002)
  17:       940.54    2.851171  (  0.000631   0.000003   1.688541)
  18:       940.60    2.797555  ( -1.672574   0.007230   0.000653)
  19:       949.33    5.312952  (  2.304978   0.001318   0.004990)
  20:       949.38    5.295185  ( -0.004997  -0.000001   2.301121)
  21:       971.07    0.000004  ( -0.000003   0.000003   0.001952)
  22:      1087.93    2.853409  ( -1.689195   0.004767   0.002386)
  23:      1087.96    2.805531  (  0.002402  -0.000013   1.674970)
  24:      1204.59   43.602514  (  0.006786  -6.603216  -0.000004)
  25:      1323.00   16.587359  ( -0.009609  -0.000051   4.072747)
  26:      1323.00   16.504300  ( -4.062495  -0.018556  -0.009636)
  27:      1414.19   26.383076  ( -0.001901  -0.000024  -5.136445)
  28:      1414.34   26.352432  (  5.133371   0.030526  -0.001897)
  29:      1433.15   54.765220  ( -0.020399   7.400325  -0.000009)
  30:      1466.15    0.037764  ( -0.193805  -0.014264  -0.000001)
  31:      1466.34    0.031005  ( -0.000002   0.000013  -0.176084)
  32:      1469.88    0.000147  ( -0.000010   0.000042  -0.012127)
  33:      1490.01  104.537421  ( -0.004944 -10.224353  -0.000010)
  34:      1499.57    5.718874  ( -0.000638  -0.000001   2.391417)
  35:      1499.62    5.734550  ( -2.394176  -0.049724  -0.000634)
  36:      1505.46   34.492016  (  0.025257  -5.872936   0.000010)
  37:      1652.99   45.575694  ( -0.000032  -0.000001   6.750977)
  38:      1653.07   45.481659  ( -6.744009   0.002617  -0.000017)
  39:      3052.44    2.861191  ( -1.688353  -0.103221  -0.000038)
  40:      3052.72    2.888884  (  0.000056  -0.000002  -1.699672)
  41:      3057.77    6.147085  ( -0.058610   2.478639  -0.000013)
  42:      3126.89    0.118970  ( -0.000000   0.000020   0.344920)
  43:      3130.43   10.555479  (  0.000066   0.000018   3.248920)
  44:      3130.88   10.675387  (  3.267281  -0.016218  -0.000090)
  45:      3152.27    2.038870  (  0.000062  -0.000003  -1.427890)
  46:      3152.70    2.040278  ( -1.427450   0.051602  -0.000157)
  47:      3158.46    0.557500  ( -0.063725  -0.743935  -0.000061)
  48:      3418.11   33.279547  ( -0.014365   5.768825  -0.000008)
  49:      3511.34   67.919173  (  8.241278   0.022711  -0.000006)
  50:      3511.71   67.989447  (  0.000000   0.000000   8.245571)

--------------------------
THERMOCHEMISTRY AT 298.15K
--------------------------

Temperature         ... 298.15 K
Pressure            ... 1.00 atm
Total Mass          ... 74.15 AMU

Throughout the following assumptions are being made:
  (1) The electronic state is orbitally nondegenerate
  (2) There are no thermally accessible electronically excited states
  (3) Hindered rotations indicated by low frequency modes) are not
      treated as such but are treated as vibrations and this may
      case some error
  (4) All equations used are the standard statistical mechanics
      equations for an ideal gas
  (5) All vibrations are strinctly harmonic

------------
INNER ENERGY
------------

The inner energy is: U= E(el) + E(ZPE) + E(vib) + E(rot) + E(trans)
    E(el)   - is the total energy from the electronic structure calculation
              = E(kin-el) + E(nuc-el) + E(el-el) + E(nuc-nuc)
    E(ZPE)  - the the zero temperature vibrational energy from the frequency calculation
    E(vib)  - the the finite temperature correction to E(ZPE) due to population
              of excietd vibrational states
    E(rot)  - is the rotational thermal energy
    E(trans)- is the translational thermal energy

Summary of contributions to the inner energy U:
Electronic energy                ...   -213.99221476 Eh
Zero point energy                ...      0.16321879 Eh     102.42 kcal/mol
Thermal vibrational correction   ...      0.00418659 Eh       2.63 kcal/mol
Thermal rotational correction    ...      0.00141627 Eh       0.89 kcal/mol
Thermal translational correction ...      0.00141627 Eh       0.89 kcal/mol
-----------------------------------------------------------------------
Total thermal energy                   -213.82197684 Eh

Summary of corrections to the electronic energy:
(perhaps to be used in another calculation)
Total thermal correction                  0.00701913 Eh       4.40 kcal/mol
Non-thermal (ZPE) correction              0.16321879 Eh     102.42 kcal/mol
-----------------------------------------------------------------------
Total correction                          0.17023793 Eh     106.83 kcal/mol

--------
ENTHALPY
--------

The enthalpy is H = U + kB*T
                kB is Boltzmann's constant
Total free energy                 ...   -213.82197684 Eh
Thermal Enthalpy correction       ...      0.00094421 Eh       0.59 kcal/mol
-----------------------------------------------------------------------
Total Enthalpy                    ...   -213.82103263 Eh

-------
ENTROPY
-------

The entropy contributions are T*S = T*(S(el)+S(vib)+S(rot)+S(trans)
     S(el)   - electronic entropy
     S(vib)  - vibrational entropy
     S(rot)  - rotational entropy
     S(trans)- translational entropy
The entropies will be listed as mutliplied by the temperature to get
units of energy

Electronic entropy                ...      0.00000000 Eh      0.00 kcal/mol
Vibrational entropy               ...      0.00656814 Eh      4.12 kcal/mol
Rotational entropy                ...      0.01118419 Eh      7.02 kcal/mol
Translational entropy             ...      0.01844761 Eh     11.58 kcal/mol
-----------------------------------------------------------------------
Final entropy term                ...      0.03619994 Eh     22.72 kcal/mol

CAUTION: The rotational entropy is not quite correctly treated here
         because it includes a symmetry number that is not yet correctly
         implemented in ORCA!
For a nonlinear molecule the correct rotational entropy is:
    S(rot) = R*(ln(qrot/sn)+1.5)
    R    = 8.31441 J/mol/K = 1.987191683e-3 kcal/mol/K
    qrot = 93339.9427968
    sn is the rotational symmetry number. We have assumed 3 here
       if it is different for your molecule then you should correct
       the printed rotational entropy by manually evaluating the equation
       as given above

For convenience we print out the resulting values for sn=1 - 12:
 sn= 1  qrot/sn=   93339.9428 T*S(rot)=     7.67 kcal/mol T*S(tot)=    23.37 kcal/mol
 sn= 2  qrot/sn=   46669.9714 T*S(rot)=     7.26 kcal/mol T*S(tot)=    22.96 kcal/mol
 sn= 3  qrot/sn=   31113.3143 T*S(rot)=     7.02 kcal/mol T*S(tot)=    22.72 kcal/mol
 sn= 4  qrot/sn=   23334.9857 T*S(rot)=     6.85 kcal/mol T*S(tot)=    22.55 kcal/mol
 sn= 5  qrot/sn=   18667.9886 T*S(rot)=     6.72 kcal/mol T*S(tot)=    22.41 kcal/mol
 sn= 6  qrot/sn=   15556.6571 T*S(rot)=     6.61 kcal/mol T*S(tot)=    22.31 kcal/mol
 sn= 7  qrot/sn=   13334.2775 T*S(rot)=     6.52 kcal/mol T*S(tot)=    22.21 kcal/mol
 sn= 8  qrot/sn=   11667.4928 T*S(rot)=     6.44 kcal/mol T*S(tot)=    22.13 kcal/mol
 sn= 9  qrot/sn=   10371.1048 T*S(rot)=     6.37 kcal/mol T*S(tot)=    22.06 kcal/mol
 sn=10  qrot/sn=    9333.9943 T*S(rot)=     6.30 kcal/mol T*S(tot)=    22.00 kcal/mol
 sn=11  qrot/sn=    8485.4493 T*S(rot)=     6.25 kcal/mol T*S(tot)=    21.95 kcal/mol
 sn=12  qrot/sn=    7778.3286 T*S(rot)=     6.20 kcal/mol T*S(tot)=    21.89 kcal/mol

-------------------
GIBBS FREE ENTHALPY
-------------------

The Gibbs free enthalpy is G = H - T*S

Total enthalpy                    ...   -213.82103263 Eh
Total entropy correction          ...     -0.03619994 Eh    -22.72 kcal/mol
-----------------------------------------------------------------------
Final Gibbs free enthalpy         ...   -213.85723257 Eh

For completeness - the Gibbs free enthalpy minus the electronic energy
G-E(el)                           ...      0.13498220 Eh     84.70 kcal/mol

                             ****ORCA TERMINATED NORMALLY****
TOTAL RUN TIME: 0 days 0 hours 16 minutes 4 seconds 584 msec
