                         Program Version 3.0.3 - RELEASE   -
|  1> ! NORI PBE0 def2-TZVP UseSym TightOPT Freq TightSCF Grid3 FinalGrid5 XYZFile
|  2> % pal
|  3>     nprocs 8
|  4> end
|  5> %method
|  6>     SymThresh 5.0e-2
|  7> end
|  8> % geom
|  9>     MaxIter 10
| 10> end
| 11> % maxcore 2000
| 12> % output
| 13>     printlevel mini
| 14>     print[ P_Basis ] 0
| 15>     print[ P_SCFInfo ] 1
| 16>     print[ P_SCFIterInfo ] 1
| 17>     print[ P_OrbEn ] 0
| 18>     print[ P_Cartesian ] 0
| 19> end
| 20> % elprop
| 21>     Dipole false
| 22> end
| 23> *xyz 1 1
| 24>  C        0.9465847173    -0.0871071531     0.0204331599
| 25>  C        2.3902930717    -0.0753396860    -0.0254286814
| 26>  C        3.5928003334    -0.0818689086    -0.0649386010
| 27>  C        5.0294749441    -0.1122319235    -0.1221779998
| 28>  N        5.5895238603     1.2138967546     0.3662724112
| 29>  H        0.5830815203    -1.1170189540    -0.0067576465
| 30>  H        0.5246225385     0.4499390680    -0.8315090100
| 31>  H        0.5849901557     0.3761028455     0.9411012074
| 32>  H        5.4091862344    -0.2508785160    -1.1372424293
| 33>  H        5.4620542876    -0.8835527690     0.5194360351
| 34>  H        5.2364164378     1.9779502475    -0.2143955713
| 35>  H        6.6119895542     1.2307661269     0.3435923993
| 36>  H        5.2800223446     1.3928028677     1.3243247265
| 37> *
| 38>
| 39>                          ****END OF INPUT****
 Total Charge           Charge          ....    1
 Multiplicity           Mult            ....    1
 Number of Electrons    NEL             ....   38
FINAL SINGLE POINT ENERGY      -211.503206531330

CARTESIAN COORDINATES (ANGSTROEM)
---------------------------------
  C      0.944501   -0.000096   -2.491357
  C      0.276434   -0.002560   -1.210682
  C     -0.293968   -0.000075   -0.151332
  C     -0.997640    0.001576    1.102935
  N     -0.000193   -0.000125    2.249645
  H      0.253086    0.331393   -3.269796
  H      1.299045   -1.000206   -2.748397
  H      1.796932    0.682562   -2.481488
  H     -1.622599   -0.884427    1.238051
  H     -1.619416    0.889846    1.237803
  H      0.599814   -0.826074    2.190166
  H     -0.463113    0.003458    3.161539
  H      0.606290    0.820828    2.186907

FINAL SINGLE POINT ENERGY      -211.503206818911
                    ***********************HURRAY********************
 Multiplicity           Mult            ....    1
 Number of Electrons    NEL             ....   38
 Basis Dimension        Dim             ....  203
FINAL SINGLE POINT ENERGY      -211.503206977678

VIBRATIONAL FREQUENCIES
-----------------------

   0:         0.00 cm**-1
   1:         0.00 cm**-1
   2:         0.00 cm**-1
   3:         0.00 cm**-1
   4:         0.00 cm**-1
   5:         0.00 cm**-1
   6:       -12.46 cm**-1
   7:       122.49 cm**-1
   8:       170.97 cm**-1
   9:       255.46 cm**-1
  10:       344.20 cm**-1
  11:       400.16 cm**-1
  12:       510.23 cm**-1
  13:       732.34 cm**-1
  14:       857.39 cm**-1
  15:       882.36 cm**-1
  16:      1034.21 cm**-1
  17:      1041.63 cm**-1
  18:      1080.01 cm**-1
  19:      1103.93 cm**-1
  20:      1212.19 cm**-1
  21:      1324.98 cm**-1
  22:      1401.95 cm**-1
  23:      1407.35 cm**-1
  24:      1452.83 cm**-1
  25:      1455.81 cm**-1
  26:      1481.61 cm**-1
  27:      1500.27 cm**-1
  28:      1644.94 cm**-1
  29:      1661.72 cm**-1
  30:      2372.30 cm**-1
  31:      3060.02 cm**-1
  32:      3079.73 cm**-1
  33:      3128.57 cm**-1
  34:      3135.59 cm**-1
  35:      3141.09 cm**-1
  36:      3414.07 cm**-1
  37:      3501.87 cm**-1
  38:      3507.05 cm**-1

IR SPECTRUM
-----------

 Mode    freq (cm**-1)   T**2         TX         TY         TZ
-------------------------------------------------------------------
   7:       122.49   16.754602  (  3.976916  -0.039285  -0.968091)
   8:       170.97   11.471792  (  0.011193   3.386982  -0.004735)
   9:       255.46    7.399651  (  0.016446  -2.720150   0.012801)
  10:       344.20   11.492923  (  1.521373   0.011402   3.029557)
  11:       400.16    0.716191  ( -0.017609  -0.844880  -0.045363)
  12:       510.23   17.730929  (  1.245363   0.004320   4.022435)
  13:       732.34    0.929251  ( -0.282622  -0.050215  -0.920247)
  14:       857.39    9.005435  ( -0.020723  -3.000809  -0.012193)
  15:       882.36   42.775440  (  0.126702  -0.119145   6.537981)
  16:      1034.21    3.744015  ( -1.281973   0.458401  -1.374929)
  17:      1041.63    2.591826  (  0.478449   1.536185  -0.055205)
  18:      1080.01   18.363702  ( -4.059463   0.075329   1.370688)
  19:      1103.93    5.553853  ( -0.045604  -2.355191  -0.069634)
  20:      1212.19    4.569199  (  1.048275   0.014348  -1.862824)
  21:      1324.98    8.598772  (  0.086526   2.930979   0.025487)
  22:      1401.95   26.112385  ( -2.131683  -0.334063   4.632139)
  23:      1407.35   52.964760  ( -2.750762   0.156605   6.735988)
  24:      1452.83   14.341567  ( -0.042012  -3.774623   0.303354)
  25:      1455.81   13.837075  ( -3.229747  -0.067000  -1.844267)
  26:      1481.61    7.780598  ( -2.285976   0.011651   1.598366)
  27:      1500.27  154.215038  (  7.141704  -0.016901  10.159272)
  28:      1644.94   51.485424  (  0.029762   7.175257  -0.015060)
  29:      1661.72   36.626165  ( -4.136404   0.040617   4.417542)
  30:      2372.30  171.513953  (  4.499970   0.110826 -12.298453)
  31:      3060.02    1.233015  ( -0.106458  -0.092663   1.101406)
  32:      3079.73    4.676300  ( -0.710544   0.015881   2.042345)
  33:      3128.57    1.052250  ( -0.025859   1.024469  -0.045224)
  34:      3135.59    0.953467  (  0.472313  -0.079237   0.850946)
  35:      3141.09    0.357626  ( -0.063353  -0.471624   0.362191)
  36:      3414.07   43.244162  ( -3.398368   0.022055  -5.629811)
  37:      3501.87  107.295301  ( -0.022657  10.358230   0.043205)
  38:      3507.05   90.431396  (  7.575850   0.037645  -5.747737)

--------------------------
THERMOCHEMISTRY AT 298.15K
--------------------------

Temperature         ... 298.15 K
Pressure            ... 1.00 atm
Total Mass          ... 70.11 AMU

Throughout the following assumptions are being made:
  (1) The electronic state is orbitally nondegenerate
  (2) There are no thermally accessible electronically excited states
  (3) Hindered rotations indicated by low frequency modes) are not
      treated as such but are treated as vibrations and this may
      case some error
  (4) All equations used are the standard statistical mechanics
      equations for an ideal gas
  (5) All vibrations are strinctly harmonic

------------
INNER ENERGY
------------

The inner energy is: U= E(el) + E(ZPE) + E(vib) + E(rot) + E(trans)
    E(el)   - is the total energy from the electronic structure calculation
              = E(kin-el) + E(nuc-el) + E(el-el) + E(nuc-nuc)
    E(ZPE)  - the the zero temperature vibrational energy from the frequency calculation
    E(vib)  - the the finite temperature correction to E(ZPE) due to population
              of excietd vibrational states
    E(rot)  - is the rotational thermal energy
    E(trans)- is the translational thermal energy

Summary of contributions to the inner energy U:
Electronic energy                ...   -211.50320698 Eh
Zero point energy                ...      0.11714188 Eh      73.51 kcal/mol
Thermal vibrational correction   ...      0.00307732 Eh       1.93 kcal/mol
Thermal rotational correction    ...      0.00141627 Eh       0.89 kcal/mol
Thermal translational correction ...      0.00141627 Eh       0.89 kcal/mol
-----------------------------------------------------------------------
Total thermal energy                   -211.38015524 Eh

Summary of corrections to the electronic energy:
(perhaps to be used in another calculation)
Total thermal correction                  0.00590986 Eh       3.71 kcal/mol
Non-thermal (ZPE) correction              0.11714188 Eh      73.51 kcal/mol
-----------------------------------------------------------------------
Total correction                          0.12305174 Eh      77.22 kcal/mol

--------
ENTHALPY
--------

The enthalpy is H = U + kB*T
                kB is Boltzmann's constant
Total free energy                 ...   -211.38015524 Eh
Thermal Enthalpy correction       ...      0.00094421 Eh       0.59 kcal/mol
-----------------------------------------------------------------------
Total Enthalpy                    ...   -211.37921103 Eh

-------
ENTROPY
-------

The entropy contributions are T*S = T*(S(el)+S(vib)+S(rot)+S(trans)
     S(el)   - electronic entropy
     S(vib)  - vibrational entropy
     S(rot)  - rotational entropy
     S(trans)- translational entropy
The entropies will be listed as mutliplied by the temperature to get
units of energy

Electronic entropy                ...      0.00000000 Eh      0.00 kcal/mol
Vibrational entropy               ...      0.00522906 Eh      3.28 kcal/mol
Rotational entropy                ...      0.01121277 Eh      7.04 kcal/mol
Translational entropy             ...      0.01836842 Eh     11.53 kcal/mol
-----------------------------------------------------------------------
Final entropy term                ...      0.03481025 Eh     21.84 kcal/mol

CAUTION: The rotational entropy is not quite correctly treated here
         because it includes a symmetry number that is not yet correctly
         implemented in ORCA!
For a nonlinear molecule the correct rotational entropy is:
    S(rot) = R*(ln(qrot/sn)+1.5)
    R    = 8.31441 J/mol/K = 1.987191683e-3 kcal/mol/K
    qrot = 96208.5297019
    sn is the rotational symmetry number. We have assumed 3 here
       if it is different for your molecule then you should correct
       the printed rotational entropy by manually evaluating the equation
       as given above

For convenience we print out the resulting values for sn=1 - 12:
 sn= 1  qrot/sn=   96208.5297 T*S(rot)=     7.69 kcal/mol T*S(tot)=    22.49 kcal/mol
 sn= 2  qrot/sn=   48104.2649 T*S(rot)=     7.28 kcal/mol T*S(tot)=    22.08 kcal/mol
 sn= 3  qrot/sn=   32069.5099 T*S(rot)=     7.04 kcal/mol T*S(tot)=    21.84 kcal/mol
 sn= 4  qrot/sn=   24052.1324 T*S(rot)=     6.87 kcal/mol T*S(tot)=    21.67 kcal/mol
 sn= 5  qrot/sn=   19241.7059 T*S(rot)=     6.73 kcal/mol T*S(tot)=    21.54 kcal/mol
 sn= 6  qrot/sn=   16034.7550 T*S(rot)=     6.63 kcal/mol T*S(tot)=    21.43 kcal/mol
 sn= 7  qrot/sn=   13744.0757 T*S(rot)=     6.53 kcal/mol T*S(tot)=    21.34 kcal/mol
 sn= 8  qrot/sn=   12026.0662 T*S(rot)=     6.45 kcal/mol T*S(tot)=    21.26 kcal/mol
 sn= 9  qrot/sn=   10689.8366 T*S(rot)=     6.39 kcal/mol T*S(tot)=    21.19 kcal/mol
 sn=10  qrot/sn=    9620.8530 T*S(rot)=     6.32 kcal/mol T*S(tot)=    21.13 kcal/mol
 sn=11  qrot/sn=    8746.2300 T*S(rot)=     6.27 kcal/mol T*S(tot)=    21.07 kcal/mol
 sn=12  qrot/sn=    8017.3775 T*S(rot)=     6.21 kcal/mol T*S(tot)=    21.02 kcal/mol

-------------------
GIBBS FREE ENTHALPY
-------------------

The Gibbs free enthalpy is G = H - T*S

Total enthalpy                    ...   -211.37921103 Eh
Total entropy correction          ...     -0.03481025 Eh    -21.84 kcal/mol
-----------------------------------------------------------------------
Final Gibbs free enthalpy         ...   -211.41402127 Eh

For completeness - the Gibbs free enthalpy minus the electronic energy
G-E(el)                           ...      0.08918570 Eh     55.96 kcal/mol

                             ****ORCA TERMINATED NORMALLY****
TOTAL RUN TIME: 0 days 0 hours 8 minutes 33 seconds 41 msec
