                         Program Version 3.0.3 - RELEASE   -
|  1> ! NORI PBE0 def2-TZVP UseSym TightOPT Freq TightSCF Grid3 FinalGrid5 XYZFile
|  2> % pal
|  3>     nprocs 8
|  4> end
|  5> %method
|  6>     SymThresh 5.0e-2
|  7> end
|  8> % geom
|  9>     MaxIter 10
| 10> end
| 11> % maxcore 2000
| 12> % output
| 13>     printlevel mini
| 14>     print[ P_Basis ] 0
| 15>     print[ P_SCFInfo ] 1
| 16>     print[ P_SCFIterInfo ] 1
| 17>     print[ P_OrbEn ] 0
| 18>     print[ P_Cartesian ] 0
| 19> end
| 20> % elprop
| 21>     Dipole false
| 22> end
| 23> *xyz 1 1
| 24>  C        2.9566572409    -0.0433251167     1.3807045244
| 25>  C        2.5392343973    -0.0587396459    -0.0813795471
| 26>  C        3.0291081641    -1.2594390600    -0.8696364086
| 27>  C        2.6155173174    -1.2641531808    -2.3224518657
| 28>  N        4.5472935512    -1.2976140409    -0.8030641058
| 29>  H        2.4686105300     0.7788654144     1.9040629862
| 30>  H        4.0319616330     0.1152925416     1.5214493595
| 31>  H        2.6727098868    -0.9669668639     1.8923195102
| 32>  H        1.4486086870    -0.0743323211    -0.1518796818
| 33>  H        2.8563586702     0.8611959197    -0.5875516025
| 34>  H        2.7155156125    -2.1839503085    -0.3758417799
| 35>  H        2.9510925296    -0.3597340371    -2.8377346369
| 36>  H        1.5269485080    -1.2911016410    -2.3834613215
| 37>  H        2.9931174863    -2.1384615051    -2.8580961080
| 38>  H        4.9446040396    -0.4770939000    -1.2667316258
| 39>  H        4.9218207873    -2.1283225187    -1.2641671834
| 40>  H        4.8670509588    -1.2933297359     0.1677794869
| 41> *
| 42>
| 43>                          ****END OF INPUT****
 Total Charge           Charge          ....    1
 Multiplicity           Mult            ....    1
 Number of Electrons    NEL             ....   42
FINAL SINGLE POINT ENERGY      -213.987478320786

CARTESIAN COORDINATES (ANGSTROEM)
---------------------------------
  C      1.915566    0.000527   -0.807896
  C      0.438939   -0.342943   -0.928626
  C     -0.461220    0.358697    0.071856
  C     -1.925658    0.009272   -0.053060
  N     -0.000727   -0.000514    1.475472
  H      2.474896   -0.443366   -1.631563
  H      2.377331   -0.390547    0.105784
  H      2.084088    1.079977   -0.846412
  H      0.074738   -0.054356   -1.917906
  H      0.282845   -1.426317   -0.859715
  H     -0.315732    1.441178    0.010447
  H     -2.090203   -1.067982    0.038594
  H     -2.281339    0.311972   -1.038331
  H     -2.540234    0.526674    0.687557
  H     -0.121319   -1.002032    1.644104
  H     -0.535873    0.502001    2.185438
  H      0.989700    0.220135    1.599260

FINAL SINGLE POINT ENERGY      -213.987479248558
                    ***********************HURRAY********************
 Multiplicity           Mult            ....    1
 Number of Electrons    NEL             ....   42
 Basis Dimension        Dim             ....  227
FINAL SINGLE POINT ENERGY      -213.987479596337

VIBRATIONAL FREQUENCIES
-----------------------

   0:         0.00 cm**-1
   1:         0.00 cm**-1
   2:         0.00 cm**-1
   3:         0.00 cm**-1
   4:         0.00 cm**-1
   5:         0.00 cm**-1
   6:       106.59 cm**-1
   7:       205.66 cm**-1
   8:       226.29 cm**-1
   9:       249.07 cm**-1
  10:       253.61 cm**-1
  11:       354.91 cm**-1
  12:       424.20 cm**-1
  13:       460.27 cm**-1
  14:       752.35 cm**-1
  15:       798.91 cm**-1
  16:       883.97 cm**-1
  17:       938.38 cm**-1
  18:       965.53 cm**-1
  19:       988.28 cm**-1
  20:      1017.40 cm**-1
  21:      1059.36 cm**-1
  22:      1149.39 cm**-1
  23:      1208.47 cm**-1
  24:      1218.17 cm**-1
  25:      1308.57 cm**-1
  26:      1327.42 cm**-1
  27:      1398.32 cm**-1
  28:      1406.88 cm**-1
  29:      1420.64 cm**-1
  30:      1423.27 cm**-1
  31:      1469.15 cm**-1
  32:      1480.69 cm**-1
  33:      1483.08 cm**-1
  34:      1489.17 cm**-1
  35:      1494.16 cm**-1
  36:      1507.68 cm**-1
  37:      1650.94 cm**-1
  38:      1658.10 cm**-1
  39:      3037.93 cm**-1
  40:      3046.07 cm**-1
  41:      3055.27 cm**-1
  42:      3087.27 cm**-1
  43:      3099.57 cm**-1
  44:      3118.84 cm**-1
  45:      3132.52 cm**-1
  46:      3148.78 cm**-1
  47:      3154.88 cm**-1
  48:      3417.62 cm**-1
  49:      3500.11 cm**-1
  50:      3514.33 cm**-1

IR SPECTRUM
-----------

 Mode    freq (cm**-1)   T**2         TX         TY         TZ
-------------------------------------------------------------------
   6:       106.59    3.205970  ( -1.089459  -1.022744   0.986430)
   7:       205.66    0.825401  (  0.394265   0.322186  -0.752431)
   8:       226.29    0.836545  (  0.471670  -0.607900  -0.494499)
   9:       249.07    0.563485  ( -0.450101  -0.583834  -0.141537)
  10:       253.61   11.425055  ( -1.824525   0.526394   2.796261)
  11:       354.91    7.648076  (  2.739953  -0.254995  -0.275159)
  12:       424.20    6.039627  (  0.075622   1.379569   2.032412)
  13:       460.27    1.451959  (  1.113704   0.459531  -0.021287)
  14:       752.35    1.789755  ( -0.635018  -0.968959   0.669049)
  15:       798.91    2.841186  ( -0.112456   0.044644  -1.681234)
  16:       883.97    4.728373  (  0.968211  -0.096614   1.944635)
  17:       938.38   13.005853  ( -3.539602  -0.657272  -0.212288)
  18:       965.53    5.475146  ( -1.439358   0.527427   1.767827)
  19:       988.28   12.348968  (  1.839899  -2.729265  -1.230793)
  20:      1017.40    8.500096  ( -0.815027   0.089599   2.797820)
  21:      1059.36    1.942132  ( -1.223621   0.112116  -0.657506)
  22:      1149.39    9.478084  ( -1.534469   1.687715  -2.067633)
  23:      1208.47   14.067218  ( -3.000037  -0.772110   2.114437)
  24:      1218.17    8.376269  (  2.236134  -1.053429  -1.505411)
  25:      1308.57    4.143760  (  1.619423  -0.980190  -0.748635)
  26:      1327.42    0.511583  ( -0.222702  -0.032497   0.678918)
  27:      1398.32    7.602524  ( -1.545165  -1.441282  -1.771354)
  28:      1406.88    8.237490  ( -0.349675   1.415567   2.472122)
  29:      1420.64    4.658543  ( -1.138614  -0.429539   1.782582)
  30:      1423.27   30.575651  ( -4.539388  -0.804876  -3.053159)
  31:      1469.15    3.080011  (  1.437805   0.754060   0.666424)
  32:      1480.69  113.642881  (  1.158971  -0.465762  10.586913)
  33:      1483.08   12.473236  (  1.051024  -2.041824   2.683196)
  34:      1489.17    6.045777  (  0.461815  -2.336525  -0.610863)
  35:      1494.16    9.811986  (  1.078086   0.796630   2.831095)
  36:      1507.68   59.190902  (  2.070699  -5.001225   5.467253)
  37:      1650.94   48.667098  (  2.300718   6.267949   2.021535)
  38:      1658.10   37.933969  ( -5.077887   1.738556   3.021003)
  39:      3037.93   17.408768  ( -1.722449  -0.032396  -3.800117)
  40:      3046.07    7.233689  ( -1.862446  -1.892540  -0.428107)
  41:      3055.27    4.110463  (  0.740173   0.898472  -1.659926)
  42:      3087.27    4.075242  ( -1.395943  -1.458114  -0.022103)
  43:      3099.57    3.700149  ( -0.290654  -1.241488   1.440270)
  44:      3118.84   11.298449  ( -0.460071   2.521412  -2.174688)
  45:      3132.52    7.516944  (  0.893567  -2.438549  -0.878613)
  46:      3148.78    1.914443  ( -0.167237   1.224343   0.622462)
  47:      3154.88    1.198278  (  0.914986   0.392115  -0.455329)
  48:      3417.62   28.363034  ( -2.339984   1.402650  -4.573848)
  49:      3500.11   82.443994  ( -6.154719  -6.602176   0.987266)
  50:      3514.33   94.589671  (  6.510363  -5.224903  -4.990515)

--------------------------
THERMOCHEMISTRY AT 298.15K
--------------------------

Temperature         ... 298.15 K
Pressure            ... 1.00 atm
Total Mass          ... 74.15 AMU

Throughout the following assumptions are being made:
  (1) The electronic state is orbitally nondegenerate
  (2) There are no thermally accessible electronically excited states
  (3) Hindered rotations indicated by low frequency modes) are not
      treated as such but are treated as vibrations and this may
      case some error
  (4) All equations used are the standard statistical mechanics
      equations for an ideal gas
  (5) All vibrations are strinctly harmonic

------------
INNER ENERGY
------------

The inner energy is: U= E(el) + E(ZPE) + E(vib) + E(rot) + E(trans)
    E(el)   - is the total energy from the electronic structure calculation
              = E(kin-el) + E(nuc-el) + E(el-el) + E(nuc-nuc)
    E(ZPE)  - the the zero temperature vibrational energy from the frequency calculation
    E(vib)  - the the finite temperature correction to E(ZPE) due to population
              of excietd vibrational states
    E(rot)  - is the rotational thermal energy
    E(trans)- is the translational thermal energy

Summary of contributions to the inner energy U:
Electronic energy                ...   -213.98747960 Eh
Zero point energy                ...      0.16423783 Eh     103.06 kcal/mol
Thermal vibrational correction   ...      0.00421983 Eh       2.65 kcal/mol
Thermal rotational correction    ...      0.00141627 Eh       0.89 kcal/mol
Thermal translational correction ...      0.00141627 Eh       0.89 kcal/mol
-----------------------------------------------------------------------
Total thermal energy                   -213.81618939 Eh

Summary of corrections to the electronic energy:
(perhaps to be used in another calculation)
Total thermal correction                  0.00705237 Eh       4.43 kcal/mol
Non-thermal (ZPE) correction              0.16423783 Eh     103.06 kcal/mol
-----------------------------------------------------------------------
Total correction                          0.17129020 Eh     107.49 kcal/mol

--------
ENTHALPY
--------

The enthalpy is H = U + kB*T
                kB is Boltzmann's constant
Total free energy                 ...   -213.81618939 Eh
Thermal Enthalpy correction       ...      0.00094421 Eh       0.59 kcal/mol
-----------------------------------------------------------------------
Total Enthalpy                    ...   -213.81524518 Eh

-------
ENTROPY
-------

The entropy contributions are T*S = T*(S(el)+S(vib)+S(rot)+S(trans)
     S(el)   - electronic entropy
     S(vib)  - vibrational entropy
     S(rot)  - rotational entropy
     S(trans)- translational entropy
The entropies will be listed as mutliplied by the temperature to get
units of energy

Electronic entropy                ...      0.00000000 Eh      0.00 kcal/mol
Vibrational entropy               ...      0.00711682 Eh      4.47 kcal/mol
Rotational entropy                ...      0.01132500 Eh      7.11 kcal/mol
Translational entropy             ...      0.01844761 Eh     11.58 kcal/mol
-----------------------------------------------------------------------
Final entropy term                ...      0.03688942 Eh     23.15 kcal/mol

CAUTION: The rotational entropy is not quite correctly treated here
         because it includes a symmetry number that is not yet correctly
         implemented in ORCA!
For a nonlinear molecule the correct rotational entropy is:
    S(rot) = R*(ln(qrot/sn)+1.5)
    R    = 8.31441 J/mol/K = 1.987191683e-3 kcal/mol/K
    qrot = 108351.2911431
    sn is the rotational symmetry number. We have assumed 3 here
       if it is different for your molecule then you should correct
       the printed rotational entropy by manually evaluating the equation
       as given above

For convenience we print out the resulting values for sn=1 - 12:
 sn= 1  qrot/sn=  108351.2911 T*S(rot)=     7.76 kcal/mol T*S(tot)=    23.80 kcal/mol
 sn= 2  qrot/sn=   54175.6456 T*S(rot)=     7.35 kcal/mol T*S(tot)=    23.39 kcal/mol
 sn= 3  qrot/sn=   36117.0970 T*S(rot)=     7.11 kcal/mol T*S(tot)=    23.15 kcal/mol
 sn= 4  qrot/sn=   27087.8228 T*S(rot)=     6.94 kcal/mol T*S(tot)=    22.98 kcal/mol
 sn= 5  qrot/sn=   21670.2582 T*S(rot)=     6.80 kcal/mol T*S(tot)=    22.85 kcal/mol
 sn= 6  qrot/sn=   18058.5485 T*S(rot)=     6.70 kcal/mol T*S(tot)=    22.74 kcal/mol
 sn= 7  qrot/sn=   15478.7559 T*S(rot)=     6.60 kcal/mol T*S(tot)=    22.65 kcal/mol
 sn= 8  qrot/sn=   13543.9114 T*S(rot)=     6.53 kcal/mol T*S(tot)=    22.57 kcal/mol
 sn= 9  qrot/sn=   12039.0323 T*S(rot)=     6.46 kcal/mol T*S(tot)=    22.50 kcal/mol
 sn=10  qrot/sn=   10835.1291 T*S(rot)=     6.39 kcal/mol T*S(tot)=    22.44 kcal/mol
 sn=11  qrot/sn=    9850.1174 T*S(rot)=     6.34 kcal/mol T*S(tot)=    22.38 kcal/mol
 sn=12  qrot/sn=    9029.2743 T*S(rot)=     6.29 kcal/mol T*S(tot)=    22.33 kcal/mol

-------------------
GIBBS FREE ENTHALPY
-------------------

The Gibbs free enthalpy is G = H - T*S

Total enthalpy                    ...   -213.81524518 Eh
Total entropy correction          ...     -0.03688942 Eh    -23.15 kcal/mol
-----------------------------------------------------------------------
Final Gibbs free enthalpy         ...   -213.85213460 Eh

For completeness - the Gibbs free enthalpy minus the electronic energy
G-E(el)                           ...      0.13534499 Eh     84.93 kcal/mol

                             ****ORCA TERMINATED NORMALLY****
TOTAL RUN TIME: 0 days 0 hours 15 minutes 1 seconds 579 msec
