                         Program Version 3.0.3 - RELEASE   -
|  1> ! NORI PBE0 def2-TZVP UseSym TightOPT Freq TightSCF Grid3 FinalGrid5 XYZFile
|  2> % pal
|  3>     nprocs 8
|  4> end
|  5> %method
|  6>     SymThresh 5.0e-2
|  7> end
|  8> % geom
|  9>     MaxIter 10
| 10> end
| 11> % maxcore 2000
| 12> % output
| 13>     printlevel mini
| 14>     print[ P_Basis ] 0
| 15>     print[ P_SCFInfo ] 1
| 16>     print[ P_SCFIterInfo ] 1
| 17>     print[ P_OrbEn ] 0
| 18>     print[ P_Cartesian ] 0
| 19> end
| 20> % elprop
| 21>     Dipole false
| 22> end
| 23> *xyz 1 1
| 24>  C        1.1650965895     0.2267200124    -0.8554039749
| 25>  C        2.6219954933     0.4561043681    -0.4825547481
| 26>  C        3.0364549234    -0.4384681024     0.6643579579
| 27>  N        4.4720094614    -0.2128703588     1.0425101771
| 28>  C        4.9588935927    -1.0545260942     2.1683302731
| 29>  H        0.8808340381     0.8775738783    -1.6818230583
| 30>  H        0.5000920914     0.4447073592    -0.0169350233
| 31>  H        0.9912114676    -0.8045758565    -1.1691587152
| 32>  H        2.7693198181     1.5057665219    -0.2030094326
| 33>  H        3.2609270969     0.2620709859    -1.3518732660
| 34>  H        2.9459514576    -1.4966380557     0.4113032408
| 35>  H        2.4464732386    -0.2496972229     1.5635283032
| 36>  H        4.5936464057     0.7746890915     1.2764426176
| 37>  H        5.0543938637    -0.3741406946     0.2181367235
| 38>  H        4.3512032031    -0.8458896758     3.0464266349
| 39>  H        6.0019579582    -0.8166183377     2.3689855638
| 40>  H        4.8603293005    -2.1015178189     1.8881567265
| 41> *
| 42>
| 43>                          ****END OF INPUT****
 Total Charge           Charge          ....    1
 Multiplicity           Mult            ....    1
 Number of Electrons    NEL             ....   42
FINAL SINGLE POINT ENERGY      -213.980260632919
                    ***********************HURRAY********************
 Multiplicity           Mult            ....    1
 Number of Electrons    NEL             ....   42
 Basis Dimension        Dim             ....  227
FINAL SINGLE POINT ENERGY      -213.980260830188

VIBRATIONAL FREQUENCIES
-----------------------

   0:         0.00 cm**-1
   1:         0.00 cm**-1
   2:         0.00 cm**-1
   3:         0.00 cm**-1
   4:         0.00 cm**-1
   5:         0.00 cm**-1
   6:        96.07 cm**-1
   7:       111.07 cm**-1
   8:       177.23 cm**-1
   9:       229.75 cm**-1
  10:       242.64 cm**-1
  11:       393.32 cm**-1
  12:       402.41 cm**-1
  13:       757.89 cm**-1
  14:       805.92 cm**-1
  15:       904.61 cm**-1
  16:       906.13 cm**-1
  17:       939.33 cm**-1
  18:      1034.06 cm**-1
  19:      1053.82 cm**-1
  20:      1067.55 cm**-1
  21:      1100.46 cm**-1
  22:      1197.44 cm**-1
  23:      1224.58 cm**-1
  24:      1305.38 cm**-1
  25:      1327.73 cm**-1
  26:      1340.05 cm**-1
  27:      1397.93 cm**-1
  28:      1399.19 cm**-1
  29:      1412.69 cm**-1
  30:      1432.52 cm**-1
  31:      1460.85 cm**-1
  32:      1480.85 cm**-1
  33:      1489.05 cm**-1
  34:      1493.59 cm**-1
  35:      1494.08 cm**-1
  36:      1497.13 cm**-1
  37:      1509.01 cm**-1
  38:      1658.53 cm**-1
  39:      3036.71 cm**-1
  40:      3064.15 cm**-1
  41:      3076.68 cm**-1
  42:      3089.39 cm**-1
  43:      3093.26 cm**-1
  44:      3137.73 cm**-1
  45:      3149.13 cm**-1
  46:      3156.17 cm**-1
  47:      3193.18 cm**-1
  48:      3196.78 cm**-1
  49:      3441.06 cm**-1
  50:      3489.12 cm**-1

IR SPECTRUM
-----------

 Mode    freq (cm**-1)   T**2         TX         TY         TZ
-------------------------------------------------------------------
   6:        96.07    2.607902  (  0.000000   0.000000   1.614900)
   7:       111.07    0.819351  (  0.000000   0.000000   0.905180)
   8:       177.23    0.965423  (  0.956147   0.226286   0.000000)
   9:       229.75    1.004991  ( -0.000000  -0.000000   1.002492)
  10:       242.64    0.909542  (  0.000000   0.000000  -0.953699)
  11:       393.32    2.109726  (  1.357293   0.517187   0.000000)
  12:       402.41    3.899143  ( -1.802486   0.806342  -0.000000)
  13:       757.89    7.650000  ( -0.000000  -0.000000   2.765863)
  14:       805.92    6.788991  (  0.000000   0.000000   2.605569)
  15:       904.61    8.787154  ( -2.750837  -1.104558  -0.000000)
  16:       906.13    5.314243  (  0.000000   0.000000  -2.305264)
  17:       939.33    3.388390  (  1.726069  -0.639591   0.000000)
  18:      1034.06   27.683727  ( -4.375106   2.922700  -0.000000)
  19:      1053.82    0.087959  (  0.000000   0.000000  -0.296579)
  20:      1067.55    5.745441  (  2.392687   0.143140  -0.000000)
  21:      1100.46    9.031129  (  2.726551  -1.263744   0.000000)
  22:      1197.44    1.611862  (  1.256091  -0.184656   0.000000)
  23:      1224.58    0.010151  ( -0.000000  -0.000000   0.100753)
  24:      1305.38    0.198936  (  0.000000   0.000000   0.446023)
  25:      1327.73    3.100777  (  1.716563  -0.392669  -0.000000)
  26:      1340.05    3.320770  (  0.000000   0.000000   1.822298)
  27:      1397.93    0.173132  (  0.000000   0.000000  -0.416091)
  28:      1399.19    6.083415  ( -2.074697   1.333810   0.000000)
  29:      1412.69   15.502270  ( -3.547884   1.707275   0.000000)
  30:      1432.52   44.170592  (  6.600436  -0.777710  -0.000000)
  31:      1460.85    3.346940  ( -1.410873   1.164637  -0.000000)
  32:      1480.85   13.185613  (  3.447812  -1.139388  -0.000000)
  33:      1489.05    8.099284  ( -2.809136  -0.456115   0.000000)
  34:      1493.59   36.883344  (  0.000000   0.000000   6.073166)
  35:      1494.08    1.154112  (  0.000000   0.000000  -1.074296)
  36:      1497.13   11.990878  (  3.448908   0.309691   0.000000)
  37:      1509.01   22.983032  ( -1.156175  -4.652557   0.000000)
  38:      1658.53   45.140893  ( -1.999245  -6.414352  -0.000000)
  39:      3036.71   13.643082  (  2.887996   2.302729  -0.000000)
  40:      3064.15    8.725014  (  2.442463   1.661141  -0.000000)
  41:      3076.68    5.505303  ( -0.000000  -0.000000   2.346338)
  42:      3089.39    3.198124  ( -0.065279  -1.787138  -0.000000)
  43:      3093.26    0.504764  ( -0.102157   0.703085  -0.000000)
  44:      3137.73    9.123570  (  0.000000   0.000000   3.020525)
  45:      3149.13    5.038390  ( -0.000000  -0.000000  -2.244636)
  46:      3156.17    3.894889  ( -0.259717   1.956383   0.000000)
  47:      3193.18    0.196778  (  0.076368   0.436973  -0.000000)
  48:      3196.78    0.040997  (  0.000000   0.000000   0.202478)
  49:      3441.06   40.914510  (  2.674382   5.810524   0.000000)
  50:      3489.12   68.903890  ( -0.000000  -0.000000   8.300837)

--------------------------
THERMOCHEMISTRY AT 298.15K
--------------------------

Temperature         ... 298.15 K
Pressure            ... 1.00 atm
Total Mass          ... 74.15 AMU

Throughout the following assumptions are being made:
  (1) The electronic state is orbitally nondegenerate
  (2) There are no thermally accessible electronically excited states
  (3) Hindered rotations indicated by low frequency modes) are not
      treated as such but are treated as vibrations and this may
      case some error
  (4) All equations used are the standard statistical mechanics
      equations for an ideal gas
  (5) All vibrations are strinctly harmonic

------------
INNER ENERGY
------------

The inner energy is: U= E(el) + E(ZPE) + E(vib) + E(rot) + E(trans)
    E(el)   - is the total energy from the electronic structure calculation
              = E(kin-el) + E(nuc-el) + E(el-el) + E(nuc-nuc)
    E(ZPE)  - the the zero temperature vibrational energy from the frequency calculation
    E(vib)  - the the finite temperature correction to E(ZPE) due to population
              of excietd vibrational states
    E(rot)  - is the rotational thermal energy
    E(trans)- is the translational thermal energy

Summary of contributions to the inner energy U:
Electronic energy                ...   -213.98026083 Eh
Zero point energy                ...      0.16509015 Eh     103.60 kcal/mol
Thermal vibrational correction   ...      0.00425428 Eh       2.67 kcal/mol
Thermal rotational correction    ...      0.00141627 Eh       0.89 kcal/mol
Thermal translational correction ...      0.00141627 Eh       0.89 kcal/mol
-----------------------------------------------------------------------
Total thermal energy                   -213.80808386 Eh

Summary of corrections to the electronic energy:
(perhaps to be used in another calculation)
Total thermal correction                  0.00708683 Eh       4.45 kcal/mol
Non-thermal (ZPE) correction              0.16509015 Eh     103.60 kcal/mol
-----------------------------------------------------------------------
Total correction                          0.17217697 Eh     108.04 kcal/mol

--------
ENTHALPY
--------

The enthalpy is H = U + kB*T
                kB is Boltzmann's constant
Total free energy                 ...   -213.80808386 Eh
Thermal Enthalpy correction       ...      0.00094421 Eh       0.59 kcal/mol
-----------------------------------------------------------------------
Total Enthalpy                    ...   -213.80713965 Eh

-------
ENTROPY
-------

The entropy contributions are T*S = T*(S(el)+S(vib)+S(rot)+S(trans)
     S(el)   - electronic entropy
     S(vib)  - vibrational entropy
     S(rot)  - rotational entropy
     S(trans)- translational entropy
The entropies will be listed as mutliplied by the temperature to get
units of energy

Electronic entropy                ...      0.00000000 Eh      0.00 kcal/mol
Vibrational entropy               ...      0.00769264 Eh      4.83 kcal/mol
Rotational entropy                ...      0.01131623 Eh      7.10 kcal/mol
Translational entropy             ...      0.01844761 Eh     11.58 kcal/mol
-----------------------------------------------------------------------
Final entropy term                ...      0.03745648 Eh     23.50 kcal/mol

CAUTION: The rotational entropy is not quite correctly treated here
         because it includes a symmetry number that is not yet correctly
         implemented in ORCA!
For a nonlinear molecule the correct rotational entropy is:
    S(rot) = R*(ln(qrot/sn)+1.5)
    R    = 8.31441 J/mol/K = 1.987191683e-3 kcal/mol/K
    qrot = 107349.6326195
    sn is the rotational symmetry number. We have assumed 3 here
       if it is different for your molecule then you should correct
       the printed rotational entropy by manually evaluating the equation
       as given above

For convenience we print out the resulting values for sn=1 - 12:
 sn= 1  qrot/sn=  107349.6326 T*S(rot)=     7.75 kcal/mol T*S(tot)=    24.16 kcal/mol
 sn= 2  qrot/sn=   53674.8163 T*S(rot)=     7.34 kcal/mol T*S(tot)=    23.74 kcal/mol
 sn= 3  qrot/sn=   35783.2109 T*S(rot)=     7.10 kcal/mol T*S(tot)=    23.50 kcal/mol
 sn= 4  qrot/sn=   26837.4082 T*S(rot)=     6.93 kcal/mol T*S(tot)=    23.33 kcal/mol
 sn= 5  qrot/sn=   21469.9265 T*S(rot)=     6.80 kcal/mol T*S(tot)=    23.20 kcal/mol
 sn= 6  qrot/sn=   17891.6054 T*S(rot)=     6.69 kcal/mol T*S(tot)=    23.09 kcal/mol
 sn= 7  qrot/sn=   15335.6618 T*S(rot)=     6.60 kcal/mol T*S(tot)=    23.00 kcal/mol
 sn= 8  qrot/sn=   13418.7041 T*S(rot)=     6.52 kcal/mol T*S(tot)=    22.92 kcal/mol
 sn= 9  qrot/sn=   11927.7370 T*S(rot)=     6.45 kcal/mol T*S(tot)=    22.85 kcal/mol
 sn=10  qrot/sn=   10734.9633 T*S(rot)=     6.39 kcal/mol T*S(tot)=    22.79 kcal/mol
 sn=11  qrot/sn=    9759.0575 T*S(rot)=     6.33 kcal/mol T*S(tot)=    22.73 kcal/mol
 sn=12  qrot/sn=    8945.8027 T*S(rot)=     6.28 kcal/mol T*S(tot)=    22.68 kcal/mol

-------------------
GIBBS FREE ENTHALPY
-------------------

The Gibbs free enthalpy is G = H - T*S

Total enthalpy                    ...   -213.80713965 Eh
Total entropy correction          ...     -0.03745648 Eh    -23.50 kcal/mol
-----------------------------------------------------------------------
Final Gibbs free enthalpy         ...   -213.84459612 Eh

For completeness - the Gibbs free enthalpy minus the electronic energy
G-E(el)                           ...      0.13566471 Eh     85.13 kcal/mol

                             ****ORCA TERMINATED NORMALLY****
TOTAL RUN TIME: 0 days 0 hours 12 minutes 53 seconds 282 msec
