                         Program Version 3.0.3 - RELEASE   -
|  1> ! NORI PBE0 def2-TZVP UseSym TightOPT Freq TightSCF Grid3 FinalGrid5 XYZFile
|  2> % pal
|  3>     nprocs 8
|  4> end
|  5> %method
|  6>     SymThresh 5.0e-2
|  7> end
|  8> % geom
|  9>     MaxIter 10
| 10> end
| 11> % maxcore 2000
| 12> % output
| 13>     printlevel mini
| 14>     print[ P_Basis ] 0
| 15>     print[ P_SCFInfo ] 1
| 16>     print[ P_SCFIterInfo ] 1
| 17>     print[ P_OrbEn ] 0
| 18>     print[ P_Cartesian ] 0
| 19> end
| 20> % elprop
| 21>     Dipole false
| 22> end
| 23> *xyz 1 1
| 24>  C        1.0610989836    -0.0414442306    -0.1444556731
| 25>  C        2.5580168875    -0.1797127926    -0.0161546962
| 26>  N        3.1029572588     0.7846909246     0.9697572332
| 27>  C        4.5174296578     1.2070056765     0.9509992177
| 28>  C        3.4617413148     2.1646648760     0.5839844381
| 29>  H        0.7004782266    -0.7670135299    -0.8745160142
| 30>  H        0.7720443689     0.9522918309    -0.4909506535
| 31>  H        0.5528977191    -0.2484900413     0.7999583443
| 32>  H        3.0718548541     0.0186328483    -0.9589218037
| 33>  H        2.8519082971    -1.1737043421     0.3269629919
| 34>  H        2.6927842989     0.6940082891     1.8946387212
| 35>  H        4.9864715797     1.2739473340     1.9242407329
| 36>  H        5.1019409301     0.7382612872     0.1699381231
| 37>  H        3.2875454778     2.3837245054    -0.4615549435
| 38>  H        3.1641201452     2.9296973646     1.2890039819
| 39> *
| 40>
| 41>                          ****END OF INPUT****
 Total Charge           Charge          ....    1
 Multiplicity           Mult            ....    1
 Number of Electrons    NEL             ....   40
FINAL SINGLE POINT ENERGY      -212.739258278634

CARTESIAN COORDINATES (ANGSTROEM)
---------------------------------
  C      1.708188   -0.000022   -1.245316
  C      0.574730    0.758813   -0.600291
  N      0.000187   -0.000044    0.537003
  C     -1.370372    0.245705    1.027715
  C     -1.054945   -1.013840    0.334918
  H      2.103467    0.590684   -2.072593
  H      1.378741   -0.959528   -1.648070
  H      2.529379   -0.172630   -0.546045
  H     -0.246672    0.940984   -1.296018
  H      0.898698    1.721231   -0.199300
  H      0.680254   -0.230447    1.255537
  H     -1.474793    0.252766    2.104957
  H     -1.891124    1.028705    0.491757
  H     -1.348947   -1.135541   -0.699714
  H     -0.932034   -1.923820    0.907643

FINAL SINGLE POINT ENERGY      -212.739258694627
                    ***********************HURRAY********************
 Multiplicity           Mult            ....    1
 Number of Electrons    NEL             ....   40
 Basis Dimension        Dim             ....  215
FINAL SINGLE POINT ENERGY      -212.739258896866

VIBRATIONAL FREQUENCIES
-----------------------

   0:         0.00 cm**-1
   1:         0.00 cm**-1
   2:         0.00 cm**-1
   3:         0.00 cm**-1
   4:         0.00 cm**-1
   5:         0.00 cm**-1
   6:       102.74 cm**-1
   7:       222.73 cm**-1
   8:       239.08 cm**-1
   9:       375.33 cm**-1
  10:       436.95 cm**-1
  11:       759.09 cm**-1
  12:       789.21 cm**-1
  13:       829.72 cm**-1
  14:       873.32 cm**-1
  15:       935.71 cm**-1
  16:       972.98 cm**-1
  17:      1038.82 cm**-1
  18:      1086.55 cm**-1
  19:      1142.80 cm**-1
  20:      1153.78 cm**-1
  21:      1156.83 cm**-1
  22:      1179.55 cm**-1
  23:      1217.62 cm**-1
  24:      1236.39 cm**-1
  25:      1275.90 cm**-1
  26:      1334.46 cm**-1
  27:      1384.17 cm**-1
  28:      1423.87 cm**-1
  29:      1459.21 cm**-1
  30:      1475.99 cm**-1
  31:      1484.36 cm**-1
  32:      1487.54 cm**-1
  33:      1497.60 cm**-1
  34:      1522.12 cm**-1
  35:      3064.13 cm**-1
  36:      3089.03 cm**-1
  37:      3131.37 cm**-1
  38:      3152.34 cm**-1
  39:      3156.17 cm**-1
  40:      3172.75 cm**-1
  41:      3174.79 cm**-1
  42:      3270.50 cm**-1
  43:      3280.71 cm**-1
  44:      3536.10 cm**-1

IR SPECTRUM
-----------

 Mode    freq (cm**-1)   T**2         TX         TY         TZ
-------------------------------------------------------------------
   6:       102.74    0.998820  ( -0.266644  -0.709963  -0.650902)
   7:       222.73    0.271399  ( -0.239215   0.063446   0.458421)
   8:       239.08    1.116204  (  0.492185   0.302871  -0.884436)
   9:       375.33    0.818864  ( -0.740561   0.226485  -0.468122)
  10:       436.95    0.564012  (  0.653628  -0.080101  -0.361063)
  11:       759.09    3.990039  ( -1.589227  -1.208072  -0.070420)
  12:       789.21    6.006529  (  1.964112   0.759450   1.253806)
  13:       829.72    0.259862  (  0.145842   0.488163   0.016975)
  14:       873.32    0.942363  (  0.203114  -0.643957  -0.697444)
  15:       935.71   14.157374  (  0.286235   3.046181   2.190028)
  16:       972.98   27.856330  ( -5.040594   0.240339   1.546279)
  17:      1038.82   42.856870  (  4.989574   2.667652  -3.293123)
  18:      1086.55    1.881121  (  1.370187  -0.060363  -0.008051)
  19:      1142.80    8.766328  (  0.599667   2.814819   0.695357)
  20:      1153.78    4.267682  (  0.672430  -1.951295  -0.089263)
  21:      1156.83    6.501833  (  0.640854  -1.109348  -2.204651)
  22:      1179.55    0.604793  (  0.414817  -0.271646  -0.599106)
  23:      1217.62    9.481254  (  0.718931  -2.298912  -1.918175)
  24:      1236.39    3.344607  (  0.531012   1.021179  -1.421206)
  25:      1275.90   13.979398  ( -3.555034  -0.709380   0.915377)
  26:      1334.46    5.592351  ( -0.652269   0.426959  -2.232622)
  27:      1384.17    0.914626  (  0.611225   0.601512  -0.423337)
  28:      1423.87   12.210530  (  2.790335  -0.977433  -1.862574)
  29:      1459.21   43.299163  ( -5.451140  -3.221613   1.790375)
  30:      1475.99   18.337959  ( -2.062442   3.002105   2.252035)
  31:      1484.36    3.961628  (  0.033619   1.896643  -0.602695)
  32:      1487.54   14.078584  (  1.511606   1.260616   3.194445)
  33:      1497.60    9.743313  (  2.365865  -2.031118   0.143381)
  34:      1522.12    7.773009  ( -0.135240  -1.866188   2.066897)
  35:      3064.13    2.241410  (  0.255441  -1.283157   0.727784)
  36:      3089.03    3.006260  ( -1.214893   1.236186   0.046246)
  37:      3131.37    1.105139  (  0.368865   0.404173   0.897620)
  38:      3152.34    2.838078  ( -1.517926  -0.126422  -0.719719)
  39:      3156.17    2.386898  (  0.602204   1.223053   0.726904)
  40:      3172.75    3.677096  ( -0.127623   1.756345   0.758986)
  41:      3174.79    1.992145  (  1.264540   0.050114  -0.624957)
  42:      3270.50    0.006611  (  0.031204   0.032041   0.067902)
  43:      3280.71   11.404750  ( -0.797181   1.473330  -2.932328)
  44:      3536.10   80.409714  ( -6.730158   1.299919  -5.781427)

--------------------------
THERMOCHEMISTRY AT 298.15K
--------------------------

Temperature         ... 298.15 K
Pressure            ... 1.00 atm
Total Mass          ... 72.13 AMU

Throughout the following assumptions are being made:
  (1) The electronic state is orbitally nondegenerate
  (2) There are no thermally accessible electronically excited states
  (3) Hindered rotations indicated by low frequency modes) are not
      treated as such but are treated as vibrations and this may
      case some error
  (4) All equations used are the standard statistical mechanics
      equations for an ideal gas
  (5) All vibrations are strinctly harmonic

------------
INNER ENERGY
------------

The inner energy is: U= E(el) + E(ZPE) + E(vib) + E(rot) + E(trans)
    E(el)   - is the total energy from the electronic structure calculation
              = E(kin-el) + E(nuc-el) + E(el-el) + E(nuc-nuc)
    E(ZPE)  - the the zero temperature vibrational energy from the frequency calculation
    E(vib)  - the the finite temperature correction to E(ZPE) due to population
              of excietd vibrational states
    E(rot)  - is the rotational thermal energy
    E(trans)- is the translational thermal energy

Summary of contributions to the inner energy U:
Electronic energy                ...   -212.73925890 Eh
Zero point energy                ...      0.14152508 Eh      88.81 kcal/mol
Thermal vibrational correction   ...      0.00299266 Eh       1.88 kcal/mol
Thermal rotational correction    ...      0.00141627 Eh       0.89 kcal/mol
Thermal translational correction ...      0.00141627 Eh       0.89 kcal/mol
-----------------------------------------------------------------------
Total thermal energy                   -212.59190862 Eh

Summary of corrections to the electronic energy:
(perhaps to be used in another calculation)
Total thermal correction                  0.00582520 Eh       3.66 kcal/mol
Non-thermal (ZPE) correction              0.14152508 Eh      88.81 kcal/mol
-----------------------------------------------------------------------
Total correction                          0.14735028 Eh      92.46 kcal/mol

--------
ENTHALPY
--------

The enthalpy is H = U + kB*T
                kB is Boltzmann's constant
Total free energy                 ...   -212.59190862 Eh
Thermal Enthalpy correction       ...      0.00094421 Eh       0.59 kcal/mol
-----------------------------------------------------------------------
Total Enthalpy                    ...   -212.59096441 Eh

-------
ENTROPY
-------

The entropy contributions are T*S = T*(S(el)+S(vib)+S(rot)+S(trans)
     S(el)   - electronic entropy
     S(vib)  - vibrational entropy
     S(rot)  - rotational entropy
     S(trans)- translational entropy
The entropies will be listed as mutliplied by the temperature to get
units of energy

Electronic entropy                ...      0.00000000 Eh      0.00 kcal/mol
Vibrational entropy               ...      0.00505910 Eh      3.17 kcal/mol
Rotational entropy                ...      0.01105634 Eh      6.94 kcal/mol
Translational entropy             ...      0.01840857 Eh     11.55 kcal/mol
-----------------------------------------------------------------------
Final entropy term                ...      0.03452401 Eh     21.66 kcal/mol

CAUTION: The rotational entropy is not quite correctly treated here
         because it includes a symmetry number that is not yet correctly
         implemented in ORCA!
For a nonlinear molecule the correct rotational entropy is:
    S(rot) = R*(ln(qrot/sn)+1.5)
    R    = 8.31441 J/mol/K = 1.987191683e-3 kcal/mol/K
    qrot = 81519.3272553
    sn is the rotational symmetry number. We have assumed 3 here
       if it is different for your molecule then you should correct
       the printed rotational entropy by manually evaluating the equation
       as given above

For convenience we print out the resulting values for sn=1 - 12:
 sn= 1  qrot/sn=   81519.3273 T*S(rot)=     7.59 kcal/mol T*S(tot)=    22.32 kcal/mol
 sn= 2  qrot/sn=   40759.6636 T*S(rot)=     7.18 kcal/mol T*S(tot)=    21.90 kcal/mol
 sn= 3  qrot/sn=   27173.1091 T*S(rot)=     6.94 kcal/mol T*S(tot)=    21.66 kcal/mol
 sn= 4  qrot/sn=   20379.8318 T*S(rot)=     6.77 kcal/mol T*S(tot)=    21.49 kcal/mol
 sn= 5  qrot/sn=   16303.8655 T*S(rot)=     6.64 kcal/mol T*S(tot)=    21.36 kcal/mol
 sn= 6  qrot/sn=   13586.5545 T*S(rot)=     6.53 kcal/mol T*S(tot)=    21.25 kcal/mol
 sn= 7  qrot/sn=   11645.6182 T*S(rot)=     6.44 kcal/mol T*S(tot)=    21.16 kcal/mol
 sn= 8  qrot/sn=   10189.9159 T*S(rot)=     6.36 kcal/mol T*S(tot)=    21.08 kcal/mol
 sn= 9  qrot/sn=    9057.7030 T*S(rot)=     6.29 kcal/mol T*S(tot)=    21.01 kcal/mol
 sn=10  qrot/sn=    8151.9327 T*S(rot)=     6.22 kcal/mol T*S(tot)=    20.95 kcal/mol
 sn=11  qrot/sn=    7410.8479 T*S(rot)=     6.17 kcal/mol T*S(tot)=    20.89 kcal/mol
 sn=12  qrot/sn=    6793.2773 T*S(rot)=     6.12 kcal/mol T*S(tot)=    20.84 kcal/mol

-------------------
GIBBS FREE ENTHALPY
-------------------

The Gibbs free enthalpy is G = H - T*S

Total enthalpy                    ...   -212.59096441 Eh
Total entropy correction          ...     -0.03452401 Eh    -21.66 kcal/mol
-----------------------------------------------------------------------
Final Gibbs free enthalpy         ...   -212.62548842 Eh

For completeness - the Gibbs free enthalpy minus the electronic energy
G-E(el)                           ...      0.11377048 Eh     71.39 kcal/mol

                             ****ORCA TERMINATED NORMALLY****
TOTAL RUN TIME: 0 days 0 hours 12 minutes 25 seconds 898 msec
