                         Program Version 3.0.3 - RELEASE   -
|  1> ! NORI PBE0 def2-TZVP UseSym TightOPT Freq TightSCF Grid3 FinalGrid5 XYZFile
|  2> % pal
|  3>     nprocs 8
|  4> end
|  5> %method
|  6>     SymThresh 5.0e-2
|  7> end
|  8> % geom
|  9>     MaxIter 10
| 10> end
| 11> % maxcore 2000
| 12> % output
| 13>     printlevel mini
| 14>     print[ P_Basis ] 0
| 15>     print[ P_SCFInfo ] 1
| 16>     print[ P_SCFIterInfo ] 1
| 17>     print[ P_OrbEn ] 0
| 18>     print[ P_Cartesian ] 0
| 19> end
| 20> % elprop
| 21>     Dipole false
| 22> end
| 23> *xyz 1 1
| 24>  C        0.9156912053     0.0176270244    -0.0554263116
| 25>  C        2.4233497486    -0.0014526293    -0.0967826618
| 26>  N        2.9899594153    -0.6925215052     1.1074248615
| 27>  C        4.4868625088    -0.7622769428     1.1583733892
| 28>  C        4.9580238954    -1.4715118948     2.4037922260
| 29>  H        0.5416647469     0.5237652913    -0.9460806851
| 30>  H        0.5373912705     0.5634034805     0.8122836641
| 31>  H        0.4937912720    -0.9901276866    -0.0529705089
| 32>  H        2.8479263807     1.0029610646    -0.1028533563
| 33>  H        2.8043923306    -0.5380824471    -0.9666716153
| 34>  H        2.6111083110    -1.6411997622     1.1540866723
| 35>  H        2.6508226721    -0.2226714118     1.9500724255
| 36>  H        4.8442741370     0.2672025249     1.1112800192
| 37>  H        4.8021344110    -1.2748078310     0.2485721202
| 38>  H        4.6449209241    -0.9518397737     3.3123845288
| 39>  H        6.0483044562    -1.5014614453     2.4049676053
| 40>  H        4.6031623143    -2.5036460560     2.4451176268
| 41> *
| 42>
| 43>                          ****END OF INPUT****
 Total Charge           Charge          ....    1
 Multiplicity           Mult            ....    1
 Number of Electrons    NEL             ....   42
FINAL SINGLE POINT ENERGY      -213.985783757300

CARTESIAN COORDINATES (ANGSTROEM)
---------------------------------
  C     -0.000000    2.480654    0.358778
  C      0.000000    1.266194   -0.536329
  N      0.000000    0.000000    0.267206
  C      0.000000   -1.266194   -0.536329
  C     -0.000000   -2.480654    0.358778
  H     -0.000000    3.378431   -0.260252
  H      0.889360    2.521463    0.992104
  H     -0.889360    2.521463    0.992104
  H      0.883837    1.225232   -1.174495
  H     -0.883837    1.225232   -1.174495
  H     -0.813652    0.000000    0.886801
  H      0.813652   -0.000000    0.886801
  H      0.883837   -1.225232   -1.174495
  H     -0.883837   -1.225232   -1.174495
  H      0.889360   -2.521463    0.992104
  H     -0.000000   -3.378431   -0.260252
  H     -0.889360   -2.521463    0.992104

FINAL SINGLE POINT ENERGY      -213.985783889012
                    ***********************HURRAY********************
 Multiplicity           Mult            ....    1
 Number of Electrons    NEL             ....   42
 Basis Dimension        Dim             ....  227
FINAL SINGLE POINT ENERGY      -213.985783881524

VIBRATIONAL FREQUENCIES
-----------------------

   0:         0.00 cm**-1
   1:         0.00 cm**-1
   2:         0.00 cm**-1
   3:         0.00 cm**-1
   4:         0.00 cm**-1
   5:         0.00 cm**-1
   6:        90.01 cm**-1
   7:       106.06 cm**-1
   8:       180.75 cm**-1
   9:       250.46 cm**-1
  10:       250.92 cm**-1
  11:       399.36 cm**-1
  12:       407.92 cm**-1
  13:       776.99 cm**-1
  14:       793.46 cm**-1
  15:       858.98 cm**-1
  16:       872.58 cm**-1
  17:       929.67 cm**-1
  18:      1041.12 cm**-1
  19:      1053.38 cm**-1
  20:      1053.78 cm**-1
  21:      1072.58 cm**-1
  22:      1174.81 cm**-1
  23:      1228.78 cm**-1
  24:      1270.93 cm**-1
  25:      1331.96 cm**-1
  26:      1366.88 cm**-1
  27:      1396.55 cm**-1
  28:      1405.50 cm**-1
  29:      1420.80 cm**-1
  30:      1430.17 cm**-1
  31:      1432.37 cm**-1
  32:      1479.99 cm**-1
  33:      1484.67 cm**-1
  34:      1486.83 cm**-1
  35:      1491.21 cm**-1
  36:      1497.58 cm**-1
  37:      1511.19 cm**-1
  38:      1655.75 cm**-1
  39:      3059.67 cm**-1
  40:      3059.87 cm**-1
  41:      3095.25 cm**-1
  42:      3099.19 cm**-1
  43:      3129.01 cm**-1
  44:      3130.07 cm**-1
  45:      3154.22 cm**-1
  46:      3154.31 cm**-1
  47:      3157.69 cm**-1
  48:      3159.11 cm**-1
  49:      3431.51 cm**-1
  50:      3481.60 cm**-1

IR SPECTRUM
-----------

 Mode    freq (cm**-1)   T**2         TX         TY         TZ
-------------------------------------------------------------------
   6:        90.01    0.000000  ( -0.000056   0.000001  -0.000003)
   7:       106.06    6.968528  (  2.639797  -0.000001  -0.000015)
   8:       180.75    2.013157  ( -0.000031   0.000001  -1.418857)
   9:       250.46    1.494632  (  1.222551  -0.000005   0.000012)
  10:       250.92    0.000000  (  0.000302  -0.000007   0.000000)
  11:       399.36    0.313945  ( -0.000001   0.000005  -0.560308)
  12:       407.92    8.003333  ( -0.000002   2.829016   0.000000)
  13:       776.99   17.026354  (  4.126300   0.000002  -0.000005)
  14:       793.46    0.000000  (  0.000016  -0.000028   0.000000)
  15:       858.98    0.394891  (  0.000002   0.000001   0.628404)
  16:       872.58    0.001111  ( -0.033327  -0.000003  -0.000001)
  17:       929.67    0.500014  (  0.000000  -0.707117  -0.000000)
  18:      1041.12   52.901986  (  0.000000  -7.273375  -0.000000)
  19:      1053.38    0.000000  (  0.000002   0.000180  -0.000055)
  20:      1053.78    2.993564  (  0.000000  -0.000005  -1.730192)
  21:      1072.58    8.014290  ( -0.000000  -2.830952  -0.000000)
  22:      1174.81    6.692615  ( -0.000007  -0.000001   2.587009)
  23:      1228.78    1.759369  ( -1.326412   0.000002   0.000005)
  24:      1270.93    0.000000  (  0.000003  -0.000003  -0.000001)
  25:      1331.96   11.039459  ( -0.000001  -3.322568   0.000000)
  26:      1366.88   10.215917  (  3.196235   0.000001  -0.000004)
  27:      1396.55    0.000000  ( -0.000004   0.000105   0.000000)
  28:      1405.50    1.751367  ( -0.000015  -0.000001  -1.323392)
  29:      1420.80   71.860821  ( -0.000000   8.477076   0.000000)
  30:      1430.17   43.897463  ( -0.000000   6.625516   0.000000)
  31:      1432.37    3.000549  (  0.000001   0.000003  -1.732209)
  32:      1479.99    7.957616  (  0.000023  -2.820925  -0.000000)
  33:      1484.67    1.763262  (  0.000339  -0.000007  -1.327879)
  34:      1486.83   33.769554  (  5.811158   0.000010   0.000055)
  35:      1491.21    0.000000  (  0.000013   0.000032   0.000014)
  36:      1497.58    0.736642  (  0.000021   0.858278  -0.000000)
  37:      1511.19   22.341913  (  0.000019   0.000002   4.726723)
  38:      1655.75   41.207331  (  0.000001  -0.000000  -6.419294)
  39:      3059.67    0.577486  (  0.000000  -0.759925   0.000000)
  40:      3059.87    5.718789  (  0.000063   0.000013   2.391399)
  41:      3095.25    1.952205  (  0.000003  -1.397213  -0.000000)
  42:      3099.19    3.768460  (  0.000001   0.000000   1.941252)
  43:      3129.01    0.000000  (  0.000065   0.000038   0.000002)
  44:      3130.07    5.606943  (  2.367898  -0.000010  -0.000018)
  45:      3154.22    1.075279  ( -0.000065  -0.000006  -1.036956)
  46:      3154.31    0.472779  (  0.000000  -0.687589  -0.000000)
  47:      3157.69    0.000000  (  0.000043   0.000041  -0.000001)
  48:      3159.11    4.868458  ( -2.206458   0.000005   0.000064)
  49:      3431.51   29.094344  (  0.000000  -0.000000  -5.393917)
  50:      3481.60   55.661301  (  7.460650  -0.000000  -0.000000)

--------------------------
THERMOCHEMISTRY AT 298.15K
--------------------------

Temperature         ... 298.15 K
Pressure            ... 1.00 atm
Total Mass          ... 74.15 AMU

Throughout the following assumptions are being made:
  (1) The electronic state is orbitally nondegenerate
  (2) There are no thermally accessible electronically excited states
  (3) Hindered rotations indicated by low frequency modes) are not
      treated as such but are treated as vibrations and this may
      case some error
  (4) All equations used are the standard statistical mechanics
      equations for an ideal gas
  (5) All vibrations are strinctly harmonic

------------
INNER ENERGY
------------

The inner energy is: U= E(el) + E(ZPE) + E(vib) + E(rot) + E(trans)
    E(el)   - is the total energy from the electronic structure calculation
              = E(kin-el) + E(nuc-el) + E(el-el) + E(nuc-nuc)
    E(ZPE)  - the the zero temperature vibrational energy from the frequency calculation
    E(vib)  - the the finite temperature correction to E(ZPE) due to population
              of excietd vibrational states
    E(rot)  - is the rotational thermal energy
    E(trans)- is the translational thermal energy

Summary of contributions to the inner energy U:
Electronic energy                ...   -213.98578388 Eh
Zero point energy                ...      0.16474679 Eh     103.38 kcal/mol
Thermal vibrational correction   ...      0.00423943 Eh       2.66 kcal/mol
Thermal rotational correction    ...      0.00141627 Eh       0.89 kcal/mol
Thermal translational correction ...      0.00141627 Eh       0.89 kcal/mol
-----------------------------------------------------------------------
Total thermal energy                   -213.81396512 Eh

Summary of corrections to the electronic energy:
(perhaps to be used in another calculation)
Total thermal correction                  0.00707197 Eh       4.44 kcal/mol
Non-thermal (ZPE) correction              0.16474679 Eh     103.38 kcal/mol
-----------------------------------------------------------------------
Total correction                          0.17181876 Eh     107.82 kcal/mol

--------
ENTHALPY
--------

The enthalpy is H = U + kB*T
                kB is Boltzmann's constant
Total free energy                 ...   -213.81396512 Eh
Thermal Enthalpy correction       ...      0.00094421 Eh       0.59 kcal/mol
-----------------------------------------------------------------------
Total Enthalpy                    ...   -213.81302091 Eh

-------
ENTROPY
-------

The entropy contributions are T*S = T*(S(el)+S(vib)+S(rot)+S(trans)
     S(el)   - electronic entropy
     S(vib)  - vibrational entropy
     S(rot)  - rotational entropy
     S(trans)- translational entropy
The entropies will be listed as mutliplied by the temperature to get
units of energy

Electronic entropy                ...      0.00000000 Eh      0.00 kcal/mol
Vibrational entropy               ...      0.00768536 Eh      4.82 kcal/mol
Rotational entropy                ...      0.01131267 Eh      7.10 kcal/mol
Translational entropy             ...      0.01844761 Eh     11.58 kcal/mol
-----------------------------------------------------------------------
Final entropy term                ...      0.03744563 Eh     23.50 kcal/mol

CAUTION: The rotational entropy is not quite correctly treated here
         because it includes a symmetry number that is not yet correctly
         implemented in ORCA!
For a nonlinear molecule the correct rotational entropy is:
    S(rot) = R*(ln(qrot/sn)+1.5)
    R    = 8.31441 J/mol/K = 1.987191683e-3 kcal/mol/K
    qrot = 106945.8337580
    sn is the rotational symmetry number. We have assumed 3 here
       if it is different for your molecule then you should correct
       the printed rotational entropy by manually evaluating the equation
       as given above

For convenience we print out the resulting values for sn=1 - 12:
 sn= 1  qrot/sn=  106945.8338 T*S(rot)=     7.75 kcal/mol T*S(tot)=    24.15 kcal/mol
 sn= 2  qrot/sn=   53472.9169 T*S(rot)=     7.34 kcal/mol T*S(tot)=    23.74 kcal/mol
 sn= 3  qrot/sn=   35648.6113 T*S(rot)=     7.10 kcal/mol T*S(tot)=    23.50 kcal/mol
 sn= 4  qrot/sn=   26736.4584 T*S(rot)=     6.93 kcal/mol T*S(tot)=    23.33 kcal/mol
 sn= 5  qrot/sn=   21389.1668 T*S(rot)=     6.80 kcal/mol T*S(tot)=    23.19 kcal/mol
 sn= 6  qrot/sn=   17824.3056 T*S(rot)=     6.69 kcal/mol T*S(tot)=    23.09 kcal/mol
 sn= 7  qrot/sn=   15277.9763 T*S(rot)=     6.60 kcal/mol T*S(tot)=    23.00 kcal/mol
 sn= 8  qrot/sn=   13368.2292 T*S(rot)=     6.52 kcal/mol T*S(tot)=    22.92 kcal/mol
 sn= 9  qrot/sn=   11882.8704 T*S(rot)=     6.45 kcal/mol T*S(tot)=    22.85 kcal/mol
 sn=10  qrot/sn=   10694.5834 T*S(rot)=     6.39 kcal/mol T*S(tot)=    22.78 kcal/mol
 sn=11  qrot/sn=    9722.3485 T*S(rot)=     6.33 kcal/mol T*S(tot)=    22.73 kcal/mol
 sn=12  qrot/sn=    8912.1528 T*S(rot)=     6.28 kcal/mol T*S(tot)=    22.68 kcal/mol

-------------------
GIBBS FREE ENTHALPY
-------------------

The Gibbs free enthalpy is G = H - T*S

Total enthalpy                    ...   -213.81302091 Eh
Total entropy correction          ...     -0.03744563 Eh    -23.50 kcal/mol
-----------------------------------------------------------------------
Final Gibbs free enthalpy         ...   -213.85046654 Eh

For completeness - the Gibbs free enthalpy minus the electronic energy
G-E(el)                           ...      0.13531734 Eh     84.91 kcal/mol

                             ****ORCA TERMINATED NORMALLY****
TOTAL RUN TIME: 0 days 0 hours 13 minutes 32 seconds 316 msec
