                         Program Version 3.0.3 - RELEASE   -
|  1> ! NORI PBE0 def2-TZVP UseSym TightOPT Freq TightSCF Grid3 FinalGrid5 XYZFile
|  2> % pal
|  3>     nprocs 8
|  4> end
|  5> %method
|  6>     SymThresh 5.0e-2
|  7> end
|  8> % geom
|  9>     MaxIter 10
| 10> end
| 11> % maxcore 2000
| 12> % output
| 13>     printlevel mini
| 14>     print[ P_Basis ] 0
| 15>     print[ P_SCFInfo ] 1
| 16>     print[ P_SCFIterInfo ] 1
| 17>     print[ P_OrbEn ] 0
| 18>     print[ P_Cartesian ] 0
| 19> end
| 20> % elprop
| 21>     Dipole false
| 22> end
| 23> *xyz 1 1
| 24>  C        0.8742383847     0.0396033953     0.0802762059
| 25>  C        2.3557784186    -0.0887753496    -0.1964778163
| 26>  N        3.1197272915     0.4331385232     1.0236078377
| 27>  C        2.8142150737    -1.4847091039    -0.4617558625
| 28>  C        3.5610231763    -1.8139445176    -1.5058673867
| 29>  H        0.3241828433    -0.2897651316    -0.8015905714
| 30>  H        0.5800040015     1.0712953016     0.2875293127
| 31>  H        0.5655173539    -0.5950027805     0.9155255766
| 32>  H        2.6620363066     0.5705699799    -1.0118730501
| 33>  H        2.9078820261    -0.1364635865     1.8459504242
| 34>  H        2.8692720775     1.4002417068     1.2405988051
| 35>  H        4.1280269158     0.3826695521     0.8639897910
| 36>  H        2.4672462544    -2.2486493283     0.2319442815
| 37>  H        3.8922252901    -1.0767387608    -2.2309010778
| 38>  H        3.8534845861    -2.8411799001    -1.6860064697
| 39> *
| 40>
| 41>                          ****END OF INPUT****
 Total Charge           Charge          ....    1
 Multiplicity           Mult            ....    1
 Number of Electrons    NEL             ....   40
FINAL SINGLE POINT ENERGY      -212.751503151129
FINAL SINGLE POINT ENERGY      -212.751504191255

CARTESIAN COORDINATES (ANGSTROEM)
---------------------------------
  C      1.775297   -0.000624   -0.089432
  C      0.317408   -0.319242    0.160364
  N      0.001657    0.000924    1.623986
  C     -0.636733    0.449575   -0.692485
  C     -1.612081   -0.122545   -1.383445
  H      2.021402   -0.269946   -1.116667
  H      2.439603   -0.565032    0.569611
  H      1.978219    1.067334    0.027759
  H      0.127481   -1.390945    0.068721
  H      0.140639    0.997256    1.807894
  H      0.605103   -0.521564    2.262735
  H     -0.972943   -0.220007    1.837672
  H     -0.470121    1.523527   -0.758319
  H     -1.779069   -1.195309   -1.362881
  H     -2.270097    0.461649   -2.015293

FINAL SINGLE POINT ENERGY      -212.751505035871
                    ***********************HURRAY********************
 Multiplicity           Mult            ....    1
 Number of Electrons    NEL             ....   40
 Basis Dimension        Dim             ....  215
FINAL SINGLE POINT ENERGY      -212.751505190808

VIBRATIONAL FREQUENCIES
-----------------------

   0:         0.00 cm**-1
   1:         0.00 cm**-1
   2:         0.00 cm**-1
   3:         0.00 cm**-1
   4:         0.00 cm**-1
   5:         0.00 cm**-1
   6:       100.95 cm**-1
   7:       212.37 cm**-1
   8:       241.25 cm**-1
   9:       306.30 cm**-1
  10:       331.07 cm**-1
  11:       346.67 cm**-1
  12:       507.64 cm**-1
  13:       686.50 cm**-1
  14:       785.40 cm**-1
  15:       889.54 cm**-1
  16:       940.44 cm**-1
  17:       964.23 cm**-1
  18:      1006.15 cm**-1
  19:      1021.80 cm**-1
  20:      1033.12 cm**-1
  21:      1084.08 cm**-1
  22:      1204.33 cm**-1
  23:      1227.89 cm**-1
  24:      1322.27 cm**-1
  25:      1349.73 cm**-1
  26:      1379.93 cm**-1
  27:      1419.42 cm**-1
  28:      1460.15 cm**-1
  29:      1478.21 cm**-1
  30:      1487.23 cm**-1
  31:      1491.00 cm**-1
  32:      1649.64 cm**-1
  33:      1656.09 cm**-1
  34:      1722.76 cm**-1
  35:      3055.39 cm**-1
  36:      3103.79 cm**-1
  37:      3133.87 cm**-1
  38:      3154.05 cm**-1
  39:      3157.99 cm**-1
  40:      3161.23 cm**-1
  41:      3256.37 cm**-1
  42:      3414.29 cm**-1
  43:      3504.01 cm**-1
  44:      3511.62 cm**-1

IR SPECTRUM
-----------

 Mode    freq (cm**-1)   T**2         TX         TY         TZ
-------------------------------------------------------------------
   6:       100.95    3.588733  ( -1.607076  -0.398302  -0.920540)
   7:       212.37    0.281822  (  0.261750  -0.451729   0.096174)
   8:       241.25    0.306709  ( -0.376042  -0.404336  -0.042592)
   9:       306.30    2.109174  (  1.124740   0.112683   0.911831)
  10:       331.07    3.254608  (  0.432551   1.459504  -0.968171)
  11:       346.67    5.857817  ( -2.337789   0.621409  -0.080057)
  12:       507.64    3.299689  ( -0.505596  -0.980251   1.443319)
  13:       686.50   13.440339  (  1.929882  -0.545591  -3.068913)
  14:       785.40   12.228839  (  0.069729   1.078430  -3.325803)
  15:       889.54    6.503286  ( -0.187571   0.621391   2.466166)
  16:       940.44    7.685170  (  2.302286   1.008233  -1.169664)
  17:       964.23    8.950523  ( -2.157946   0.117618  -2.068806)
  18:      1006.15   13.496390  ( -1.719051   1.671938  -2.783142)
  19:      1021.80   53.494730  ( -4.835303   1.165671   5.362442)
  20:      1033.12    5.385272  (  1.481611   0.102324  -1.783152)
  21:      1084.08   33.176754  (  1.656779  -1.908750  -5.175762)
  22:      1204.33   16.755124  (  3.652843   0.471295   1.785986)
  23:      1227.89   12.928228  (  2.532809  -1.474889   2.082741)
  24:      1322.27    3.466558  (  1.466451   0.894966   0.717714)
  25:      1349.73    4.965499  (  1.558841  -1.427356   0.705811)
  26:      1379.93   10.474528  ( -0.708184  -1.590070   2.728494)
  27:      1419.42   27.796181  (  3.980839   0.544584  -3.413580)
  28:      1460.15   36.701391  (  3.097952   1.734024   4.908894)
  29:      1478.21    3.621097  (  1.041416  -1.051538   1.196168)
  30:      1487.23   95.524432  (  1.609775  -3.997873  -8.772119)
  31:      1491.00   54.417069  (  1.928065   0.696162  -7.086254)
  32:      1649.64   51.532143  (  2.680863   6.541004  -1.249152)
  33:      1656.09   37.757231  ( -5.289497   2.524335  -1.845586)
  34:      1722.76    1.267962  ( -0.249877   0.225297  -1.074600)
  35:      3055.39    4.033893  (  0.664834   0.685678   1.766843)
  36:      3103.79    0.518637  (  0.580828   0.409276  -0.117341)
  37:      3133.87    5.236420  (  0.810627  -1.937274   0.908996)
  38:      3154.05    1.476746  (  0.173198  -1.202622   0.021198)
  39:      3157.99    1.422973  (  1.110898   0.410357  -0.143130)
  40:      3161.23    1.030715  ( -0.656873   0.474784  -0.611402)
  41:      3256.37    0.337783  (  0.429446  -0.003797   0.391593)
  42:      3414.29   38.330890  (  0.917478  -1.044225  -6.033135)
  43:      3504.01   81.098153  (  0.742229   8.798499  -1.770216)
  44:      3511.62   79.803560  ( -8.814863   0.230654  -1.431273)

--------------------------
THERMOCHEMISTRY AT 298.15K
--------------------------

Temperature         ... 298.15 K
Pressure            ... 1.00 atm
Total Mass          ... 72.13 AMU

Throughout the following assumptions are being made:
  (1) The electronic state is orbitally nondegenerate
  (2) There are no thermally accessible electronically excited states
  (3) Hindered rotations indicated by low frequency modes) are not
      treated as such but are treated as vibrations and this may
      case some error
  (4) All equations used are the standard statistical mechanics
      equations for an ideal gas
  (5) All vibrations are strinctly harmonic

------------
INNER ENERGY
------------

The inner energy is: U= E(el) + E(ZPE) + E(vib) + E(rot) + E(trans)
    E(el)   - is the total energy from the electronic structure calculation
              = E(kin-el) + E(nuc-el) + E(el-el) + E(nuc-nuc)
    E(ZPE)  - the the zero temperature vibrational energy from the frequency calculation
    E(vib)  - the the finite temperature correction to E(ZPE) due to population
              of excietd vibrational states
    E(rot)  - is the rotational thermal energy
    E(trans)- is the translational thermal energy

Summary of contributions to the inner energy U:
Electronic energy                ...   -212.75150519 Eh
Zero point energy                ...      0.14069678 Eh      88.29 kcal/mol
Thermal vibrational correction   ...      0.00372085 Eh       2.33 kcal/mol
Thermal rotational correction    ...      0.00141627 Eh       0.89 kcal/mol
Thermal translational correction ...      0.00141627 Eh       0.89 kcal/mol
-----------------------------------------------------------------------
Total thermal energy                   -212.60425502 Eh

Summary of corrections to the electronic energy:
(perhaps to be used in another calculation)
Total thermal correction                  0.00655339 Eh       4.11 kcal/mol
Non-thermal (ZPE) correction              0.14069678 Eh      88.29 kcal/mol
-----------------------------------------------------------------------
Total correction                          0.14725017 Eh      92.40 kcal/mol

--------
ENTHALPY
--------

The enthalpy is H = U + kB*T
                kB is Boltzmann's constant
Total free energy                 ...   -212.60425502 Eh
Thermal Enthalpy correction       ...      0.00094421 Eh       0.59 kcal/mol
-----------------------------------------------------------------------
Total Enthalpy                    ...   -212.60331082 Eh

-------
ENTROPY
-------

The entropy contributions are T*S = T*(S(el)+S(vib)+S(rot)+S(trans)
     S(el)   - electronic entropy
     S(vib)  - vibrational entropy
     S(rot)  - rotational entropy
     S(trans)- translational entropy
The entropies will be listed as mutliplied by the temperature to get
units of energy

Electronic entropy                ...      0.00000000 Eh      0.00 kcal/mol
Vibrational entropy               ...      0.00626194 Eh      3.93 kcal/mol
Rotational entropy                ...      0.01126910 Eh      7.07 kcal/mol
Translational entropy             ...      0.01840857 Eh     11.55 kcal/mol
-----------------------------------------------------------------------
Final entropy term                ...      0.03593960 Eh     22.55 kcal/mol

CAUTION: The rotational entropy is not quite correctly treated here
         because it includes a symmetry number that is not yet correctly
         implemented in ORCA!
For a nonlinear molecule the correct rotational entropy is:
    S(rot) = R*(ln(qrot/sn)+1.5)
    R    = 8.31441 J/mol/K = 1.987191683e-3 kcal/mol/K
    qrot = 102122.3812344
    sn is the rotational symmetry number. We have assumed 3 here
       if it is different for your molecule then you should correct
       the printed rotational entropy by manually evaluating the equation
       as given above

For convenience we print out the resulting values for sn=1 - 12:
 sn= 1  qrot/sn=  102122.3812 T*S(rot)=     7.72 kcal/mol T*S(tot)=    23.20 kcal/mol
 sn= 2  qrot/sn=   51061.1906 T*S(rot)=     7.31 kcal/mol T*S(tot)=    22.79 kcal/mol
 sn= 3  qrot/sn=   34040.7937 T*S(rot)=     7.07 kcal/mol T*S(tot)=    22.55 kcal/mol
 sn= 4  qrot/sn=   25530.5953 T*S(rot)=     6.90 kcal/mol T*S(tot)=    22.38 kcal/mol
 sn= 5  qrot/sn=   20424.4762 T*S(rot)=     6.77 kcal/mol T*S(tot)=    22.25 kcal/mol
 sn= 6  qrot/sn=   17020.3969 T*S(rot)=     6.66 kcal/mol T*S(tot)=    22.14 kcal/mol
 sn= 7  qrot/sn=   14588.9116 T*S(rot)=     6.57 kcal/mol T*S(tot)=    22.05 kcal/mol
 sn= 8  qrot/sn=   12765.2977 T*S(rot)=     6.49 kcal/mol T*S(tot)=    21.97 kcal/mol
 sn= 9  qrot/sn=   11346.9312 T*S(rot)=     6.42 kcal/mol T*S(tot)=    21.90 kcal/mol
 sn=10  qrot/sn=   10212.2381 T*S(rot)=     6.36 kcal/mol T*S(tot)=    21.84 kcal/mol
 sn=11  qrot/sn=    9283.8528 T*S(rot)=     6.30 kcal/mol T*S(tot)=    21.78 kcal/mol
 sn=12  qrot/sn=    8510.1984 T*S(rot)=     6.25 kcal/mol T*S(tot)=    21.73 kcal/mol

-------------------
GIBBS FREE ENTHALPY
-------------------

The Gibbs free enthalpy is G = H - T*S

Total enthalpy                    ...   -212.60331082 Eh
Total entropy correction          ...     -0.03593960 Eh    -22.55 kcal/mol
-----------------------------------------------------------------------
Final Gibbs free enthalpy         ...   -212.63925042 Eh

For completeness - the Gibbs free enthalpy minus the electronic energy
G-E(el)                           ...      0.11225477 Eh     70.44 kcal/mol

                             ****ORCA TERMINATED NORMALLY****
TOTAL RUN TIME: 0 days 0 hours 12 minutes 52 seconds 840 msec
