                         Program Version 3.0.3 - RELEASE   -
|  1> ! NORI PBE0 def2-TZVP UseSym TightOPT Freq TightSCF Grid3 FinalGrid5 XYZFile
|  2> % pal
|  3>     nprocs 8
|  4> end
|  5> %method
|  6>     SymThresh 5.0e-2
|  7> end
|  8> % geom
|  9>     MaxIter 10
| 10> end
| 11> % maxcore 2000
| 12> % output
| 13>     printlevel mini
| 14>     print[ P_Basis ] 0
| 15>     print[ P_SCFInfo ] 1
| 16>     print[ P_SCFIterInfo ] 1
| 17>     print[ P_OrbEn ] 0
| 18>     print[ P_Cartesian ] 0
| 19> end
| 20> % elprop
| 21>     Dipole false
| 22> end
| 23> *xyz 1 1
| 24>  C        2.7810214183     0.2105687956     1.4046284192
| 25>  C        2.4748556901     0.1869196602    -0.0723881537
| 26>  N        2.9846638102    -1.0494013826    -0.7640457257
| 27>  C        2.4650123885    -1.1393450199    -2.1540155284
| 28>  C        4.4674940753    -1.1552500891    -0.7390966161
| 29>  H        2.2797062045     1.0737755860     1.8447434085
| 30>  H        3.8449955164     0.3145083386     1.6173857656
| 31>  H        2.3977616235    -0.6768928781     1.9153683169
| 32>  H        1.3984612902     0.2042791266    -0.2501658397
| 33>  H        2.9192511375     1.0328792838    -0.6006349304
| 34>  H        2.6142564042    -1.8488177466    -0.2459488471
| 35>  H        2.8388948591    -0.2866502363    -2.7189634561
| 36>  H        1.3766451683    -1.1212119016    -2.1304889614
| 37>  H        2.8143165162    -2.0653572340    -2.6073736477
| 38>  H        4.8820838860    -0.2941119032    -1.2613206322
| 39>  H        4.7646242529    -2.0731008348    -1.2434294344
| 40>  H        4.8142357587    -1.1725715648     0.2906658630
| 41> *
| 42>
| 43>                          ****END OF INPUT****
 Total Charge           Charge          ....    1
 Multiplicity           Mult            ....    1
 Number of Electrons    NEL             ....   42
FINAL SINGLE POINT ENERGY      -213.976121723090
FINAL SINGLE POINT ENERGY      -213.976123225923

CARTESIAN COORDINATES (ANGSTROEM)
---------------------------------
  C      1.208901    0.001102   -1.668231
  C      0.144254    0.643483   -0.813764
  N      0.000319   -0.000747    0.539776
  C     -0.885228    0.802388    1.424570
  C     -0.460199   -1.412764    0.462765
  H      1.326672    0.598157   -2.573661
  H      0.951324   -1.010415   -1.982102
  H      2.180099   -0.015188   -1.166554
  H      0.377701    1.691669   -0.620286
  H     -0.842961    0.596355   -1.277246
  H      0.931055   -0.007379    0.961657
  H     -1.879950    0.832066    0.982744
  H     -0.486090    1.811432    1.509101
  H     -0.929916    0.334292    2.406319
  H     -1.438645   -1.429245   -0.015335
  H     -0.533371   -1.815182    1.471468
  H      0.249767   -1.997519   -0.116144

FINAL SINGLE POINT ENERGY      -213.976123516320
                    ***********************HURRAY********************
 Multiplicity           Mult            ....    1
 Number of Electrons    NEL             ....   42
 Basis Dimension        Dim             ....  227
FINAL SINGLE POINT ENERGY      -213.976123602512

VIBRATIONAL FREQUENCIES
-----------------------

   0:         0.00 cm**-1
   1:         0.00 cm**-1
   2:         0.00 cm**-1
   3:         0.00 cm**-1
   4:         0.00 cm**-1
   5:         0.00 cm**-1
   6:        81.55 cm**-1
   7:       203.82 cm**-1
   8:       224.35 cm**-1
   9:       262.65 cm**-1
  10:       288.77 cm**-1
  11:       394.11 cm**-1
  12:       427.13 cm**-1
  13:       472.52 cm**-1
  14:       782.44 cm**-1
  15:       818.29 cm**-1
  16:       939.52 cm**-1
  17:      1009.06 cm**-1
  18:      1032.08 cm**-1
  19:      1050.13 cm**-1
  20:      1076.12 cm**-1
  21:      1091.34 cm**-1
  22:      1205.51 cm**-1
  23:      1237.30 cm**-1
  24:      1254.12 cm**-1
  25:      1334.43 cm**-1
  26:      1384.66 cm**-1
  27:      1420.56 cm**-1
  28:      1423.87 cm**-1
  29:      1429.67 cm**-1
  30:      1444.32 cm**-1
  31:      1469.01 cm**-1
  32:      1472.14 cm**-1
  33:      1481.48 cm**-1
  34:      1487.66 cm**-1
  35:      1495.06 cm**-1
  36:      1498.81 cm**-1
  37:      1507.61 cm**-1
  38:      1510.90 cm**-1
  39:      3063.94 cm**-1
  40:      3087.48 cm**-1
  41:      3091.56 cm**-1
  42:      3093.51 cm**-1
  43:      3134.94 cm**-1
  44:      3148.78 cm**-1
  45:      3161.98 cm**-1
  46:      3186.76 cm**-1
  47:      3189.19 cm**-1
  48:      3191.05 cm**-1
  49:      3203.42 cm**-1
  50:      3453.14 cm**-1

IR SPECTRUM
-----------

 Mode    freq (cm**-1)   T**2         TX         TY         TZ
-------------------------------------------------------------------
   6:        81.55    0.518293  ( -0.286663  -0.430488  -0.500798)
   7:       203.82    0.108932  (  0.074484   0.308338   0.091166)
   8:       224.35    0.178269  (  0.006189   0.144167  -0.396796)
   9:       262.65    0.286771  (  0.203900   0.121608  -0.480007)
  10:       288.77    0.832911  ( -0.155589  -0.679419   0.589146)
  11:       394.11    0.041105  (  0.078410  -0.179592   0.051996)
  12:       427.13    0.590854  ( -0.034731   0.567908   0.516844)
  13:       472.52    0.600913  (  0.226885  -0.553000  -0.493587)
  14:       782.44    2.828336  (  0.869477   1.253925   0.707119)
  15:       818.29    3.722596  ( -1.130089  -1.449846   0.586039)
  16:       939.52   10.678769  (  2.171487   0.804937  -2.305535)
  17:      1009.06   26.170338  ( -1.737873   1.883670   4.427406)
  18:      1032.08   25.305813  (  0.595814   3.584224  -3.479103)
  19:      1050.13    1.628124  ( -0.025585   0.488680   1.178415)
  20:      1076.12    0.860710  ( -0.620944   0.011537  -0.689206)
  21:      1091.34    0.106903  (  0.106542   0.297487   0.083982)
  22:      1205.51    3.855323  ( -0.221572   1.918434  -0.354739)
  23:      1237.30    0.018971  ( -0.105919   0.018887   0.085998)
  24:      1254.12    0.190553  (  0.238765   0.097429  -0.352210)
  25:      1334.43    0.849403  ( -0.308489  -0.105698  -0.862013)
  26:      1384.66    2.954574  ( -0.902084   1.095463   0.969938)
  27:      1420.56   11.245715  ( -1.929741  -0.339234   2.721531)
  28:      1423.87   17.872158  ( -2.792294  -0.485642   3.136782)
  29:      1429.67    4.496611  (  1.329242   1.614678  -0.350059)
  30:      1444.32    8.072132  ( -0.528365   2.614556   0.978295)
  31:      1469.01    5.235534  (  1.902633   0.947127  -0.847629)
  32:      1472.14    5.379985  (  0.528751   2.245483  -0.241279)
  33:      1481.48    2.836526  ( -1.359651   0.723506  -0.681478)
  34:      1487.66    3.017125  ( -0.731361  -0.060578   1.574346)
  35:      1495.06   42.858645  (  1.701230   4.017775   4.880773)
  36:      1498.81   28.244942  (  4.669393   1.010245  -2.328328)
  37:      1507.61    8.169235  (  1.391124  -2.348719   0.847070)
  38:      1510.90   46.134396  ( -3.272068   3.830909  -4.555448)
  39:      3063.94    2.942261  ( -0.848417   0.998886  -1.106651)
  40:      3087.48    0.248729  ( -0.390517   0.309371  -0.022699)
  41:      3091.56    2.748639  ( -1.051368   1.219787   0.394187)
  42:      3093.51    0.704585  ( -0.653483   0.368095   0.376897)
  43:      3134.94    0.811833  ( -0.624460  -0.381639  -0.525581)
  44:      3148.78    1.438922  ( -1.190381  -0.060287  -0.135203)
  45:      3161.98    3.920263  ( -0.901545  -1.596962  -0.746451)
  46:      3186.76    0.063417  ( -0.051367   0.241688   0.048639)
  47:      3189.19    0.084658  ( -0.096420   0.060794   0.267703)
  48:      3191.05    0.048602  (  0.091653   0.190176  -0.063522)
  49:      3203.42    0.206012  ( -0.081044  -0.446579   0.003332)
  50:      3453.14   47.148309  (  6.189292   0.000698   2.973376)

--------------------------
THERMOCHEMISTRY AT 298.15K
--------------------------

Temperature         ... 298.15 K
Pressure            ... 1.00 atm
Total Mass          ... 74.15 AMU

Throughout the following assumptions are being made:
  (1) The electronic state is orbitally nondegenerate
  (2) There are no thermally accessible electronically excited states
  (3) Hindered rotations indicated by low frequency modes) are not
      treated as such but are treated as vibrations and this may
      case some error
  (4) All equations used are the standard statistical mechanics
      equations for an ideal gas
  (5) All vibrations are strinctly harmonic

------------
INNER ENERGY
------------

The inner energy is: U= E(el) + E(ZPE) + E(vib) + E(rot) + E(trans)
    E(el)   - is the total energy from the electronic structure calculation
              = E(kin-el) + E(nuc-el) + E(el-el) + E(nuc-nuc)
    E(ZPE)  - the the zero temperature vibrational energy from the frequency calculation
    E(vib)  - the the finite temperature correction to E(ZPE) due to population
              of excietd vibrational states
    E(rot)  - is the rotational thermal energy
    E(trans)- is the translational thermal energy

Summary of contributions to the inner energy U:
Electronic energy                ...   -213.97612360 Eh
Zero point energy                ...      0.16452181 Eh     103.24 kcal/mol
Thermal vibrational correction   ...      0.00408101 Eh       2.56 kcal/mol
Thermal rotational correction    ...      0.00141627 Eh       0.89 kcal/mol
Thermal translational correction ...      0.00141627 Eh       0.89 kcal/mol
-----------------------------------------------------------------------
Total thermal energy                   -213.80468823 Eh

Summary of corrections to the electronic energy:
(perhaps to be used in another calculation)
Total thermal correction                  0.00691356 Eh       4.34 kcal/mol
Non-thermal (ZPE) correction              0.16452181 Eh     103.24 kcal/mol
-----------------------------------------------------------------------
Total correction                          0.17143537 Eh     107.58 kcal/mol

--------
ENTHALPY
--------

The enthalpy is H = U + kB*T
                kB is Boltzmann's constant
Total free energy                 ...   -213.80468823 Eh
Thermal Enthalpy correction       ...      0.00094421 Eh       0.59 kcal/mol
-----------------------------------------------------------------------
Total Enthalpy                    ...   -213.80374403 Eh

-------
ENTROPY
-------

The entropy contributions are T*S = T*(S(el)+S(vib)+S(rot)+S(trans)
     S(el)   - electronic entropy
     S(vib)  - vibrational entropy
     S(rot)  - rotational entropy
     S(trans)- translational entropy
The entropies will be listed as mutliplied by the temperature to get
units of energy

Electronic entropy                ...      0.00000000 Eh      0.00 kcal/mol
Vibrational entropy               ...      0.00703861 Eh      4.42 kcal/mol
Rotational entropy                ...      0.01127306 Eh      7.07 kcal/mol
Translational entropy             ...      0.01844761 Eh     11.58 kcal/mol
-----------------------------------------------------------------------
Final entropy term                ...      0.03675928 Eh     23.07 kcal/mol

CAUTION: The rotational entropy is not quite correctly treated here
         because it includes a symmetry number that is not yet correctly
         implemented in ORCA!
For a nonlinear molecule the correct rotational entropy is:
    S(rot) = R*(ln(qrot/sn)+1.5)
    R    = 8.31441 J/mol/K = 1.987191683e-3 kcal/mol/K
    qrot = 102552.0262779
    sn is the rotational symmetry number. We have assumed 3 here
       if it is different for your molecule then you should correct
       the printed rotational entropy by manually evaluating the equation
       as given above

For convenience we print out the resulting values for sn=1 - 12:
 sn= 1  qrot/sn=  102552.0263 T*S(rot)=     7.72 kcal/mol T*S(tot)=    23.72 kcal/mol
 sn= 2  qrot/sn=   51276.0131 T*S(rot)=     7.31 kcal/mol T*S(tot)=    23.31 kcal/mol
 sn= 3  qrot/sn=   34184.0088 T*S(rot)=     7.07 kcal/mol T*S(tot)=    23.07 kcal/mol
 sn= 4  qrot/sn=   25638.0066 T*S(rot)=     6.90 kcal/mol T*S(tot)=    22.90 kcal/mol
 sn= 5  qrot/sn=   20510.4053 T*S(rot)=     6.77 kcal/mol T*S(tot)=    22.76 kcal/mol
 sn= 6  qrot/sn=   17092.0044 T*S(rot)=     6.66 kcal/mol T*S(tot)=    22.66 kcal/mol
 sn= 7  qrot/sn=   14650.2895 T*S(rot)=     6.57 kcal/mol T*S(tot)=    22.56 kcal/mol
 sn= 8  qrot/sn=   12819.0033 T*S(rot)=     6.49 kcal/mol T*S(tot)=    22.49 kcal/mol
 sn= 9  qrot/sn=   11394.6696 T*S(rot)=     6.42 kcal/mol T*S(tot)=    22.42 kcal/mol
 sn=10  qrot/sn=   10255.2026 T*S(rot)=     6.36 kcal/mol T*S(tot)=    22.35 kcal/mol
 sn=11  qrot/sn=    9322.9115 T*S(rot)=     6.30 kcal/mol T*S(tot)=    22.30 kcal/mol
 sn=12  qrot/sn=    8546.0022 T*S(rot)=     6.25 kcal/mol T*S(tot)=    22.25 kcal/mol

-------------------
GIBBS FREE ENTHALPY
-------------------

The Gibbs free enthalpy is G = H - T*S

Total enthalpy                    ...   -213.80374403 Eh
Total entropy correction          ...     -0.03675928 Eh    -23.07 kcal/mol
-----------------------------------------------------------------------
Final Gibbs free enthalpy         ...   -213.84050330 Eh

For completeness - the Gibbs free enthalpy minus the electronic energy
G-E(el)                           ...      0.13562030 Eh     85.10 kcal/mol

                             ****ORCA TERMINATED NORMALLY****
TOTAL RUN TIME: 0 days 0 hours 15 minutes 51 seconds 115 msec
