                         Program Version 3.0.3 - RELEASE   -
|  1> ! NORI PBE0 def2-TZVP UseSym TightOPT Freq TightSCF Grid3 FinalGrid5 XYZFile
|  2> % pal
|  3>     nprocs 8
|  4> end
|  5> %method
|  6>     SymThresh 5.0e-2
|  7> end
|  8> % geom
|  9>     MaxIter 10
| 10> end
| 11> % maxcore 2000
| 12> % output
| 13>     printlevel mini
| 14>     print[ P_Basis ] 0
| 15>     print[ P_SCFInfo ] 1
| 16>     print[ P_SCFIterInfo ] 1
| 17>     print[ P_OrbEn ] 0
| 18>     print[ P_Cartesian ] 0
| 19> end
| 20> % elprop
| 21>     Dipole false
| 22> end
| 23> *xyz 1 1
| 24>  C        1.0144369678    -0.0035618311    -0.0348493515
| 25>  N        2.4866693775     0.0064319556     0.0213458476
| 26>  C        3.1971923545     1.0823340941     0.8220262752
| 27>  C        4.1900599226     0.0354231176     1.3380649175
| 28>  C        3.2109369905    -1.0380291980     0.8509638887
| 29>  H        0.6707424452     0.8805105114    -0.5716955868
| 30>  H        0.6244151414     0.0055756219     0.9817186951
| 31>  H        0.6818344336    -0.9037985016    -0.5514016051
| 32>  H        2.8560498038    -0.0042008193    -0.9290857133
| 33>  H        2.5098333680     1.4538351282     1.5809093500
| 34>  H        3.5560502124     1.9040212267     0.2052062673
| 35>  H        4.3957021899     0.0513274344     2.4049561229
| 36>  H        5.1311461038     0.0340544660     0.7904444410
| 37>  H        3.5805855715    -1.8713777843     0.2565414164
| 38>  H        2.5284151175    -1.3977754217     1.6197250351
| 39> *
| 40>
| 41>                          ****END OF INPUT****
 Total Charge           Charge          ....    1
 Multiplicity           Mult            ....    1
 Number of Electrons    NEL             ....   40
FINAL SINGLE POINT ENERGY      -212.747270113035

CARTESIAN COORDINATES (ANGSTROEM)
---------------------------------
  C      1.382021    1.270005    0.000000
  N      0.635069   -0.000101    0.000000
  C     -0.422963   -0.245676    1.060357
  C     -1.331412   -0.876740    0.000000
  C     -0.422963   -0.245676   -1.060357
  H      2.005856    1.318162    0.892180
  H      0.671088    2.094450   -0.000000
  H      2.005856    1.318162   -0.892180
  H      1.297121   -0.775601   -0.000000
  H     -0.771101    0.719623    1.425388
  H     -0.062054   -0.852835    1.887959
  H     -2.368572   -0.553053    0.000000
  H     -1.294185   -1.965209    0.000000
  H     -0.062054   -0.852835   -1.887959
  H     -0.771101    0.719623   -1.425388

FINAL SINGLE POINT ENERGY      -212.747271007928
                    ***********************HURRAY********************
 Multiplicity           Mult            ....    1
 Number of Electrons    NEL             ....   40
 Basis Dimension        Dim             ....  215
FINAL SINGLE POINT ENERGY      -212.747271448491

VIBRATIONAL FREQUENCIES
-----------------------

   0:         0.00 cm**-1
   1:         0.00 cm**-1
   2:         0.00 cm**-1
   3:         0.00 cm**-1
   4:         0.00 cm**-1
   5:         0.00 cm**-1
   6:       126.95 cm**-1
   7:       226.63 cm**-1
   8:       321.62 cm**-1
   9:       420.83 cm**-1
  10:       642.28 cm**-1
  11:       766.44 cm**-1
  12:       801.70 cm**-1
  13:       913.93 cm**-1
  14:       914.02 cm**-1
  15:       976.60 cm**-1
  16:      1002.51 cm**-1
  17:      1054.07 cm**-1
  18:      1063.88 cm**-1
  19:      1123.11 cm**-1
  20:      1189.02 cm**-1
  21:      1203.71 cm**-1
  22:      1239.15 cm**-1
  23:      1291.15 cm**-1
  24:      1297.26 cm**-1
  25:      1312.34 cm**-1
  26:      1348.43 cm**-1
  27:      1349.52 cm**-1
  28:      1435.58 cm**-1
  29:      1455.03 cm**-1
  30:      1484.41 cm**-1
  31:      1488.15 cm**-1
  32:      1488.55 cm**-1
  33:      1497.32 cm**-1
  34:      1516.49 cm**-1
  35:      3082.02 cm**-1
  36:      3116.75 cm**-1
  37:      3118.97 cm**-1
  38:      3123.06 cm**-1
  39:      3178.76 cm**-1
  40:      3181.22 cm**-1
  41:      3185.54 cm**-1
  42:      3188.82 cm**-1
  43:      3196.41 cm**-1
  44:      3483.46 cm**-1

IR SPECTRUM
-----------

 Mode    freq (cm**-1)   T**2         TX         TY         TZ
-------------------------------------------------------------------
   6:       126.95    0.709335  (  0.800072  -0.263098   0.000002)
   7:       226.63    0.050988  (  0.000001  -0.000000  -0.225806)
   8:       321.62    0.277540  (  0.000000  -0.000001   0.526821)
   9:       420.83    0.200554  (  0.208690   0.396235   0.000002)
  10:       642.28    2.963281  ( -0.331505   1.689197   0.000001)
  11:       766.44    1.722656  (  0.569294   1.182608  -0.000003)
  12:       801.70    3.781123  (  0.000000  -0.000000  -1.944511)
  13:       913.93   10.110735  ( -0.000241  -0.000018  -3.179738)
  14:       914.02    5.757574  ( -2.393495  -0.169574   0.000320)
  15:       976.60    2.685482  ( -0.000002   0.000001  -1.638744)
  16:      1002.51    2.465076  (  1.236018   0.968161   0.000009)
  17:      1054.07   11.087144  (  3.144162   1.096081  -0.000022)
  18:      1063.88    6.229699  (  0.000022   0.000007   2.495936)
  19:      1123.11   13.772454  ( -2.915900  -2.295644  -0.000001)
  20:      1189.02    0.126320  (  0.000006   0.000002   0.355415)
  21:      1203.71    1.641141  (  1.229514   0.359773  -0.000001)
  22:      1239.15    3.962587  ( -0.000003   0.000002   1.990625)
  23:      1291.15    3.612648  ( -0.000006   0.000014  -1.900697)
  24:      1297.26    2.113508  (  0.455624  -1.380549  -0.000012)
  25:      1312.34    0.037906  ( -0.000001   0.000002  -0.194696)
  26:      1348.43   22.933272  (  0.000042   0.000005   4.788870)
  27:      1349.52    0.882217  (  0.931720   0.118806  -0.000226)
  28:      1435.58   15.244545  (  2.654575   2.863176   0.000002)
  29:      1455.03    2.626142  ( -0.215549  -1.606138  -0.000001)
  30:      1484.41   10.764726  ( -0.000000  -0.000000  -3.280964)
  31:      1488.15   24.580184  (  4.641858   1.741649  -0.000002)
  32:      1488.55   20.228558  (  0.000001   0.000000   4.497617)
  33:      1497.32   17.424120  (  3.027199  -2.874054   0.000000)
  34:      1516.49    3.355320  ( -0.452929   1.774873  -0.000000)
  35:      3082.02    0.054530  (  0.035149  -0.230857  -0.000000)
  36:      3116.75    1.500824  (  0.000000  -0.000000   1.225081)
  37:      3118.97    0.221632  ( -0.358272  -0.305407   0.000001)
  38:      3123.06    1.511129  ( -0.412729  -1.157922  -0.000002)
  39:      3178.76    0.098950  ( -0.000000  -0.000000  -0.314563)
  40:      3181.22    0.011686  ( -0.104476  -0.027759   0.000002)
  41:      3185.54    0.037766  ( -0.190362  -0.039088  -0.000001)
  42:      3188.82    0.610297  ( -0.000000   0.000001  -0.781215)
  43:      3196.41    0.054181  (  0.209363  -0.101727  -0.000002)
  44:      3483.46   61.315164  (  5.805953  -5.254149   0.000000)

--------------------------
THERMOCHEMISTRY AT 298.15K
--------------------------

Temperature         ... 298.15 K
Pressure            ... 1.00 atm
Total Mass          ... 72.13 AMU

Throughout the following assumptions are being made:
  (1) The electronic state is orbitally nondegenerate
  (2) There are no thermally accessible electronically excited states
  (3) Hindered rotations indicated by low frequency modes) are not
      treated as such but are treated as vibrations and this may
      case some error
  (4) All equations used are the standard statistical mechanics
      equations for an ideal gas
  (5) All vibrations are strinctly harmonic

------------
INNER ENERGY
------------

The inner energy is: U= E(el) + E(ZPE) + E(vib) + E(rot) + E(trans)
    E(el)   - is the total energy from the electronic structure calculation
              = E(kin-el) + E(nuc-el) + E(el-el) + E(nuc-nuc)
    E(ZPE)  - the the zero temperature vibrational energy from the frequency calculation
    E(vib)  - the the finite temperature correction to E(ZPE) due to population
              of excietd vibrational states
    E(rot)  - is the rotational thermal energy
    E(trans)- is the translational thermal energy

Summary of contributions to the inner energy U:
Electronic energy                ...   -212.74727145 Eh
Zero point energy                ...      0.14308187 Eh      89.79 kcal/mol
Thermal vibrational correction   ...      0.00259111 Eh       1.63 kcal/mol
Thermal rotational correction    ...      0.00141627 Eh       0.89 kcal/mol
Thermal translational correction ...      0.00141627 Eh       0.89 kcal/mol
-----------------------------------------------------------------------
Total thermal energy                   -212.59876592 Eh

Summary of corrections to the electronic energy:
(perhaps to be used in another calculation)
Total thermal correction                  0.00542366 Eh       3.40 kcal/mol
Non-thermal (ZPE) correction              0.14308187 Eh      89.79 kcal/mol
-----------------------------------------------------------------------
Total correction                          0.14850552 Eh      93.19 kcal/mol

--------
ENTHALPY
--------

The enthalpy is H = U + kB*T
                kB is Boltzmann's constant
Total free energy                 ...   -212.59876592 Eh
Thermal Enthalpy correction       ...      0.00094421 Eh       0.59 kcal/mol
-----------------------------------------------------------------------
Total Enthalpy                    ...   -212.59782171 Eh

-------
ENTROPY
-------

The entropy contributions are T*S = T*(S(el)+S(vib)+S(rot)+S(trans)
     S(el)   - electronic entropy
     S(vib)  - vibrational entropy
     S(rot)  - rotational entropy
     S(trans)- translational entropy
The entropies will be listed as mutliplied by the temperature to get
units of energy

Electronic entropy                ...      0.00000000 Eh      0.00 kcal/mol
Vibrational entropy               ...      0.00423456 Eh      2.66 kcal/mol
Rotational entropy                ...      0.01093741 Eh      6.86 kcal/mol
Translational entropy             ...      0.01840857 Eh     11.55 kcal/mol
-----------------------------------------------------------------------
Final entropy term                ...      0.03358053 Eh     21.07 kcal/mol

CAUTION: The rotational entropy is not quite correctly treated here
         because it includes a symmetry number that is not yet correctly
         implemented in ORCA!
For a nonlinear molecule the correct rotational entropy is:
    S(rot) = R*(ln(qrot/sn)+1.5)
    R    = 8.31441 J/mol/K = 1.987191683e-3 kcal/mol/K
    qrot = 71871.0342229
    sn is the rotational symmetry number. We have assumed 3 here
       if it is different for your molecule then you should correct
       the printed rotational entropy by manually evaluating the equation
       as given above

For convenience we print out the resulting values for sn=1 - 12:
 sn= 1  qrot/sn=   71871.0342 T*S(rot)=     7.51 kcal/mol T*S(tot)=    21.72 kcal/mol
 sn= 2  qrot/sn=   35935.5171 T*S(rot)=     7.10 kcal/mol T*S(tot)=    21.31 kcal/mol
 sn= 3  qrot/sn=   23957.0114 T*S(rot)=     6.86 kcal/mol T*S(tot)=    21.07 kcal/mol
 sn= 4  qrot/sn=   17967.7586 T*S(rot)=     6.69 kcal/mol T*S(tot)=    20.90 kcal/mol
 sn= 5  qrot/sn=   14374.2068 T*S(rot)=     6.56 kcal/mol T*S(tot)=    20.77 kcal/mol
 sn= 6  qrot/sn=   11978.5057 T*S(rot)=     6.45 kcal/mol T*S(tot)=    20.66 kcal/mol
 sn= 7  qrot/sn=   10267.2906 T*S(rot)=     6.36 kcal/mol T*S(tot)=    20.57 kcal/mol
 sn= 8  qrot/sn=    8983.8793 T*S(rot)=     6.28 kcal/mol T*S(tot)=    20.49 kcal/mol
 sn= 9  qrot/sn=    7985.6705 T*S(rot)=     6.21 kcal/mol T*S(tot)=    20.42 kcal/mol
 sn=10  qrot/sn=    7187.1034 T*S(rot)=     6.15 kcal/mol T*S(tot)=    20.36 kcal/mol
 sn=11  qrot/sn=    6533.7304 T*S(rot)=     6.09 kcal/mol T*S(tot)=    20.30 kcal/mol
 sn=12  qrot/sn=    5989.2529 T*S(rot)=     6.04 kcal/mol T*S(tot)=    20.25 kcal/mol

-------------------
GIBBS FREE ENTHALPY
-------------------

The Gibbs free enthalpy is G = H - T*S

Total enthalpy                    ...   -212.59782171 Eh
Total entropy correction          ...     -0.03358053 Eh    -21.07 kcal/mol
-----------------------------------------------------------------------
Final Gibbs free enthalpy         ...   -212.63140225 Eh

For completeness - the Gibbs free enthalpy minus the electronic energy
G-E(el)                           ...      0.11586920 Eh     72.71 kcal/mol

                             ****ORCA TERMINATED NORMALLY****
TOTAL RUN TIME: 0 days 0 hours 13 minutes 13 seconds 896 msec
