                         Program Version 3.0.3 - RELEASE   -
|  1> ! NORI PBE0 def2-TZVP UseSym TightOPT Freq TightSCF Grid3 FinalGrid5 XYZFile
|  2> % pal
|  3>     nprocs 8
|  4> end
|  5> %method
|  6>     SymThresh 5.0e-2
|  7> end
|  8> % geom
|  9>     MaxIter 10
| 10> end
| 11> % maxcore 2000
| 12> % output
| 13>     printlevel mini
| 14>     print[ P_Basis ] 0
| 15>     print[ P_SCFInfo ] 1
| 16>     print[ P_SCFIterInfo ] 1
| 17>     print[ P_OrbEn ] 0
| 18>     print[ P_Cartesian ] 0
| 19> end
| 20> % elprop
| 21>     Dipole false
| 22> end
| 23> *xyz 1 1
| 24>  C        2.7853133733     1.2866962696     0.4048199007
| 25>  N        2.1873762310    -0.0242423992     0.0203980769
| 26>  C        2.8935712387    -1.1951393079     0.5817358872
| 27>  C        2.7667115696    -2.5048943140    -0.1151654600
| 28>  C        4.0565126564    -1.7431072813    -0.1689870200
| 29>  H        2.2129647097     2.0889265967    -0.0572369415
| 30>  H        3.8170113997     1.3054424825     0.0618003469
| 31>  H        2.7504741998     1.3759492498     1.4887799315
| 32>  H        2.1764478327    -0.1050540084    -0.9986800487
| 33>  H        1.2075569523    -0.0519666748     0.3131804882
| 34>  H        2.9126659369    -1.1501391878     1.6634780777
| 35>  H        2.6970852134    -3.3871688352     0.5071120201
| 36>  H        2.1765246207    -2.5552369094    -1.0234446424
| 37>  H        4.3247383652    -1.2830343627    -1.1140749495
| 38>  H        4.9019157005    -2.0879513179     0.4113343328
| 39> *
| 40>
| 41>                          ****END OF INPUT****
 Total Charge           Charge          ....    1
 Multiplicity           Mult            ....    1
 Number of Electrons    NEL             ....   40
FINAL SINGLE POINT ENERGY      -212.740191849933

CARTESIAN COORDINATES (ANGSTROEM)
---------------------------------
  C      1.410789    0.000101    1.537004
  N      0.000006   -0.000132    1.053883
  C     -0.160745   -0.483105   -0.333871
  C     -1.357374   -0.047160   -1.104719
  C     -0.001818    0.496093   -1.443589
  H      1.438162    0.377855    2.557605
  H      1.997866    0.635071    0.877542
  H      1.785998   -1.020582    1.503695
  H     -0.379395    0.946938    1.117879
  H     -0.574458   -0.573387    1.676711
  H      0.218358   -1.491990   -0.435971
  H     -1.814090   -0.779087   -1.757599
  H     -2.063175    0.626491   -0.631084
  H      0.196908    1.532823   -1.193456
  H      0.499478    0.152558   -2.338602

FINAL SINGLE POINT ENERGY      -212.740192667519
                    ***********************HURRAY********************
 Multiplicity           Mult            ....    1
 Number of Electrons    NEL             ....   40
 Basis Dimension        Dim             ....  215
FINAL SINGLE POINT ENERGY      -212.740192927841

VIBRATIONAL FREQUENCIES
-----------------------

   0:         0.00 cm**-1
   1:         0.00 cm**-1
   2:         0.00 cm**-1
   3:         0.00 cm**-1
   4:         0.00 cm**-1
   5:         0.00 cm**-1
   6:       102.84 cm**-1
   7:       209.98 cm**-1
   8:       241.60 cm**-1
   9:       365.26 cm**-1
  10:       447.78 cm**-1
  11:       746.92 cm**-1
  12:       792.13 cm**-1
  13:       841.69 cm**-1
  14:       848.87 cm**-1
  15:       949.51 cm**-1
  16:       984.32 cm**-1
  17:      1022.00 cm**-1
  18:      1071.56 cm**-1
  19:      1076.51 cm**-1
  20:      1103.68 cm**-1
  21:      1125.38 cm**-1
  22:      1185.82 cm**-1
  23:      1193.39 cm**-1
  24:      1238.90 cm**-1
  25:      1252.47 cm**-1
  26:      1349.54 cm**-1
  27:      1404.49 cm**-1
  28:      1437.46 cm**-1
  29:      1460.40 cm**-1
  30:      1463.80 cm**-1
  31:      1490.82 cm**-1
  32:      1495.81 cm**-1
  33:      1513.41 cm**-1
  34:      1649.16 cm**-1
  35:      3094.28 cm**-1
  36:      3154.40 cm**-1
  37:      3158.20 cm**-1
  38:      3194.88 cm**-1
  39:      3201.86 cm**-1
  40:      3210.50 cm**-1
  41:      3244.21 cm**-1
  42:      3255.13 cm**-1
  43:      3432.43 cm**-1
  44:      3482.03 cm**-1

IR SPECTRUM
-----------

 Mode    freq (cm**-1)   T**2         TX         TY         TZ
-------------------------------------------------------------------
   6:       102.84    2.272370  (  0.531495   1.390626  -0.236733)
   7:       209.98    0.246090  (  0.176801   0.344144   0.310477)
   8:       241.60    1.300403  (  0.198125   0.906568   0.662784)
   9:       365.26    5.758259  (  0.235259  -0.846434   2.233039)
  10:       447.78    3.182346  ( -1.519474  -0.914102  -0.194835)
  11:       746.92    1.342105  (  0.231089  -0.162256   1.123555)
  12:       792.13   14.500649  (  0.308593  -3.010639   2.311162)
  13:       841.69   12.762407  ( -3.266742  -1.392393  -0.389929)
  14:       848.87    4.978966  ( -1.093769   1.793181  -0.753085)
  15:       949.51    8.633884  ( -1.738569   1.810231  -1.527850)
  16:       984.32    6.621127  ( -0.952593  -1.166413   2.086426)
  17:      1022.00    1.651444  (  1.095547   0.217548  -0.635526)
  18:      1071.56    7.825234  (  0.953929   1.190699   2.344672)
  19:      1076.51   20.726162  (  1.937545  -2.101905   3.543173)
  20:      1103.68    7.401022  (  2.495712   1.044341   0.285997)
  21:      1125.38    2.341138  ( -1.163218  -0.613850  -0.781824)
  22:      1185.82    3.639755  (  1.087085   0.729423   1.387783)
  23:      1193.39    2.113414  ( -1.225281  -0.688941  -0.370757)
  24:      1238.90    0.565168  ( -0.042476  -0.747091   0.072240)
  25:      1252.47    2.308857  (  0.997686  -0.614022   0.967707)
  26:      1349.54    0.538970  ( -0.020700   0.716748   0.157525)
  27:      1404.49   27.912905  (  3.715618   1.769435   3.313033)
  28:      1437.46   10.943654  (  1.441360   0.451870   2.943119)
  29:      1460.40    7.699597  ( -2.399530  -0.946888  -1.022377)
  30:      1463.80   10.179273  (  2.668549   0.944199  -1.471941)
  31:      1490.82   21.891292  (  0.405814   4.580376  -0.864153)
  32:      1495.81   24.573191  ( -0.431052   1.137771   4.805503)
  33:      1513.41    9.002612  (  1.406241  -1.614089   2.102335)
  34:      1649.16   52.639893  ( -5.141819   3.098497   4.074420)
  35:      3094.28    0.040697  (  0.126744  -0.031703   0.153714)
  36:      3154.40    0.289852  (  0.098590   0.112499   0.517181)
  37:      3158.20    4.329688  (  0.404525   0.529793   1.971133)
  38:      3194.88    0.192874  (  0.360720  -0.239884  -0.072188)
  39:      3201.86    0.148952  (  0.093929   0.208801  -0.310695)
  40:      3210.50    0.684485  (  0.138227  -0.619668  -0.530462)
  41:      3244.21    0.226672  (  0.452467   0.127459  -0.075496)
  42:      3255.13    1.636661  (  0.147670  -0.925871  -0.870413)
  43:      3432.43   44.658213  ( -5.082799   0.316505   4.327030)
  44:      3482.03   68.328648  ( -0.668559  -7.935937   2.214176)

--------------------------
THERMOCHEMISTRY AT 298.15K
--------------------------

Temperature         ... 298.15 K
Pressure            ... 1.00 atm
Total Mass          ... 72.13 AMU

Throughout the following assumptions are being made:
  (1) The electronic state is orbitally nondegenerate
  (2) There are no thermally accessible electronically excited states
  (3) Hindered rotations indicated by low frequency modes) are not
      treated as such but are treated as vibrations and this may
      case some error
  (4) All equations used are the standard statistical mechanics
      equations for an ideal gas
  (5) All vibrations are strinctly harmonic

------------
INNER ENERGY
------------

The inner energy is: U= E(el) + E(ZPE) + E(vib) + E(rot) + E(trans)
    E(el)   - is the total energy from the electronic structure calculation
              = E(kin-el) + E(nuc-el) + E(el-el) + E(nuc-nuc)
    E(ZPE)  - the the zero temperature vibrational energy from the frequency calculation
    E(vib)  - the the finite temperature correction to E(ZPE) due to population
              of excietd vibrational states
    E(rot)  - is the rotational thermal energy
    E(trans)- is the translational thermal energy

Summary of contributions to the inner energy U:
Electronic energy                ...   -212.74019293 Eh
Zero point energy                ...      0.14237046 Eh      89.34 kcal/mol
Thermal vibrational correction   ...      0.00302657 Eh       1.90 kcal/mol
Thermal rotational correction    ...      0.00141627 Eh       0.89 kcal/mol
Thermal translational correction ...      0.00141627 Eh       0.89 kcal/mol
-----------------------------------------------------------------------
Total thermal energy                   -212.59196336 Eh

Summary of corrections to the electronic energy:
(perhaps to be used in another calculation)
Total thermal correction                  0.00585911 Eh       3.68 kcal/mol
Non-thermal (ZPE) correction              0.14237046 Eh      89.34 kcal/mol
-----------------------------------------------------------------------
Total correction                          0.14822957 Eh      93.02 kcal/mol

--------
ENTHALPY
--------

The enthalpy is H = U + kB*T
                kB is Boltzmann's constant
Total free energy                 ...   -212.59196336 Eh
Thermal Enthalpy correction       ...      0.00094421 Eh       0.59 kcal/mol
-----------------------------------------------------------------------
Total Enthalpy                    ...   -212.59101915 Eh

-------
ENTROPY
-------

The entropy contributions are T*S = T*(S(el)+S(vib)+S(rot)+S(trans)
     S(el)   - electronic entropy
     S(vib)  - vibrational entropy
     S(rot)  - rotational entropy
     S(trans)- translational entropy
The entropies will be listed as mutliplied by the temperature to get
units of energy

Electronic entropy                ...      0.00000000 Eh      0.00 kcal/mol
Vibrational entropy               ...      0.00512586 Eh      3.22 kcal/mol
Rotational entropy                ...      0.01106509 Eh      6.94 kcal/mol
Translational entropy             ...      0.01840857 Eh     11.55 kcal/mol
-----------------------------------------------------------------------
Final entropy term                ...      0.03459951 Eh     21.71 kcal/mol

CAUTION: The rotational entropy is not quite correctly treated here
         because it includes a symmetry number that is not yet correctly
         implemented in ORCA!
For a nonlinear molecule the correct rotational entropy is:
    S(rot) = R*(ln(qrot/sn)+1.5)
    R    = 8.31441 J/mol/K = 1.987191683e-3 kcal/mol/K
    qrot = 82277.8853038
    sn is the rotational symmetry number. We have assumed 3 here
       if it is different for your molecule then you should correct
       the printed rotational entropy by manually evaluating the equation
       as given above

For convenience we print out the resulting values for sn=1 - 12:
 sn= 1  qrot/sn=   82277.8853 T*S(rot)=     7.59 kcal/mol T*S(tot)=    22.36 kcal/mol
 sn= 2  qrot/sn=   41138.9427 T*S(rot)=     7.18 kcal/mol T*S(tot)=    21.95 kcal/mol
 sn= 3  qrot/sn=   27425.9618 T*S(rot)=     6.94 kcal/mol T*S(tot)=    21.71 kcal/mol
 sn= 4  qrot/sn=   20569.4713 T*S(rot)=     6.77 kcal/mol T*S(tot)=    21.54 kcal/mol
 sn= 5  qrot/sn=   16455.5771 T*S(rot)=     6.64 kcal/mol T*S(tot)=    21.41 kcal/mol
 sn= 6  qrot/sn=   13712.9809 T*S(rot)=     6.53 kcal/mol T*S(tot)=    21.30 kcal/mol
 sn= 7  qrot/sn=   11753.9836 T*S(rot)=     6.44 kcal/mol T*S(tot)=    21.21 kcal/mol
 sn= 8  qrot/sn=   10284.7357 T*S(rot)=     6.36 kcal/mol T*S(tot)=    21.13 kcal/mol
 sn= 9  qrot/sn=    9141.9873 T*S(rot)=     6.29 kcal/mol T*S(tot)=    21.06 kcal/mol
 sn=10  qrot/sn=    8227.7885 T*S(rot)=     6.23 kcal/mol T*S(tot)=    21.00 kcal/mol
 sn=11  qrot/sn=    7479.8078 T*S(rot)=     6.17 kcal/mol T*S(tot)=    20.94 kcal/mol
 sn=12  qrot/sn=    6856.4904 T*S(rot)=     6.12 kcal/mol T*S(tot)=    20.89 kcal/mol

-------------------
GIBBS FREE ENTHALPY
-------------------

The Gibbs free enthalpy is G = H - T*S

Total enthalpy                    ...   -212.59101915 Eh
Total entropy correction          ...     -0.03459951 Eh    -21.71 kcal/mol
-----------------------------------------------------------------------
Final Gibbs free enthalpy         ...   -212.62561866 Eh

For completeness - the Gibbs free enthalpy minus the electronic energy
G-E(el)                           ...      0.11457427 Eh     71.90 kcal/mol

                             ****ORCA TERMINATED NORMALLY****
TOTAL RUN TIME: 0 days 0 hours 15 minutes 16 seconds 231 msec
