                         Program Version 3.0.3 - RELEASE   -
|  1> ! NORI PBE0 def2-TZVP UseSym TightOPT Freq TightSCF Grid3 FinalGrid5 XYZFile
|  2> % pal
|  3>     nprocs 8
|  4> end
|  5> %method
|  6>     SymThresh 5.0e-2
|  7> end
|  8> % geom
|  9>     MaxIter 10
| 10> end
| 11> % maxcore 2000
| 12> % output
| 13>     printlevel mini
| 14>     print[ P_Basis ] 0
| 15>     print[ P_SCFInfo ] 1
| 16>     print[ P_SCFIterInfo ] 1
| 17>     print[ P_OrbEn ] 0
| 18>     print[ P_Cartesian ] 0
| 19> end
| 20> % elprop
| 21>     Dipole false
| 22> end
| 23> *xyz 1 1
| 24>  C        2.8327534566     1.3540990270    -0.4791323415
| 25>  N        2.5743231749    -0.0474116192    -0.0546975446
| 26>  C        3.1090687003    -0.4524298471     1.3089474538
| 27>  C        2.5395172566    -1.8141541369     1.6439945904
| 28>  C        4.6200928822    -0.4191329943     1.3042554727
| 29>  H        2.3305085431     1.5328037180    -1.4283292553
| 30>  H        3.9026291121     1.5031766740    -0.5958402444
| 31>  H        2.4401630627     2.0258095554     0.2819282127
| 32>  H        2.9602959029    -0.6910659918    -0.7497091189
| 33>  H        1.5661256210    -0.2131787992    -0.0534986391
| 34>  H        2.7114094995     0.3034092579     1.9917702438
| 35>  H        2.9019051186    -2.5818446846     0.9544268248
| 36>  H        1.4460497574    -1.8183056326     1.6386159918
| 37>  H        2.8587991026    -2.1002237928     2.6462534163
| 38>  H        5.0332080799    -1.1201904089     0.5731104166
| 39>  H        4.9785214941    -0.7279912941     2.2867470869
| 40>  H        5.0247192356     0.5753509693     1.1152674340
| 41> *
| 42>
| 43>                          ****END OF INPUT****
 Total Charge           Charge          ....    1
 Multiplicity           Mult            ....    1
 Number of Electrons    NEL             ....   42
FINAL SINGLE POINT ENERGY      -213.984022754922

CARTESIAN COORDINATES (ANGSTROEM)
---------------------------------
  C      1.396914    0.000318    1.485229
  N     -0.000436   -0.000369    0.977106
  C     -0.184182   -0.314915   -0.498111
  C     -1.665080   -0.498449   -0.751266
  C      0.438063    0.774156   -1.341869
  H      1.379841    0.157688    2.562363
  H      1.953420    0.800637    1.005659
  H      1.850407   -0.962267    1.256720
  H     -0.431256    0.908430    1.162868
  H     -0.547023   -0.680115    1.509044
  H      0.345207   -1.260764   -0.641906
  H     -2.219015    0.429846   -0.585111
  H     -2.097008   -1.286640   -0.128873
  H     -1.818454   -0.787432   -1.791276
  H     -0.034214    1.743278   -1.155353
  H      0.278513    0.533814   -2.393450
  H      1.514494    0.866115   -1.195146

FINAL SINGLE POINT ENERGY      -213.984023456004
                    ***********************HURRAY********************
 Multiplicity           Mult            ....    1
 Number of Electrons    NEL             ....   42
 Basis Dimension        Dim             ....  227
FINAL SINGLE POINT ENERGY      -213.984023716770

VIBRATIONAL FREQUENCIES
-----------------------

   0:         0.00 cm**-1
   1:         0.00 cm**-1
   2:         0.00 cm**-1
   3:         0.00 cm**-1
   4:         0.00 cm**-1
   5:         0.00 cm**-1
   6:        75.64 cm**-1
   7:       202.42 cm**-1
   8:       222.84 cm**-1
   9:       262.07 cm**-1
  10:       274.63 cm**-1
  11:       365.22 cm**-1
  12:       418.30 cm**-1
  13:       458.49 cm**-1
  14:       771.18 cm**-1
  15:       829.50 cm**-1
  16:       920.64 cm**-1
  17:       941.41 cm**-1
  18:       958.17 cm**-1
  19:      1031.75 cm**-1
  20:      1049.59 cm**-1
  21:      1094.62 cm**-1
  22:      1174.11 cm**-1
  23:      1212.86 cm**-1
  24:      1230.69 cm**-1
  25:      1344.19 cm**-1
  26:      1355.50 cm**-1
  27:      1405.31 cm**-1
  28:      1414.64 cm**-1
  29:      1420.92 cm**-1
  30:      1435.61 cm**-1
  31:      1457.26 cm**-1
  32:      1466.38 cm**-1
  33:      1481.33 cm**-1
  34:      1493.21 cm**-1
  35:      1498.38 cm**-1
  36:      1498.77 cm**-1
  37:      1505.35 cm**-1
  38:      1647.90 cm**-1
  39:      3052.32 cm**-1
  40:      3058.51 cm**-1
  41:      3089.77 cm**-1
  42:      3097.00 cm**-1
  43:      3128.43 cm**-1
  44:      3141.90 cm**-1
  45:      3153.81 cm**-1
  46:      3158.84 cm**-1
  47:      3190.64 cm**-1
  48:      3208.56 cm**-1
  49:      3436.15 cm**-1
  50:      3488.86 cm**-1

IR SPECTRUM
-----------

 Mode    freq (cm**-1)   T**2         TX         TY         TZ
-------------------------------------------------------------------
   6:        75.64    2.267746  ( -0.235054  -1.473333   0.204413)
   7:       202.42    0.228131  (  0.159833   0.390032   0.224633)
   8:       222.84    0.515077  ( -0.172946  -0.650152  -0.249940)
   9:       262.07    1.475927  (  0.203903  -1.181121   0.198249)
  10:       274.63    0.615648  ( -0.098497  -0.594587  -0.502407)
  11:       365.22    3.026701  (  0.749711   0.213525   1.555327)
  12:       418.30    2.681790  (  0.557082   1.252097  -0.896494)
  13:       458.49    2.331307  ( -1.051226   0.507620  -0.984151)
  14:       771.18    7.109527  ( -0.794077   1.290578  -2.193941)
  15:       829.50    8.683251  (  0.531535   2.735275  -0.958642)
  16:       920.64    2.876305  ( -0.439483  -0.033127   1.637700)
  17:       941.41    2.564564  (  1.322690   0.740645   0.516238)
  18:       958.17    0.985164  ( -0.240460   0.391393  -0.879861)
  19:      1031.75    7.377391  (  2.394885  -0.389389   1.220775)
  20:      1049.59   18.408849  (  1.509816   1.702159   3.637576)
  21:      1094.62   19.610952  (  1.250990   0.205753   4.243070)
  22:      1174.11   10.762669  (  1.193013   0.591305   2.998291)
  23:      1212.86    3.344488  (  1.669819   0.725897   0.171067)
  24:      1230.69    2.748754  (  0.428055   1.506279   0.544652)
  25:      1344.19    6.459533  ( -1.162374   0.285436  -2.242085)
  26:      1355.50    1.303029  ( -0.561532  -0.745107  -0.657667)
  27:      1405.31    4.077308  (  0.139003  -0.029234  -2.014232)
  28:      1414.64   62.480323  (  4.061352  -0.731451   6.741715)
  29:      1420.92   23.114056  (  4.296765   2.131881   0.327029)
  30:      1435.61    7.777442  ( -0.753954  -2.547709   0.847451)
  31:      1457.26    6.824260  (  2.080899   0.577103   1.470058)
  32:      1466.38    2.033392  ( -0.220484  -0.646030  -1.251968)
  33:      1481.33    2.497522  ( -0.946257   1.206245   0.383526)
  34:      1493.21   14.223658  ( -0.426280  -2.265056   2.985207)
  35:      1498.38   13.840330  (  0.270126   1.884806  -3.196071)
  36:      1498.77   46.202684  ( -0.883830   5.531039   3.850862)
  37:      1505.35    5.257116  ( -2.157101   0.396498  -0.668447)
  38:      1647.90   53.446735  ( -5.697788   1.491719   4.330903)
  39:      3052.32    3.531928  (  1.080469   0.019203  -1.537578)
  40:      3058.51    3.447594  ( -0.250207  -1.336032  -1.264915)
  41:      3089.77    1.109027  (  0.586366  -0.868279   0.106265)
  42:      3097.00    0.045050  ( -0.211465  -0.009086  -0.015807)
  43:      3128.43    6.854265  (  0.271282   2.432470  -0.929387)
  44:      3141.90    4.854601  (  1.610721  -1.481970   0.252866)
  45:      3153.81    2.808992  (  1.644245  -0.082473  -0.314082)
  46:      3158.84    1.883976  (  1.298927   0.366488   0.249900)
  47:      3190.64    0.090327  ( -0.207094   0.109607   0.188215)
  48:      3208.56    0.081444  ( -0.177087   0.085437  -0.206844)
  49:      3436.15   35.421175  ( -4.378495   1.715288   3.647978)
  50:      3488.86   59.848314  (  1.263808   7.351062  -2.052558)

--------------------------
THERMOCHEMISTRY AT 298.15K
--------------------------

Temperature         ... 298.15 K
Pressure            ... 1.00 atm
Total Mass          ... 74.15 AMU

Throughout the following assumptions are being made:
  (1) The electronic state is orbitally nondegenerate
  (2) There are no thermally accessible electronically excited states
  (3) Hindered rotations indicated by low frequency modes) are not
      treated as such but are treated as vibrations and this may
      case some error
  (4) All equations used are the standard statistical mechanics
      equations for an ideal gas
  (5) All vibrations are strinctly harmonic

------------
INNER ENERGY
------------

The inner energy is: U= E(el) + E(ZPE) + E(vib) + E(rot) + E(trans)
    E(el)   - is the total energy from the electronic structure calculation
              = E(kin-el) + E(nuc-el) + E(el-el) + E(nuc-nuc)
    E(ZPE)  - the the zero temperature vibrational energy from the frequency calculation
    E(vib)  - the the finite temperature correction to E(ZPE) due to population
              of excietd vibrational states
    E(rot)  - is the rotational thermal energy
    E(trans)- is the translational thermal energy

Summary of contributions to the inner energy U:
Electronic energy                ...   -213.98402372 Eh
Zero point energy                ...      0.16430987 Eh     103.11 kcal/mol
Thermal vibrational correction   ...      0.00420091 Eh       2.64 kcal/mol
Thermal rotational correction    ...      0.00141627 Eh       0.89 kcal/mol
Thermal translational correction ...      0.00141627 Eh       0.89 kcal/mol
-----------------------------------------------------------------------
Total thermal energy                   -213.81268040 Eh

Summary of corrections to the electronic energy:
(perhaps to be used in another calculation)
Total thermal correction                  0.00703345 Eh       4.41 kcal/mol
Non-thermal (ZPE) correction              0.16430987 Eh     103.11 kcal/mol
-----------------------------------------------------------------------
Total correction                          0.17134332 Eh     107.52 kcal/mol

--------
ENTHALPY
--------

The enthalpy is H = U + kB*T
                kB is Boltzmann's constant
Total free energy                 ...   -213.81268040 Eh
Thermal Enthalpy correction       ...      0.00094421 Eh       0.59 kcal/mol
-----------------------------------------------------------------------
Total Enthalpy                    ...   -213.81173619 Eh

-------
ENTROPY
-------

The entropy contributions are T*S = T*(S(el)+S(vib)+S(rot)+S(trans)
     S(el)   - electronic entropy
     S(vib)  - vibrational entropy
     S(rot)  - rotational entropy
     S(trans)- translational entropy
The entropies will be listed as mutliplied by the temperature to get
units of energy

Electronic entropy                ...      0.00000000 Eh      0.00 kcal/mol
Vibrational entropy               ...      0.00729547 Eh      4.58 kcal/mol
Rotational entropy                ...      0.01130847 Eh      7.10 kcal/mol
Translational entropy             ...      0.01844761 Eh     11.58 kcal/mol
-----------------------------------------------------------------------
Final entropy term                ...      0.03705154 Eh     23.25 kcal/mol

CAUTION: The rotational entropy is not quite correctly treated here
         because it includes a symmetry number that is not yet correctly
         implemented in ORCA!
For a nonlinear molecule the correct rotational entropy is:
    S(rot) = R*(ln(qrot/sn)+1.5)
    R    = 8.31441 J/mol/K = 1.987191683e-3 kcal/mol/K
    qrot = 106471.0504383
    sn is the rotational symmetry number. We have assumed 3 here
       if it is different for your molecule then you should correct
       the printed rotational entropy by manually evaluating the equation
       as given above

For convenience we print out the resulting values for sn=1 - 12:
 sn= 1  qrot/sn=  106471.0504 T*S(rot)=     7.75 kcal/mol T*S(tot)=    23.90 kcal/mol
 sn= 2  qrot/sn=   53235.5252 T*S(rot)=     7.34 kcal/mol T*S(tot)=    23.49 kcal/mol
 sn= 3  qrot/sn=   35490.3501 T*S(rot)=     7.10 kcal/mol T*S(tot)=    23.25 kcal/mol
 sn= 4  qrot/sn=   26617.7626 T*S(rot)=     6.93 kcal/mol T*S(tot)=    23.08 kcal/mol
 sn= 5  qrot/sn=   21294.2101 T*S(rot)=     6.79 kcal/mol T*S(tot)=    22.95 kcal/mol
 sn= 6  qrot/sn=   17745.1751 T*S(rot)=     6.69 kcal/mol T*S(tot)=    22.84 kcal/mol
 sn= 7  qrot/sn=   15210.1501 T*S(rot)=     6.59 kcal/mol T*S(tot)=    22.75 kcal/mol
 sn= 8  qrot/sn=   13308.8813 T*S(rot)=     6.52 kcal/mol T*S(tot)=    22.67 kcal/mol
 sn= 9  qrot/sn=   11830.1167 T*S(rot)=     6.45 kcal/mol T*S(tot)=    22.60 kcal/mol
 sn=10  qrot/sn=   10647.1050 T*S(rot)=     6.38 kcal/mol T*S(tot)=    22.54 kcal/mol
 sn=11  qrot/sn=    9679.1864 T*S(rot)=     6.33 kcal/mol T*S(tot)=    22.48 kcal/mol
 sn=12  qrot/sn=    8872.5875 T*S(rot)=     6.27 kcal/mol T*S(tot)=    22.43 kcal/mol

-------------------
GIBBS FREE ENTHALPY
-------------------

The Gibbs free enthalpy is G = H - T*S

Total enthalpy                    ...   -213.81173619 Eh
Total entropy correction          ...     -0.03705154 Eh    -23.25 kcal/mol
-----------------------------------------------------------------------
Final Gibbs free enthalpy         ...   -213.84878773 Eh

For completeness - the Gibbs free enthalpy minus the electronic energy
G-E(el)                           ...      0.13523598 Eh     84.86 kcal/mol

                             ****ORCA TERMINATED NORMALLY****
TOTAL RUN TIME: 0 days 0 hours 31 minutes 5 seconds 410 msec
