                         Program Version 3.0.3 - RELEASE   -
|  1> ! NORI PBE0 def2-TZVP UseSym TightOPT Freq TightSCF Grid3 FinalGrid5 XYZFile
|  2> % pal
|  3>     nprocs 8
|  4> end
|  5> %method
|  6>     SymThresh 5.0e-2
|  7> end
|  8> % geom
|  9>     MaxIter 10
| 10> end
| 11> % maxcore 2000
| 12> % output
| 13>     printlevel mini
| 14>     print[ P_Basis ] 0
| 15>     print[ P_SCFInfo ] 1
| 16>     print[ P_SCFIterInfo ] 1
| 17>     print[ P_OrbEn ] 0
| 18>     print[ P_Cartesian ] 0
| 19> end
| 20> % elprop
| 21>     Dipole false
| 22> end
| 23> *xyz 1 1
| 24>  C        1.4265973197    -0.5363539719     0.3275138007
| 25>  N        2.8485137271    -0.1044575566     0.2716425359
| 26>  C        3.1728342180     0.8501154793    -0.8541918181
| 27>  C        4.6104360227     1.2342362850    -0.8161115841
| 28>  C        5.4824184500     0.8391787298    -1.7333162179
| 29>  H        1.2927576963    -1.2202972428     1.1639352472
| 30>  H        1.1766526998    -1.0342770363    -0.6073438613
| 31>  H        0.7998610529     0.3432905841     0.4592194443
| 32>  H        3.1094458279     0.3355830861     1.1565442166
| 33>  H        3.4602453463    -0.9182903619     0.1789096718
| 34>  H        2.9109720100     0.3361551769    -1.7798178766
| 35>  H        2.5049930723     1.7045527821    -0.7242493590
| 36>  H        4.9242411735     1.8912815143    -0.0080734455
| 37>  H        5.1915275836     0.2108402162    -2.5698133695
| 38>  H        6.5195237999     1.1491923156    -1.6927873845
| 39> *
| 40>
| 41>                          ****END OF INPUT****
 Total Charge           Charge          ....    1
 Multiplicity           Mult            ....    1
 Number of Electrons    NEL             ....   40
FINAL SINGLE POINT ENERGY      -212.744259435494
FINAL SINGLE POINT ENERGY      -212.744260502290

CARTESIAN COORDINATES (ANGSTROEM)
---------------------------------
  C      1.103691   -0.000255    2.118979
  N     -0.000042   -0.002098    1.121870
  C      0.428013   -0.321074   -0.292141
  C     -0.745622   -0.310426   -1.207662
  C     -0.917304    0.614215   -2.141869
  H      0.698812    0.240977    3.100185
  H      1.838722    0.745553    1.823365
  H      1.560972   -0.987618    2.134540
  H     -0.717083   -0.673723    1.403894
  H     -0.465921    0.908038    1.110662
  H      1.168956    0.430218   -0.567559
  H      0.916302   -1.297114   -0.243758
  H     -1.460348   -1.123549   -1.103039
  H     -0.203085    1.417797   -2.293545
  H     -1.771755    0.588392   -2.807264

FINAL SINGLE POINT ENERGY      -212.744261409358
                    ***********************HURRAY********************
 Multiplicity           Mult            ....    1
 Number of Electrons    NEL             ....   40
 Basis Dimension        Dim             ....  215
FINAL SINGLE POINT ENERGY      -212.744261662360

VIBRATIONAL FREQUENCIES
-----------------------

   0:         0.00 cm**-1
   1:         0.00 cm**-1
   2:         0.00 cm**-1
   3:         0.00 cm**-1
   4:         0.00 cm**-1
   5:         0.00 cm**-1
   6:        90.11 cm**-1
   7:       104.05 cm**-1
   8:       226.67 cm**-1
   9:       250.15 cm**-1
  10:       388.09 cm**-1
  11:       437.25 cm**-1
  12:       650.79 cm**-1
  13:       800.09 cm**-1
  14:       902.65 cm**-1
  15:       936.89 cm**-1
  16:       968.37 cm**-1
  17:      1020.08 cm**-1
  18:      1025.01 cm**-1
  19:      1033.40 cm**-1
  20:      1074.32 cm**-1
  21:      1162.23 cm**-1
  22:      1212.62 cm**-1
  23:      1310.80 cm**-1
  24:      1327.35 cm**-1
  25:      1361.15 cm**-1
  26:      1395.00 cm**-1
  27:      1419.97 cm**-1
  28:      1454.53 cm**-1
  29:      1463.26 cm**-1
  30:      1485.02 cm**-1
  31:      1493.12 cm**-1
  32:      1498.34 cm**-1
  33:      1656.23 cm**-1
  34:      1723.36 cm**-1
  35:      3087.44 cm**-1
  36:      3092.88 cm**-1
  37:      3148.39 cm**-1
  38:      3160.58 cm**-1
  39:      3169.06 cm**-1
  40:      3193.32 cm**-1
  41:      3196.05 cm**-1
  42:      3257.15 cm**-1
  43:      3438.70 cm**-1
  44:      3488.09 cm**-1

IR SPECTRUM
-----------

 Mode    freq (cm**-1)   T**2         TX         TY         TZ
-------------------------------------------------------------------
   6:        90.11    1.523051  (  0.421345   1.157858   0.069883)
   7:       104.05    3.718480  ( -0.332406   1.615022  -0.999845)
   8:       226.67    1.722998  (  0.159211   1.086611  -0.718975)
   9:       250.15    1.829645  (  0.350913  -0.955869  -0.890404)
  10:       388.09    1.945560  ( -1.029280   0.108680  -0.935057)
  11:       437.25    1.021333  (  0.441193   0.164275  -0.894257)
  12:       650.79   16.321359  ( -1.669077   2.372228   2.812130)
  13:       800.09   12.422700  ( -0.737663  -3.348463   0.816303)
  14:       902.65   26.409567  (  0.687207  -0.768091  -5.034615)
  15:       936.89   16.006177  (  0.038825  -1.431310  -3.735776)
  16:       968.37    0.588740  ( -0.483797   0.428994   0.413093)
  17:      1020.08   57.469018  (  1.863073  -3.541094  -6.438838)
  18:      1025.01   19.880164  (  3.758136  -2.110931   1.140415)
  19:      1033.40    5.814575  (  1.163019  -1.604590  -1.373773)
  20:      1074.32    3.495210  ( -0.596986  -0.348163   1.737124)
  21:      1162.23    4.197298  ( -1.063081  -0.138701  -1.745829)
  22:      1212.62    1.570672  ( -0.668525   0.271740  -1.024648)
  23:      1310.80    3.006363  ( -0.173555   1.562163  -0.732045)
  24:      1327.35    4.043954  (  0.232163   1.521855  -1.293836)
  25:      1361.15    6.201011  (  0.377998   0.368028   2.433656)
  26:      1395.00    1.648274  ( -0.355673   0.543525  -1.107407)
  27:      1419.97   68.296041  ( -2.339322  -0.093112  -7.925588)
  28:      1454.53    6.630988  ( -0.009389   1.853057  -1.788038)
  29:      1463.26   24.051210  ( -1.810036   2.090410  -4.050329)
  30:      1485.02    9.656631  ( -1.654694  -1.599897  -2.087810)
  31:      1493.12   22.675543  (  0.808506   4.566812  -1.079856)
  32:      1498.34   29.382429  (  3.648203  -0.749931  -3.938356)
  33:      1656.23   45.524711  ( -6.489751   1.488755   1.091534)
  34:      1723.36    1.735349  ( -0.303770  -0.393048  -1.220076)
  35:      3087.44    2.662684  (  1.230558  -0.179387   1.056519)
  36:      3092.88    0.164490  ( -0.392091   0.054140  -0.088454)
  37:      3148.39    0.024884  (  0.071493  -0.099204   0.099657)
  38:      3160.58    1.584521  ( -1.099459  -0.434605  -0.432237)
  39:      3169.06    0.376402  (  0.270510   0.407575  -0.370282)
  40:      3193.32    0.223312  ( -0.399317   0.145319   0.206736)
  41:      3196.05    0.051484  (  0.055587   0.195356  -0.101144)
  42:      3257.15    0.334427  (  0.242187  -0.237868   0.468179)
  43:      3438.70   42.900469  ( -6.027481   1.439573   2.120746)
  44:      3488.09   72.615000  (  1.528946   8.195567  -1.763520)

--------------------------
THERMOCHEMISTRY AT 298.15K
--------------------------

Temperature         ... 298.15 K
Pressure            ... 1.00 atm
Total Mass          ... 72.13 AMU

Throughout the following assumptions are being made:
  (1) The electronic state is orbitally nondegenerate
  (2) There are no thermally accessible electronically excited states
  (3) Hindered rotations indicated by low frequency modes) are not
      treated as such but are treated as vibrations and this may
      case some error
  (4) All equations used are the standard statistical mechanics
      equations for an ideal gas
  (5) All vibrations are strinctly harmonic

------------
INNER ENERGY
------------

The inner energy is: U= E(el) + E(ZPE) + E(vib) + E(rot) + E(trans)
    E(el)   - is the total energy from the electronic structure calculation
              = E(kin-el) + E(nuc-el) + E(el-el) + E(nuc-nuc)
    E(ZPE)  - the the zero temperature vibrational energy from the frequency calculation
    E(vib)  - the the finite temperature correction to E(ZPE) due to population
              of excietd vibrational states
    E(rot)  - is the rotational thermal energy
    E(trans)- is the translational thermal energy

Summary of contributions to the inner energy U:
Electronic energy                ...   -212.74426166 Eh
Zero point energy                ...      0.14147995 Eh      88.78 kcal/mol
Thermal vibrational correction   ...      0.00367582 Eh       2.31 kcal/mol
Thermal rotational correction    ...      0.00141627 Eh       0.89 kcal/mol
Thermal translational correction ...      0.00141627 Eh       0.89 kcal/mol
-----------------------------------------------------------------------
Total thermal energy                   -212.59627335 Eh

Summary of corrections to the electronic energy:
(perhaps to be used in another calculation)
Total thermal correction                  0.00650836 Eh       4.08 kcal/mol
Non-thermal (ZPE) correction              0.14147995 Eh      88.78 kcal/mol
-----------------------------------------------------------------------
Total correction                          0.14798831 Eh      92.86 kcal/mol

--------
ENTHALPY
--------

The enthalpy is H = U + kB*T
                kB is Boltzmann's constant
Total free energy                 ...   -212.59627335 Eh
Thermal Enthalpy correction       ...      0.00094421 Eh       0.59 kcal/mol
-----------------------------------------------------------------------
Total Enthalpy                    ...   -212.59532914 Eh

-------
ENTROPY
-------

The entropy contributions are T*S = T*(S(el)+S(vib)+S(rot)+S(trans)
     S(el)   - electronic entropy
     S(vib)  - vibrational entropy
     S(rot)  - rotational entropy
     S(trans)- translational entropy
The entropies will be listed as mutliplied by the temperature to get
units of energy

Electronic entropy                ...      0.00000000 Eh      0.00 kcal/mol
Vibrational entropy               ...      0.00667364 Eh      4.19 kcal/mol
Rotational entropy                ...      0.01119735 Eh      7.03 kcal/mol
Translational entropy             ...      0.01840857 Eh     11.55 kcal/mol
-----------------------------------------------------------------------
Final entropy term                ...      0.03627956 Eh     22.77 kcal/mol

CAUTION: The rotational entropy is not quite correctly treated here
         because it includes a symmetry number that is not yet correctly
         implemented in ORCA!
For a nonlinear molecule the correct rotational entropy is:
    S(rot) = R*(ln(qrot/sn)+1.5)
    R    = 8.31441 J/mol/K = 1.987191683e-3 kcal/mol/K
    qrot = 94649.8053471
    sn is the rotational symmetry number. We have assumed 3 here
       if it is different for your molecule then you should correct
       the printed rotational entropy by manually evaluating the equation
       as given above

For convenience we print out the resulting values for sn=1 - 12:
 sn= 1  qrot/sn=   94649.8053 T*S(rot)=     7.68 kcal/mol T*S(tot)=    23.42 kcal/mol
 sn= 2  qrot/sn=   47324.9027 T*S(rot)=     7.27 kcal/mol T*S(tot)=    23.01 kcal/mol
 sn= 3  qrot/sn=   31549.9351 T*S(rot)=     7.03 kcal/mol T*S(tot)=    22.77 kcal/mol
 sn= 4  qrot/sn=   23662.4513 T*S(rot)=     6.86 kcal/mol T*S(tot)=    22.60 kcal/mol
 sn= 5  qrot/sn=   18929.9611 T*S(rot)=     6.72 kcal/mol T*S(tot)=    22.46 kcal/mol
 sn= 6  qrot/sn=   15774.9676 T*S(rot)=     6.62 kcal/mol T*S(tot)=    22.36 kcal/mol
 sn= 7  qrot/sn=   13521.4008 T*S(rot)=     6.52 kcal/mol T*S(tot)=    22.26 kcal/mol
 sn= 8  qrot/sn=   11831.2257 T*S(rot)=     6.45 kcal/mol T*S(tot)=    22.18 kcal/mol
 sn= 9  qrot/sn=   10516.6450 T*S(rot)=     6.38 kcal/mol T*S(tot)=    22.11 kcal/mol
 sn=10  qrot/sn=    9464.9805 T*S(rot)=     6.31 kcal/mol T*S(tot)=    22.05 kcal/mol
 sn=11  qrot/sn=    8604.5278 T*S(rot)=     6.26 kcal/mol T*S(tot)=    22.00 kcal/mol
 sn=12  qrot/sn=    7887.4838 T*S(rot)=     6.21 kcal/mol T*S(tot)=    21.94 kcal/mol

-------------------
GIBBS FREE ENTHALPY
-------------------

The Gibbs free enthalpy is G = H - T*S

Total enthalpy                    ...   -212.59532914 Eh
Total entropy correction          ...     -0.03627956 Eh    -22.77 kcal/mol
-----------------------------------------------------------------------
Final Gibbs free enthalpy         ...   -212.63160870 Eh

For completeness - the Gibbs free enthalpy minus the electronic energy
G-E(el)                           ...      0.11265296 Eh     70.69 kcal/mol

                             ****ORCA TERMINATED NORMALLY****
TOTAL RUN TIME: 0 days 0 hours 28 minutes 1 seconds 87 msec
