                         Program Version 3.0.3 - RELEASE   -
|  1> ! NORI PBE0 def2-TZVP UseSym TightOPT Freq TightSCF Grid3 FinalGrid5 XYZFile
|  2> % pal
|  3>     nprocs 8
|  4> end
|  5> %method
|  6>     SymThresh 5.0e-2
|  7> end
|  8> % geom
|  9>     MaxIter 10
| 10> end
| 11> % maxcore 2000
| 12> % output
| 13>     printlevel mini
| 14>     print[ P_Basis ] 0
| 15>     print[ P_SCFInfo ] 1
| 16>     print[ P_SCFIterInfo ] 1
| 17>     print[ P_OrbEn ] 0
| 18>     print[ P_Cartesian ] 0
| 19> end
| 20> % elprop
| 21>     Dipole false
| 22> end
| 23> *xyz 1 1
| 24>  C        0.9434212208     0.1371784109    -0.0186056620
| 25>  N        2.4281254022     0.0580424959    -0.0704976347
| 26>  C        2.9618611463    -1.2165465260    -0.6748455578
| 27>  C        4.4045200289    -1.1916473656    -0.6831350413
| 28>  C        5.6016835566    -1.1533876583    -0.6819105361
| 29>  H        0.6554323176     1.0870958777     0.4278967421
| 30>  H        0.5699925357    -0.6882952313     0.5842809951
| 31>  H        0.5541895122     0.0675845768    -1.0324490710
| 32>  H        2.8054580207     0.8441095422    -0.6049980117
| 33>  H        2.8205401901     0.1514569464     0.8692976417
| 34>  H        2.5681001009    -2.0419796447    -0.0770371193
| 35>  H        2.5459567987    -1.2901238986    -1.6823083977
| 36>  H        6.6698091692    -1.1333375253    -0.6888383473
| 37> *
| 38>
| 39>                          ****END OF INPUT****
 Total Charge           Charge          ....    1
 Multiplicity           Mult            ....    1
 Number of Electrons    NEL             ....   38
FINAL SINGLE POINT ENERGY      -211.484732488103

CARTESIAN COORDINATES (ANGSTROEM)
---------------------------------
  C      2.130106    1.010417    0.000000
  N      1.037933   -0.000023   -0.000000
  C     -0.351572    0.586555   -0.000000
  C     -1.333011   -0.471147    0.000000
  C     -2.133479   -1.362248    0.000000
  H      3.088553    0.494678    0.000000
  H      2.036505    1.626240    0.892426
  H      2.036505    1.626240   -0.892425
  H      1.122999   -0.612744   -0.814590
  H      1.122999   -0.612744    0.814590
  H     -0.429829    1.220533    0.886474
  H     -0.429829    1.220533   -0.886474
  H     -2.859110   -2.146107    0.000000

FINAL SINGLE POINT ENERGY      -211.484732606628
                    ***********************HURRAY********************
 Multiplicity           Mult            ....    1
 Number of Electrons    NEL             ....   38
 Basis Dimension        Dim             ....  203
FINAL SINGLE POINT ENERGY      -211.484732645842

VIBRATIONAL FREQUENCIES
-----------------------

   0:         0.00 cm**-1
   1:         0.00 cm**-1
   2:         0.00 cm**-1
   3:         0.00 cm**-1
   4:         0.00 cm**-1
   5:         0.00 cm**-1
   6:        88.71 cm**-1
   7:       152.56 cm**-1
   8:       223.45 cm**-1
   9:       329.38 cm**-1
  10:       342.42 cm**-1
  11:       506.91 cm**-1
  12:       729.70 cm**-1
  13:       779.49 cm**-1
  14:       803.80 cm**-1
  15:       907.30 cm**-1
  16:       962.17 cm**-1
  17:       996.45 cm**-1
  18:      1032.28 cm**-1
  19:      1143.75 cm**-1
  20:      1168.33 cm**-1
  21:      1303.95 cm**-1
  22:      1364.47 cm**-1
  23:      1391.85 cm**-1
  24:      1428.49 cm**-1
  25:      1459.56 cm**-1
  26:      1475.44 cm**-1
  27:      1492.30 cm**-1
  28:      1496.19 cm**-1
  29:      1656.90 cm**-1
  30:      2259.46 cm**-1
  31:      3081.25 cm**-1
  32:      3092.67 cm**-1
  33:      3131.93 cm**-1
  34:      3194.72 cm**-1
  35:      3195.38 cm**-1
  36:      3435.85 cm**-1
  37:      3452.18 cm**-1
  38:      3482.82 cm**-1

IR SPECTRUM
-----------

 Mode    freq (cm**-1)   T**2         TX         TY         TZ
-------------------------------------------------------------------
   6:        88.71    2.245200  (  0.000050   0.000037  -1.498399)
   7:       152.56    1.383769  ( -0.533232  -1.048539  -0.000043)
   8:       223.45    0.683523  ( -0.000016  -0.000069  -0.826755)
   9:       329.38   20.492069  ( -0.000662  -0.000162   4.526817)
  10:       342.42    6.633674  (  1.400899  -2.161286   0.000785)
  11:       506.91   24.915859  ( -4.710057   1.652641   0.000008)
  12:       729.70   40.879999  ( -0.000021  -0.000035   6.393747)
  13:       779.49   28.710520  (  3.452005  -4.098070  -0.000001)
  14:       803.80   12.672233  ( -0.000094  -0.000120  -3.559808)
  15:       907.30   33.897560  ( -5.690003   1.233461   0.000021)
  16:       962.17    3.623888  ( -0.000220  -0.000231   1.903651)
  17:       996.45    0.094276  ( -0.046027   0.303574  -0.000017)
  18:      1032.28   21.663655  ( -3.894904  -2.548211   0.000005)
  19:      1143.75    0.028350  ( -0.000253  -0.000231   0.168376)
  20:      1168.33    5.147580  ( -2.167459  -0.670599  -0.000010)
  21:      1303.95    2.240625  (  0.000006  -0.000029  -1.496872)
  22:      1364.47    3.618647  ( -1.109565   1.545158   0.000048)
  23:      1391.85    0.529577  (  0.000133   0.000100  -0.727720)
  24:      1428.49   86.629947  (  8.599615   3.560418   0.000070)
  25:      1459.56    8.044919  (  2.347944   1.591250   0.000046)
  26:      1475.44   11.575288  (  2.310094   2.497750  -0.000168)
  27:      1492.30   23.937533  ( -0.000275   0.000202  -4.892600)
  28:      1496.19   32.262172  ( -4.524415   3.433925   0.000317)
  29:      1656.90   46.003323  (  0.806208  -6.734490   0.000030)
  30:      2259.46   37.119315  (  4.895205   3.627159   0.000004)
  31:      3081.25    2.370346  ( -1.486383  -0.401264  -0.000001)
  32:      3092.67    0.136637  ( -0.364485   0.061546   0.000012)
  33:      3131.93    1.591197  (  0.000079   0.000097   1.261426)
  34:      3194.72    0.652316  ( -0.540252   0.600370   0.000033)
  35:      3195.38    0.152064  (  0.000066  -0.000037   0.389954)
  36:      3435.85   46.925509  ( -2.271129   6.462777  -0.000120)
  37:      3452.18   98.574156  (  6.675981   7.348839  -0.000007)
  38:      3482.82   86.921621  (  0.000021  -0.000092  -9.323177)

--------------------------
THERMOCHEMISTRY AT 298.15K
--------------------------

Temperature         ... 298.15 K
Pressure            ... 1.00 atm
Total Mass          ... 70.11 AMU

Throughout the following assumptions are being made:
  (1) The electronic state is orbitally nondegenerate
  (2) There are no thermally accessible electronically excited states
  (3) Hindered rotations indicated by low frequency modes) are not
      treated as such but are treated as vibrations and this may
      case some error
  (4) All equations used are the standard statistical mechanics
      equations for an ideal gas
  (5) All vibrations are strinctly harmonic

------------
INNER ENERGY
------------

The inner energy is: U= E(el) + E(ZPE) + E(vib) + E(rot) + E(trans)
    E(el)   - is the total energy from the electronic structure calculation
              = E(kin-el) + E(nuc-el) + E(el-el) + E(nuc-nuc)
    E(ZPE)  - the the zero temperature vibrational energy from the frequency calculation
    E(vib)  - the the finite temperature correction to E(ZPE) due to population
              of excietd vibrational states
    E(rot)  - is the rotational thermal energy
    E(trans)- is the translational thermal energy

Summary of contributions to the inner energy U:
Electronic energy                ...   -211.48473265 Eh
Zero point energy                ...      0.11746717 Eh      73.71 kcal/mol
Thermal vibrational correction   ...      0.00342001 Eh       2.15 kcal/mol
Thermal rotational correction    ...      0.00141627 Eh       0.89 kcal/mol
Thermal translational correction ...      0.00141627 Eh       0.89 kcal/mol
-----------------------------------------------------------------------
Total thermal energy                   -211.36101292 Eh

Summary of corrections to the electronic energy:
(perhaps to be used in another calculation)
Total thermal correction                  0.00625255 Eh       3.92 kcal/mol
Non-thermal (ZPE) correction              0.11746717 Eh      73.71 kcal/mol
-----------------------------------------------------------------------
Total correction                          0.12371972 Eh      77.64 kcal/mol

--------
ENTHALPY
--------

The enthalpy is H = U + kB*T
                kB is Boltzmann's constant
Total free energy                 ...   -211.36101292 Eh
Thermal Enthalpy correction       ...      0.00094421 Eh       0.59 kcal/mol
-----------------------------------------------------------------------
Total Enthalpy                    ...   -211.36006871 Eh

-------
ENTROPY
-------

The entropy contributions are T*S = T*(S(el)+S(vib)+S(rot)+S(trans)
     S(el)   - electronic entropy
     S(vib)  - vibrational entropy
     S(rot)  - rotational entropy
     S(trans)- translational entropy
The entropies will be listed as mutliplied by the temperature to get
units of energy

Electronic entropy                ...      0.00000000 Eh      0.00 kcal/mol
Vibrational entropy               ...      0.00604703 Eh      3.79 kcal/mol
Rotational entropy                ...      0.01104187 Eh      6.93 kcal/mol
Translational entropy             ...      0.01836842 Eh     11.53 kcal/mol
-----------------------------------------------------------------------
Final entropy term                ...      0.03545731 Eh     22.25 kcal/mol

CAUTION: The rotational entropy is not quite correctly treated here
         because it includes a symmetry number that is not yet correctly
         implemented in ORCA!
For a nonlinear molecule the correct rotational entropy is:
    S(rot) = R*(ln(qrot/sn)+1.5)
    R    = 8.31441 J/mol/K = 1.987191683e-3 kcal/mol/K
    qrot = 80279.2567775
    sn is the rotational symmetry number. We have assumed 3 here
       if it is different for your molecule then you should correct
       the printed rotational entropy by manually evaluating the equation
       as given above

For convenience we print out the resulting values for sn=1 - 12:
 sn= 1  qrot/sn=   80279.2568 T*S(rot)=     7.58 kcal/mol T*S(tot)=    22.90 kcal/mol
 sn= 2  qrot/sn=   40139.6284 T*S(rot)=     7.17 kcal/mol T*S(tot)=    22.49 kcal/mol
 sn= 3  qrot/sn=   26759.7523 T*S(rot)=     6.93 kcal/mol T*S(tot)=    22.25 kcal/mol
 sn= 4  qrot/sn=   20069.8142 T*S(rot)=     6.76 kcal/mol T*S(tot)=    22.08 kcal/mol
 sn= 5  qrot/sn=   16055.8514 T*S(rot)=     6.63 kcal/mol T*S(tot)=    21.95 kcal/mol
 sn= 6  qrot/sn=   13379.8761 T*S(rot)=     6.52 kcal/mol T*S(tot)=    21.84 kcal/mol
 sn= 7  qrot/sn=   11468.4653 T*S(rot)=     6.43 kcal/mol T*S(tot)=    21.75 kcal/mol
 sn= 8  qrot/sn=   10034.9071 T*S(rot)=     6.35 kcal/mol T*S(tot)=    21.67 kcal/mol
 sn= 9  qrot/sn=    8919.9174 T*S(rot)=     6.28 kcal/mol T*S(tot)=    21.60 kcal/mol
 sn=10  qrot/sn=    8027.9257 T*S(rot)=     6.22 kcal/mol T*S(tot)=    21.54 kcal/mol
 sn=11  qrot/sn=    7298.1143 T*S(rot)=     6.16 kcal/mol T*S(tot)=    21.48 kcal/mol
 sn=12  qrot/sn=    6689.9381 T*S(rot)=     6.11 kcal/mol T*S(tot)=    21.43 kcal/mol

-------------------
GIBBS FREE ENTHALPY
-------------------

The Gibbs free enthalpy is G = H - T*S

Total enthalpy                    ...   -211.36006871 Eh
Total entropy correction          ...     -0.03545731 Eh    -22.25 kcal/mol
-----------------------------------------------------------------------
Final Gibbs free enthalpy         ...   -211.39552603 Eh

For completeness - the Gibbs free enthalpy minus the electronic energy
G-E(el)                           ...      0.08920662 Eh     55.98 kcal/mol

                             ****ORCA TERMINATED NORMALLY****
TOTAL RUN TIME: 0 days 0 hours 9 minutes 23 seconds 812 msec
