                         Program Version 3.0.3 - RELEASE   -
|  1> ! NORI PBE0 def2-TZVP UseSym TightOPT Freq TightSCF Grid3 FinalGrid5 XYZFile
|  2> % pal
|  3>     nprocs 8
|  4> end
|  5> %method
|  6>     SymThresh 5.0e-2
|  7> end
|  8> % geom
|  9>     MaxIter 10
| 10> end
| 11> % maxcore 2000
| 12> % output
| 13>     printlevel mini
| 14>     print[ P_Basis ] 0
| 15>     print[ P_SCFInfo ] 1
| 16>     print[ P_SCFIterInfo ] 1
| 17>     print[ P_OrbEn ] 0
| 18>     print[ P_Cartesian ] 0
| 19> end
| 20> % elprop
| 21>     Dipole false
| 22> end
| 23> *xyz 1 1
| 24>  C        0.8900491159     0.0833909254     0.0980750088
| 25>  N        2.3793732692    -0.0132966074     0.1034426093
| 26>  C        2.9177293602    -1.0118499420     1.0853290622
| 27>  C        4.3665124662    -1.0322067893     1.0146662670
| 28>  N        5.5103928742    -1.0097895590     0.9208207728
| 29>  H        0.5946635383     0.8293666866    -0.6373509624
| 30>  H        0.5562279413     0.3804760818     1.0902529902
| 31>  H        0.4783406379    -0.8887302107    -0.1659646863
| 32>  H        2.7860363817     0.9033865235     0.3108117614
| 33>  H        2.7147603209    -0.2591929760    -0.8322724613
| 34>  H        2.4992564384    -1.9898161090     0.8381132026
| 35>  H        2.5776376559    -0.7240380238     2.0822564357
| 36> *
| 37>
| 38>                          ****END OF INPUT****
 Total Charge           Charge          ....    1
 Multiplicity           Mult            ....    1
 Number of Electrons    NEL             ....   38
FINAL SINGLE POINT ENERGY      -227.554865787654

CARTESIAN COORDINATES (ANGSTROEM)
---------------------------------
  C      2.136716    1.014044    0.000000
  N      1.041841   -0.000380    0.000000
  C     -0.335284    0.595881   -0.000000
  C     -1.325343   -0.464481    0.000000
  N     -2.068255   -1.339598    0.000000
  H      3.091847    0.492134   -0.000000
  H      2.043442    1.627934    0.893874
  H      2.043442    1.627934   -0.893874
  H      1.135087   -0.611984    0.815994
  H      1.135088   -0.611984   -0.815994
  H     -0.432705    1.223554   -0.888309
  H     -0.432705    1.223554    0.888309

FINAL SINGLE POINT ENERGY      -227.554865988077
                    ***********************HURRAY********************
 Multiplicity           Mult            ....    1
 Number of Electrons    NEL             ....   38
 Basis Dimension        Dim             ....  197
FINAL SINGLE POINT ENERGY      -227.554866036296

VIBRATIONAL FREQUENCIES
-----------------------

   0:         0.00 cm**-1
   1:         0.00 cm**-1
   2:         0.00 cm**-1
   3:         0.00 cm**-1
   4:         0.00 cm**-1
   5:         0.00 cm**-1
   6:        88.74 cm**-1
   7:       157.54 cm**-1
   8:       227.92 cm**-1
   9:       347.00 cm**-1
  10:       363.66 cm**-1
  11:       537.85 cm**-1
  12:       806.63 cm**-1
  13:       921.93 cm**-1
  14:       964.28 cm**-1
  15:       974.04 cm**-1
  16:      1033.05 cm**-1
  17:      1152.59 cm**-1
  18:      1172.64 cm**-1
  19:      1304.64 cm**-1
  20:      1368.58 cm**-1
  21:      1401.39 cm**-1
  22:      1438.57 cm**-1
  23:      1460.51 cm**-1
  24:      1470.64 cm**-1
  25:      1491.50 cm**-1
  26:      1494.83 cm**-1
  27:      1656.89 cm**-1
  28:      2403.03 cm**-1
  29:      3091.56 cm**-1
  30:      3093.88 cm**-1
  31:      3148.50 cm**-1
  32:      3196.30 cm**-1
  33:      3196.73 cm**-1
  34:      3425.01 cm**-1
  35:      3470.06 cm**-1

IR SPECTRUM
-----------

 Mode    freq (cm**-1)   T**2         TX         TY         TZ
-------------------------------------------------------------------
   6:        88.74   13.462839  (  0.000140   0.000044  -3.669174)
   7:       157.54   15.322829  (  3.682942  -1.326185   0.000077)
   8:       227.92    1.076239  ( -0.000005  -0.000026  -1.037419)
   9:       347.00    2.124114  ( -0.417668  -1.396305  -0.000004)
  10:       363.66    0.192024  (  0.000115   0.000142  -0.438205)
  11:       537.85    6.257804  (  2.458277   0.463333   0.000007)
  12:       806.63   16.401246  ( -0.000039  -0.000048  -4.049845)
  13:       921.93   16.974872  (  3.752230  -1.701660   0.000000)
  14:       964.28    1.372809  ( -0.000100  -0.000119   1.171669)
  15:       974.04    0.108707  ( -0.244596  -0.221086  -0.000021)
  16:      1033.05   23.143427  ( -4.305805  -2.145569   0.000002)
  17:      1152.59    0.006968  (  0.000095   0.000099   0.083477)
  18:      1172.64    6.041631  ( -2.356353  -0.699450  -0.000000)
  19:      1304.64    2.045879  (  0.000008   0.000007  -1.430342)
  20:      1368.58    3.416244  (  1.723863  -0.666738  -0.000000)
  21:      1401.39    0.766064  ( -0.000052  -0.000038   0.875251)
  22:      1438.57   52.872095  (  6.659056   2.920458   0.000006)
  23:      1460.51    4.392991  (  1.954999   0.755626   0.000003)
  24:      1470.64   21.839375  ( -2.782460  -3.754636   0.000003)
  25:      1491.50   25.064268  ( -0.000007  -0.000001  -5.006423)
  26:      1494.83   35.941821  (  4.996625  -3.312939  -0.000004)
  27:      1656.89   51.120676  (  1.109672  -7.063236   0.000000)
  28:      2403.03   10.114903  (  2.579946   1.859780   0.000001)
  29:      3091.56    1.782719  ( -1.251560   0.465099   0.000002)
  30:      3093.88    2.282439  (  0.456367  -1.440197  -0.000005)
  31:      3148.50    7.248498  (  0.000051   0.000059   2.692303)
  32:      3196.30    1.774652  ( -0.973988   0.908845  -0.000000)
  33:      3196.73    0.558945  ( -0.000000  -0.000003  -0.747626)
  34:      3425.01   64.148350  ( -2.229401   7.692732   0.000000)
  35:      3470.06  102.991291  (  0.000001   0.000002  10.148462)

--------------------------
THERMOCHEMISTRY AT 298.15K
--------------------------

Temperature         ... 298.15 K
Pressure            ... 1.00 atm
Total Mass          ... 71.10 AMU

Throughout the following assumptions are being made:
  (1) The electronic state is orbitally nondegenerate
  (2) There are no thermally accessible electronically excited states
  (3) Hindered rotations indicated by low frequency modes) are not
      treated as such but are treated as vibrations and this may
      case some error
  (4) All equations used are the standard statistical mechanics
      equations for an ideal gas
  (5) All vibrations are strinctly harmonic

------------
INNER ENERGY
------------

The inner energy is: U= E(el) + E(ZPE) + E(vib) + E(rot) + E(trans)
    E(el)   - is the total energy from the electronic structure calculation
              = E(kin-el) + E(nuc-el) + E(el-el) + E(nuc-nuc)
    E(ZPE)  - the the zero temperature vibrational energy from the frequency calculation
    E(vib)  - the the finite temperature correction to E(ZPE) due to population
              of excietd vibrational states
    E(rot)  - is the rotational thermal energy
    E(trans)- is the translational thermal energy

Summary of contributions to the inner energy U:
Electronic energy                ...   -227.55486604 Eh
Zero point energy                ...      0.10675603 Eh      66.99 kcal/mol
Thermal vibrational correction   ...      0.00315163 Eh       1.98 kcal/mol
Thermal rotational correction    ...      0.00141627 Eh       0.89 kcal/mol
Thermal translational correction ...      0.00141627 Eh       0.89 kcal/mol
-----------------------------------------------------------------------
Total thermal energy                   -227.44212584 Eh

Summary of corrections to the electronic energy:
(perhaps to be used in another calculation)
Total thermal correction                  0.00598417 Eh       3.76 kcal/mol
Non-thermal (ZPE) correction              0.10675603 Eh      66.99 kcal/mol
-----------------------------------------------------------------------
Total correction                          0.11274020 Eh      70.75 kcal/mol

--------
ENTHALPY
--------

The enthalpy is H = U + kB*T
                kB is Boltzmann's constant
Total free energy                 ...   -227.44212584 Eh
Thermal Enthalpy correction       ...      0.00094421 Eh       0.59 kcal/mol
-----------------------------------------------------------------------
Total Enthalpy                    ...   -227.44118163 Eh

-------
ENTROPY
-------

The entropy contributions are T*S = T*(S(el)+S(vib)+S(rot)+S(trans)
     S(el)   - electronic entropy
     S(vib)  - vibrational entropy
     S(rot)  - rotational entropy
     S(trans)- translational entropy
The entropies will be listed as mutliplied by the temperature to get
units of energy

Electronic entropy                ...      0.00000000 Eh      0.00 kcal/mol
Vibrational entropy               ...      0.00564308 Eh      3.54 kcal/mol
Rotational entropy                ...      0.01102110 Eh      6.92 kcal/mol
Translational entropy             ...      0.01838824 Eh     11.54 kcal/mol
-----------------------------------------------------------------------
Final entropy term                ...      0.03505241 Eh     22.00 kcal/mol

CAUTION: The rotational entropy is not quite correctly treated here
         because it includes a symmetry number that is not yet correctly
         implemented in ORCA!
For a nonlinear molecule the correct rotational entropy is:
    S(rot) = R*(ln(qrot/sn)+1.5)
    R    = 8.31441 J/mol/K = 1.987191683e-3 kcal/mol/K
    qrot = 78532.2177024
    sn is the rotational symmetry number. We have assumed 3 here
       if it is different for your molecule then you should correct
       the printed rotational entropy by manually evaluating the equation
       as given above

For convenience we print out the resulting values for sn=1 - 12:
 sn= 1  qrot/sn=   78532.2177 T*S(rot)=     7.57 kcal/mol T*S(tot)=    22.65 kcal/mol
 sn= 2  qrot/sn=   39266.1089 T*S(rot)=     7.16 kcal/mol T*S(tot)=    22.24 kcal/mol
 sn= 3  qrot/sn=   26177.4059 T*S(rot)=     6.92 kcal/mol T*S(tot)=    22.00 kcal/mol
 sn= 4  qrot/sn=   19633.0544 T*S(rot)=     6.75 kcal/mol T*S(tot)=    21.83 kcal/mol
 sn= 5  qrot/sn=   15706.4435 T*S(rot)=     6.61 kcal/mol T*S(tot)=    21.69 kcal/mol
 sn= 6  qrot/sn=   13088.7030 T*S(rot)=     6.51 kcal/mol T*S(tot)=    21.58 kcal/mol
 sn= 7  qrot/sn=   11218.8882 T*S(rot)=     6.41 kcal/mol T*S(tot)=    21.49 kcal/mol
 sn= 8  qrot/sn=    9816.5272 T*S(rot)=     6.33 kcal/mol T*S(tot)=    21.41 kcal/mol
 sn= 9  qrot/sn=    8725.8020 T*S(rot)=     6.26 kcal/mol T*S(tot)=    21.34 kcal/mol
 sn=10  qrot/sn=    7853.2218 T*S(rot)=     6.20 kcal/mol T*S(tot)=    21.28 kcal/mol
 sn=11  qrot/sn=    7139.2925 T*S(rot)=     6.15 kcal/mol T*S(tot)=    21.23 kcal/mol
 sn=12  qrot/sn=    6544.3515 T*S(rot)=     6.09 kcal/mol T*S(tot)=    21.17 kcal/mol

-------------------
GIBBS FREE ENTHALPY
-------------------

The Gibbs free enthalpy is G = H - T*S

Total enthalpy                    ...   -227.44118163 Eh
Total entropy correction          ...     -0.03505241 Eh    -22.00 kcal/mol
-----------------------------------------------------------------------
Final Gibbs free enthalpy         ...   -227.47623404 Eh

For completeness - the Gibbs free enthalpy minus the electronic energy
G-E(el)                           ...      0.07863199 Eh     49.34 kcal/mol

                             ****ORCA TERMINATED NORMALLY****
TOTAL RUN TIME: 0 days 0 hours 8 minutes 27 seconds 750 msec
