                         Program Version 3.0.3 - RELEASE   -
|  1> ! NORI PBE0 def2-TZVP UseSym TightOPT Freq TightSCF Grid3 FinalGrid5 XYZFile
|  2> % pal
|  3>     nprocs 8
|  4> end
|  5> %method
|  6>     SymThresh 5.0e-2
|  7> end
|  8> % geom
|  9>     MaxIter 10
| 10> end
| 11> % maxcore 2000
| 12> % output
| 13>     printlevel mini
| 14>     print[ P_Basis ] 0
| 15>     print[ P_SCFInfo ] 1
| 16>     print[ P_SCFIterInfo ] 1
| 17>     print[ P_OrbEn ] 0
| 18>     print[ P_Cartesian ] 0
| 19> end
| 20> % elprop
| 21>     Dipole false
| 22> end
| 23> *xyz 1 1
| 24>  N        1.0388111763    -0.0526480385     0.0165257729
| 25>  C        2.5451986227    -0.0258919578     0.0695262133
| 26>  C        3.1968770734     1.0319948511     0.9577094990
| 27>  C        4.2479051544    -0.0447314929     1.3113388066
| 28>  C        3.2387432155    -1.1281384124     0.8678371556
| 29>  H        0.6967630498    -0.8613597626    -0.5080435414
| 30>  H        0.6650637839     0.7898675614    -0.4269615362
| 31>  H        0.6485028532    -0.1064497424     0.9598090344
| 32>  H        2.8807172811     0.0237018882    -0.9670338576
| 33>  H        2.5773437697     1.2700573500     1.8271374245
| 34>  H        3.5238444411     1.9579135604     0.4873134173
| 35>  H        5.1118496937    -0.0000849798     0.6490331327
| 36>  H        4.5915344375    -0.0811348672     2.3420847212
| 37>  H        3.5996314111    -1.9991547393     0.3230325060
| 38>  H        2.6305240367    -1.4607912182     1.7141412516
| 39> *
| 40>
| 41>                          ****END OF INPUT****
 Total Charge           Charge          ....    1
 Multiplicity           Mult            ....    1
 Number of Electrons    NEL             ....   40
FINAL SINGLE POINT ENERGY      -212.751036175638

CARTESIAN COORDINATES (ANGSTROEM)
---------------------------------
  N      1.845715   -0.000044   -0.000000
  C      0.406216   -0.448769    0.000000
  C     -0.507052    0.125806    1.081038
  C     -1.611002    0.161409   -0.000000
  C     -0.507052    0.125806   -1.081038
  H      2.343454   -0.338932   -0.826711
  H      2.343454   -0.338932    0.826711
  H      1.902095    1.020764    0.000000
  H      0.431724   -1.539070    0.000000
  H     -0.210484    1.139625    1.366078
  H     -0.663844   -0.467196    1.980557
  H     -2.207638   -0.750482    0.000000
  H     -2.275929    1.021620   -0.000000
  H     -0.663844   -0.467196   -1.980557
  H     -0.210484    1.139625   -1.366078

FINAL SINGLE POINT ENERGY      -212.751036715262
                    ***********************HURRAY********************
 Multiplicity           Mult            ....    1
 Number of Electrons    NEL             ....   40
 Basis Dimension        Dim             ....  215
FINAL SINGLE POINT ENERGY      -212.751036961712

VIBRATIONAL FREQUENCIES
-----------------------

   0:         0.00 cm**-1
   1:         0.00 cm**-1
   2:         0.00 cm**-1
   3:         0.00 cm**-1
   4:         0.00 cm**-1
   5:         0.00 cm**-1
   6:       164.98 cm**-1
   7:       211.33 cm**-1
   8:       320.35 cm**-1
   9:       415.12 cm**-1
  10:       592.29 cm**-1
  11:       759.44 cm**-1
  12:       782.84 cm**-1
  13:       886.24 cm**-1
  14:       921.14 cm**-1
  15:       946.48 cm**-1
  16:       954.46 cm**-1
  17:       969.39 cm**-1
  18:       987.67 cm**-1
  19:      1083.49 cm**-1
  20:      1159.81 cm**-1
  21:      1179.31 cm**-1
  22:      1220.03 cm**-1
  23:      1256.33 cm**-1
  24:      1269.21 cm**-1
  25:      1275.83 cm**-1
  26:      1288.14 cm**-1
  27:      1323.06 cm**-1
  28:      1408.32 cm**-1
  29:      1469.40 cm**-1
  30:      1480.61 cm**-1
  31:      1495.18 cm**-1
  32:      1510.75 cm**-1
  33:      1655.69 cm**-1
  34:      1656.37 cm**-1
  35:      3069.74 cm**-1
  36:      3072.57 cm**-1
  37:      3111.77 cm**-1
  38:      3124.44 cm**-1
  39:      3155.86 cm**-1
  40:      3155.94 cm**-1
  41:      3178.23 cm**-1
  42:      3414.12 cm**-1
  43:      3501.11 cm**-1
  44:      3501.72 cm**-1

IR SPECTRUM
-----------

 Mode    freq (cm**-1)   T**2         TX         TY         TZ
-------------------------------------------------------------------
   6:       164.98    2.982193  ( -0.537767   1.641036  -0.000001)
   7:       211.33    0.030010  ( -0.000001  -0.000018  -0.173233)
   8:       320.35    7.393333  (  0.000003   0.000000  -2.719068)
   9:       415.12    5.940147  (  2.263857  -0.902828   0.000004)
  10:       592.29    4.389724  ( -1.328173  -1.620395  -0.000001)
  11:       759.44    0.636643  ( -0.585990  -0.541533  -0.000002)
  12:       782.84    3.204569  (  0.000002  -0.000001   1.790131)
  13:       886.24   22.903338  (  4.513863  -1.590088   0.000003)
  14:       921.14    5.686050  ( -0.000004   0.000003   2.384544)
  15:       946.48    1.406956  ( -0.000001  -0.000000   1.186152)
  16:       954.46    2.268433  ( -1.490321  -0.217660   0.000001)
  17:       969.39    8.746414  (  0.200398  -2.950636  -0.000000)
  18:       987.67    5.175801  ( -0.000000   0.000000   2.275039)
  19:      1083.49    8.225339  ( -2.831161  -0.458113   0.000001)
  20:      1159.81   11.009763  ( -0.000000  -0.000000  -3.318096)
  21:      1179.31    2.673301  (  0.516317   1.551360   0.000001)
  22:      1220.03    1.352814  (  0.000000   0.000000   1.163106)
  23:      1256.33    0.023728  ( -0.000000  -0.000000   0.154038)
  24:      1269.21    0.956493  ( -0.000000  -0.000000  -0.978005)
  25:      1275.83    0.263024  (  0.396629  -0.325129  -0.000000)
  26:      1288.14   12.395609  (  3.465535  -0.621028  -0.000000)
  27:      1323.06    0.080928  (  0.000000   0.000000  -0.284478)
  28:      1408.32   23.094428  (  4.510679  -1.657770  -0.000000)
  29:      1469.40    9.948995  ( -0.000002  -0.000000   3.154203)
  30:      1480.61    4.601973  ( -2.075154   0.543793   0.000002)
  31:      1495.18  129.850528  ( 10.900249   3.321913  -0.000006)
  32:      1510.75   19.737864  ( -3.162213  -3.120621   0.000003)
  33:      1655.69   48.769755  (  1.672937  -6.780194  -0.000228)
  34:      1656.37   36.140236  (  0.000078  -0.000252   6.011675)
  35:      3069.74    5.007059  ( -0.000000  -0.000000  -2.237646)
  36:      3072.57   11.921831  (  2.539219   2.339700   0.000000)
  37:      3111.77    5.261544  (  2.221970   0.569554  -0.000000)
  38:      3124.44    0.874953  (  0.454643  -0.817467  -0.000000)
  39:      3155.86    6.610182  (  0.000000   0.000000  -2.571027)
  40:      3155.94    2.583703  (  0.908049   1.326329  -0.000000)
  41:      3178.23    2.888950  (  0.256728  -1.680191   0.000000)
  42:      3414.12   42.911299  ( -6.514699  -0.685560  -0.000002)
  43:      3501.11   94.481529  (  0.000049  -0.000145   9.720161)
  44:      3501.72   84.064578  ( -3.011096   8.660131   0.000162)

--------------------------
THERMOCHEMISTRY AT 298.15K
--------------------------

Temperature         ... 298.15 K
Pressure            ... 1.00 atm
Total Mass          ... 72.13 AMU

Throughout the following assumptions are being made:
  (1) The electronic state is orbitally nondegenerate
  (2) There are no thermally accessible electronically excited states
  (3) Hindered rotations indicated by low frequency modes) are not
      treated as such but are treated as vibrations and this may
      case some error
  (4) All equations used are the standard statistical mechanics
      equations for an ideal gas
  (5) All vibrations are strinctly harmonic

------------
INNER ENERGY
------------

The inner energy is: U= E(el) + E(ZPE) + E(vib) + E(rot) + E(trans)
    E(el)   - is the total energy from the electronic structure calculation
              = E(kin-el) + E(nuc-el) + E(el-el) + E(nuc-nuc)
    E(ZPE)  - the the zero temperature vibrational energy from the frequency calculation
    E(vib)  - the the finite temperature correction to E(ZPE) due to population
              of excietd vibrational states
    E(rot)  - is the rotational thermal energy
    E(trans)- is the translational thermal energy

Summary of contributions to the inner energy U:
Electronic energy                ...   -212.75103696 Eh
Zero point energy                ...      0.14336229 Eh      89.96 kcal/mol
Thermal vibrational correction   ...      0.00263915 Eh       1.66 kcal/mol
Thermal rotational correction    ...      0.00141627 Eh       0.89 kcal/mol
Thermal translational correction ...      0.00141627 Eh       0.89 kcal/mol
-----------------------------------------------------------------------
Total thermal energy                   -212.60220298 Eh

Summary of corrections to the electronic energy:
(perhaps to be used in another calculation)
Total thermal correction                  0.00547170 Eh       3.43 kcal/mol
Non-thermal (ZPE) correction              0.14336229 Eh      89.96 kcal/mol
-----------------------------------------------------------------------
Total correction                          0.14883398 Eh      93.39 kcal/mol

--------
ENTHALPY
--------

The enthalpy is H = U + kB*T
                kB is Boltzmann's constant
Total free energy                 ...   -212.60220298 Eh
Thermal Enthalpy correction       ...      0.00094421 Eh       0.59 kcal/mol
-----------------------------------------------------------------------
Total Enthalpy                    ...   -212.60125877 Eh

-------
ENTROPY
-------

The entropy contributions are T*S = T*(S(el)+S(vib)+S(rot)+S(trans)
     S(el)   - electronic entropy
     S(vib)  - vibrational entropy
     S(rot)  - rotational entropy
     S(trans)- translational entropy
The entropies will be listed as mutliplied by the temperature to get
units of energy

Electronic entropy                ...      0.00000000 Eh      0.00 kcal/mol
Vibrational entropy               ...      0.00418236 Eh      2.62 kcal/mol
Rotational entropy                ...      0.01099594 Eh      6.90 kcal/mol
Translational entropy             ...      0.01840857 Eh     11.55 kcal/mol
-----------------------------------------------------------------------
Final entropy term                ...      0.03358686 Eh     21.08 kcal/mol

CAUTION: The rotational entropy is not quite correctly treated here
         because it includes a symmetry number that is not yet correctly
         implemented in ORCA!
For a nonlinear molecule the correct rotational entropy is:
    S(rot) = R*(ln(qrot/sn)+1.5)
    R    = 8.31441 J/mol/K = 1.987191683e-3 kcal/mol/K
    qrot = 76467.1343446
    sn is the rotational symmetry number. We have assumed 3 here
       if it is different for your molecule then you should correct
       the printed rotational entropy by manually evaluating the equation
       as given above

For convenience we print out the resulting values for sn=1 - 12:
 sn= 1  qrot/sn=   76467.1343 T*S(rot)=     7.55 kcal/mol T*S(tot)=    21.73 kcal/mol
 sn= 2  qrot/sn=   38233.5672 T*S(rot)=     7.14 kcal/mol T*S(tot)=    21.32 kcal/mol
 sn= 3  qrot/sn=   25489.0448 T*S(rot)=     6.90 kcal/mol T*S(tot)=    21.08 kcal/mol
 sn= 4  qrot/sn=   19116.7836 T*S(rot)=     6.73 kcal/mol T*S(tot)=    20.91 kcal/mol
 sn= 5  qrot/sn=   15293.4269 T*S(rot)=     6.60 kcal/mol T*S(tot)=    20.77 kcal/mol
 sn= 6  qrot/sn=   12744.5224 T*S(rot)=     6.49 kcal/mol T*S(tot)=    20.67 kcal/mol
 sn= 7  qrot/sn=   10923.8763 T*S(rot)=     6.40 kcal/mol T*S(tot)=    20.57 kcal/mol
 sn= 8  qrot/sn=    9558.3918 T*S(rot)=     6.32 kcal/mol T*S(tot)=    20.49 kcal/mol
 sn= 9  qrot/sn=    8496.3483 T*S(rot)=     6.25 kcal/mol T*S(tot)=    20.43 kcal/mol
 sn=10  qrot/sn=    7646.7134 T*S(rot)=     6.19 kcal/mol T*S(tot)=    20.36 kcal/mol
 sn=11  qrot/sn=    6951.5577 T*S(rot)=     6.13 kcal/mol T*S(tot)=    20.31 kcal/mol
 sn=12  qrot/sn=    6372.2612 T*S(rot)=     6.08 kcal/mol T*S(tot)=    20.25 kcal/mol

-------------------
GIBBS FREE ENTHALPY
-------------------

The Gibbs free enthalpy is G = H - T*S

Total enthalpy                    ...   -212.60125877 Eh
Total entropy correction          ...     -0.03358686 Eh    -21.08 kcal/mol
-----------------------------------------------------------------------
Final Gibbs free enthalpy         ...   -212.63484563 Eh

For completeness - the Gibbs free enthalpy minus the electronic energy
G-E(el)                           ...      0.11619134 Eh     72.91 kcal/mol

                             ****ORCA TERMINATED NORMALLY****
TOTAL RUN TIME: 0 days 0 hours 12 minutes 7 seconds 751 msec
