                         Program Version 3.0.3 - RELEASE   -
|  1> ! NORI PBE0 def2-TZVP UseSym TightOPT Freq TightSCF Grid3 FinalGrid5 XYZFile
|  2> % pal
|  3>     nprocs 8
|  4> end
|  5> %method
|  6>     SymThresh 5.0e-2
|  7> end
|  8> % geom
|  9>     MaxIter 10
| 10> end
| 11> % maxcore 2000
| 12> % output
| 13>     printlevel mini
| 14>     print[ P_Basis ] 0
| 15>     print[ P_SCFInfo ] 1
| 16>     print[ P_SCFIterInfo ] 1
| 17>     print[ P_OrbEn ] 0
| 18>     print[ P_Cartesian ] 0
| 19> end
| 20> % elprop
| 21>     Dipole false
| 22> end
| 23> *xyz 1 1
| 24>  N        1.4517448727    -0.0240172762    -0.7058299179
| 25>  C        1.8484173540    -0.1922220185     0.7343534046
| 26>  C        2.9360721268    -1.2105794203     0.9036565546
| 27>  C        3.0280827393    -2.4700731354     0.0987775071
| 28>  C        4.0614729980    -1.3962535161    -0.0662944849
| 29>  H        0.7047847612     0.6649186391    -0.8092305586
| 30>  H        1.1223002496    -0.9100002137    -1.0956102924
| 31>  H        2.2482357773     0.2852772014    -1.2678418614
| 32>  H        0.9402533887    -0.4784445250     1.2685736283
| 33>  H        2.1617318305     0.7945559201     1.0811497535
| 34>  H        3.2015867582    -1.3029438439     1.9513372209
| 35>  H        3.2965979977    -3.3797630607     0.6188756535
| 36>  H        2.3459230450    -2.6452069565    -0.7285712971
| 37>  H        4.0767259111    -0.8503401900    -1.0049227052
| 38>  H        5.0508201899    -1.5559276044     0.3409973949
| 39> *
| 40>
| 41>                          ****END OF INPUT****
 Total Charge           Charge          ....    1
 Multiplicity           Mult            ....    1
 Number of Electrons    NEL             ....   40
FINAL SINGLE POINT ENERGY      -212.740700190126

CARTESIAN COORDINATES (ANGSTROEM)
---------------------------------
  N      1.746328   -0.000165   -0.000000
  C      0.684024   -1.063849    0.000000
  C     -0.697703   -0.481265    0.000000
  C     -1.078702    0.757456    0.749731
  C     -1.078702    0.757456   -0.749731
  H      2.682615   -0.407984    0.000000
  H      1.660813    0.597171    0.825453
  H      1.660813    0.597171   -0.825453
  H      0.864634   -1.674238    0.886978
  H      0.864634   -1.674238   -0.886978
  H     -1.437360   -1.274761   -0.000000
  H     -2.025499    0.754996    1.272966
  H     -0.321575    1.350140    1.254828
  H     -0.321575    1.350140   -1.254828
  H     -2.025499    0.754997   -1.272966

FINAL SINGLE POINT ENERGY      -212.740700878685
                    ***********************HURRAY********************
 Multiplicity           Mult            ....    1
 Number of Electrons    NEL             ....   40
 Basis Dimension        Dim             ....  215
FINAL SINGLE POINT ENERGY      -212.740701071951

VIBRATIONAL FREQUENCIES
-----------------------

   0:         0.00 cm**-1
   1:         0.00 cm**-1
   2:         0.00 cm**-1
   3:         0.00 cm**-1
   4:         0.00 cm**-1
   5:         0.00 cm**-1
   6:        82.90 cm**-1
   7:       200.10 cm**-1
   8:       237.88 cm**-1
   9:       351.63 cm**-1
  10:       495.91 cm**-1
  11:       747.67 cm**-1
  12:       787.23 cm**-1
  13:       794.54 cm**-1
  14:       864.96 cm**-1
  15:       921.57 cm**-1
  16:       937.46 cm**-1
  17:       990.71 cm**-1
  18:      1050.12 cm**-1
  19:      1087.77 cm**-1
  20:      1089.68 cm**-1
  21:      1121.97 cm**-1
  22:      1148.00 cm**-1
  23:      1158.79 cm**-1
  24:      1187.32 cm**-1
  25:      1250.84 cm**-1
  26:      1353.63 cm**-1
  27:      1414.10 cm**-1
  28:      1425.55 cm**-1
  29:      1473.55 cm**-1
  30:      1497.92 cm**-1
  31:      1499.26 cm**-1
  32:      1526.36 cm**-1
  33:      1650.44 cm**-1
  34:      1663.48 cm**-1
  35:      3088.14 cm**-1
  36:      3135.32 cm**-1
  37:      3142.42 cm**-1
  38:      3143.11 cm**-1
  39:      3182.77 cm**-1
  40:      3231.80 cm**-1
  41:      3243.24 cm**-1
  42:      3422.46 cm**-1
  43:      3498.19 cm**-1
  44:      3514.63 cm**-1

IR SPECTRUM
-----------

 Mode    freq (cm**-1)   T**2         TX         TY         TZ
-------------------------------------------------------------------
   6:        82.90    3.782147  ( -0.000037   0.000010   1.944774)
   7:       200.10    0.283458  (  0.000048  -0.000029  -0.532407)
   8:       237.88   24.850041  ( -4.667106   1.751617  -0.000018)
   9:       351.63    1.361296  ( -0.000015   0.000013  -1.166746)
  10:       495.91    8.540429  ( -2.876784   0.514336   0.000000)
  11:       747.67    4.582338  (  0.637150  -2.043619  -0.000046)
  12:       787.23    1.759230  (  0.097413  -1.322778   0.000341)
  13:       794.54    8.960284  (  0.000005  -0.000130  -2.993373)
  14:       864.96    0.859320  (  0.000001   0.000019   0.926995)
  15:       921.57   10.423348  ( -2.675303  -1.807236   0.000060)
  16:       937.46   14.182782  (  0.000029   0.000036   3.766003)
  17:       990.71    0.207624  (  0.439413   0.120584  -0.000043)
  18:      1050.12   30.404718  (  3.304628  -4.414085   0.000080)
  19:      1087.77    5.280652  ( -0.000070  -0.000107  -2.297967)
  20:      1089.68    8.449045  (  2.890769  -0.304141  -0.000110)
  21:      1121.97    0.208627  (  0.000041  -0.000020  -0.456757)
  22:      1148.00    7.998949  ( -1.427138   2.441767  -0.000028)
  23:      1158.79    1.961332  ( -0.000016   0.000048   1.400476)
  24:      1187.32    0.746308  (  0.000016  -0.000016  -0.863891)
  25:      1250.84    1.977609  (  1.359430  -0.359943   0.000015)
  26:      1353.63    9.751472  (  0.000030   0.000006   3.122735)
  27:      1414.10    2.112536  ( -1.324958   0.597514   0.000009)
  28:      1425.55   17.470742  (  3.567403  -2.178159  -0.000010)
  29:      1473.55    5.739114  ( -0.000056   0.000060   2.395645)
  30:      1497.92   42.265179  ( -2.402522  -6.040949   0.000043)
  31:      1499.26  126.068811  ( -9.948348  -5.205688  -0.000023)
  32:      1526.36    6.183669  ( -1.297738  -2.121213   0.000014)
  33:      1650.44   60.679326  ( -0.000000  -0.000012   7.789694)
  34:      1663.48   44.041340  (  5.823569  -3.182355   0.000002)
  35:      3088.14    5.162272  ( -1.555661   1.655956  -0.000007)
  36:      3135.32    5.365433  ( -0.000117  -0.000045   2.316340)
  37:      3142.42    0.051431  (  0.001306   0.000492  -0.226779)
  38:      3143.11   21.596429  ( -4.325574  -1.698775  -0.000132)
  39:      3182.77    1.362036  ( -1.161425  -0.114577   0.000000)
  40:      3231.80    0.586205  (  0.000008   0.000001   0.765640)
  41:      3243.24    0.917352  ( -0.676899  -0.677614  -0.000007)
  42:      3422.46   26.316416  (  3.580339   3.673906  -0.000000)
  43:      3498.19   79.549259  (  0.000000   0.000001   8.919039)
  44:      3514.63  124.889341  ( -9.210051   6.329637   0.000000)

--------------------------
THERMOCHEMISTRY AT 298.15K
--------------------------

Temperature         ... 298.15 K
Pressure            ... 1.00 atm
Total Mass          ... 72.13 AMU

Throughout the following assumptions are being made:
  (1) The electronic state is orbitally nondegenerate
  (2) There are no thermally accessible electronically excited states
  (3) Hindered rotations indicated by low frequency modes) are not
      treated as such but are treated as vibrations and this may
      case some error
  (4) All equations used are the standard statistical mechanics
      equations for an ideal gas
  (5) All vibrations are strinctly harmonic

------------
INNER ENERGY
------------

The inner energy is: U= E(el) + E(ZPE) + E(vib) + E(rot) + E(trans)
    E(el)   - is the total energy from the electronic structure calculation
              = E(kin-el) + E(nuc-el) + E(el-el) + E(nuc-nuc)
    E(ZPE)  - the the zero temperature vibrational energy from the frequency calculation
    E(vib)  - the the finite temperature correction to E(ZPE) due to population
              of excietd vibrational states
    E(rot)  - is the rotational thermal energy
    E(trans)- is the translational thermal energy

Summary of contributions to the inner energy U:
Electronic energy                ...   -212.74070107 Eh
Zero point energy                ...      0.14264385 Eh      89.51 kcal/mol
Thermal vibrational correction   ...      0.00309704 Eh       1.94 kcal/mol
Thermal rotational correction    ...      0.00141627 Eh       0.89 kcal/mol
Thermal translational correction ...      0.00141627 Eh       0.89 kcal/mol
-----------------------------------------------------------------------
Total thermal energy                   -212.59212764 Eh

Summary of corrections to the electronic energy:
(perhaps to be used in another calculation)
Total thermal correction                  0.00592959 Eh       3.72 kcal/mol
Non-thermal (ZPE) correction              0.14264385 Eh      89.51 kcal/mol
-----------------------------------------------------------------------
Total correction                          0.14857343 Eh      93.23 kcal/mol

--------
ENTHALPY
--------

The enthalpy is H = U + kB*T
                kB is Boltzmann's constant
Total free energy                 ...   -212.59212764 Eh
Thermal Enthalpy correction       ...      0.00094421 Eh       0.59 kcal/mol
-----------------------------------------------------------------------
Total Enthalpy                    ...   -212.59118343 Eh

-------
ENTROPY
-------

The entropy contributions are T*S = T*(S(el)+S(vib)+S(rot)+S(trans)
     S(el)   - electronic entropy
     S(vib)  - vibrational entropy
     S(rot)  - rotational entropy
     S(trans)- translational entropy
The entropies will be listed as mutliplied by the temperature to get
units of energy

Electronic entropy                ...      0.00000000 Eh      0.00 kcal/mol
Vibrational entropy               ...      0.00539045 Eh      3.38 kcal/mol
Rotational entropy                ...      0.01106815 Eh      6.95 kcal/mol
Translational entropy             ...      0.01840857 Eh     11.55 kcal/mol
-----------------------------------------------------------------------
Final entropy term                ...      0.03486717 Eh     21.88 kcal/mol

CAUTION: The rotational entropy is not quite correctly treated here
         because it includes a symmetry number that is not yet correctly
         implemented in ORCA!
For a nonlinear molecule the correct rotational entropy is:
    S(rot) = R*(ln(qrot/sn)+1.5)
    R    = 8.31441 J/mol/K = 1.987191683e-3 kcal/mol/K
    qrot = 82545.3778366
    sn is the rotational symmetry number. We have assumed 3 here
       if it is different for your molecule then you should correct
       the printed rotational entropy by manually evaluating the equation
       as given above

For convenience we print out the resulting values for sn=1 - 12:
 sn= 1  qrot/sn=   82545.3778 T*S(rot)=     7.60 kcal/mol T*S(tot)=    22.53 kcal/mol
 sn= 2  qrot/sn=   41272.6889 T*S(rot)=     7.19 kcal/mol T*S(tot)=    22.12 kcal/mol
 sn= 3  qrot/sn=   27515.1259 T*S(rot)=     6.95 kcal/mol T*S(tot)=    21.88 kcal/mol
 sn= 4  qrot/sn=   20636.3445 T*S(rot)=     6.77 kcal/mol T*S(tot)=    21.71 kcal/mol
 sn= 5  qrot/sn=   16509.0756 T*S(rot)=     6.64 kcal/mol T*S(tot)=    21.58 kcal/mol
 sn= 6  qrot/sn=   13757.5630 T*S(rot)=     6.53 kcal/mol T*S(tot)=    21.47 kcal/mol
 sn= 7  qrot/sn=   11792.1968 T*S(rot)=     6.44 kcal/mol T*S(tot)=    21.38 kcal/mol
 sn= 8  qrot/sn=   10318.1722 T*S(rot)=     6.36 kcal/mol T*S(tot)=    21.30 kcal/mol
 sn= 9  qrot/sn=    9171.7086 T*S(rot)=     6.29 kcal/mol T*S(tot)=    21.23 kcal/mol
 sn=10  qrot/sn=    8254.5378 T*S(rot)=     6.23 kcal/mol T*S(tot)=    21.17 kcal/mol
 sn=11  qrot/sn=    7504.1253 T*S(rot)=     6.18 kcal/mol T*S(tot)=    21.11 kcal/mol
 sn=12  qrot/sn=    6878.7815 T*S(rot)=     6.12 kcal/mol T*S(tot)=    21.06 kcal/mol

-------------------
GIBBS FREE ENTHALPY
-------------------

The Gibbs free enthalpy is G = H - T*S

Total enthalpy                    ...   -212.59118343 Eh
Total entropy correction          ...     -0.03486717 Eh    -21.88 kcal/mol
-----------------------------------------------------------------------
Final Gibbs free enthalpy         ...   -212.62605060 Eh

For completeness - the Gibbs free enthalpy minus the electronic energy
G-E(el)                           ...      0.11465047 Eh     71.94 kcal/mol

                             ****ORCA TERMINATED NORMALLY****
TOTAL RUN TIME: 0 days 0 hours 12 minutes 17 seconds 897 msec
