                         Program Version 3.0.3 - RELEASE   -
|  1> ! NORI PBE0 def2-TZVP UseSym TightOPT Freq TightSCF Grid3 FinalGrid5 XYZFile
|  2> % pal
|  3>     nprocs 8
|  4> end
|  5> %method
|  6>     SymThresh 5.0e-2
|  7> end
|  8> % geom
|  9>     MaxIter 10
| 10> end
| 11> % maxcore 2000
| 12> % output
| 13>     printlevel mini
| 14>     print[ P_Basis ] 0
| 15>     print[ P_SCFInfo ] 1
| 16>     print[ P_SCFIterInfo ] 1
| 17>     print[ P_OrbEn ] 0
| 18>     print[ P_Cartesian ] 0
| 19> end
| 20> % elprop
| 21>     Dipole false
| 22> end
| 23> *xyz 1 1
| 24>  N        0.9776532110     0.0681437116    -0.1798821016
| 25>  C        2.1163856934    -0.0208537986    -0.0610151168
| 26>  C        3.5416765056    -0.1260969778     0.0627911434
| 27>  C        4.3355528420    -0.8376948277    -0.9615050920
| 28>  N        4.3282550136     0.6420635486    -0.9499432798
| 29>  H        3.9436207922    -0.0481283478     1.0681962102
| 30>  H        5.2791556655    -1.2821839780    -0.6722546628
| 31>  H        3.8236524202    -1.2746170959    -1.8097600055
| 32>  H        3.8055657934     1.1260462603    -1.6769169692
| 33>  H        5.1576020632     1.1369215054    -0.6321201258
| 34> *
| 35>
| 36>                          ****END OF INPUT****
 Total Charge           Charge          ....    1
 Multiplicity           Mult            ....    1
 Number of Electrons    NEL             ....   36
FINAL SINGLE POINT ENERGY      -226.311835466368

CARTESIAN COORDINATES (ANGSTROEM)
---------------------------------
  N     -0.000237   -0.000065    2.175858
  C     -0.145306   -0.218430    1.057838
  C     -0.310703   -0.471968   -0.344361
  C     -0.520909    0.643787   -1.291231
  N      0.809456    0.000063   -1.214509
  H     -0.678481   -1.456952   -0.614237
  H     -1.058106    0.451203   -2.211056
  H     -0.543589    1.656715   -0.909462
  H      1.565903    0.511209   -0.764683
  H      1.108885   -0.605840   -1.974086

FINAL SINGLE POINT ENERGY      -226.311835638121
                    ***********************HURRAY********************
 Multiplicity           Mult            ....    1
 Number of Electrons    NEL             ....   36
 Basis Dimension        Dim             ....  185
FINAL SINGLE POINT ENERGY      -226.311835777938

VIBRATIONAL FREQUENCIES
-----------------------

   0:         0.00 cm**-1
   1:         0.00 cm**-1
   2:         0.00 cm**-1
   3:         0.00 cm**-1
   4:         0.00 cm**-1
   5:         0.00 cm**-1
   6:       197.95 cm**-1
   7:       210.05 cm**-1
   8:       526.20 cm**-1
   9:       541.15 cm**-1
  10:       773.93 cm**-1
  11:       845.58 cm**-1
  12:       880.66 cm**-1
  13:       926.63 cm**-1
  14:       949.86 cm**-1
  15:      1058.71 cm**-1
  16:      1143.72 cm**-1
  17:      1157.74 cm**-1
  18:      1183.74 cm**-1
  19:      1246.23 cm**-1
  20:      1261.97 cm**-1
  21:      1415.46 cm**-1
  22:      1488.12 cm**-1
  23:      1630.17 cm**-1
  24:      2404.35 cm**-1
  25:      3174.81 cm**-1
  26:      3194.57 cm**-1
  27:      3283.29 cm**-1
  28:      3482.48 cm**-1
  29:      3585.56 cm**-1

IR SPECTRUM
-----------

 Mode    freq (cm**-1)   T**2         TX         TY         TZ
-------------------------------------------------------------------
   6:       197.95    7.011881  ( -1.114049  -0.863977   2.241499)
   7:       210.05    2.728240  ( -0.979264   1.185354   0.603504)
   8:       526.20    1.954196  (  0.309332   0.675361  -1.184228)
   9:       541.15    1.089987  (  0.485748   0.213905  -0.899044)
  10:       773.93    0.253671  ( -0.137216   0.339605   0.345703)
  11:       845.58   20.515402  ( -3.705478   0.294670   2.588051)
  12:       880.66    5.445314  ( -0.149713   0.825708   2.177408)
  13:       926.63    3.358354  ( -0.262304   1.354157  -1.206569)
  14:       949.86   20.475148  ( -3.733699  -0.797677   2.428651)
  15:      1058.71   93.091489  ( -1.305954   7.565859  -5.843266)
  16:      1143.72    7.756221  (  1.673359   0.556241   2.155617)
  17:      1157.74    4.472173  ( -0.055417   0.295085   2.093329)
  18:      1183.74    2.541657  (  1.075318   1.047535  -0.536674)
  19:      1246.23    1.293900  (  0.415673  -0.380868  -0.987955)
  20:      1261.97    8.581619  ( -2.404468  -0.731641  -1.504943)
  21:      1415.46    8.510112  ( -0.328125   1.630013   2.396978)
  22:      1488.12   11.807468  (  1.646920  -2.307832   1.941400)
  23:      1630.17   67.532854  ( -7.682322   0.135240   2.914873)
  24:      2404.35   14.468392  (  0.226749   0.664024   3.738455)
  25:      3174.81   12.652655  ( -1.640472   2.612476  -1.771010)
  26:      3194.57   17.183370  ( -1.710257  -3.776026   0.004353)
  27:      3283.29   18.675025  (  1.060142   3.051206   2.870760)
  28:      3482.48  146.867066  ( 11.169809  -0.379594  -4.685973)
  29:      3585.56  165.033687  (  2.838412   8.350675   9.340414)

--------------------------
THERMOCHEMISTRY AT 298.15K
--------------------------

Temperature         ... 298.15 K
Pressure            ... 1.00 atm
Total Mass          ... 69.09 AMU

Throughout the following assumptions are being made:
  (1) The electronic state is orbitally nondegenerate
  (2) There are no thermally accessible electronically excited states
  (3) Hindered rotations indicated by low frequency modes) are not
      treated as such but are treated as vibrations and this may
      case some error
  (4) All equations used are the standard statistical mechanics
      equations for an ideal gas
  (5) All vibrations are strinctly harmonic

------------
INNER ENERGY
------------

The inner energy is: U= E(el) + E(ZPE) + E(vib) + E(rot) + E(trans)
    E(el)   - is the total energy from the electronic structure calculation
              = E(kin-el) + E(nuc-el) + E(el-el) + E(nuc-nuc)
    E(ZPE)  - the the zero temperature vibrational energy from the frequency calculation
    E(vib)  - the the finite temperature correction to E(ZPE) due to population
              of excietd vibrational states
    E(rot)  - is the rotational thermal energy
    E(trans)- is the translational thermal energy

Summary of contributions to the inner energy U:
Electronic energy                ...   -226.31183578 Eh
Zero point energy                ...      0.08329650 Eh      52.27 kcal/mol
Thermal vibrational correction   ...      0.00194419 Eh       1.22 kcal/mol
Thermal rotational correction    ...      0.00141627 Eh       0.89 kcal/mol
Thermal translational correction ...      0.00141627 Eh       0.89 kcal/mol
-----------------------------------------------------------------------
Total thermal energy                   -226.22376254 Eh

Summary of corrections to the electronic energy:
(perhaps to be used in another calculation)
Total thermal correction                  0.00477674 Eh       3.00 kcal/mol
Non-thermal (ZPE) correction              0.08329650 Eh      52.27 kcal/mol
-----------------------------------------------------------------------
Total correction                          0.08807324 Eh      55.27 kcal/mol

--------
ENTHALPY
--------

The enthalpy is H = U + kB*T
                kB is Boltzmann's constant
Total free energy                 ...   -226.22376254 Eh
Thermal Enthalpy correction       ...      0.00094421 Eh       0.59 kcal/mol
-----------------------------------------------------------------------
Total Enthalpy                    ...   -226.22281833 Eh

-------
ENTROPY
-------

The entropy contributions are T*S = T*(S(el)+S(vib)+S(rot)+S(trans)
     S(el)   - electronic entropy
     S(vib)  - vibrational entropy
     S(rot)  - rotational entropy
     S(trans)- translational entropy
The entropies will be listed as mutliplied by the temperature to get
units of energy

Electronic entropy                ...      0.00000000 Eh      0.00 kcal/mol
Vibrational entropy               ...      0.00307381 Eh      1.93 kcal/mol
Rotational entropy                ...      0.01083888 Eh      6.80 kcal/mol
Translational entropy             ...      0.01834750 Eh     11.51 kcal/mol
-----------------------------------------------------------------------
Final entropy term                ...      0.03226019 Eh     20.24 kcal/mol

CAUTION: The rotational entropy is not quite correctly treated here
         because it includes a symmetry number that is not yet correctly
         implemented in ORCA!
For a nonlinear molecule the correct rotational entropy is:
    S(rot) = R*(ln(qrot/sn)+1.5)
    R    = 8.31441 J/mol/K = 1.987191683e-3 kcal/mol/K
    qrot = 64749.2295280
    sn is the rotational symmetry number. We have assumed 3 here
       if it is different for your molecule then you should correct
       the printed rotational entropy by manually evaluating the equation
       as given above

For convenience we print out the resulting values for sn=1 - 12:
 sn= 1  qrot/sn=   64749.2295 T*S(rot)=     7.45 kcal/mol T*S(tot)=    20.89 kcal/mol
 sn= 2  qrot/sn=   32374.6148 T*S(rot)=     7.04 kcal/mol T*S(tot)=    20.48 kcal/mol
 sn= 3  qrot/sn=   21583.0765 T*S(rot)=     6.80 kcal/mol T*S(tot)=    20.24 kcal/mol
 sn= 4  qrot/sn=   16187.3074 T*S(rot)=     6.63 kcal/mol T*S(tot)=    20.07 kcal/mol
 sn= 5  qrot/sn=   12949.8459 T*S(rot)=     6.50 kcal/mol T*S(tot)=    19.94 kcal/mol
 sn= 6  qrot/sn=   10791.5383 T*S(rot)=     6.39 kcal/mol T*S(tot)=    19.83 kcal/mol
 sn= 7  qrot/sn=    9249.8899 T*S(rot)=     6.30 kcal/mol T*S(tot)=    19.74 kcal/mol
 sn= 8  qrot/sn=    8093.6537 T*S(rot)=     6.22 kcal/mol T*S(tot)=    19.66 kcal/mol
 sn= 9  qrot/sn=    7194.3588 T*S(rot)=     6.15 kcal/mol T*S(tot)=    19.59 kcal/mol
 sn=10  qrot/sn=    6474.9230 T*S(rot)=     6.09 kcal/mol T*S(tot)=    19.53 kcal/mol
 sn=11  qrot/sn=    5886.2936 T*S(rot)=     6.03 kcal/mol T*S(tot)=    19.47 kcal/mol
 sn=12  qrot/sn=    5395.7691 T*S(rot)=     5.98 kcal/mol T*S(tot)=    19.42 kcal/mol

-------------------
GIBBS FREE ENTHALPY
-------------------

The Gibbs free enthalpy is G = H - T*S

Total enthalpy                    ...   -226.22281833 Eh
Total entropy correction          ...     -0.03226019 Eh    -20.24 kcal/mol
-----------------------------------------------------------------------
Final Gibbs free enthalpy         ...   -226.25507852 Eh

For completeness - the Gibbs free enthalpy minus the electronic energy
G-E(el)                           ...      0.05675726 Eh     35.62 kcal/mol

                             ****ORCA TERMINATED NORMALLY****
TOTAL RUN TIME: 0 days 0 hours 6 minutes 36 seconds 528 msec
