                         Program Version 3.0.3 - RELEASE   -
|  1> ! NORI PBE0 def2-TZVP UseSym TightOPT Freq TightSCF Grid3 FinalGrid5 XYZFile
|  2> % pal
|  3>     nprocs 8
|  4> end
|  5> %method
|  6>     SymThresh 5.0e-2
|  7> end
|  8> % geom
|  9>     MaxIter 10
| 10> end
| 11> % maxcore 2000
| 12> % output
| 13>     printlevel mini
| 14>     print[ P_Basis ] 0
| 15>     print[ P_SCFInfo ] 1
| 16>     print[ P_SCFIterInfo ] 1
| 17>     print[ P_OrbEn ] 0
| 18>     print[ P_Cartesian ] 0
| 19> end
| 20> % elprop
| 21>     Dipole false
| 22> end
| 23> *xyz 1 1
| 24>  N        1.0667905410     0.0685002963    -0.0616037706
| 25>  C        2.5759312040     0.0864063782    -0.0244111332
| 26>  C        3.0857525035    -0.3262320389     1.3428272249
| 27>  C        4.5832941029    -0.3864796763     1.3400387680
| 28>  C        5.3554541373     0.4273418386     2.0423038892
| 29>  H        0.7040606504     0.3467030038    -0.9757505958
| 30>  H        0.6776051044     0.7061438896     0.6364171745
| 31>  H        0.7080724967    -0.8660788312     0.1468302395
| 32>  H        2.8829358208     1.0999486441    -0.2831041470
| 33>  H        2.9107931321    -0.5916367686    -0.8104231725
| 34>  H        2.6767806477    -1.3114570046     1.6032120427
| 35>  H        2.7460507236     0.3856428642     2.1019764495
| 36>  H        5.0319110193    -1.1589339812     0.7198442575
| 37>  H        4.9434072550     1.2005526155     2.6836424578
| 38>  H        6.4350506612     0.3411687705     2.0123903155
| 39> *
| 40>
| 41>                          ****END OF INPUT****
 Total Charge           Charge          ....    1
 Multiplicity           Mult            ....    1
 Number of Electrons    NEL             ....   40
FINAL SINGLE POINT ENERGY      -212.745100041624

CARTESIAN COORDINATES (ANGSTROEM)
---------------------------------
  N     -0.000339   -0.000243    2.352142
  C      0.575232    0.000655    0.956189
  C     -0.510241    0.246493   -0.073633
  C      0.086906    0.328472   -1.445885
  C     -0.143995   -0.554788   -2.404260
  H      0.717161   -0.166893    3.060727
  H     -0.712923   -0.726688    2.451779
  H     -0.447255    0.894957    2.562751
  H      1.055987   -0.967765    0.815937
  H      1.341396    0.777008    0.939961
  H     -1.029909    1.185232    0.159880
  H     -1.250131   -0.559946   -0.040517
  H      0.738278    1.178071   -1.636547
  H     -0.800353   -1.406618   -2.255380
  H      0.306381   -0.450239   -3.383646

FINAL SINGLE POINT ENERGY      -212.745100808603
                    ***********************HURRAY********************
 Multiplicity           Mult            ....    1
 Number of Electrons    NEL             ....   40
 Basis Dimension        Dim             ....  215
FINAL SINGLE POINT ENERGY      -212.745101304541

VIBRATIONAL FREQUENCIES
-----------------------

   0:         0.00 cm**-1
   1:         0.00 cm**-1
   2:         0.00 cm**-1
   3:         0.00 cm**-1
   4:         0.00 cm**-1
   5:         0.00 cm**-1
   6:        93.00 cm**-1
   7:       104.80 cm**-1
   8:       218.61 cm**-1
   9:       239.34 cm**-1
  10:       382.54 cm**-1
  11:       441.76 cm**-1
  12:       648.23 cm**-1
  13:       778.91 cm**-1
  14:       892.78 cm**-1
  15:       909.36 cm**-1
  16:       936.94 cm**-1
  17:       995.54 cm**-1
  18:      1001.77 cm**-1
  19:      1025.40 cm**-1
  20:      1043.77 cm**-1
  21:      1139.58 cm**-1
  22:      1197.46 cm**-1
  23:      1297.80 cm**-1
  24:      1317.96 cm**-1
  25:      1335.17 cm**-1
  26:      1351.34 cm**-1
  27:      1408.57 cm**-1
  28:      1454.37 cm**-1
  29:      1474.98 cm**-1
  30:      1498.44 cm**-1
  31:      1507.03 cm**-1
  32:      1657.79 cm**-1
  33:      1663.80 cm**-1
  34:      1728.24 cm**-1
  35:      3023.69 cm**-1
  36:      3082.62 cm**-1
  37:      3102.20 cm**-1
  38:      3159.50 cm**-1
  39:      3163.36 cm**-1
  40:      3167.84 cm**-1
  41:      3255.65 cm**-1
  42:      3421.33 cm**-1
  43:      3502.41 cm**-1
  44:      3508.24 cm**-1

IR SPECTRUM
-----------

 Mode    freq (cm**-1)   T**2         TX         TY         TZ
-------------------------------------------------------------------
   6:        93.00    3.615163  ( -0.823227   1.567427   0.693276)
   7:       104.80    3.921738  (  1.038445   1.679322   0.152475)
   8:       218.61    0.959441  (  0.924913  -0.260627   0.189870)
   9:       239.34    3.500856  (  1.500437  -0.405311   1.041762)
  10:       382.54    8.674557  ( -0.192343   0.070859  -2.938118)
  11:       441.76    0.301876  ( -0.241896   0.099915  -0.483094)
  12:       648.23   15.458682  (  2.757591  -2.393948   1.457185)
  13:       778.91    6.444642  (  0.899453   2.305258   0.566932)
  14:       892.78   25.081881  (  2.592520  -0.098413   4.283811)
  15:       909.36   15.337717  ( -1.352388   2.588604  -2.609194)
  16:       936.94    2.286727  ( -1.192177   0.353575   0.860479)
  17:       995.54    3.306484  ( -0.459438  -1.347185   1.131589)
  18:      1001.77   49.394110  ( -5.731744   3.714141  -1.657219)
  19:      1025.40    9.718353  (  1.907386  -2.366841   0.691589)
  20:      1043.77   16.527960  ( -1.409630  -1.263747  -3.597756)
  21:      1139.58    9.546453  ( -2.064308   0.516740  -2.240104)
  22:      1197.46    1.954021  ( -1.015118  -0.951313   0.136234)
  23:      1297.80    0.481595  ( -0.233536  -0.639178   0.136043)
  24:      1317.96    5.976584  ( -1.557335  -1.087780  -1.538839)
  25:      1335.17    2.403684  (  0.328923  -1.248449  -0.858410)
  26:      1351.34    3.087111  ( -0.213763  -1.712391   0.330356)
  27:      1408.57    9.223236  (  0.264126   0.202039  -3.018717)
  28:      1454.37    5.964967  (  0.953339   2.089213   0.831446)
  29:      1474.98    2.880458  ( -1.014175  -1.270068  -0.488707)
  30:      1498.44   17.245822  (  3.095944  -0.387049   2.740647)
  31:      1507.03  151.701355  (  4.864717  -0.124624 -11.314608)
  32:      1657.79   52.259384  (  1.724197   6.979758   0.754655)
  33:      1663.80   38.718341  (  5.332137  -1.755215   2.684376)
  34:      1728.24    2.501598  (  0.095719  -1.168833  -1.061256)
  35:      3023.69   16.081164  (  2.242224  -1.229727  -3.088910)
  36:      3082.62    5.008391  ( -0.884431  -2.046310   0.196946)
  37:      3102.20    1.477278  ( -1.152842  -0.081323  -0.376325)
  38:      3159.50    3.350834  ( -1.156208  -1.263167   0.646860)
  39:      3163.36    0.118897  (  0.104064   0.324879   0.050216)
  40:      3167.84    1.509937  ( -0.676671  -0.962995   0.353120)
  41:      3255.65    0.782746  (  0.538574   0.685417  -0.151289)
  42:      3421.33   50.289240  ( -1.798298   0.116878   6.858696)
  43:      3502.41   92.322479  ( -1.682330  -9.440667  -0.605025)
  44:      3508.24  102.982846  (  9.009700  -1.899642   4.266089)

--------------------------
THERMOCHEMISTRY AT 298.15K
--------------------------

Temperature         ... 298.15 K
Pressure            ... 1.00 atm
Total Mass          ... 72.13 AMU

Throughout the following assumptions are being made:
  (1) The electronic state is orbitally nondegenerate
  (2) There are no thermally accessible electronically excited states
  (3) Hindered rotations indicated by low frequency modes) are not
      treated as such but are treated as vibrations and this may
      case some error
  (4) All equations used are the standard statistical mechanics
      equations for an ideal gas
  (5) All vibrations are strinctly harmonic

------------
INNER ENERGY
------------

The inner energy is: U= E(el) + E(ZPE) + E(vib) + E(rot) + E(trans)
    E(el)   - is the total energy from the electronic structure calculation
              = E(kin-el) + E(nuc-el) + E(el-el) + E(nuc-nuc)
    E(ZPE)  - the the zero temperature vibrational energy from the frequency calculation
    E(vib)  - the the finite temperature correction to E(ZPE) due to population
              of excietd vibrational states
    E(rot)  - is the rotational thermal energy
    E(trans)- is the translational thermal energy

Summary of contributions to the inner energy U:
Electronic energy                ...   -212.74510130 Eh
Zero point energy                ...      0.14154740 Eh      88.82 kcal/mol
Thermal vibrational correction   ...      0.00373219 Eh       2.34 kcal/mol
Thermal rotational correction    ...      0.00141627 Eh       0.89 kcal/mol
Thermal translational correction ...      0.00141627 Eh       0.89 kcal/mol
-----------------------------------------------------------------------
Total thermal energy                   -212.59698917 Eh

Summary of corrections to the electronic energy:
(perhaps to be used in another calculation)
Total thermal correction                  0.00656473 Eh       4.12 kcal/mol
Non-thermal (ZPE) correction              0.14154740 Eh      88.82 kcal/mol
-----------------------------------------------------------------------
Total correction                          0.14811213 Eh      92.94 kcal/mol

--------
ENTHALPY
--------

The enthalpy is H = U + kB*T
                kB is Boltzmann's constant
Total free energy                 ...   -212.59698917 Eh
Thermal Enthalpy correction       ...      0.00094421 Eh       0.59 kcal/mol
-----------------------------------------------------------------------
Total Enthalpy                    ...   -212.59604496 Eh

-------
ENTROPY
-------

The entropy contributions are T*S = T*(S(el)+S(vib)+S(rot)+S(trans)
     S(el)   - electronic entropy
     S(vib)  - vibrational entropy
     S(rot)  - rotational entropy
     S(trans)- translational entropy
The entropies will be listed as mutliplied by the temperature to get
units of energy

Electronic entropy                ...      0.00000000 Eh      0.00 kcal/mol
Vibrational entropy               ...      0.00675357 Eh      4.24 kcal/mol
Rotational entropy                ...      0.01123007 Eh      7.05 kcal/mol
Translational entropy             ...      0.01840857 Eh     11.55 kcal/mol
-----------------------------------------------------------------------
Final entropy term                ...      0.03639221 Eh     22.84 kcal/mol

CAUTION: The rotational entropy is not quite correctly treated here
         because it includes a symmetry number that is not yet correctly
         implemented in ORCA!
For a nonlinear molecule the correct rotational entropy is:
    S(rot) = R*(ln(qrot/sn)+1.5)
    R    = 8.31441 J/mol/K = 1.987191683e-3 kcal/mol/K
    qrot = 97987.0609083
    sn is the rotational symmetry number. We have assumed 3 here
       if it is different for your molecule then you should correct
       the printed rotational entropy by manually evaluating the equation
       as given above

For convenience we print out the resulting values for sn=1 - 12:
 sn= 1  qrot/sn=   97987.0609 T*S(rot)=     7.70 kcal/mol T*S(tot)=    23.49 kcal/mol
 sn= 2  qrot/sn=   48993.5305 T*S(rot)=     7.29 kcal/mol T*S(tot)=    23.08 kcal/mol
 sn= 3  qrot/sn=   32662.3536 T*S(rot)=     7.05 kcal/mol T*S(tot)=    22.84 kcal/mol
 sn= 4  qrot/sn=   24496.7652 T*S(rot)=     6.88 kcal/mol T*S(tot)=    22.67 kcal/mol
 sn= 5  qrot/sn=   19597.4122 T*S(rot)=     6.74 kcal/mol T*S(tot)=    22.53 kcal/mol
 sn= 6  qrot/sn=   16331.1768 T*S(rot)=     6.64 kcal/mol T*S(tot)=    22.43 kcal/mol
 sn= 7  qrot/sn=   13998.1516 T*S(rot)=     6.54 kcal/mol T*S(tot)=    22.33 kcal/mol
 sn= 8  qrot/sn=   12248.3826 T*S(rot)=     6.47 kcal/mol T*S(tot)=    22.26 kcal/mol
 sn= 9  qrot/sn=   10887.4512 T*S(rot)=     6.40 kcal/mol T*S(tot)=    22.19 kcal/mol
 sn=10  qrot/sn=    9798.7061 T*S(rot)=     6.33 kcal/mol T*S(tot)=    22.12 kcal/mol
 sn=11  qrot/sn=    8907.9146 T*S(rot)=     6.28 kcal/mol T*S(tot)=    22.07 kcal/mol
 sn=12  qrot/sn=    8165.5884 T*S(rot)=     6.23 kcal/mol T*S(tot)=    22.02 kcal/mol

-------------------
GIBBS FREE ENTHALPY
-------------------

The Gibbs free enthalpy is G = H - T*S

Total enthalpy                    ...   -212.59604496 Eh
Total entropy correction          ...     -0.03639221 Eh    -22.84 kcal/mol
-----------------------------------------------------------------------
Final Gibbs free enthalpy         ...   -212.63243717 Eh

For completeness - the Gibbs free enthalpy minus the electronic energy
G-E(el)                           ...      0.11266413 Eh     70.70 kcal/mol

                             ****ORCA TERMINATED NORMALLY****
TOTAL RUN TIME: 0 days 0 hours 11 minutes 20 seconds 66 msec
