                         Program Version 3.0.3 - RELEASE   -
|  1> ! NORI PBE0 def2-TZVP UseSym TightOPT Freq TightSCF Grid3 FinalGrid5 XYZFile
|  2> % pal
|  3>     nprocs 8
|  4> end
|  5> %method
|  6>     SymThresh 5.0e-2
|  7> end
|  8> % geom
|  9>     MaxIter 10
| 10> end
| 11> % maxcore 2000
| 12> % output
| 13>     printlevel mini
| 14>     print[ P_Basis ] 0
| 15>     print[ P_SCFInfo ] 1
| 16>     print[ P_SCFIterInfo ] 1
| 17>     print[ P_OrbEn ] 0
| 18>     print[ P_Cartesian ] 0
| 19> end
| 20> % elprop
| 21>     Dipole false
| 22> end
| 23> *xyz 1 1
| 24>  N        0.8811365508    -0.0105549409     0.0783762365
| 25>  C        2.3881391732    -0.0283997430     0.0523054664
| 26>  C        2.8971548361    -0.3798796698    -1.3367877714
| 27>  C        4.3473138226    -0.3954094793    -1.3313796919
| 28>  C        5.5443956686    -0.4002888604    -1.2974752984
| 29>  H        0.5259089233     0.2265287400     1.0071316120
| 30>  H        0.4958181053    -0.9228060362    -0.1774128078
| 31>  H        0.5074479027     0.6758687938    -0.5812069823
| 32>  H        2.7221453030     0.9607638570     0.3640571210
| 33>  H        2.7086840415    -0.7593424287     0.7941621607
| 34>  H        2.5184423924    -1.3623057486    -1.6443695080
| 35>  H        2.5387682463     0.3518545673    -2.0712445078
| 36>  H        6.6111950343    -0.4092490511    -1.2836460290
| 37> *
| 38>
| 39>                          ****END OF INPUT****
 Total Charge           Charge          ....    1
 Multiplicity           Mult            ....    1
 Number of Electrons    NEL             ....   38
FINAL SINGLE POINT ENERGY      -211.488515630145

CARTESIAN COORDINATES (ANGSTROEM)
---------------------------------
  N      2.310806    0.000226    0.000000
  C      0.889729   -0.503132    0.000000
  C     -0.091264    0.658602   -0.000000
  C     -1.448202    0.146789   -0.000000
  C     -2.557713   -0.304096    0.000000
  H      2.980942   -0.771900   -0.000000
  H      2.499795    0.575138    0.824552
  H      2.499795    0.575138   -0.824552
  H      0.774488   -1.126069   -0.886720
  H      0.774488   -1.126069    0.886720
  H      0.065007    1.290007    0.883409
  H      0.065007    1.290007   -0.883409
  H     -3.552330   -0.689917   -0.000000

FINAL SINGLE POINT ENERGY      -211.488515819558
                    ***********************HURRAY********************
 Multiplicity           Mult            ....    1
 Number of Electrons    NEL             ....   38
 Basis Dimension        Dim             ....  203
FINAL SINGLE POINT ENERGY      -211.488515873228

VIBRATIONAL FREQUENCIES
-----------------------

   0:         0.00 cm**-1
   1:         0.00 cm**-1
   2:         0.00 cm**-1
   3:         0.00 cm**-1
   4:         0.00 cm**-1
   5:         0.00 cm**-1
   6:        98.82 cm**-1
   7:       148.75 cm**-1
   8:       220.07 cm**-1
   9:       333.83 cm**-1
  10:       344.54 cm**-1
  11:       496.80 cm**-1
  12:       722.04 cm**-1
  13:       745.35 cm**-1
  14:       775.13 cm**-1
  15:       894.93 cm**-1
  16:       915.08 cm**-1
  17:       956.98 cm**-1
  18:      1023.66 cm**-1
  19:      1116.91 cm**-1
  20:      1143.33 cm**-1
  21:      1293.27 cm**-1
  22:      1336.08 cm**-1
  23:      1348.39 cm**-1
  24:      1417.50 cm**-1
  25:      1468.41 cm**-1
  26:      1496.22 cm**-1
  27:      1511.88 cm**-1
  28:      1659.37 cm**-1
  29:      1663.47 cm**-1
  30:      2259.02 cm**-1
  31:      3028.47 cm**-1
  32:      3068.35 cm**-1
  33:      3112.17 cm**-1
  34:      3174.60 cm**-1
  35:      3419.38 cm**-1
  36:      3463.12 cm**-1
  37:      3498.85 cm**-1
  38:      3504.54 cm**-1

IR SPECTRUM
-----------

 Mode    freq (cm**-1)   T**2         TX         TY         TZ
-------------------------------------------------------------------
   6:        98.82    6.470280  (  0.000002  -0.000095  -2.543675)
   7:       148.75    8.255741  ( -0.245806  -2.862747   0.000083)
   8:       220.07    0.055968  (  0.000057   0.000112   0.236575)
   9:       333.83   12.465963  ( -0.000064  -0.000007  -3.530717)
  10:       344.54    5.821922  ( -2.404409  -0.201843   0.000103)
  11:       496.80   22.108934  ( -3.599686   3.025094  -0.000004)
  12:       722.04   42.664076  ( -0.000001  -0.000000   6.531774)
  13:       745.35   35.659649  ( -1.820070   5.687442  -0.000001)
  14:       775.13    4.609419  ( -0.000007   0.000007   2.146956)
  15:       894.93   28.676297  ( -4.333193   3.146385   0.000041)
  16:       915.08   10.502241  ( -0.000052   0.000030  -3.240716)
  17:       956.98    8.147134  ( -2.173624  -1.849998   0.000001)
  18:      1023.66    3.976975  ( -1.226010  -1.572855  -0.000004)
  19:      1116.91    1.798783  ( -0.000002   0.000011   1.341187)
  20:      1143.33   10.982657  ( -2.146485   2.524928  -0.000003)
  21:      1293.27    0.538617  (  0.000004   0.000005   0.733905)
  22:      1336.08    6.874337  ( -2.620870  -0.073326   0.000005)
  23:      1348.39    5.930547  (  0.000010   0.000009   2.435271)
  24:      1417.50    2.887853  (  1.628925  -0.484206   0.000001)
  25:      1468.41    1.397540  ( -0.372262   1.122034   0.000012)
  26:      1496.22   15.126273  (  1.599389  -3.545170  -0.000003)
  27:      1511.88  157.306693  ( 11.865657   4.063605   0.000004)
  28:      1659.37   52.797424  ( -0.000650   0.001480   7.266183)
  29:      1663.47   39.834110  ( -2.522122   5.785586  -0.001881)
  30:      2259.02    6.314770  (  2.455100   0.535961   0.000000)
  31:      3028.47   14.601636  ( -3.431097  -1.682025  -0.000018)
  32:      3068.35    0.922784  (  0.000000  -0.000000  -0.960617)
  33:      3112.17    0.274865  (  0.400694  -0.338097  -0.000001)
  34:      3174.60    0.164939  (  0.000003  -0.000000  -0.406127)
  35:      3419.38   59.634960  ( -7.513815  -1.782565   0.000062)
  36:      3463.12   90.263434  (  8.961876   3.154079   0.000002)
  37:      3498.85   98.413079  ( -0.000254   0.000461  -9.920337)
  38:      3504.54  111.911038  ( -4.311587   9.660293   0.000487)

--------------------------
THERMOCHEMISTRY AT 298.15K
--------------------------

Temperature         ... 298.15 K
Pressure            ... 1.00 atm
Total Mass          ... 70.11 AMU

Throughout the following assumptions are being made:
  (1) The electronic state is orbitally nondegenerate
  (2) There are no thermally accessible electronically excited states
  (3) Hindered rotations indicated by low frequency modes) are not
      treated as such but are treated as vibrations and this may
      case some error
  (4) All equations used are the standard statistical mechanics
      equations for an ideal gas
  (5) All vibrations are strinctly harmonic

------------
INNER ENERGY
------------

The inner energy is: U= E(el) + E(ZPE) + E(vib) + E(rot) + E(trans)
    E(el)   - is the total energy from the electronic structure calculation
              = E(kin-el) + E(nuc-el) + E(el-el) + E(nuc-nuc)
    E(ZPE)  - the the zero temperature vibrational energy from the frequency calculation
    E(vib)  - the the finite temperature correction to E(ZPE) due to population
              of excietd vibrational states
    E(rot)  - is the rotational thermal energy
    E(trans)- is the translational thermal energy

Summary of contributions to the inner energy U:
Electronic energy                ...   -211.48851587 Eh
Zero point energy                ...      0.11768851 Eh      73.85 kcal/mol
Thermal vibrational correction   ...      0.00345683 Eh       2.17 kcal/mol
Thermal rotational correction    ...      0.00141627 Eh       0.89 kcal/mol
Thermal translational correction ...      0.00141627 Eh       0.89 kcal/mol
-----------------------------------------------------------------------
Total thermal energy                   -211.36453799 Eh

Summary of corrections to the electronic energy:
(perhaps to be used in another calculation)
Total thermal correction                  0.00628937 Eh       3.95 kcal/mol
Non-thermal (ZPE) correction              0.11768851 Eh      73.85 kcal/mol
-----------------------------------------------------------------------
Total correction                          0.12397788 Eh      77.80 kcal/mol

--------
ENTHALPY
--------

The enthalpy is H = U + kB*T
                kB is Boltzmann's constant
Total free energy                 ...   -211.36453799 Eh
Thermal Enthalpy correction       ...      0.00094421 Eh       0.59 kcal/mol
-----------------------------------------------------------------------
Total Enthalpy                    ...   -211.36359378 Eh

-------
ENTROPY
-------

The entropy contributions are T*S = T*(S(el)+S(vib)+S(rot)+S(trans)
     S(el)   - electronic entropy
     S(vib)  - vibrational entropy
     S(rot)  - rotational entropy
     S(trans)- translational entropy
The entropies will be listed as mutliplied by the temperature to get
units of energy

Electronic entropy                ...      0.00000000 Eh      0.00 kcal/mol
Vibrational entropy               ...      0.00603869 Eh      3.79 kcal/mol
Rotational entropy                ...      0.01108020 Eh      6.95 kcal/mol
Translational entropy             ...      0.01836842 Eh     11.53 kcal/mol
-----------------------------------------------------------------------
Final entropy term                ...      0.03548730 Eh     22.27 kcal/mol

CAUTION: The rotational entropy is not quite correctly treated here
         because it includes a symmetry number that is not yet correctly
         implemented in ORCA!
For a nonlinear molecule the correct rotational entropy is:
    S(rot) = R*(ln(qrot/sn)+1.5)
    R    = 8.31441 J/mol/K = 1.987191683e-3 kcal/mol/K
    qrot = 83604.9902773
    sn is the rotational symmetry number. We have assumed 3 here
       if it is different for your molecule then you should correct
       the printed rotational entropy by manually evaluating the equation
       as given above

For convenience we print out the resulting values for sn=1 - 12:
 sn= 1  qrot/sn=   83604.9903 T*S(rot)=     7.60 kcal/mol T*S(tot)=    22.92 kcal/mol
 sn= 2  qrot/sn=   41802.4951 T*S(rot)=     7.19 kcal/mol T*S(tot)=    22.51 kcal/mol
 sn= 3  qrot/sn=   27868.3301 T*S(rot)=     6.95 kcal/mol T*S(tot)=    22.27 kcal/mol
 sn= 4  qrot/sn=   20901.2476 T*S(rot)=     6.78 kcal/mol T*S(tot)=    22.10 kcal/mol
 sn= 5  qrot/sn=   16720.9981 T*S(rot)=     6.65 kcal/mol T*S(tot)=    21.97 kcal/mol
 sn= 6  qrot/sn=   13934.1650 T*S(rot)=     6.54 kcal/mol T*S(tot)=    21.86 kcal/mol
 sn= 7  qrot/sn=   11943.5700 T*S(rot)=     6.45 kcal/mol T*S(tot)=    21.77 kcal/mol
 sn= 8  qrot/sn=   10450.6238 T*S(rot)=     6.37 kcal/mol T*S(tot)=    21.69 kcal/mol
 sn= 9  qrot/sn=    9289.4434 T*S(rot)=     6.30 kcal/mol T*S(tot)=    21.62 kcal/mol
 sn=10  qrot/sn=    8360.4990 T*S(rot)=     6.24 kcal/mol T*S(tot)=    21.56 kcal/mol
 sn=11  qrot/sn=    7600.4537 T*S(rot)=     6.18 kcal/mol T*S(tot)=    21.50 kcal/mol
 sn=12  qrot/sn=    6967.0825 T*S(rot)=     6.13 kcal/mol T*S(tot)=    21.45 kcal/mol

-------------------
GIBBS FREE ENTHALPY
-------------------

The Gibbs free enthalpy is G = H - T*S

Total enthalpy                    ...   -211.36359378 Eh
Total entropy correction          ...     -0.03548730 Eh    -22.27 kcal/mol
-----------------------------------------------------------------------
Final Gibbs free enthalpy         ...   -211.39908109 Eh

For completeness - the Gibbs free enthalpy minus the electronic energy
G-E(el)                           ...      0.08943479 Eh     56.12 kcal/mol

                             ****ORCA TERMINATED NORMALLY****
TOTAL RUN TIME: 0 days 0 hours 8 minutes 59 seconds 186 msec
