                         Program Version 3.0.3 - RELEASE   -
|  1> ! NORI PBE0 def2-TZVP UseSym TightOPT Freq TightSCF Grid3 FinalGrid5 XYZFile
|  2> % pal
|  3>     nprocs 8
|  4> end
|  5> %method
|  6>     SymThresh 5.0e-2
|  7> end
|  8> % geom
|  9>     MaxIter 10
| 10> end
| 11> % maxcore 2000
| 12> % output
| 13>     printlevel mini
| 14>     print[ P_Basis ] 0
| 15>     print[ P_SCFInfo ] 1
| 16>     print[ P_SCFIterInfo ] 1
| 17>     print[ P_OrbEn ] 0
| 18>     print[ P_Cartesian ] 0
| 19> end
| 20> % elprop
| 21>     Dipole false
| 22> end
| 23> *xyz 1 1
| 24>  C        0.8271914021     0.0416091598     0.1468279524
| 25>  C        2.3072794603    -0.1527713462    -0.0596397976
| 26>  N        3.0541876978     1.1537597919     0.0882278043
| 27>  C        2.9638476892    -1.1154793697     0.9115560933
| 28>  O        4.3509819637    -0.9670941576     0.7099071401
| 29>  H        0.4017852861     0.7318008738    -0.5840569672
| 30>  H        0.6039524033     0.4075710568     1.1524282446
| 31>  H        0.3181897839    -0.9153464692     0.0233437484
| 32>  H        2.5296756501    -0.4805810627    -1.0780073299
| 33>  H        2.7668948613     1.6534160744     0.9323199037
| 34>  H        2.9158943473     1.7729271182    -0.7102591477
| 35>  H        4.0523695424     0.9119063106     0.1796766194
| 36>  H        2.6141001852    -2.1269552176     0.6830453158
| 37>  H        2.6769188599    -0.8771785233     1.9448891477
| 38>  H        4.8510908675    -1.5827442389     1.2531412728
| 39> *
| 40>
| 41>                          ****END OF INPUT****
 Total Charge           Charge          ....    1
 Multiplicity           Mult            ....    1
 Number of Electrons    NEL             ....   42
FINAL SINGLE POINT ENERGY      -249.886017367612

CARTESIAN COORDINATES (ANGSTROEM)
---------------------------------
  C     -0.642522    0.014789   -1.844254
  C     -0.101696   -0.369636   -0.491038
  N      1.359245   -0.000406   -0.364102
  C     -0.797817    0.292341    0.683420
  O      0.000320    0.000510    1.807976
  H     -0.116212   -0.496368   -2.652616
  H     -0.586104    1.093924   -2.010588
  H     -1.692533   -0.274713   -1.907579
  H     -0.123562   -1.452116   -0.343682
  H      1.529135    0.958150   -0.674859
  H      1.964935   -0.620709   -0.900940
  H      1.590739   -0.060877    0.638761
  H     -1.805879   -0.125345    0.766477
  H     -0.886282    1.375089    0.519336
  H     -0.395033    0.341479    2.615253

FINAL SINGLE POINT ENERGY      -249.886018052337
                    ***********************HURRAY********************
 Multiplicity           Mult            ....    1
 Number of Electrons    NEL             ....   42
 Basis Dimension        Dim             ....  215
FINAL SINGLE POINT ENERGY      -249.886018315918

VIBRATIONAL FREQUENCIES
-----------------------

   0:         0.00 cm**-1
   1:         0.00 cm**-1
   2:         0.00 cm**-1
   3:         0.00 cm**-1
   4:         0.00 cm**-1
   5:         0.00 cm**-1
   6:       155.50 cm**-1
   7:       228.28 cm**-1
   8:       237.97 cm**-1
   9:       279.10 cm**-1
  10:       301.27 cm**-1
  11:       353.41 cm**-1
  12:       437.84 cm**-1
  13:       518.75 cm**-1
  14:       802.42 cm**-1
  15:       910.28 cm**-1
  16:       944.14 cm**-1
  17:       972.24 cm**-1
  18:       985.99 cm**-1
  19:      1090.65 cm**-1
  20:      1117.92 cm**-1
  21:      1184.03 cm**-1
  22:      1216.71 cm**-1
  23:      1240.11 cm**-1
  24:      1289.88 cm**-1
  25:      1358.78 cm**-1
  26:      1409.39 cm**-1
  27:      1424.59 cm**-1
  28:      1443.17 cm**-1
  29:      1480.35 cm**-1
  30:      1485.66 cm**-1
  31:      1490.83 cm**-1
  32:      1514.58 cm**-1
  33:      1640.39 cm**-1
  34:      1664.97 cm**-1
  35:      3020.26 cm**-1
  36:      3058.76 cm**-1
  37:      3089.92 cm**-1
  38:      3105.90 cm**-1
  39:      3139.66 cm**-1
  40:      3151.12 cm**-1
  41:      3333.79 cm**-1
  42:      3471.62 cm**-1
  43:      3529.37 cm**-1
  44:      3867.81 cm**-1

IR SPECTRUM
-----------

 Mode    freq (cm**-1)   T**2         TX         TY         TZ
-------------------------------------------------------------------
   6:       155.50   16.547952  ( -1.912871  -3.264889   1.493110)
   7:       228.28    0.926399  ( -0.292382  -0.855154  -0.331095)
   8:       237.97   18.636634  (  0.932026   4.128398   0.851051)
   9:       279.10   47.860574  (  4.258026   3.332518  -4.315567)
  10:       301.27   89.811617  (  3.278697   8.885091  -0.341939)
  11:       353.41   20.623750  (  0.616933   0.160067  -4.496390)
  12:       437.84    6.920221  ( -2.586633   0.458905   0.137683)
  13:       518.75    8.868903  (  1.924908   0.235481   2.260128)
  14:       802.42    1.265346  ( -0.002515  -0.664681  -0.907491)
  15:       910.28   10.895667  ( -0.622989  -1.435600  -2.906305)
  16:       944.14    4.454688  ( -0.751075   0.870703   1.769873)
  17:       972.24   10.615587  (  0.953606  -1.968328   2.414934)
  18:       985.99   29.372467  (  0.936018   0.216223  -5.333815)
  19:      1090.65   95.970823  (  6.688346  -1.139249   7.066751)
  20:      1117.92   22.220507  ( -0.826209   0.837630  -4.564675)
  21:      1184.03    8.336894  ( -2.078919   1.879062  -0.695784)
  22:      1216.71   20.483286  (  2.262072   0.330365  -3.906043)
  23:      1240.11   29.180909  ( -2.633408   2.689639  -3.874521)
  24:      1289.88    7.911199  ( -0.944761  -0.393599  -2.619867)
  25:      1358.78    2.685018  ( -0.978909   1.273923   0.322294)
  26:      1409.39    3.457434  ( -1.038337   1.539794   0.091238)
  27:      1424.59   42.786279  ( -5.644434   0.769843  -3.214652)
  28:      1443.17   32.715447  ( -5.611581  -0.137945   1.098444)
  29:      1480.35  121.680300  (-10.850400  -1.987163  -0.017220)
  30:      1485.66   25.255939  ( -3.919703  -3.143298  -0.107451)
  31:      1490.83   15.581476  (  3.668519  -1.213802  -0.806305)
  32:      1514.58    9.638683  ( -2.028700   1.389753   1.895163)
  33:      1640.39   38.176194  ( -0.476062   5.629283  -2.502146)
  34:      1664.97   37.775427  ( -1.738194   3.876430   4.441554)
  35:      3020.26   20.629924  (  1.683882  -3.442535   2.437913)
  36:      3058.76    2.775724  ( -1.018352  -1.191516   0.564777)
  37:      3089.92    4.646495  ( -1.624501  -1.034366  -0.968286)
  38:      3105.90    1.534802  (  0.379255   1.091185  -0.447530)
  39:      3139.66    4.325986  ( -0.402880   1.983658   0.478303)
  40:      3151.12    0.766702  ( -0.216653  -0.085002   0.844120)
  41:      3333.79  115.266411  (  1.787275   0.143556  10.585436)
  42:      3471.62   91.759286  (  4.639128   3.360349  -7.677619)
  43:      3529.37   95.193477  ( -4.366912   8.075358   3.303355)
  44:      3867.81  136.946403  ( -2.634046   2.773787  11.059580)

--------------------------
THERMOCHEMISTRY AT 298.15K
--------------------------

Temperature         ... 298.15 K
Pressure            ... 1.00 atm
Total Mass          ... 76.12 AMU

Throughout the following assumptions are being made:
  (1) The electronic state is orbitally nondegenerate
  (2) There are no thermally accessible electronically excited states
  (3) Hindered rotations indicated by low frequency modes) are not
      treated as such but are treated as vibrations and this may
      case some error
  (4) All equations used are the standard statistical mechanics
      equations for an ideal gas
  (5) All vibrations are strinctly harmonic

------------
INNER ENERGY
------------

The inner energy is: U= E(el) + E(ZPE) + E(vib) + E(rot) + E(trans)
    E(el)   - is the total energy from the electronic structure calculation
              = E(kin-el) + E(nuc-el) + E(el-el) + E(nuc-nuc)
    E(ZPE)  - the the zero temperature vibrational energy from the frequency calculation
    E(vib)  - the the finite temperature correction to E(ZPE) due to population
              of excietd vibrational states
    E(rot)  - is the rotational thermal energy
    E(trans)- is the translational thermal energy

Summary of contributions to the inner energy U:
Electronic energy                ...   -249.88601832 Eh
Zero point energy                ...      0.14112664 Eh      88.56 kcal/mol
Thermal vibrational correction   ...      0.00378148 Eh       2.37 kcal/mol
Thermal rotational correction    ...      0.00141627 Eh       0.89 kcal/mol
Thermal translational correction ...      0.00141627 Eh       0.89 kcal/mol
-----------------------------------------------------------------------
Total thermal energy                   -249.73827765 Eh

Summary of corrections to the electronic energy:
(perhaps to be used in another calculation)
Total thermal correction                  0.00661402 Eh       4.15 kcal/mol
Non-thermal (ZPE) correction              0.14112664 Eh      88.56 kcal/mol
-----------------------------------------------------------------------
Total correction                          0.14774066 Eh      92.71 kcal/mol

--------
ENTHALPY
--------

The enthalpy is H = U + kB*T
                kB is Boltzmann's constant
Total free energy                 ...   -249.73827765 Eh
Thermal Enthalpy correction       ...      0.00094421 Eh       0.59 kcal/mol
-----------------------------------------------------------------------
Total Enthalpy                    ...   -249.73733344 Eh

-------
ENTROPY
-------

The entropy contributions are T*S = T*(S(el)+S(vib)+S(rot)+S(trans)
     S(el)   - electronic entropy
     S(vib)  - vibrational entropy
     S(rot)  - rotational entropy
     S(trans)- translational entropy
The entropies will be listed as mutliplied by the temperature to get
units of energy

Electronic entropy                ...      0.00000000 Eh      0.00 kcal/mol
Vibrational entropy               ...      0.00613901 Eh      3.85 kcal/mol
Rotational entropy                ...      0.01122246 Eh      7.04 kcal/mol
Translational entropy             ...      0.01848478 Eh     11.60 kcal/mol
-----------------------------------------------------------------------
Final entropy term                ...      0.03584626 Eh     22.49 kcal/mol

CAUTION: The rotational entropy is not quite correctly treated here
         because it includes a symmetry number that is not yet correctly
         implemented in ORCA!
For a nonlinear molecule the correct rotational entropy is:
    S(rot) = R*(ln(qrot/sn)+1.5)
    R    = 8.31441 J/mol/K = 1.987191683e-3 kcal/mol/K
    qrot = 97200.9430904
    sn is the rotational symmetry number. We have assumed 3 here
       if it is different for your molecule then you should correct
       the printed rotational entropy by manually evaluating the equation
       as given above

For convenience we print out the resulting values for sn=1 - 12:
 sn= 1  qrot/sn=   97200.9431 T*S(rot)=     7.69 kcal/mol T*S(tot)=    23.14 kcal/mol
 sn= 2  qrot/sn=   48600.4715 T*S(rot)=     7.28 kcal/mol T*S(tot)=    22.73 kcal/mol
 sn= 3  qrot/sn=   32400.3144 T*S(rot)=     7.04 kcal/mol T*S(tot)=    22.49 kcal/mol
 sn= 4  qrot/sn=   24300.2358 T*S(rot)=     6.87 kcal/mol T*S(tot)=    22.32 kcal/mol
 sn= 5  qrot/sn=   19440.1886 T*S(rot)=     6.74 kcal/mol T*S(tot)=    22.19 kcal/mol
 sn= 6  qrot/sn=   16200.1572 T*S(rot)=     6.63 kcal/mol T*S(tot)=    22.08 kcal/mol
 sn= 7  qrot/sn=   13885.8490 T*S(rot)=     6.54 kcal/mol T*S(tot)=    21.99 kcal/mol
 sn= 8  qrot/sn=   12150.1179 T*S(rot)=     6.46 kcal/mol T*S(tot)=    21.91 kcal/mol
 sn= 9  qrot/sn=   10800.1048 T*S(rot)=     6.39 kcal/mol T*S(tot)=    21.84 kcal/mol
 sn=10  qrot/sn=    9720.0943 T*S(rot)=     6.33 kcal/mol T*S(tot)=    21.78 kcal/mol
 sn=11  qrot/sn=    8836.4494 T*S(rot)=     6.27 kcal/mol T*S(tot)=    21.72 kcal/mol
 sn=12  qrot/sn=    8100.0786 T*S(rot)=     6.22 kcal/mol T*S(tot)=    21.67 kcal/mol

-------------------
GIBBS FREE ENTHALPY
-------------------

The Gibbs free enthalpy is G = H - T*S

Total enthalpy                    ...   -249.73733344 Eh
Total entropy correction          ...     -0.03584626 Eh    -22.49 kcal/mol
-----------------------------------------------------------------------
Final Gibbs free enthalpy         ...   -249.77317970 Eh

For completeness - the Gibbs free enthalpy minus the electronic energy
G-E(el)                           ...      0.11283862 Eh     70.81 kcal/mol

                             ****ORCA TERMINATED NORMALLY****
TOTAL RUN TIME: 0 days 0 hours 12 minutes 13 seconds 864 msec
