                         Program Version 3.0.3 - RELEASE   -
|  1> ! NORI PBE0 def2-TZVP UseSym TightOPT Freq TightSCF Grid3 FinalGrid5 XYZFile
|  2> % pal
|  3>     nprocs 8
|  4> end
|  5> %method
|  6>     SymThresh 5.0e-2
|  7> end
|  8> % geom
|  9>     MaxIter 10
| 10> end
| 11> % maxcore 2000
| 12> % output
| 13>     printlevel mini
| 14>     print[ P_Basis ] 0
| 15>     print[ P_SCFInfo ] 1
| 16>     print[ P_SCFIterInfo ] 1
| 17>     print[ P_OrbEn ] 0
| 18>     print[ P_Cartesian ] 0
| 19> end
| 20> % elprop
| 21>     Dipole false
| 22> end
| 23> *xyz 1 1
| 24>  C        0.9389422621     0.0915883345    -0.0925215922
| 25>  C        2.4488206155     0.1196522410    -0.1157869244
| 26>  O        2.9874571378     0.5581594438    -1.3530997335
| 27>  C        2.9983833931     1.1283375579     0.8773520817
| 28>  N        4.4606524603     1.3001733968     0.5917533983
| 29>  H        0.5640177446    -0.6480751551    -0.8020535957
| 30>  H        0.5291376379     1.0675264586    -0.3597299121
| 31>  H        0.5686091441    -0.1897824688     0.8958452222
| 32>  H        2.8426617089    -0.8783854548     0.1283071127
| 33>  H        2.6610665775     0.0210831776    -2.0811976139
| 34>  H        2.8699202878     0.8188039503     1.9130880934
| 35>  H        2.5352193902     2.1035851588     0.7223124375
| 36>  H        5.0123279350     0.5095996459     0.9286724502
| 37>  H        4.8459094124     2.1538597204     0.9950480510
| 38>  H        4.5413042926     1.3261939932    -0.4371294752
| 39> *
| 40>
| 41>                          ****END OF INPUT****
 Total Charge           Charge          ....    1
 Multiplicity           Mult            ....    1
 Number of Electrons    NEL             ....   42
FINAL SINGLE POINT ENERGY      -249.886123369606
FINAL SINGLE POINT ENERGY      -249.886123974446

CARTESIAN COORDINATES (ANGSTROEM)
---------------------------------
  C     -1.948218   -0.094656   -0.159407
  C     -0.528278    0.372387    0.059423
  O      0.000663    0.001895    1.322762
  C      0.426910   -0.284886   -0.922087
  N      1.824570   -0.000961   -0.457885
  H     -2.620262    0.396412    0.546729
  H     -2.027151   -1.174623   -0.019321
  H     -2.291661    0.159087   -1.164901
  H     -0.474229    1.464878   -0.060120
  H     -0.559220    0.319835    2.037297
  H      0.307443    0.079041   -1.941134
  H      0.306046   -1.368491   -0.899230
  H      2.108894    0.957882   -0.663594
  H      2.513540   -0.633286   -0.864732
  H      1.804246   -0.111269    0.568176

FINAL SINGLE POINT ENERGY      -249.886124254775
                    ***********************HURRAY********************
 Multiplicity           Mult            ....    1
 Number of Electrons    NEL             ....   42
 Basis Dimension        Dim             ....  215
FINAL SINGLE POINT ENERGY      -249.886124330619

VIBRATIONAL FREQUENCIES
-----------------------

   0:         0.00 cm**-1
   1:         0.00 cm**-1
   2:         0.00 cm**-1
   3:         0.00 cm**-1
   4:         0.00 cm**-1
   5:         0.00 cm**-1
   6:       145.20 cm**-1
   7:       220.86 cm**-1
   8:       240.66 cm**-1
   9:       268.02 cm**-1
  10:       299.21 cm**-1
  11:       382.35 cm**-1
  12:       481.15 cm**-1
  13:       507.43 cm**-1
  14:       831.44 cm**-1
  15:       868.44 cm**-1
  16:       925.45 cm**-1
  17:       978.15 cm**-1
  18:      1006.78 cm**-1
  19:      1050.01 cm**-1
  20:      1099.00 cm**-1
  21:      1171.05 cm**-1
  22:      1188.44 cm**-1
  23:      1274.03 cm**-1
  24:      1341.74 cm**-1
  25:      1366.60 cm**-1
  26:      1381.46 cm**-1
  27:      1417.42 cm**-1
  28:      1431.75 cm**-1
  29:      1477.28 cm**-1
  30:      1485.48 cm**-1
  31:      1488.84 cm**-1
  32:      1496.55 cm**-1
  33:      1641.01 cm**-1
  34:      1669.78 cm**-1
  35:      3004.43 cm**-1
  36:      3060.51 cm**-1
  37:      3109.91 cm**-1
  38:      3141.57 cm**-1
  39:      3147.92 cm**-1
  40:      3180.07 cm**-1
  41:      3320.00 cm**-1
  42:      3477.48 cm**-1
  43:      3531.20 cm**-1
  44:      3860.76 cm**-1

IR SPECTRUM
-----------

 Mode    freq (cm**-1)   T**2         TX         TY         TZ
-------------------------------------------------------------------
   6:       145.20   14.635741  ( -1.336929  -3.164481   1.683574)
   7:       220.86   17.503308  (  0.307327   3.750437   1.828410)
   8:       240.66    3.929704  ( -0.431916  -1.859234  -0.535163)
   9:       268.02   27.569740  (  3.902859   2.090319  -2.822764)
  10:       299.21   91.818892  ( -4.158614  -8.473984  -1.648156)
  11:       382.35   36.984904  (  5.262411   1.062152  -2.857230)
  12:       481.15    3.073654  (  0.164129   0.980873   1.443816)
  13:       507.43   10.147650  (  1.818920  -0.592401   2.547203)
  14:       831.44    7.685403  ( -2.732116  -0.377867   0.279574)
  15:       868.44    3.382335  (  1.035050   1.503800  -0.222692)
  16:       925.45   22.596841  ( -0.050892  -0.246947   4.746922)
  17:       978.15   13.210025  ( -3.507748  -0.941833   0.136658)
  18:      1006.78   17.039890  ( -2.513204   3.266350   0.233773)
  19:      1050.01  107.180057  (  0.263593   0.983778 -10.302561)
  20:      1099.00    3.080449  (  0.861592  -1.474236   0.405877)
  21:      1171.05    5.728845  ( -0.913128   1.027453  -1.959434)
  22:      1188.44   45.484172  (  4.712514  -2.472164   4.143041)
  23:      1274.03   23.171855  (  3.020226  -1.181229   3.557357)
  24:      1341.74   14.450340  (  0.161196   1.991315  -3.234041)
  25:      1366.60    4.847641  (  1.557959  -1.183607   1.009694)
  26:      1381.46   11.994219  ( -1.603001  -0.247956  -3.059922)
  27:      1417.42   15.899957  ( -3.611830  -0.927058  -1.412517)
  28:      1431.75    4.168802  ( -0.924622   1.696998   0.658841)
  29:      1477.28   80.743428  ( -8.744878  -0.895963  -1.862201)
  30:      1485.48   58.016395  ( -7.523913  -1.152758  -0.279779)
  31:      1488.84   40.877443  (  5.441018  -3.356629  -0.076193)
  32:      1496.55   44.681657  (  5.072204   1.134557   4.203235)
  33:      1641.01   37.313061  (  1.028533   5.144694  -3.128466)
  34:      1669.78   36.790974  (  2.728482  -3.499558  -4.135149)
  35:      3004.43   24.146295  (  0.817757   4.489104  -1.823599)
  36:      3060.51    0.923766  ( -0.746776  -0.585989  -0.150694)
  37:      3109.91    0.514755  ( -0.127450  -0.591793  -0.385087)
  38:      3141.57    3.488721  ( -0.275595  -0.356787   1.812587)
  39:      3147.92    4.597370  ( -0.430954   2.092394   0.183125)
  40:      3180.07    0.208950  ( -0.012114   0.313837  -0.332129)
  41:      3320.00  116.144437  ( -1.595752  -0.405709  10.650512)
  42:      3477.48  110.830364  (  7.693920   3.107850  -6.478829)
  43:      3531.20  105.185468  (  4.007676  -9.142030  -2.355268)
  44:      3860.76  109.379398  ( -3.927196   2.292066   9.418225)

--------------------------
THERMOCHEMISTRY AT 298.15K
--------------------------

Temperature         ... 298.15 K
Pressure            ... 1.00 atm
Total Mass          ... 76.12 AMU

Throughout the following assumptions are being made:
  (1) The electronic state is orbitally nondegenerate
  (2) There are no thermally accessible electronically excited states
  (3) Hindered rotations indicated by low frequency modes) are not
      treated as such but are treated as vibrations and this may
      case some error
  (4) All equations used are the standard statistical mechanics
      equations for an ideal gas
  (5) All vibrations are strinctly harmonic

------------
INNER ENERGY
------------

The inner energy is: U= E(el) + E(ZPE) + E(vib) + E(rot) + E(trans)
    E(el)   - is the total energy from the electronic structure calculation
              = E(kin-el) + E(nuc-el) + E(el-el) + E(nuc-nuc)
    E(ZPE)  - the the zero temperature vibrational energy from the frequency calculation
    E(vib)  - the the finite temperature correction to E(ZPE) due to population
              of excietd vibrational states
    E(rot)  - is the rotational thermal energy
    E(trans)- is the translational thermal energy

Summary of contributions to the inner energy U:
Electronic energy                ...   -249.88612433 Eh
Zero point energy                ...      0.14117673 Eh      88.59 kcal/mol
Thermal vibrational correction   ...      0.00377237 Eh       2.37 kcal/mol
Thermal rotational correction    ...      0.00141627 Eh       0.89 kcal/mol
Thermal translational correction ...      0.00141627 Eh       0.89 kcal/mol
-----------------------------------------------------------------------
Total thermal energy                   -249.73834269 Eh

Summary of corrections to the electronic energy:
(perhaps to be used in another calculation)
Total thermal correction                  0.00660492 Eh       4.14 kcal/mol
Non-thermal (ZPE) correction              0.14117673 Eh      88.59 kcal/mol
-----------------------------------------------------------------------
Total correction                          0.14778164 Eh      92.73 kcal/mol

--------
ENTHALPY
--------

The enthalpy is H = U + kB*T
                kB is Boltzmann's constant
Total free energy                 ...   -249.73834269 Eh
Thermal Enthalpy correction       ...      0.00094421 Eh       0.59 kcal/mol
-----------------------------------------------------------------------
Total Enthalpy                    ...   -249.73739848 Eh

-------
ENTROPY
-------

The entropy contributions are T*S = T*(S(el)+S(vib)+S(rot)+S(trans)
     S(el)   - electronic entropy
     S(vib)  - vibrational entropy
     S(rot)  - rotational entropy
     S(trans)- translational entropy
The entropies will be listed as mutliplied by the temperature to get
units of energy

Electronic entropy                ...      0.00000000 Eh      0.00 kcal/mol
Vibrational entropy               ...      0.00616202 Eh      3.87 kcal/mol
Rotational entropy                ...      0.01120250 Eh      7.03 kcal/mol
Translational entropy             ...      0.01848478 Eh     11.60 kcal/mol
-----------------------------------------------------------------------
Final entropy term                ...      0.03584931 Eh     22.50 kcal/mol

CAUTION: The rotational entropy is not quite correctly treated here
         because it includes a symmetry number that is not yet correctly
         implemented in ORCA!
For a nonlinear molecule the correct rotational entropy is:
    S(rot) = R*(ln(qrot/sn)+1.5)
    R    = 8.31441 J/mol/K = 1.987191683e-3 kcal/mol/K
    qrot = 95167.5466531
    sn is the rotational symmetry number. We have assumed 3 here
       if it is different for your molecule then you should correct
       the printed rotational entropy by manually evaluating the equation
       as given above

For convenience we print out the resulting values for sn=1 - 12:
 sn= 1  qrot/sn=   95167.5467 T*S(rot)=     7.68 kcal/mol T*S(tot)=    23.15 kcal/mol
 sn= 2  qrot/sn=   47583.7733 T*S(rot)=     7.27 kcal/mol T*S(tot)=    22.74 kcal/mol
 sn= 3  qrot/sn=   31722.5156 T*S(rot)=     7.03 kcal/mol T*S(tot)=    22.50 kcal/mol
 sn= 4  qrot/sn=   23791.8867 T*S(rot)=     6.86 kcal/mol T*S(tot)=    22.33 kcal/mol
 sn= 5  qrot/sn=   19033.5093 T*S(rot)=     6.73 kcal/mol T*S(tot)=    22.19 kcal/mol
 sn= 6  qrot/sn=   15861.2578 T*S(rot)=     6.62 kcal/mol T*S(tot)=    22.09 kcal/mol
 sn= 7  qrot/sn=   13595.3638 T*S(rot)=     6.53 kcal/mol T*S(tot)=    21.99 kcal/mol
 sn= 8  qrot/sn=   11895.9433 T*S(rot)=     6.45 kcal/mol T*S(tot)=    21.91 kcal/mol
 sn= 9  qrot/sn=   10574.1719 T*S(rot)=     6.38 kcal/mol T*S(tot)=    21.84 kcal/mol
 sn=10  qrot/sn=    9516.7547 T*S(rot)=     6.32 kcal/mol T*S(tot)=    21.78 kcal/mol
 sn=11  qrot/sn=    8651.5952 T*S(rot)=     6.26 kcal/mol T*S(tot)=    21.73 kcal/mol
 sn=12  qrot/sn=    7930.6289 T*S(rot)=     6.21 kcal/mol T*S(tot)=    21.67 kcal/mol

-------------------
GIBBS FREE ENTHALPY
-------------------

The Gibbs free enthalpy is G = H - T*S

Total enthalpy                    ...   -249.73739848 Eh
Total entropy correction          ...     -0.03584931 Eh    -22.50 kcal/mol
-----------------------------------------------------------------------
Final Gibbs free enthalpy         ...   -249.77324778 Eh

For completeness - the Gibbs free enthalpy minus the electronic energy
G-E(el)                           ...      0.11287655 Eh     70.83 kcal/mol

                             ****ORCA TERMINATED NORMALLY****
TOTAL RUN TIME: 0 days 0 hours 12 minutes 33 seconds 759 msec
