                         Program Version 3.0.3 - RELEASE   -
|  1> ! NORI PBE0 def2-TZVP UseSym TightOPT Freq TightSCF Grid3 FinalGrid5 XYZFile
|  2> % pal
|  3>     nprocs 8
|  4> end
|  5> %method
|  6>     SymThresh 5.0e-2
|  7> end
|  8> % geom
|  9>     MaxIter 10
| 10> end
| 11> % maxcore 2000
| 12> % output
| 13>     printlevel mini
| 14>     print[ P_Basis ] 0
| 15>     print[ P_SCFInfo ] 1
| 16>     print[ P_SCFIterInfo ] 1
| 17>     print[ P_OrbEn ] 0
| 18>     print[ P_Cartesian ] 0
| 19> end
| 20> % elprop
| 21>     Dipole false
| 22> end
| 23> *xyz 1 1
| 24>  C        3.5924450481     1.5970453847    -1.0196322778
| 25>  N        3.6440659837     0.2927587289    -0.3094082545
| 26>  C        3.4436838105    -0.9184208191    -1.1687299147
| 27>  C        4.7295910083    -1.1969484563    -1.9185789437
| 28>  O        5.7448710885    -1.0791437749    -0.9481766042
| 29>  H        3.7649415906     2.3960113145    -0.3009596728
| 30>  H        2.6124200915     1.7105144812    -1.4787051033
| 31>  H        4.3695575252     1.6158937907    -1.7802989010
| 32>  H        4.5781791114     0.1650264782     0.1046344036
| 33>  H        2.9648270914     0.2906363881     0.4509775283
| 34>  H        3.2178721929    -1.7429899320    -0.4919757073
| 35>  H        2.5962374705    -0.7470926807    -1.8316282294
| 36>  H        4.6672795583    -2.2036938007    -2.3424608535
| 37>  H        4.8763354398    -0.4907966946    -2.7442748218
| 38>  H        6.6029529893    -1.3176904078    -1.3098026480
| 39> *
| 40>
| 41>                          ****END OF INPUT****
 Total Charge           Charge          ....    1
 Multiplicity           Mult            ....    1
 Number of Electrons    NEL             ....   42
FINAL SINGLE POINT ENERGY      -249.876646041029

CARTESIAN COORDINATES (ANGSTROEM)
---------------------------------
  C      0.417789   -1.233447   -1.486089
  N      0.821733   -0.000492   -0.761649
  C     -0.294340    0.934343   -0.406452
  C     -1.021665    0.381424    0.801164
  O      0.000345    0.001520    1.694361
  H      1.303733   -1.837068   -1.674673
  H     -0.051790   -0.952529   -2.426744
  H     -0.280643   -1.792732   -0.868521
  H      1.243072   -0.256560    0.142371
  H      1.527647    0.497531   -1.302791
  H      0.169814    1.889894   -0.159911
  H     -0.944318    1.056380   -1.272176
  H     -1.662280    1.170935    1.205824
  H     -1.660403   -0.468364    0.533246
  H     -0.362015   -0.292906    2.534624

FINAL SINGLE POINT ENERGY      -249.876646701450
                    ***********************HURRAY********************
 Multiplicity           Mult            ....    1
 Number of Electrons    NEL             ....   42
 Basis Dimension        Dim             ....  215
FINAL SINGLE POINT ENERGY      -249.876647188583

VIBRATIONAL FREQUENCIES
-----------------------

   0:         0.00 cm**-1
   1:         0.00 cm**-1
   2:         0.00 cm**-1
   3:         0.00 cm**-1
   4:         0.00 cm**-1
   5:         0.00 cm**-1
   6:        79.06 cm**-1
   7:       168.19 cm**-1
   8:       226.74 cm**-1
   9:       282.96 cm**-1
  10:       304.94 cm**-1
  11:       398.20 cm**-1
  12:       550.53 cm**-1
  13:       801.31 cm**-1
  14:       821.93 cm**-1
  15:       931.74 cm**-1
  16:       978.38 cm**-1
  17:      1029.33 cm**-1
  18:      1082.20 cm**-1
  19:      1108.01 cm**-1
  20:      1147.11 cm**-1
  21:      1184.15 cm**-1
  22:      1244.67 cm**-1
  23:      1269.51 cm**-1
  24:      1324.24 cm**-1
  25:      1375.60 cm**-1
  26:      1417.87 cm**-1
  27:      1430.22 cm**-1
  28:      1459.49 cm**-1
  29:      1464.61 cm**-1
  30:      1483.66 cm**-1
  31:      1495.93 cm**-1
  32:      1498.75 cm**-1
  33:      1523.52 cm**-1
  34:      1630.25 cm**-1
  35:      3041.12 cm**-1
  36:      3091.32 cm**-1
  37:      3096.26 cm**-1
  38:      3108.41 cm**-1
  39:      3171.75 cm**-1
  40:      3192.05 cm**-1
  41:      3203.35 cm**-1
  42:      3352.57 cm**-1
  43:      3502.73 cm**-1
  44:      3869.06 cm**-1

IR SPECTRUM
-----------

 Mode    freq (cm**-1)   T**2         TX         TY         TZ
-------------------------------------------------------------------
   6:        79.06    5.445042  (  0.438930   2.290939  -0.063108)
   7:       168.19   14.544141  ( -0.700921   1.927295   3.215336)
   8:       226.74    8.316223  ( -0.085797  -2.159386  -1.909428)
   9:       282.96  111.143759  ( -1.399874 -10.235402  -2.102535)
  10:       304.94   39.507313  (  0.611541  -2.463370  -5.750230)
  11:       398.20    5.612747  (  0.425603  -0.169854  -2.324384)
  12:       550.53    7.855547  ( -2.295489   0.999066  -1.260217)
  13:       801.31   12.354472  (  1.333417  -0.581123  -3.199807)
  14:       821.93   15.625444  (  0.732904   0.698587  -3.821030)
  15:       931.74   20.943491  ( -1.632895   2.062621  -3.744695)
  16:       978.38   12.239483  (  2.874176  -0.386080   1.956921)
  17:      1029.33   27.301994  (  2.482623  -4.149592  -1.979764)
  18:      1082.20   29.991506  (  3.464866  -1.820609   3.830352)
  19:      1108.01   41.213690  ( -3.653857   1.113568  -5.159747)
  20:      1147.11    3.766784  (  1.656744  -0.999055  -0.154502)
  21:      1184.15    0.416717  (  0.158076   0.516431   0.353593)
  22:      1244.67   33.159066  (  5.213059  -0.373075   2.417415)
  23:      1269.51    4.129710  ( -1.417596   0.753958  -1.245665)
  24:      1324.24   25.086680  (  4.415402  -0.914668   2.180433)
  25:      1375.60    4.458645  ( -0.302858   2.089190   0.046999)
  26:      1417.87    3.492162  (  0.162096   1.861345  -0.035788)
  27:      1430.22   38.316462  (  3.417667  -3.191450  -4.055941)
  28:      1459.49   10.629404  ( -0.245979  -2.777914  -1.688815)
  29:      1464.61   10.299341  ( -1.388512   1.855523   2.220002)
  30:      1483.66    6.605844  ( -0.874455   2.373971  -0.453246)
  31:      1495.93   35.186872  (  4.992501  -2.507089  -1.994070)
  32:      1498.75   25.353400  (  0.502208  -3.547276   3.538082)
  33:      1523.52    9.784612  ( -1.796821  -1.200891   2.261395)
  34:      1630.25   65.003767  (  7.974436   1.185017  -0.088706)
  35:      3041.12   20.908746  ( -3.721101  -1.570225  -2.143955)
  36:      3091.32    5.129595  ( -0.544967   2.123975   0.566866)
  37:      3096.26    0.692664  (  0.426343   0.541316   0.466768)
  38:      3108.41    2.104267  ( -0.045204  -1.406675   0.351410)
  39:      3171.75    0.266540  (  0.207391   0.191026   0.432480)
  40:      3192.05    0.138073  ( -0.242612   0.095656   0.264693)
  41:      3203.35    0.035646  (  0.023442  -0.105842   0.154577)
  42:      3352.57  116.480363  (  3.361396  -0.718530  10.230596)
  43:      3502.73   91.682303  (  5.746269   4.099360  -6.469771)
  44:      3869.06  133.889770  (  1.807850   3.414669 -10.906947)

--------------------------
THERMOCHEMISTRY AT 298.15K
--------------------------

Temperature         ... 298.15 K
Pressure            ... 1.00 atm
Total Mass          ... 76.12 AMU

Throughout the following assumptions are being made:
  (1) The electronic state is orbitally nondegenerate
  (2) There are no thermally accessible electronically excited states
  (3) Hindered rotations indicated by low frequency modes) are not
      treated as such but are treated as vibrations and this may
      case some error
  (4) All equations used are the standard statistical mechanics
      equations for an ideal gas
  (5) All vibrations are strinctly harmonic

------------
INNER ENERGY
------------

The inner energy is: U= E(el) + E(ZPE) + E(vib) + E(rot) + E(trans)
    E(el)   - is the total energy from the electronic structure calculation
              = E(kin-el) + E(nuc-el) + E(el-el) + E(nuc-nuc)
    E(ZPE)  - the the zero temperature vibrational energy from the frequency calculation
    E(vib)  - the the finite temperature correction to E(ZPE) due to population
              of excietd vibrational states
    E(rot)  - is the rotational thermal energy
    E(trans)- is the translational thermal energy

Summary of contributions to the inner energy U:
Electronic energy                ...   -249.87664719 Eh
Zero point energy                ...      0.14202490 Eh      89.12 kcal/mol
Thermal vibrational correction   ...      0.00371745 Eh       2.33 kcal/mol
Thermal rotational correction    ...      0.00141627 Eh       0.89 kcal/mol
Thermal translational correction ...      0.00141627 Eh       0.89 kcal/mol
-----------------------------------------------------------------------
Total thermal energy                   -249.72807229 Eh

Summary of corrections to the electronic energy:
(perhaps to be used in another calculation)
Total thermal correction                  0.00654999 Eh       4.11 kcal/mol
Non-thermal (ZPE) correction              0.14202490 Eh      89.12 kcal/mol
-----------------------------------------------------------------------
Total correction                          0.14857489 Eh      93.23 kcal/mol

--------
ENTHALPY
--------

The enthalpy is H = U + kB*T
                kB is Boltzmann's constant
Total free energy                 ...   -249.72807229 Eh
Thermal Enthalpy correction       ...      0.00094421 Eh       0.59 kcal/mol
-----------------------------------------------------------------------
Total Enthalpy                    ...   -249.72712809 Eh

-------
ENTROPY
-------

The entropy contributions are T*S = T*(S(el)+S(vib)+S(rot)+S(trans)
     S(el)   - electronic entropy
     S(vib)  - vibrational entropy
     S(rot)  - rotational entropy
     S(trans)- translational entropy
The entropies will be listed as mutliplied by the temperature to get
units of energy

Electronic entropy                ...      0.00000000 Eh      0.00 kcal/mol
Vibrational entropy               ...      0.00657764 Eh      4.13 kcal/mol
Rotational entropy                ...      0.01122011 Eh      7.04 kcal/mol
Translational entropy             ...      0.01848478 Eh     11.60 kcal/mol
-----------------------------------------------------------------------
Final entropy term                ...      0.03628253 Eh     22.77 kcal/mol

CAUTION: The rotational entropy is not quite correctly treated here
         because it includes a symmetry number that is not yet correctly
         implemented in ORCA!
For a nonlinear molecule the correct rotational entropy is:
    S(rot) = R*(ln(qrot/sn)+1.5)
    R    = 8.31441 J/mol/K = 1.987191683e-3 kcal/mol/K
    qrot = 96959.1944338
    sn is the rotational symmetry number. We have assumed 3 here
       if it is different for your molecule then you should correct
       the printed rotational entropy by manually evaluating the equation
       as given above

For convenience we print out the resulting values for sn=1 - 12:
 sn= 1  qrot/sn=   96959.1944 T*S(rot)=     7.69 kcal/mol T*S(tot)=    23.42 kcal/mol
 sn= 2  qrot/sn=   48479.5972 T*S(rot)=     7.28 kcal/mol T*S(tot)=    23.01 kcal/mol
 sn= 3  qrot/sn=   32319.7315 T*S(rot)=     7.04 kcal/mol T*S(tot)=    22.77 kcal/mol
 sn= 4  qrot/sn=   24239.7986 T*S(rot)=     6.87 kcal/mol T*S(tot)=    22.60 kcal/mol
 sn= 5  qrot/sn=   19391.8389 T*S(rot)=     6.74 kcal/mol T*S(tot)=    22.46 kcal/mol
 sn= 6  qrot/sn=   16159.8657 T*S(rot)=     6.63 kcal/mol T*S(tot)=    22.36 kcal/mol
 sn= 7  qrot/sn=   13851.3135 T*S(rot)=     6.54 kcal/mol T*S(tot)=    22.27 kcal/mol
 sn= 8  qrot/sn=   12119.8993 T*S(rot)=     6.46 kcal/mol T*S(tot)=    22.19 kcal/mol
 sn= 9  qrot/sn=   10773.2438 T*S(rot)=     6.39 kcal/mol T*S(tot)=    22.12 kcal/mol
 sn=10  qrot/sn=    9695.9194 T*S(rot)=     6.33 kcal/mol T*S(tot)=    22.05 kcal/mol
 sn=11  qrot/sn=    8814.4722 T*S(rot)=     6.27 kcal/mol T*S(tot)=    22.00 kcal/mol
 sn=12  qrot/sn=    8079.9329 T*S(rot)=     6.22 kcal/mol T*S(tot)=    21.95 kcal/mol

-------------------
GIBBS FREE ENTHALPY
-------------------

The Gibbs free enthalpy is G = H - T*S

Total enthalpy                    ...   -249.72712809 Eh
Total entropy correction          ...     -0.03628253 Eh    -22.77 kcal/mol
-----------------------------------------------------------------------
Final Gibbs free enthalpy         ...   -249.76341062 Eh

For completeness - the Gibbs free enthalpy minus the electronic energy
G-E(el)                           ...      0.11323657 Eh     71.06 kcal/mol

                             ****ORCA TERMINATED NORMALLY****
TOTAL RUN TIME: 0 days 0 hours 12 minutes 5 seconds 41 msec
