                         Program Version 3.0.3 - RELEASE   -
|  1> ! NORI PBE0 def2-TZVP UseSym TightOPT Freq TightSCF Grid3 FinalGrid5 XYZFile
|  2> % pal
|  3>     nprocs 8
|  4> end
|  5> %method
|  6>     SymThresh 5.0e-2
|  7> end
|  8> % geom
|  9>     MaxIter 10
| 10> end
| 11> % maxcore 2000
| 12> % output
| 13>     printlevel mini
| 14>     print[ P_Basis ] 0
| 15>     print[ P_SCFInfo ] 1
| 16>     print[ P_SCFIterInfo ] 1
| 17>     print[ P_OrbEn ] 0
| 18>     print[ P_Cartesian ] 0
| 19> end
| 20> % elprop
| 21>     Dipole false
| 22> end
| 23> *xyz 1 1
| 24>  C        3.0345187572    -0.8087628861     0.1193669155
| 25>  O        3.8642844428     0.3149549080    -0.1471638051
| 26>  C        3.1605626083     1.4943130850    -0.4192329819
| 27>  C        4.2206105406     2.5592490200    -0.5988692509
| 28>  N        5.2668107579     1.9864139720    -1.5095645245
| 29>  H        3.6938634193    -1.6571724687     0.2876873136
| 30>  H        2.3774707254    -1.0168592751    -0.7312582376
| 31>  H        2.4309573968    -0.6339796749     1.0143606594
| 32>  H        2.5409208067     1.3872798573    -1.3227490573
| 33>  H        2.5003580703     1.7851914182     0.4066054094
| 34>  H        3.8345749252     3.4819479963    -1.0280610225
| 35>  H        4.7186418973     2.7719310210     0.3466743506
| 36>  H        4.9657156712     1.9826833665    -2.4854681353
| 37>  H        5.3825320816     1.0051542347    -1.2088093831
| 38>  H        6.1579078993     2.4786554258    -1.4505082502
| 39> *
| 40>
| 41>                          ****END OF INPUT****
 Total Charge           Charge          ....    1
 Multiplicity           Mult            ....    1
 Number of Electrons    NEL             ....   42
FINAL SINGLE POINT ENERGY      -249.865403624025

CARTESIAN COORDINATES (ANGSTROEM)
---------------------------------
  C     -0.588476   -0.509613    2.064796
  O     -0.000116   -0.000224    0.874530
  C     -0.844500   -0.035274   -0.241707
  C     -0.053978    0.608645   -1.360136
  N      1.317525   -0.000018   -1.334157
  H      0.168684   -0.450352    2.843461
  H     -0.896842   -1.551287    1.930524
  H     -1.453577    0.094528    2.351823
  H     -1.127696   -1.068672   -0.492870
  H     -1.767298    0.535468   -0.083853
  H     -0.497626    0.457141   -2.342633
  H      0.078923    1.674291   -1.175391
  H      1.328088   -0.939305   -1.734559
  H      1.562596   -0.078004   -0.333879
  H      2.012173    0.564726   -1.822426

FINAL SINGLE POINT ENERGY      -249.865404166667
                    ***********************HURRAY********************
 Multiplicity           Mult            ....    1
 Number of Electrons    NEL             ....   42
 Basis Dimension        Dim             ....  215
FINAL SINGLE POINT ENERGY      -249.865404401795

VIBRATIONAL FREQUENCIES
-----------------------

   0:         0.00 cm**-1
   1:         0.00 cm**-1
   2:         0.00 cm**-1
   3:         0.00 cm**-1
   4:         0.00 cm**-1
   5:         0.00 cm**-1
   6:        97.69 cm**-1
   7:       158.62 cm**-1
   8:       208.35 cm**-1
   9:       240.75 cm**-1
  10:       281.52 cm**-1
  11:       371.79 cm**-1
  12:       531.99 cm**-1
  13:       808.51 cm**-1
  14:       890.75 cm**-1
  15:       952.79 cm**-1
  16:       987.41 cm**-1
  17:      1036.27 cm**-1
  18:      1107.64 cm**-1
  19:      1163.76 cm**-1
  20:      1171.36 cm**-1
  21:      1193.74 cm**-1
  22:      1239.01 cm**-1
  23:      1277.89 cm**-1
  24:      1343.90 cm**-1
  25:      1388.02 cm**-1
  26:      1428.06 cm**-1
  27:      1467.63 cm**-1
  28:      1483.18 cm**-1
  29:      1486.69 cm**-1
  30:      1489.66 cm**-1
  31:      1497.48 cm**-1
  32:      1518.14 cm**-1
  33:      1640.95 cm**-1
  34:      1669.30 cm**-1
  35:      3003.18 cm**-1
  36:      3038.67 cm**-1
  37:      3067.53 cm**-1
  38:      3112.86 cm**-1
  39:      3116.95 cm**-1
  40:      3176.85 cm**-1
  41:      3182.18 cm**-1
  42:      3311.55 cm**-1
  43:      3476.80 cm**-1
  44:      3531.76 cm**-1

IR SPECTRUM
-----------

 Mode    freq (cm**-1)   T**2         TX         TY         TZ
-------------------------------------------------------------------
   6:        97.69   10.568752  (  0.251408  -3.227308   0.300053)
   7:       158.62   15.486411  (  0.923110  -0.383623  -3.806194)
   8:       208.35   17.548175  ( -1.759753   1.195512   3.608628)
   9:       240.75    3.023874  (  0.062182   1.719953   0.248537)
  10:       281.52    3.904679  (  0.296539  -0.882429   1.743004)
  11:       371.79   27.053300  (  4.295562   1.025288  -2.747769)
  12:       531.99    6.141696  (  2.198193   0.739409  -0.873451)
  13:       808.51   20.195382  ( -2.814486   0.161509   3.499709)
  14:       890.75    7.431285  ( -2.089014  -0.270668   1.730331)
  15:       952.79   12.564066  ( -1.245516  -2.934581  -1.549512)
  16:       987.41   11.261650  ( -1.349491  -0.276671  -3.060062)
  17:      1036.27   28.717677  (  4.726161   1.345588  -2.137867)
  18:      1107.64   74.716376  (  3.509121   2.864189  -7.361988)
  19:      1163.76   33.660012  (  0.812690   2.293620  -5.266769)
  20:      1171.36  119.544830  (  0.617114   2.336659 -10.663209)
  21:      1193.74    2.440935  ( -1.098219   1.014380   0.453743)
  22:      1239.01   26.059894  (  2.388953   0.249764   4.504488)
  23:      1277.89    4.921100  (  0.691090  -2.107800  -0.025961)
  24:      1343.90   16.927819  ( -1.353493  -1.392109  -3.627383)
  25:      1388.02    5.678204  ( -0.314117   0.858353  -2.200628)
  26:      1428.06    3.288453  ( -1.060855   0.570353  -1.355632)
  27:      1467.63   91.777834  (  9.209201  -2.477741  -0.910629)
  28:      1483.18   13.814359  (  3.431053   1.003956  -1.017010)
  29:      1486.69   51.970972  (  5.246837  -4.769436  -1.301596)
  30:      1489.66   24.228790  ( -3.117031  -1.116399   3.642329)
  31:      1497.48   31.495737  ( -5.276070   0.389401  -1.872750)
  32:      1518.14   20.441565  (  4.372676   0.492585  -1.038569)
  33:      1640.95   35.350497  (  1.061260   4.872000   3.238493)
  34:      1669.30   36.939207  (  2.529854   3.431739  -4.331537)
  35:      3003.18   23.589536  ( -2.020691  -3.100359  -3.145492)
  36:      3038.67   26.342315  (  2.679251   2.668290  -3.470469)
  37:      3067.53    8.652409  (  1.679889  -2.409112   0.162972)
  38:      3112.86   16.833692  (  1.237161  -3.694722  -1.285361)
  39:      3116.95    0.508071  (  0.111315   0.292328  -0.640487)
  40:      3176.85    3.779443  (  1.453911   0.147780   1.282087)
  41:      3182.18    0.076092  ( -0.028519   0.053988  -0.269006)
  42:      3311.55  136.381871  ( -0.308233   1.503143 -11.577021)
  43:      3476.80  114.760510  (  5.021539  -3.029088  -8.964892)
  44:      3531.76  108.178862  (  5.353900   8.622799  -2.271993)

--------------------------
THERMOCHEMISTRY AT 298.15K
--------------------------

Temperature         ... 298.15 K
Pressure            ... 1.00 atm
Total Mass          ... 76.12 AMU

Throughout the following assumptions are being made:
  (1) The electronic state is orbitally nondegenerate
  (2) There are no thermally accessible electronically excited states
  (3) Hindered rotations indicated by low frequency modes) are not
      treated as such but are treated as vibrations and this may
      case some error
  (4) All equations used are the standard statistical mechanics
      equations for an ideal gas
  (5) All vibrations are strinctly harmonic

------------
INNER ENERGY
------------

The inner energy is: U= E(el) + E(ZPE) + E(vib) + E(rot) + E(trans)
    E(el)   - is the total energy from the electronic structure calculation
              = E(kin-el) + E(nuc-el) + E(el-el) + E(nuc-nuc)
    E(ZPE)  - the the zero temperature vibrational energy from the frequency calculation
    E(vib)  - the the finite temperature correction to E(ZPE) due to population
              of excietd vibrational states
    E(rot)  - is the rotational thermal energy
    E(trans)- is the translational thermal energy

Summary of contributions to the inner energy U:
Electronic energy                ...   -249.86540440 Eh
Zero point energy                ...      0.14159084 Eh      88.85 kcal/mol
Thermal vibrational correction   ...      0.00381074 Eh       2.39 kcal/mol
Thermal rotational correction    ...      0.00141627 Eh       0.89 kcal/mol
Thermal translational correction ...      0.00141627 Eh       0.89 kcal/mol
-----------------------------------------------------------------------
Total thermal energy                   -249.71717027 Eh

Summary of corrections to the electronic energy:
(perhaps to be used in another calculation)
Total thermal correction                  0.00664329 Eh       4.17 kcal/mol
Non-thermal (ZPE) correction              0.14159084 Eh      88.85 kcal/mol
-----------------------------------------------------------------------
Total correction                          0.14823413 Eh      93.02 kcal/mol

--------
ENTHALPY
--------

The enthalpy is H = U + kB*T
                kB is Boltzmann's constant
Total free energy                 ...   -249.71717027 Eh
Thermal Enthalpy correction       ...      0.00094421 Eh       0.59 kcal/mol
-----------------------------------------------------------------------
Total Enthalpy                    ...   -249.71622607 Eh

-------
ENTROPY
-------

The entropy contributions are T*S = T*(S(el)+S(vib)+S(rot)+S(trans)
     S(el)   - electronic entropy
     S(vib)  - vibrational entropy
     S(rot)  - rotational entropy
     S(trans)- translational entropy
The entropies will be listed as mutliplied by the temperature to get
units of energy

Electronic entropy                ...      0.00000000 Eh      0.00 kcal/mol
Vibrational entropy               ...      0.00672082 Eh      4.22 kcal/mol
Rotational entropy                ...      0.01121431 Eh      7.04 kcal/mol
Translational entropy             ...      0.01848478 Eh     11.60 kcal/mol
-----------------------------------------------------------------------
Final entropy term                ...      0.03641991 Eh     22.85 kcal/mol

CAUTION: The rotational entropy is not quite correctly treated here
         because it includes a symmetry number that is not yet correctly
         implemented in ORCA!
For a nonlinear molecule the correct rotational entropy is:
    S(rot) = R*(ln(qrot/sn)+1.5)
    R    = 8.31441 J/mol/K = 1.987191683e-3 kcal/mol/K
    qrot = 96364.9802646
    sn is the rotational symmetry number. We have assumed 3 here
       if it is different for your molecule then you should correct
       the printed rotational entropy by manually evaluating the equation
       as given above

For convenience we print out the resulting values for sn=1 - 12:
 sn= 1  qrot/sn=   96364.9803 T*S(rot)=     7.69 kcal/mol T*S(tot)=    23.50 kcal/mol
 sn= 2  qrot/sn=   48182.4901 T*S(rot)=     7.28 kcal/mol T*S(tot)=    23.09 kcal/mol
 sn= 3  qrot/sn=   32121.6601 T*S(rot)=     7.04 kcal/mol T*S(tot)=    22.85 kcal/mol
 sn= 4  qrot/sn=   24091.2451 T*S(rot)=     6.87 kcal/mol T*S(tot)=    22.68 kcal/mol
 sn= 5  qrot/sn=   19272.9961 T*S(rot)=     6.73 kcal/mol T*S(tot)=    22.55 kcal/mol
 sn= 6  qrot/sn=   16060.8300 T*S(rot)=     6.63 kcal/mol T*S(tot)=    22.44 kcal/mol
 sn= 7  qrot/sn=   13766.4258 T*S(rot)=     6.54 kcal/mol T*S(tot)=    22.35 kcal/mol
 sn= 8  qrot/sn=   12045.6225 T*S(rot)=     6.46 kcal/mol T*S(tot)=    22.27 kcal/mol
 sn= 9  qrot/sn=   10707.2200 T*S(rot)=     6.39 kcal/mol T*S(tot)=    22.20 kcal/mol
 sn=10  qrot/sn=    9636.4980 T*S(rot)=     6.32 kcal/mol T*S(tot)=    22.14 kcal/mol
 sn=11  qrot/sn=    8760.4528 T*S(rot)=     6.27 kcal/mol T*S(tot)=    22.08 kcal/mol
 sn=12  qrot/sn=    8030.4150 T*S(rot)=     6.22 kcal/mol T*S(tot)=    22.03 kcal/mol

-------------------
GIBBS FREE ENTHALPY
-------------------

The Gibbs free enthalpy is G = H - T*S

Total enthalpy                    ...   -249.71622607 Eh
Total entropy correction          ...     -0.03641991 Eh    -22.85 kcal/mol
-----------------------------------------------------------------------
Final Gibbs free enthalpy         ...   -249.75264597 Eh

For completeness - the Gibbs free enthalpy minus the electronic energy
G-E(el)                           ...      0.11275843 Eh     70.76 kcal/mol

                             ****ORCA TERMINATED NORMALLY****
TOTAL RUN TIME: 0 days 0 hours 11 minutes 37 seconds 986 msec
