                         Program Version 3.0.3 - RELEASE   -
|  1> ! NORI PBE0 def2-TZVP UseSym TightOPT Freq TightSCF Grid3 FinalGrid5 XYZFile
|  2> % pal
|  3>     nprocs 8
|  4> end
|  5> %method
|  6>     SymThresh 5.0e-2
|  7> end
|  8> % geom
|  9>     MaxIter 10
| 10> end
| 11> % maxcore 2000
| 12> % output
| 13>     printlevel mini
| 14>     print[ P_Basis ] 0
| 15>     print[ P_SCFInfo ] 1
| 16>     print[ P_SCFIterInfo ] 1
| 17>     print[ P_OrbEn ] 0
| 18>     print[ P_Cartesian ] 0
| 19> end
| 20> % elprop
| 21>     Dipole false
| 22> end
| 23> *xyz 1 1
| 24>  N        1.0105388559    -0.0021074909     0.0855053834
| 25>  C        2.4657837359    -0.2608634924     0.1820754797
| 26>  C        3.1445688338    -1.0846041827    -0.8614691595
| 27>  C        3.3886145670     0.3984215029    -0.7772303085
| 28>  O        4.5269878057     0.9038720650    -0.2055864606
| 29>  H        0.4676940036    -0.7810337718     0.4693450451
| 30>  H        0.7182074855     0.1232160651    -0.8861238044
| 31>  H        0.7513323991     0.8467228158     0.5965381452
| 32>  H        2.7858213143    -0.3467243161     1.2124977361
| 33>  H        3.9110539373    -1.7586721103    -0.5002800441
| 34>  H        2.5748596780    -1.4498766671    -1.7090454833
| 35>  H        2.9353024071     0.9980992542    -1.5693384503
| 36>  H        5.2530349768     0.8790203283    -0.8382880788
| 37> *
| 38>
| 39>                          ****END OF INPUT****
 Total Charge           Charge          ....    1
 Multiplicity           Mult            ....    1
 Number of Electrons    NEL             ....   40
FINAL SINGLE POINT ENERGY      -248.631840456161

CARTESIAN COORDINATES (ANGSTROEM)
---------------------------------
  N      0.998139    0.000170   -1.641654
  C      0.211206    0.474712   -0.479891
  C     -1.215805    0.062608   -0.331723
  C     -0.160213   -0.485812    0.590746
  O      0.000059   -0.000131    1.862128
  H      0.832773    0.583714   -2.466708
  H      0.749812   -0.959367   -1.892625
  H      2.001917    0.015057   -1.439122
  H      0.505657    1.472889   -0.182536
  H     -1.886959    0.825677    0.041666
  H     -1.652923   -0.619817   -1.052716
  H      0.107837   -1.532394    0.433369
  H     -0.644515   -0.403923    2.453334

FINAL SINGLE POINT ENERGY      -248.631840773754
                    ***********************HURRAY********************
 Multiplicity           Mult            ....    1
 Number of Electrons    NEL             ....   40
 Basis Dimension        Dim             ....  203
FINAL SINGLE POINT ENERGY      -248.631840929418

VIBRATIONAL FREQUENCIES
-----------------------

   0:         0.00 cm**-1
   1:         0.00 cm**-1
   2:         0.00 cm**-1
   3:         0.00 cm**-1
   4:         0.00 cm**-1
   5:         0.00 cm**-1
   6:       183.36 cm**-1
   7:       246.95 cm**-1
   8:       297.67 cm**-1
   9:       323.99 cm**-1
  10:       428.05 cm**-1
  11:       453.35 cm**-1
  12:       789.53 cm**-1
  13:       839.71 cm**-1
  14:       891.90 cm**-1
  15:       924.22 cm**-1
  16:       994.21 cm**-1
  17:      1049.96 cm**-1
  18:      1079.54 cm**-1
  19:      1105.24 cm**-1
  20:      1175.48 cm**-1
  21:      1187.63 cm**-1
  22:      1232.39 cm**-1
  23:      1246.00 cm**-1
  24:      1289.24 cm**-1
  25:      1383.66 cm**-1
  26:      1434.99 cm**-1
  27:      1510.08 cm**-1
  28:      1526.49 cm**-1
  29:      1653.41 cm**-1
  30:      1659.71 cm**-1
  31:      3098.86 cm**-1
  32:      3154.27 cm**-1
  33:      3219.37 cm**-1
  34:      3251.15 cm**-1
  35:      3405.99 cm**-1
  36:      3479.22 cm**-1
  37:      3495.51 cm**-1
  38:      3836.15 cm**-1

IR SPECTRUM
-----------

 Mode    freq (cm**-1)   T**2         TX         TY         TZ
-------------------------------------------------------------------
   6:       183.36    0.567406  (  0.589265  -0.331351   0.332233)
   7:       246.95   25.198483  ( -3.051768   1.601266  -3.649814)
   8:       297.67   14.935972  ( -0.863988   3.731238  -0.517070)
   9:       323.99  117.263073  (  6.816926  -8.008279   2.580712)
  10:       428.05   16.078283  ( -0.130612  -0.337970   3.993369)
  11:       453.35    9.959267  (  2.592978  -1.673648  -0.659268)
  12:       789.53   15.040905  (  1.336122   2.521063  -2.626770)
  13:       839.71    0.939014  (  0.943088   0.221099  -0.026737)
  14:       891.90   15.274007  ( -3.612341   1.408951   0.489752)
  15:       924.22    9.308033  (  1.190746   1.279399  -2.500659)
  16:       994.21   18.572391  ( -0.986975  -4.194317  -0.077324)
  17:      1049.96   11.902532  (  0.366011  -2.811153  -1.966211)
  18:      1079.54   13.140160  ( -1.407331  -1.002227   3.186710)
  19:      1105.24   23.318815  (  2.155379   0.983073   4.207936)
  20:      1175.48   10.439681  ( -2.426873   0.764936  -1.991191)
  21:      1187.63    3.895715  (  0.709601  -1.309536  -1.295105)
  22:      1232.39    2.155716  ( -0.496060  -0.052844   1.380886)
  23:      1246.00  104.230823  (  1.815567   1.229316   9.971124)
  24:      1289.24   64.949117  (  2.477155   2.661265   7.192391)
  25:      1383.66   12.352872  ( -2.254420  -2.138217   1.642708)
  26:      1434.99    6.368642  (  2.406533  -0.492061  -0.578894)
  27:      1510.08   63.655444  ( -6.252661   2.976642   3.962231)
  28:      1526.49   82.205062  ( -1.339887   2.990844   8.453675)
  29:      1653.41   36.471058  (  3.523024  -3.230321   3.691123)
  30:      1659.71   49.009700  ( -3.625519  -5.958772  -0.598616)
  31:      3098.86   18.640264  ( -1.116435   2.800517   3.090459)
  32:      3154.27    3.843717  (  1.577442  -0.960947  -0.657248)
  33:      3219.37    4.205305  (  0.508082   1.967521   0.275713)
  34:      3251.15    3.001480  ( -0.818295   1.463952   0.434415)
  35:      3405.99   43.047297  ( -4.457943  -0.002492   4.813942)
  36:      3479.22  104.655139  ( -7.147644   3.834174  -6.234215)
  37:      3495.51   91.082792  ( -4.158213  -8.560985  -0.708236)
  38:      3836.15  110.152746  (  4.849954   2.799778  -8.876482)

--------------------------
THERMOCHEMISTRY AT 298.15K
--------------------------

Temperature         ... 298.15 K
Pressure            ... 1.00 atm
Total Mass          ... 74.10 AMU

Throughout the following assumptions are being made:
  (1) The electronic state is orbitally nondegenerate
  (2) There are no thermally accessible electronically excited states
  (3) Hindered rotations indicated by low frequency modes) are not
      treated as such but are treated as vibrations and this may
      case some error
  (4) All equations used are the standard statistical mechanics
      equations for an ideal gas
  (5) All vibrations are strinctly harmonic

------------
INNER ENERGY
------------

The inner energy is: U= E(el) + E(ZPE) + E(vib) + E(rot) + E(trans)
    E(el)   - is the total energy from the electronic structure calculation
              = E(kin-el) + E(nuc-el) + E(el-el) + E(nuc-nuc)
    E(ZPE)  - the the zero temperature vibrational energy from the frequency calculation
    E(vib)  - the the finite temperature correction to E(ZPE) due to population
              of excietd vibrational states
    E(rot)  - is the rotational thermal energy
    E(trans)- is the translational thermal energy

Summary of contributions to the inner energy U:
Electronic energy                ...   -248.63184093 Eh
Zero point energy                ...      0.11811673 Eh      74.12 kcal/mol
Thermal vibrational correction   ...      0.00291494 Eh       1.83 kcal/mol
Thermal rotational correction    ...      0.00141627 Eh       0.89 kcal/mol
Thermal translational correction ...      0.00141627 Eh       0.89 kcal/mol
-----------------------------------------------------------------------
Total thermal energy                   -248.50797671 Eh

Summary of corrections to the electronic energy:
(perhaps to be used in another calculation)
Total thermal correction                  0.00574748 Eh       3.61 kcal/mol
Non-thermal (ZPE) correction              0.11811673 Eh      74.12 kcal/mol
-----------------------------------------------------------------------
Total correction                          0.12386422 Eh      77.73 kcal/mol

--------
ENTHALPY
--------

The enthalpy is H = U + kB*T
                kB is Boltzmann's constant
Total free energy                 ...   -248.50797671 Eh
Thermal Enthalpy correction       ...      0.00094421 Eh       0.59 kcal/mol
-----------------------------------------------------------------------
Total Enthalpy                    ...   -248.50703250 Eh

-------
ENTROPY
-------

The entropy contributions are T*S = T*(S(el)+S(vib)+S(rot)+S(trans)
     S(el)   - electronic entropy
     S(vib)  - vibrational entropy
     S(rot)  - rotational entropy
     S(trans)- translational entropy
The entropies will be listed as mutliplied by the temperature to get
units of energy

Electronic entropy                ...      0.00000000 Eh      0.00 kcal/mol
Vibrational entropy               ...      0.00457989 Eh      2.87 kcal/mol
Rotational entropy                ...      0.01105863 Eh      6.94 kcal/mol
Translational entropy             ...      0.01844677 Eh     11.58 kcal/mol
-----------------------------------------------------------------------
Final entropy term                ...      0.03408529 Eh     21.39 kcal/mol

CAUTION: The rotational entropy is not quite correctly treated here
         because it includes a symmetry number that is not yet correctly
         implemented in ORCA!
For a nonlinear molecule the correct rotational entropy is:
    S(rot) = R*(ln(qrot/sn)+1.5)
    R    = 8.31441 J/mol/K = 1.987191683e-3 kcal/mol/K
    qrot = 81717.3304028
    sn is the rotational symmetry number. We have assumed 3 here
       if it is different for your molecule then you should correct
       the printed rotational entropy by manually evaluating the equation
       as given above

For convenience we print out the resulting values for sn=1 - 12:
 sn= 1  qrot/sn=   81717.3304 T*S(rot)=     7.59 kcal/mol T*S(tot)=    22.04 kcal/mol
 sn= 2  qrot/sn=   40858.6652 T*S(rot)=     7.18 kcal/mol T*S(tot)=    21.63 kcal/mol
 sn= 3  qrot/sn=   27239.1101 T*S(rot)=     6.94 kcal/mol T*S(tot)=    21.39 kcal/mol
 sn= 4  qrot/sn=   20429.3326 T*S(rot)=     6.77 kcal/mol T*S(tot)=    21.22 kcal/mol
 sn= 5  qrot/sn=   16343.4661 T*S(rot)=     6.64 kcal/mol T*S(tot)=    21.09 kcal/mol
 sn= 6  qrot/sn=   13619.5551 T*S(rot)=     6.53 kcal/mol T*S(tot)=    20.98 kcal/mol
 sn= 7  qrot/sn=   11673.9043 T*S(rot)=     6.44 kcal/mol T*S(tot)=    20.89 kcal/mol
 sn= 8  qrot/sn=   10214.6663 T*S(rot)=     6.36 kcal/mol T*S(tot)=    20.81 kcal/mol
 sn= 9  qrot/sn=    9079.7034 T*S(rot)=     6.29 kcal/mol T*S(tot)=    20.74 kcal/mol
 sn=10  qrot/sn=    8171.7330 T*S(rot)=     6.23 kcal/mol T*S(tot)=    20.68 kcal/mol
 sn=11  qrot/sn=    7428.8482 T*S(rot)=     6.17 kcal/mol T*S(tot)=    20.62 kcal/mol
 sn=12  qrot/sn=    6809.7775 T*S(rot)=     6.12 kcal/mol T*S(tot)=    20.57 kcal/mol

-------------------
GIBBS FREE ENTHALPY
-------------------

The Gibbs free enthalpy is G = H - T*S

Total enthalpy                    ...   -248.50703250 Eh
Total entropy correction          ...     -0.03408529 Eh    -21.39 kcal/mol
-----------------------------------------------------------------------
Final Gibbs free enthalpy         ...   -248.54111779 Eh

For completeness - the Gibbs free enthalpy minus the electronic energy
G-E(el)                           ...      0.09072314 Eh     56.93 kcal/mol

                             ****ORCA TERMINATED NORMALLY****
TOTAL RUN TIME: 0 days 0 hours 9 minutes 12 seconds 830 msec
