                         Program Version 3.0.3 - RELEASE   -
|  1> ! NORI PBE0 def2-TZVP UseSym TightOPT Freq TightSCF Grid3 FinalGrid5 XYZFile
|  2> % pal
|  3>     nprocs 8
|  4> end
|  5> %method
|  6>     SymThresh 5.0e-2
|  7> end
|  8> % geom
|  9>     MaxIter 10
| 10> end
| 11> % maxcore 2000
| 12> % output
| 13>     printlevel mini
| 14>     print[ P_Basis ] 0
| 15>     print[ P_SCFInfo ] 1
| 16>     print[ P_SCFIterInfo ] 1
| 17>     print[ P_OrbEn ] 0
| 18>     print[ P_Cartesian ] 0
| 19> end
| 20> % elprop
| 21>     Dipole false
| 22> end
| 23> *xyz 1 1
| 24>  N        0.9525654160     0.0671088322     0.1533894590
| 25>  C        2.4324787495     0.0824254508    -0.1111072682
| 26>  C        3.1122224919     1.1048666252     0.7963262551
| 27>  O        3.3158859566     0.0891549436     1.7872835170
| 28>  C        3.1328263449    -0.9281664683     0.7939745482
| 29>  H        0.4869203216     0.8899502425    -0.2369829854
| 30>  H        0.7947457505     0.0646245302     1.1667829144
| 31>  H        0.5038597782    -0.7644315431    -0.2383782153
| 32>  H        2.5896844644     0.0851733666    -1.1879998704
| 33>  H        2.5281837141     1.9533463608     1.1642974218
| 34>  H        4.0534877592     1.4655807982     0.3712904917
| 35>  H        4.0812412169    -1.2685450516     0.3680326514
| 36>  H        2.5662580362    -1.7892880871     1.1598610806
| 37> *
| 38>
| 39>                          ****END OF INPUT****
 Total Charge           Charge          ....    1
 Multiplicity           Mult            ....    1
 Number of Electrons    NEL             ....   40
FINAL SINGLE POINT ENERGY      -248.621073965272

CARTESIAN COORDINATES (ANGSTROEM)
---------------------------------
  N     -1.354171   -0.990136    0.000000
  C     -0.717307    0.371985    0.000000
  C      0.420928    0.413683    1.016629
  O      1.343531    0.000697   -0.000000
  C      0.420928    0.413683   -1.016629
  H     -1.937215   -1.138312    0.827166
  H     -0.617252   -1.703429    0.000000
  H     -1.937215   -1.138312   -0.827166
  H     -1.506672    1.120923    0.000000
  H      0.389253   -0.268245    1.871036
  H      0.617522    1.431207    1.367717
  H      0.617522    1.431207   -1.367717
  H      0.389253   -0.268245   -1.871036

FINAL SINGLE POINT ENERGY      -248.621074344965
                    ***********************HURRAY********************
 Multiplicity           Mult            ....    1
 Number of Electrons    NEL             ....   40
 Basis Dimension        Dim             ....  203
FINAL SINGLE POINT ENERGY      -248.621074499405

VIBRATIONAL FREQUENCIES
-----------------------

   0:         0.00 cm**-1
   1:         0.00 cm**-1
   2:         0.00 cm**-1
   3:         0.00 cm**-1
   4:         0.00 cm**-1
   5:         0.00 cm**-1
   6:       138.66 cm**-1
   7:       281.31 cm**-1
   8:       364.80 cm**-1
   9:       401.77 cm**-1
  10:       808.73 cm**-1
  11:       821.76 cm**-1
  12:       860.84 cm**-1
  13:       929.42 cm**-1
  14:       937.48 cm**-1
  15:      1014.06 cm**-1
  16:      1050.44 cm**-1
  17:      1095.84 cm**-1
  18:      1121.32 cm**-1
  19:      1152.09 cm**-1
  20:      1163.75 cm**-1
  21:      1231.33 cm**-1
  22:      1281.78 cm**-1
  23:      1308.68 cm**-1
  24:      1363.82 cm**-1
  25:      1404.93 cm**-1
  26:      1496.00 cm**-1
  27:      1501.68 cm**-1
  28:      1524.07 cm**-1
  29:      1657.16 cm**-1
  30:      1660.16 cm**-1
  31:      3057.81 cm**-1
  32:      3064.18 cm**-1
  33:      3117.15 cm**-1
  34:      3117.69 cm**-1
  35:      3160.36 cm**-1
  36:      3400.02 cm**-1
  37:      3479.38 cm**-1
  38:      3499.89 cm**-1

IR SPECTRUM
-----------

 Mode    freq (cm**-1)   T**2         TX         TY         TZ
-------------------------------------------------------------------
   6:       138.66   25.469762  (  4.191862   2.810348  -0.000003)
   7:       281.31    0.062453  (  0.000020   0.000024  -0.249907)
   8:       364.80    4.915743  ( -0.000002  -0.000012  -2.217148)
   9:       401.77    6.257590  (  2.463380   0.435142   0.000005)
  10:       808.73    4.074507  (  1.909172   0.655416   0.000021)
  11:       821.76    6.430790  (  2.535529   0.043403   0.000002)
  12:       860.84    0.235589  (  0.000037  -0.000002  -0.485376)
  13:       929.42   37.250561  (  5.355048  -2.928143  -0.000047)
  14:       937.48    5.753492  ( -0.000077   0.000064  -2.398644)
  15:      1014.06    2.723814  (  0.534562   1.561428   0.000038)
  16:      1050.44   66.562831  (  0.000012  -0.000026   8.158605)
  17:      1095.84   11.197260  ( -3.315776   0.450431  -0.000024)
  18:      1121.32   30.750347  ( -0.000037   0.000004   5.545300)
  19:      1152.09    7.845857  (  0.000011  -0.000005   2.801046)
  20:      1163.75    1.272117  ( -1.126738  -0.050773   0.000012)
  21:      1231.33   10.318705  (  2.129997  -2.404541  -0.000022)
  22:      1281.78    0.943938  (  0.000003  -0.000001   0.971565)
  23:      1308.68    0.167604  (  0.000015  -0.000008   0.409395)
  24:      1363.82    1.726794  (  1.274493  -0.320098  -0.000003)
  25:      1404.93   14.633525  (  3.792325   0.501791  -0.000000)
  26:      1496.00    8.189749  (  0.000104   0.000241   2.861774)
  27:      1501.68  148.463160  ( -4.705479 -11.239290   0.000062)
  28:      1524.07    7.255538  ( -0.375157   2.667357   0.000005)
  29:      1657.16   44.586077  (  6.230726  -2.400861  -0.000856)
  30:      1660.16   31.537644  ( -0.000961   0.000353  -5.615839)
  31:      3057.81   24.128082  ( -0.000054   0.000019   4.912034)
  32:      3064.18    3.468008  (  1.822256  -0.383915   0.000157)
  33:      3117.15    8.015309  (  0.445632   2.795840  -0.000481)
  34:      3117.69    2.651681  ( -0.000121  -0.000801  -1.628398)
  35:      3160.36    1.225180  ( -1.095308   0.159626  -0.000000)
  36:      3400.02   40.676046  ( -1.121756  -6.278352   0.000057)
  37:      3479.38  108.717434  ( 10.139195  -2.431902  -0.000286)
  38:      3499.89   98.814590  ( -0.000299   0.000035  -9.940553)

--------------------------
THERMOCHEMISTRY AT 298.15K
--------------------------

Temperature         ... 298.15 K
Pressure            ... 1.00 atm
Total Mass          ... 74.10 AMU

Throughout the following assumptions are being made:
  (1) The electronic state is orbitally nondegenerate
  (2) There are no thermally accessible electronically excited states
  (3) Hindered rotations indicated by low frequency modes) are not
      treated as such but are treated as vibrations and this may
      case some error
  (4) All equations used are the standard statistical mechanics
      equations for an ideal gas
  (5) All vibrations are strinctly harmonic

------------
INNER ENERGY
------------

The inner energy is: U= E(el) + E(ZPE) + E(vib) + E(rot) + E(trans)
    E(el)   - is the total energy from the electronic structure calculation
              = E(kin-el) + E(nuc-el) + E(el-el) + E(nuc-nuc)
    E(ZPE)  - the the zero temperature vibrational energy from the frequency calculation
    E(vib)  - the the finite temperature correction to E(ZPE) due to population
              of excietd vibrational states
    E(rot)  - is the rotational thermal energy
    E(trans)- is the translational thermal energy

Summary of contributions to the inner energy U:
Electronic energy                ...   -248.62107450 Eh
Zero point energy                ...      0.11953170 Eh      75.01 kcal/mol
Thermal vibrational correction   ...      0.00229231 Eh       1.44 kcal/mol
Thermal rotational correction    ...      0.00141627 Eh       0.89 kcal/mol
Thermal translational correction ...      0.00141627 Eh       0.89 kcal/mol
-----------------------------------------------------------------------
Total thermal energy                   -248.49641794 Eh

Summary of corrections to the electronic energy:
(perhaps to be used in another calculation)
Total thermal correction                  0.00512485 Eh       3.22 kcal/mol
Non-thermal (ZPE) correction              0.11953170 Eh      75.01 kcal/mol
-----------------------------------------------------------------------
Total correction                          0.12465656 Eh      78.22 kcal/mol

--------
ENTHALPY
--------

The enthalpy is H = U + kB*T
                kB is Boltzmann's constant
Total free energy                 ...   -248.49641794 Eh
Thermal Enthalpy correction       ...      0.00094421 Eh       0.59 kcal/mol
-----------------------------------------------------------------------
Total Enthalpy                    ...   -248.49547373 Eh

-------
ENTROPY
-------

The entropy contributions are T*S = T*(S(el)+S(vib)+S(rot)+S(trans)
     S(el)   - electronic entropy
     S(vib)  - vibrational entropy
     S(rot)  - rotational entropy
     S(trans)- translational entropy
The entropies will be listed as mutliplied by the temperature to get
units of energy

Electronic entropy                ...      0.00000000 Eh      0.00 kcal/mol
Vibrational entropy               ...      0.00368923 Eh      2.32 kcal/mol
Rotational entropy                ...      0.01086047 Eh      6.82 kcal/mol
Translational entropy             ...      0.01844677 Eh     11.58 kcal/mol
-----------------------------------------------------------------------
Final entropy term                ...      0.03299647 Eh     20.71 kcal/mol

CAUTION: The rotational entropy is not quite correctly treated here
         because it includes a symmetry number that is not yet correctly
         implemented in ORCA!
For a nonlinear molecule the correct rotational entropy is:
    S(rot) = R*(ln(qrot/sn)+1.5)
    R    = 8.31441 J/mol/K = 1.987191683e-3 kcal/mol/K
    qrot = 66246.8607494
    sn is the rotational symmetry number. We have assumed 3 here
       if it is different for your molecule then you should correct
       the printed rotational entropy by manually evaluating the equation
       as given above

For convenience we print out the resulting values for sn=1 - 12:
 sn= 1  qrot/sn=   66246.8607 T*S(rot)=     7.47 kcal/mol T*S(tot)=    21.36 kcal/mol
 sn= 2  qrot/sn=   33123.4304 T*S(rot)=     7.06 kcal/mol T*S(tot)=    20.95 kcal/mol
 sn= 3  qrot/sn=   22082.2869 T*S(rot)=     6.82 kcal/mol T*S(tot)=    20.71 kcal/mol
 sn= 4  qrot/sn=   16561.7152 T*S(rot)=     6.64 kcal/mol T*S(tot)=    20.54 kcal/mol
 sn= 5  qrot/sn=   13249.3721 T*S(rot)=     6.51 kcal/mol T*S(tot)=    20.40 kcal/mol
 sn= 6  qrot/sn=   11041.1435 T*S(rot)=     6.40 kcal/mol T*S(tot)=    20.29 kcal/mol
 sn= 7  qrot/sn=    9463.8372 T*S(rot)=     6.31 kcal/mol T*S(tot)=    20.20 kcal/mol
 sn= 8  qrot/sn=    8280.8576 T*S(rot)=     6.23 kcal/mol T*S(tot)=    20.12 kcal/mol
 sn= 9  qrot/sn=    7360.7623 T*S(rot)=     6.16 kcal/mol T*S(tot)=    20.05 kcal/mol
 sn=10  qrot/sn=    6624.6861 T*S(rot)=     6.10 kcal/mol T*S(tot)=    19.99 kcal/mol
 sn=11  qrot/sn=    6022.4419 T*S(rot)=     6.05 kcal/mol T*S(tot)=    19.94 kcal/mol
 sn=12  qrot/sn=    5520.5717 T*S(rot)=     5.99 kcal/mol T*S(tot)=    19.88 kcal/mol

-------------------
GIBBS FREE ENTHALPY
-------------------

The Gibbs free enthalpy is G = H - T*S

Total enthalpy                    ...   -248.49547373 Eh
Total entropy correction          ...     -0.03299647 Eh    -20.71 kcal/mol
-----------------------------------------------------------------------
Final Gibbs free enthalpy         ...   -248.52847021 Eh

For completeness - the Gibbs free enthalpy minus the electronic energy
G-E(el)                           ...      0.09260429 Eh     58.11 kcal/mol

                             ****ORCA TERMINATED NORMALLY****
TOTAL RUN TIME: 0 days 0 hours 10 minutes 12 seconds 814 msec
