                         Program Version 3.0.3 - RELEASE   -
|  1> ! NORI PBE0 def2-TZVP UseSym TightOPT Freq TightSCF Grid3 FinalGrid5 XYZFile
|  2> % pal
|  3>     nprocs 8
|  4> end
|  5> %method
|  6>     SymThresh 5.0e-2
|  7> end
|  8> % geom
|  9>     MaxIter 10
| 10> end
| 11> % maxcore 2000
| 12> % output
| 13>     printlevel mini
| 14>     print[ P_Basis ] 0
| 15>     print[ P_SCFInfo ] 1
| 16>     print[ P_SCFIterInfo ] 1
| 17>     print[ P_OrbEn ] 0
| 18>     print[ P_Cartesian ] 0
| 19> end
| 20> % elprop
| 21>     Dipole false
| 22> end
| 23> *xyz 1 1
| 24>  N        1.0775923182    -0.4174656799    -0.0011214806
| 25>  C        2.3465791088     0.3524701623     0.2493933809
| 26>  C        2.8026230438     0.8806650680    -1.0826714831
| 27>  C        4.0448303454     0.4052300329    -1.6848320670
| 28>  O        2.7865943315    -0.1405489294    -2.0694981520
| 29>  H        0.8006720692    -0.9905739271     0.7973249673
| 30>  H        1.2534070089    -1.0253956237    -0.8126674760
| 31>  H        0.2966719665     0.1984398784    -0.2366952036
| 32>  H        2.1407061218     1.1332296861     0.9806887678
| 33>  H        3.0582559799    -0.3600528878     0.6659664796
| 34>  H        2.3892464568     1.8357119597    -1.3994827588
| 35>  H        4.5244537840     1.0165605548    -2.4418709693
| 36>  H        4.6915174652    -0.2641902942    -1.1256740051
| 37> *
| 38>
| 39>                          ****END OF INPUT****
 Total Charge           Charge          ....    1
 Multiplicity           Mult            ....    1
 Number of Electrons    NEL             ....   40
FINAL SINGLE POINT ENERGY      -248.629567983903

CARTESIAN COORDINATES (ANGSTROEM)
---------------------------------
  N      1.547995   -0.000022   -0.978813
  C      0.060647   -0.120407   -1.177193
  C     -0.588206    0.490104    0.033983
  C     -1.357526   -0.335936    0.960209
  O     -0.000044    0.000231    1.230362
  H      2.080490   -0.567660   -1.639575
  H      1.747168   -0.316161   -0.019878
  H      1.867907    0.967287   -1.060475
  H     -0.206665    0.373447   -2.110688
  H     -0.151473   -1.186585   -1.254131
  H     -0.760403    1.564161    0.009912
  H     -2.081704    0.144869    1.609095
  H     -1.540749   -1.379977    0.724200

FINAL SINGLE POINT ENERGY      -248.629568394737
                    ***********************HURRAY********************
 Multiplicity           Mult            ....    1
 Number of Electrons    NEL             ....   40
 Basis Dimension        Dim             ....  203
FINAL SINGLE POINT ENERGY      -248.629568583813

VIBRATIONAL FREQUENCIES
-----------------------

   0:         0.00 cm**-1
   1:         0.00 cm**-1
   2:         0.00 cm**-1
   3:         0.00 cm**-1
   4:         0.00 cm**-1
   5:         0.00 cm**-1
   6:       106.36 cm**-1
   7:       256.45 cm**-1
   8:       259.19 cm**-1
   9:       399.29 cm**-1
  10:       529.48 cm**-1
  11:       805.33 cm**-1
  12:       856.37 cm**-1
  13:       899.72 cm**-1
  14:       942.53 cm**-1
  15:       976.00 cm**-1
  16:      1000.17 cm**-1
  17:      1072.39 cm**-1
  18:      1128.82 cm**-1
  19:      1171.52 cm**-1
  20:      1182.74 cm**-1
  21:      1197.98 cm**-1
  22:      1295.64 cm**-1
  23:      1339.44 cm**-1
  24:      1385.94 cm**-1
  25:      1452.21 cm**-1
  26:      1487.45 cm**-1
  27:      1491.71 cm**-1
  28:      1530.47 cm**-1
  29:      1648.86 cm**-1
  30:      1668.41 cm**-1
  31:      3112.03 cm**-1
  32:      3132.70 cm**-1
  33:      3148.89 cm**-1
  34:      3178.64 cm**-1
  35:      3235.61 cm**-1
  36:      3365.12 cm**-1
  37:      3472.54 cm**-1
  38:      3518.93 cm**-1

IR SPECTRUM
-----------

 Mode    freq (cm**-1)   T**2         TX         TY         TZ
-------------------------------------------------------------------
   6:       106.36   17.324940  (  1.797107   2.699586  -2.609134)
   7:       256.45    8.025718  (  1.042104  -0.997190  -2.438309)
   8:       259.19   29.445358  ( -3.093678   2.187725   3.884376)
   9:       399.29    4.323139  (  1.822809  -0.196855  -0.980690)
  10:       529.48   10.553373  (  2.421293  -0.630862   2.071889)
  11:       805.33    6.141651  ( -1.773092  -0.153842  -1.724566)
  12:       856.37    8.738672  ( -2.204777  -1.934313  -0.368869)
  13:       899.72   37.867834  (  3.570210   2.515784  -4.335005)
  14:       942.53   35.970786  (  5.285123  -1.747038   2.232962)
  15:       976.00   20.851721  (  2.606957  -0.420701   3.725387)
  16:      1000.17    7.694227  (  0.891912  -2.142320  -1.519600)
  17:      1072.39   17.019307  (  0.877667  -0.834217  -3.943741)
  18:      1128.82   14.930263  ( -1.492226   1.795424   3.078957)
  19:      1171.52    1.176134  ( -0.132512   1.072270  -0.093869)
  20:      1182.74    1.397927  (  0.152903  -0.732502   0.915417)
  21:      1197.98    0.420438  ( -0.178685  -0.588930  -0.204136)
  22:      1295.64   17.182338  ( -4.139954  -0.118234  -0.170713)
  23:      1339.44    8.732295  (  0.053861   2.066407  -2.111718)
  24:      1385.94    6.859450  (  1.015763  -0.279881   2.397779)
  25:      1452.21   21.012187  (  4.509405   0.801686   0.186411)
  26:      1487.45   32.601569  ( -4.051585  -2.116005  -3.421805)
  27:      1491.71  143.787709  ( 11.923231  -1.267585   0.132260)
  28:      1530.47    4.251736  (  1.539529   1.319140  -0.376104)
  29:      1648.86   42.091583  (  0.617776   5.229301  -3.790033)
  30:      1668.41   38.805894  (  1.575985  -3.779614  -4.694325)
  31:      3112.03    0.297566  (  0.169602  -0.159363  -0.493360)
  32:      3132.70    4.471144  ( -1.501895  -1.412100  -0.470560)
  33:      3148.89    2.310070  (  0.713216  -1.131681   0.721589)
  34:      3178.64    0.002347  (  0.001752   0.007962  -0.047751)
  35:      3235.61    0.539230  (  0.116368  -0.698605  -0.194009)
  36:      3365.12   59.421821  (  2.491898  -1.547636   7.128610)
  37:      3472.54  119.885910  ( -5.916308  -4.717305   7.913927)
  38:      3518.93  111.318740  (  2.603667  -8.884828  -5.059593)

--------------------------
THERMOCHEMISTRY AT 298.15K
--------------------------

Temperature         ... 298.15 K
Pressure            ... 1.00 atm
Total Mass          ... 74.10 AMU

Throughout the following assumptions are being made:
  (1) The electronic state is orbitally nondegenerate
  (2) There are no thermally accessible electronically excited states
  (3) Hindered rotations indicated by low frequency modes) are not
      treated as such but are treated as vibrations and this may
      case some error
  (4) All equations used are the standard statistical mechanics
      equations for an ideal gas
  (5) All vibrations are strinctly harmonic

------------
INNER ENERGY
------------

The inner energy is: U= E(el) + E(ZPE) + E(vib) + E(rot) + E(trans)
    E(el)   - is the total energy from the electronic structure calculation
              = E(kin-el) + E(nuc-el) + E(el-el) + E(nuc-nuc)
    E(ZPE)  - the the zero temperature vibrational energy from the frequency calculation
    E(vib)  - the the finite temperature correction to E(ZPE) due to population
              of excietd vibrational states
    E(rot)  - is the rotational thermal energy
    E(trans)- is the translational thermal energy

Summary of contributions to the inner energy U:
Electronic energy                ...   -248.62956858 Eh
Zero point energy                ...      0.11903188 Eh      74.69 kcal/mol
Thermal vibrational correction   ...      0.00266294 Eh       1.67 kcal/mol
Thermal rotational correction    ...      0.00141627 Eh       0.89 kcal/mol
Thermal translational correction ...      0.00141627 Eh       0.89 kcal/mol
-----------------------------------------------------------------------
Total thermal energy                   -248.50504123 Eh

Summary of corrections to the electronic energy:
(perhaps to be used in another calculation)
Total thermal correction                  0.00549548 Eh       3.45 kcal/mol
Non-thermal (ZPE) correction              0.11903188 Eh      74.69 kcal/mol
-----------------------------------------------------------------------
Total correction                          0.12452736 Eh      78.14 kcal/mol

--------
ENTHALPY
--------

The enthalpy is H = U + kB*T
                kB is Boltzmann's constant
Total free energy                 ...   -248.50504123 Eh
Thermal Enthalpy correction       ...      0.00094421 Eh       0.59 kcal/mol
-----------------------------------------------------------------------
Total Enthalpy                    ...   -248.50409702 Eh

-------
ENTROPY
-------

The entropy contributions are T*S = T*(S(el)+S(vib)+S(rot)+S(trans)
     S(el)   - electronic entropy
     S(vib)  - vibrational entropy
     S(rot)  - rotational entropy
     S(trans)- translational entropy
The entropies will be listed as mutliplied by the temperature to get
units of energy

Electronic entropy                ...      0.00000000 Eh      0.00 kcal/mol
Vibrational entropy               ...      0.00449166 Eh      2.82 kcal/mol
Rotational entropy                ...      0.01095541 Eh      6.87 kcal/mol
Translational entropy             ...      0.01844677 Eh     11.58 kcal/mol
-----------------------------------------------------------------------
Final entropy term                ...      0.03389383 Eh     21.27 kcal/mol

CAUTION: The rotational entropy is not quite correctly treated here
         because it includes a symmetry number that is not yet correctly
         implemented in ORCA!
For a nonlinear molecule the correct rotational entropy is:
    S(rot) = R*(ln(qrot/sn)+1.5)
    R    = 8.31441 J/mol/K = 1.987191683e-3 kcal/mol/K
    qrot = 73254.6559642
    sn is the rotational symmetry number. We have assumed 3 here
       if it is different for your molecule then you should correct
       the printed rotational entropy by manually evaluating the equation
       as given above

For convenience we print out the resulting values for sn=1 - 12:
 sn= 1  qrot/sn=   73254.6560 T*S(rot)=     7.53 kcal/mol T*S(tot)=    21.92 kcal/mol
 sn= 2  qrot/sn=   36627.3280 T*S(rot)=     7.11 kcal/mol T*S(tot)=    21.51 kcal/mol
 sn= 3  qrot/sn=   24418.2187 T*S(rot)=     6.87 kcal/mol T*S(tot)=    21.27 kcal/mol
 sn= 4  qrot/sn=   18313.6640 T*S(rot)=     6.70 kcal/mol T*S(tot)=    21.10 kcal/mol
 sn= 5  qrot/sn=   14650.9312 T*S(rot)=     6.57 kcal/mol T*S(tot)=    20.97 kcal/mol
 sn= 6  qrot/sn=   12209.1093 T*S(rot)=     6.46 kcal/mol T*S(tot)=    20.86 kcal/mol
 sn= 7  qrot/sn=   10464.9509 T*S(rot)=     6.37 kcal/mol T*S(tot)=    20.77 kcal/mol
 sn= 8  qrot/sn=    9156.8320 T*S(rot)=     6.29 kcal/mol T*S(tot)=    20.69 kcal/mol
 sn= 9  qrot/sn=    8139.4062 T*S(rot)=     6.22 kcal/mol T*S(tot)=    20.62 kcal/mol
 sn=10  qrot/sn=    7325.4656 T*S(rot)=     6.16 kcal/mol T*S(tot)=    20.56 kcal/mol
 sn=11  qrot/sn=    6659.5142 T*S(rot)=     6.10 kcal/mol T*S(tot)=    20.50 kcal/mol
 sn=12  qrot/sn=    6104.5547 T*S(rot)=     6.05 kcal/mol T*S(tot)=    20.45 kcal/mol

-------------------
GIBBS FREE ENTHALPY
-------------------

The Gibbs free enthalpy is G = H - T*S

Total enthalpy                    ...   -248.50409702 Eh
Total entropy correction          ...     -0.03389383 Eh    -21.27 kcal/mol
-----------------------------------------------------------------------
Final Gibbs free enthalpy         ...   -248.53799085 Eh

For completeness - the Gibbs free enthalpy minus the electronic energy
G-E(el)                           ...      0.09157773 Eh     57.47 kcal/mol

                             ****ORCA TERMINATED NORMALLY****
TOTAL RUN TIME: 0 days 0 hours 9 minutes 18 seconds 478 msec
