                         Program Version 3.0.3 - RELEASE   -
|  1> ! NORI PBE0 def2-TZVP UseSym TightOPT Freq TightSCF Grid3 FinalGrid5 XYZFile
|  2> % pal
|  3>     nprocs 8
|  4> end
|  5> %method
|  6>     SymThresh 5.0e-2
|  7> end
|  8> % geom
|  9>     MaxIter 10
| 10> end
| 11> % maxcore 2000
| 12> % output
| 13>     printlevel mini
| 14>     print[ P_Basis ] 0
| 15>     print[ P_SCFInfo ] 1
| 16>     print[ P_SCFIterInfo ] 1
| 17>     print[ P_OrbEn ] 0
| 18>     print[ P_Cartesian ] 0
| 19> end
| 20> % elprop
| 21>     Dipole false
| 22> end
| 23> *xyz 1 1
| 24>  N        3.1492507159     1.4760017530     0.1878210980
| 25>  C        2.6827248354     0.0466562582     0.1478394888
| 26>  C        3.1492872155    -0.6104647770    -1.1366271560
| 27>  C        4.6547498237    -0.7587057951    -1.2264926718
| 28>  O        5.2308540891     0.5413334468    -1.0688982508
| 29>  H        3.0605593356     1.8886696019     1.1156499911
| 30>  H        2.6266057462     2.0558414704    -0.4688699178
| 31>  H        4.1477688142     1.4622750488    -0.1236016434
| 32>  H        3.1094940866    -0.4422104147     1.0251833517
| 33>  H        1.5972731425     0.0452669739     0.2438750950
| 34>  H        2.6951191508    -1.6025558282    -1.1894423130
| 35>  H        2.7744041242    -0.0533373511    -2.0018679007
| 36>  H        4.9288370864    -1.1793858398    -2.1970771769
| 37>  H        5.0225358415    -1.4290004429    -0.4412914299
| 38>  H        6.1832459924     0.5104058958    -1.1975805643
| 39> *
| 40>
| 41>                          ****END OF INPUT****
 Total Charge           Charge          ....    1
 Multiplicity           Mult            ....    1
 Number of Electrons    NEL             ....   42
FINAL SINGLE POINT ENERGY      -249.889774903666
FINAL SINGLE POINT ENERGY      -249.889774762890
FINAL SINGLE POINT ENERGY      -249.889776739819

CARTESIAN COORDINATES (ANGSTROEM)
---------------------------------
  N      1.551002   -0.001593   -0.562661
  C      0.276857    0.293521   -1.305493
  C     -0.883365   -0.419023   -0.638359
  C     -1.194725    0.104065    0.749505
  O     -0.001270    0.000989    1.531901
  H      2.311365    0.621995   -0.830911
  H      1.857979   -0.961865   -0.719484
  H      1.323628    0.098705    0.453065
  H      0.148516    1.377059   -1.281361
  H      0.413253   -0.016408   -2.341245
  H     -1.765733   -0.286354   -1.268920
  H     -0.691021   -1.496659   -0.599535
  H     -1.995191   -0.488877    1.198755
  H     -1.521776    1.148859    0.701392
  H     -0.168101    0.255803    2.443930

FINAL SINGLE POINT ENERGY      -249.889777124956
                    ***********************HURRAY********************
 Multiplicity           Mult            ....    1
 Number of Electrons    NEL             ....   42
 Basis Dimension        Dim             ....  215
FINAL SINGLE POINT ENERGY      -249.889777400321

VIBRATIONAL FREQUENCIES
-----------------------

   0:         0.00 cm**-1
   1:         0.00 cm**-1
   2:         0.00 cm**-1
   3:         0.00 cm**-1
   4:         0.00 cm**-1
   5:         0.00 cm**-1
   6:       123.83 cm**-1
   7:       270.33 cm**-1
   8:       308.67 cm**-1
   9:       325.42 cm**-1
  10:       352.81 cm**-1
  11:       385.67 cm**-1
  12:       511.98 cm**-1
  13:       830.24 cm**-1
  14:       860.85 cm**-1
  15:       874.54 cm**-1
  16:       931.70 cm**-1
  17:       999.19 cm**-1
  18:      1040.92 cm**-1
  19:      1084.85 cm**-1
  20:      1142.08 cm**-1
  21:      1179.84 cm**-1
  22:      1223.17 cm**-1
  23:      1279.48 cm**-1
  24:      1321.23 cm**-1
  25:      1350.76 cm**-1
  26:      1381.44 cm**-1
  27:      1422.53 cm**-1
  28:      1449.35 cm**-1
  29:      1465.04 cm**-1
  30:      1495.37 cm**-1
  31:      1514.73 cm**-1
  32:      1521.89 cm**-1
  33:      1643.69 cm**-1
  34:      1676.10 cm**-1
  35:      3043.33 cm**-1
  36:      3062.54 cm**-1
  37:      3065.87 cm**-1
  38:      3099.80 cm**-1
  39:      3108.31 cm**-1
  40:      3125.13 cm**-1
  41:      3159.64 cm**-1
  42:      3476.41 cm**-1
  43:      3537.25 cm**-1
  44:      3862.13 cm**-1

IR SPECTRUM
-----------

 Mode    freq (cm**-1)   T**2         TX         TY         TZ
-------------------------------------------------------------------
   6:       123.83    9.211692  ( -0.142611   3.016149   0.306920)
   7:       270.33   33.532012  (  3.217696   1.685480  -4.509723)
   8:       308.67   30.486856  (  1.809309  -4.276098  -2.988017)
   9:       325.42   74.166615  ( -0.610032   8.284771  -2.270912)
  10:       352.81   33.945100  ( -2.569225  -3.485075   3.898517)
  11:       385.67   39.488575  ( -3.874756  -4.827428   1.082025)
  12:       511.98   10.790049  ( -0.247055  -0.530368   3.232294)
  13:       830.24    5.103982  (  1.323198  -0.500652  -1.761385)
  14:       860.85   31.897508  ( -0.043088   1.402683   5.470661)
  15:       874.54    5.848167  (  0.114443  -1.367016   1.991567)
  16:       931.70    5.412260  (  0.692982  -0.306599  -2.199553)
  17:       999.19    5.035520  (  1.021743   1.354584   1.468558)
  18:      1040.92   47.490011  ( -6.768717  -0.051149  -1.293008)
  19:      1084.85   29.800516  (  5.387434   0.838355   0.270621)
  20:      1142.08   24.627821  (  0.247670  -1.451329   4.739212)
  21:      1179.84    6.027385  (  0.950334   1.395210   1.782593)
  22:      1223.17   63.090430  ( -4.837999   2.491692  -5.785816)
  23:      1279.48    0.600501  (  0.497842   0.421572   0.418248)
  24:      1321.23   26.611088  ( -5.149335  -0.236291   0.199006)
  25:      1350.76   17.346149  (  0.075629  -1.765220  -3.771528)
  26:      1381.44    1.553268  ( -1.079448  -0.296971  -0.547601)
  27:      1422.53    1.501141  ( -0.905026  -0.011392   0.825796)
  28:      1449.35    5.463782  (  1.970822   0.424297   1.183054)
  29:      1465.04   13.779330  ( -1.919917  -2.790807  -1.518106)
  30:      1495.37   20.583145  (  2.789628  -2.370748   2.679677)
  31:      1514.73   90.860477  (  9.515092   0.505078   0.261524)
  32:      1521.89   96.416600  (  9.528563  -2.231817  -0.801303)
  33:      1643.69   19.533884  ( -0.126803   4.349499   0.774382)
  34:      1676.10   35.746624  ( -3.742274  -3.384040   3.207847)
  35:      3043.33   52.425610  ( -5.505503   2.559234   3.945297)
  36:      3062.54   11.939884  ( -2.322874   2.185143   1.330146)
  37:      3065.87  455.636640  ( -9.108416   0.200907  19.303705)
  38:      3099.80    8.638967  (  1.501391  -1.069166  -2.289471)
  39:      3108.31    9.095964  ( -1.579160  -2.445675   0.787967)
  40:      3125.13    2.885343  ( -0.231292   1.649286   0.334217)
  41:      3159.64    0.585377  ( -0.249882  -0.587592   0.421511)
  42:      3476.41   88.395383  (  7.979574  -2.551325  -4.267612)
  43:      3537.25   87.896096  ( -3.380056  -8.673047   1.117845)
  44:      3862.13  118.228098  (  0.012695   2.196474  10.649105)

--------------------------
THERMOCHEMISTRY AT 298.15K
--------------------------

Temperature         ... 298.15 K
Pressure            ... 1.00 atm
Total Mass          ... 76.12 AMU

Throughout the following assumptions are being made:
  (1) The electronic state is orbitally nondegenerate
  (2) There are no thermally accessible electronically excited states
  (3) Hindered rotations indicated by low frequency modes) are not
      treated as such but are treated as vibrations and this may
      case some error
  (4) All equations used are the standard statistical mechanics
      equations for an ideal gas
  (5) All vibrations are strinctly harmonic

------------
INNER ENERGY
------------

The inner energy is: U= E(el) + E(ZPE) + E(vib) + E(rot) + E(trans)
    E(el)   - is the total energy from the electronic structure calculation
              = E(kin-el) + E(nuc-el) + E(el-el) + E(nuc-nuc)
    E(ZPE)  - the the zero temperature vibrational energy from the frequency calculation
    E(vib)  - the the finite temperature correction to E(ZPE) due to population
              of excietd vibrational states
    E(rot)  - is the rotational thermal energy
    E(trans)- is the translational thermal energy

Summary of contributions to the inner energy U:
Electronic energy                ...   -249.88977740 Eh
Zero point energy                ...      0.14240398 Eh      89.36 kcal/mol
Thermal vibrational correction   ...      0.00331131 Eh       2.08 kcal/mol
Thermal rotational correction    ...      0.00141627 Eh       0.89 kcal/mol
Thermal translational correction ...      0.00141627 Eh       0.89 kcal/mol
-----------------------------------------------------------------------
Total thermal energy                   -249.74122957 Eh

Summary of corrections to the electronic energy:
(perhaps to be used in another calculation)
Total thermal correction                  0.00614385 Eh       3.86 kcal/mol
Non-thermal (ZPE) correction              0.14240398 Eh      89.36 kcal/mol
-----------------------------------------------------------------------
Total correction                          0.14854783 Eh      93.21 kcal/mol

--------
ENTHALPY
--------

The enthalpy is H = U + kB*T
                kB is Boltzmann's constant
Total free energy                 ...   -249.74122957 Eh
Thermal Enthalpy correction       ...      0.00094421 Eh       0.59 kcal/mol
-----------------------------------------------------------------------
Total Enthalpy                    ...   -249.74028536 Eh

-------
ENTROPY
-------

The entropy contributions are T*S = T*(S(el)+S(vib)+S(rot)+S(trans)
     S(el)   - electronic entropy
     S(vib)  - vibrational entropy
     S(rot)  - rotational entropy
     S(trans)- translational entropy
The entropies will be listed as mutliplied by the temperature to get
units of energy

Electronic entropy                ...      0.00000000 Eh      0.00 kcal/mol
Vibrational entropy               ...      0.00535539 Eh      3.36 kcal/mol
Rotational entropy                ...      0.01120130 Eh      7.03 kcal/mol
Translational entropy             ...      0.01848478 Eh     11.60 kcal/mol
-----------------------------------------------------------------------
Final entropy term                ...      0.03504147 Eh     21.99 kcal/mol

CAUTION: The rotational entropy is not quite correctly treated here
         because it includes a symmetry number that is not yet correctly
         implemented in ORCA!
For a nonlinear molecule the correct rotational entropy is:
    S(rot) = R*(ln(qrot/sn)+1.5)
    R    = 8.31441 J/mol/K = 1.987191683e-3 kcal/mol/K
    qrot = 95046.1563555
    sn is the rotational symmetry number. We have assumed 3 here
       if it is different for your molecule then you should correct
       the printed rotational entropy by manually evaluating the equation
       as given above

For convenience we print out the resulting values for sn=1 - 12:
 sn= 1  qrot/sn=   95046.1564 T*S(rot)=     7.68 kcal/mol T*S(tot)=    22.64 kcal/mol
 sn= 2  qrot/sn=   47523.0782 T*S(rot)=     7.27 kcal/mol T*S(tot)=    22.23 kcal/mol
 sn= 3  qrot/sn=   31682.0521 T*S(rot)=     7.03 kcal/mol T*S(tot)=    21.99 kcal/mol
 sn= 4  qrot/sn=   23761.5391 T*S(rot)=     6.86 kcal/mol T*S(tot)=    21.82 kcal/mol
 sn= 5  qrot/sn=   19009.2313 T*S(rot)=     6.73 kcal/mol T*S(tot)=    21.69 kcal/mol
 sn= 6  qrot/sn=   15841.0261 T*S(rot)=     6.62 kcal/mol T*S(tot)=    21.58 kcal/mol
 sn= 7  qrot/sn=   13578.0223 T*S(rot)=     6.53 kcal/mol T*S(tot)=    21.49 kcal/mol
 sn= 8  qrot/sn=   11880.7695 T*S(rot)=     6.45 kcal/mol T*S(tot)=    21.41 kcal/mol
 sn= 9  qrot/sn=   10560.6840 T*S(rot)=     6.38 kcal/mol T*S(tot)=    21.34 kcal/mol
 sn=10  qrot/sn=    9504.6156 T*S(rot)=     6.32 kcal/mol T*S(tot)=    21.28 kcal/mol
 sn=11  qrot/sn=    8640.5597 T*S(rot)=     6.26 kcal/mol T*S(tot)=    21.22 kcal/mol
 sn=12  qrot/sn=    7920.5130 T*S(rot)=     6.21 kcal/mol T*S(tot)=    21.17 kcal/mol

-------------------
GIBBS FREE ENTHALPY
-------------------

The Gibbs free enthalpy is G = H - T*S

Total enthalpy                    ...   -249.74028536 Eh
Total entropy correction          ...     -0.03504147 Eh    -21.99 kcal/mol
-----------------------------------------------------------------------
Final Gibbs free enthalpy         ...   -249.77532683 Eh

For completeness - the Gibbs free enthalpy minus the electronic energy
G-E(el)                           ...      0.11445057 Eh     71.82 kcal/mol

                             ****ORCA TERMINATED NORMALLY****
TOTAL RUN TIME: 0 days 0 hours 13 minutes 26 seconds 601 msec
