                         Program Version 3.0.3 - RELEASE   -
|  1> ! NORI PBE0 def2-TZVP UseSym TightOPT Freq TightSCF Grid3 FinalGrid5 XYZFile
|  2> % pal
|  3>     nprocs 8
|  4> end
|  5> %method
|  6>     SymThresh 5.0e-2
|  7> end
|  8> % geom
|  9>     MaxIter 10
| 10> end
| 11> % maxcore 2000
| 12> % output
| 13>     printlevel mini
| 14>     print[ P_Basis ] 0
| 15>     print[ P_SCFInfo ] 1
| 16>     print[ P_SCFIterInfo ] 1
| 17>     print[ P_OrbEn ] 0
| 18>     print[ P_Cartesian ] 0
| 19> end
| 20> % elprop
| 21>     Dipole false
| 22> end
| 23> *xyz 1 1
| 24>  O        0.9946631636    -0.1562475270     0.3862624202
| 25>  C        2.3452247442    -0.1055491312     0.1218831866
| 26>  C        3.0848635797     0.9877758671     0.9161489637
| 27>  N        4.1085686996    -0.0362761599     1.3707912614
| 28>  C        3.2023029361    -1.1482630207     0.8754989772
| 29>  H        0.4846660693    -0.3105161778    -0.4134797341
| 30>  H        2.5725979820    -0.0732960987    -0.9466771640
| 31>  H        2.5019672352     1.3197259127     1.7737166726
| 32>  H        3.5299841033     1.8322316633     0.3947757311
| 33>  H        4.9849426950     0.0218859154     0.8552112614
| 34>  H        4.3290123023    -0.0427295063     2.3654943553
| 35>  H        3.7383757779    -1.9166249124     0.3224183127
| 36>  H        2.6622307118    -1.5746968243     1.7188957559
| 37> *
| 38>
| 39>                          ****END OF INPUT****
 Total Charge           Charge          ....    1
 Multiplicity           Mult            ....    1
 Number of Electrons    NEL             ....   40
FINAL SINGLE POINT ENERGY      -248.641884497193

CARTESIAN COORDINATES (ANGSTROEM)
---------------------------------
  O     -0.000357   -0.000157    1.769103
  C     -0.525632    0.013672    0.496221
  C      0.123319    1.065452   -0.423410
  N      0.350261    0.000057   -1.480010
  C      0.027660   -1.071666   -0.455161
  H     -0.685860   -0.119916    2.431854
  H     -1.617182    0.062136    0.482657
  H      1.084550    1.396204   -0.033211
  H     -0.462563    1.906967   -0.786095
  H     -0.328024    0.041861   -2.238815
  H      1.281225   -0.035080   -1.892339
  H     -0.631707   -1.844555   -0.843872
  H      0.955148   -1.498878   -0.077463

FINAL SINGLE POINT ENERGY      -248.641884992150
                    ***********************HURRAY********************
 Multiplicity           Mult            ....    1
 Number of Electrons    NEL             ....   40
 Basis Dimension        Dim             ....  203
FINAL SINGLE POINT ENERGY      -248.641885497305

VIBRATIONAL FREQUENCIES
-----------------------

   0:         0.00 cm**-1
   1:         0.00 cm**-1
   2:         0.00 cm**-1
   3:         0.00 cm**-1
   4:         0.00 cm**-1
   5:         0.00 cm**-1
   6:        98.04 cm**-1
   7:       115.09 cm**-1
   8:       397.78 cm**-1
   9:       443.68 cm**-1
  10:       681.10 cm**-1
  11:       805.97 cm**-1
  12:       828.59 cm**-1
  13:       885.70 cm**-1
  14:       902.18 cm**-1
  15:       973.76 cm**-1
  16:       981.10 cm**-1
  17:      1069.61 cm**-1
  18:      1077.85 cm**-1
  19:      1209.11 cm**-1
  20:      1246.12 cm**-1
  21:      1263.13 cm**-1
  22:      1273.51 cm**-1
  23:      1307.52 cm**-1
  24:      1309.97 cm**-1
  25:      1321.18 cm**-1
  26:      1327.89 cm**-1
  27:      1466.96 cm**-1
  28:      1471.19 cm**-1
  29:      1493.03 cm**-1
  30:      1653.98 cm**-1
  31:      3096.10 cm**-1
  32:      3121.18 cm**-1
  33:      3124.48 cm**-1
  34:      3200.42 cm**-1
  35:      3201.29 cm**-1
  36:      3476.90 cm**-1
  37:      3540.92 cm**-1
  38:      3873.96 cm**-1

IR SPECTRUM
-----------

 Mode    freq (cm**-1)   T**2         TX         TY         TZ
-------------------------------------------------------------------
   6:        98.04   97.180589  ( -1.872316   9.674361   0.285927)
   7:       115.09   14.013222  ( -0.836242  -3.379976  -1.374658)
   8:       397.78    8.866495  ( -0.389611   2.883406   0.632983)
   9:       443.68   15.037499  ( -0.386409  -0.407442  -3.836949)
  10:       681.10    5.314157  (  1.865583  -0.196115  -1.339887)
  11:       805.97    5.295813  ( -0.027767   2.297472   0.129083)
  12:       828.59    4.373592  (  1.731534  -0.058221   1.171321)
  13:       885.70    6.512627  ( -2.533711  -0.017883   0.304331)
  14:       902.18    3.294070  (  0.096539   1.802555   0.188537)
  15:       973.76    4.160024  (  0.906980  -0.656578  -1.704792)
  16:       981.10    8.786849  (  0.167437  -2.849743   0.798612)
  17:      1069.61   52.896788  (  2.256253  -0.507875   6.895518)
  18:      1077.85   19.790001  ( -1.116097  -1.445046  -4.056621)
  19:      1209.11   43.671338  (  0.477594  -0.041340   6.591019)
  20:      1246.12   40.266040  (  0.436577   6.293313   0.685311)
  21:      1263.13   24.822206  ( -1.521523   0.937564  -4.650607)
  22:      1273.51    5.388729  ( -0.260742  -1.570266  -1.689677)
  23:      1307.52   63.109498  ( -3.912016  -0.710417  -6.877568)
  24:      1309.97    2.559575  ( -0.569546  -1.033765  -1.080056)
  25:      1321.18   33.864507  (  0.210004  -5.597961   1.575828)
  26:      1327.89    8.996557  ( -0.392179   0.732570   2.882030)
  27:      1466.96    9.540838  (  1.508980  -0.547673  -2.638915)
  28:      1471.19   18.747056  (  0.327370   4.311720  -0.221261)
  29:      1493.03   12.193503  ( -3.120648   0.065632   1.565487)
  30:      1653.98   63.201872  ( -1.718240  -0.028334   7.762005)
  31:      3096.10    7.896674  (  2.573874  -0.121779   1.121168)
  32:      3121.18    0.024797  ( -0.076128   0.137786   0.004063)
  33:      3124.48    0.337144  (  0.558881   0.062762   0.144421)
  34:      3200.42    1.095312  (  0.122409  -1.039223   0.018541)
  35:      3201.29    1.808897  (  1.268227   0.110401   0.433945)
  36:      3476.90   77.452803  (  2.351321   0.032586  -8.480745)
  37:      3540.92   96.944465  ( -9.544454   0.471420  -2.371840)
  38:      3873.96  141.013306  ( -5.814698  -0.968328  10.308488)

--------------------------
THERMOCHEMISTRY AT 298.15K
--------------------------

Temperature         ... 298.15 K
Pressure            ... 1.00 atm
Total Mass          ... 74.10 AMU

Throughout the following assumptions are being made:
  (1) The electronic state is orbitally nondegenerate
  (2) There are no thermally accessible electronically excited states
  (3) Hindered rotations indicated by low frequency modes) are not
      treated as such but are treated as vibrations and this may
      case some error
  (4) All equations used are the standard statistical mechanics
      equations for an ideal gas
  (5) All vibrations are strinctly harmonic

------------
INNER ENERGY
------------

The inner energy is: U= E(el) + E(ZPE) + E(vib) + E(rot) + E(trans)
    E(el)   - is the total energy from the electronic structure calculation
              = E(kin-el) + E(nuc-el) + E(el-el) + E(nuc-nuc)
    E(ZPE)  - the the zero temperature vibrational energy from the frequency calculation
    E(vib)  - the the finite temperature correction to E(ZPE) due to population
              of excietd vibrational states
    E(rot)  - is the rotational thermal energy
    E(trans)- is the translational thermal energy

Summary of contributions to the inner energy U:
Electronic energy                ...   -248.64188550 Eh
Zero point energy                ...      0.11900987 Eh      74.68 kcal/mol
Thermal vibrational correction   ...      0.00265561 Eh       1.67 kcal/mol
Thermal rotational correction    ...      0.00141627 Eh       0.89 kcal/mol
Thermal translational correction ...      0.00141627 Eh       0.89 kcal/mol
-----------------------------------------------------------------------
Total thermal energy                   -248.51738748 Eh

Summary of corrections to the electronic energy:
(perhaps to be used in another calculation)
Total thermal correction                  0.00548816 Eh       3.44 kcal/mol
Non-thermal (ZPE) correction              0.11900987 Eh      74.68 kcal/mol
-----------------------------------------------------------------------
Total correction                          0.12449802 Eh      78.12 kcal/mol

--------
ENTHALPY
--------

The enthalpy is H = U + kB*T
                kB is Boltzmann's constant
Total free energy                 ...   -248.51738748 Eh
Thermal Enthalpy correction       ...      0.00094421 Eh       0.59 kcal/mol
-----------------------------------------------------------------------
Total Enthalpy                    ...   -248.51644327 Eh

-------
ENTROPY
-------

The entropy contributions are T*S = T*(S(el)+S(vib)+S(rot)+S(trans)
     S(el)   - electronic entropy
     S(vib)  - vibrational entropy
     S(rot)  - rotational entropy
     S(trans)- translational entropy
The entropies will be listed as mutliplied by the temperature to get
units of energy

Electronic entropy                ...      0.00000000 Eh      0.00 kcal/mol
Vibrational entropy               ...      0.00479444 Eh      3.01 kcal/mol
Rotational entropy                ...      0.01091437 Eh      6.85 kcal/mol
Translational entropy             ...      0.01844677 Eh     11.58 kcal/mol
-----------------------------------------------------------------------
Final entropy term                ...      0.03415557 Eh     21.43 kcal/mol

CAUTION: The rotational entropy is not quite correctly treated here
         because it includes a symmetry number that is not yet correctly
         implemented in ORCA!
For a nonlinear molecule the correct rotational entropy is:
    S(rot) = R*(ln(qrot/sn)+1.5)
    R    = 8.31441 J/mol/K = 1.987191683e-3 kcal/mol/K
    qrot = 70138.6575889
    sn is the rotational symmetry number. We have assumed 3 here
       if it is different for your molecule then you should correct
       the printed rotational entropy by manually evaluating the equation
       as given above

For convenience we print out the resulting values for sn=1 - 12:
 sn= 1  qrot/sn=   70138.6576 T*S(rot)=     7.50 kcal/mol T*S(tot)=    22.08 kcal/mol
 sn= 2  qrot/sn=   35069.3288 T*S(rot)=     7.09 kcal/mol T*S(tot)=    21.67 kcal/mol
 sn= 3  qrot/sn=   23379.5525 T*S(rot)=     6.85 kcal/mol T*S(tot)=    21.43 kcal/mol
 sn= 4  qrot/sn=   17534.6644 T*S(rot)=     6.68 kcal/mol T*S(tot)=    21.26 kcal/mol
 sn= 5  qrot/sn=   14027.7315 T*S(rot)=     6.55 kcal/mol T*S(tot)=    21.13 kcal/mol
 sn= 6  qrot/sn=   11689.7763 T*S(rot)=     6.44 kcal/mol T*S(tot)=    21.02 kcal/mol
 sn= 7  qrot/sn=   10019.8082 T*S(rot)=     6.35 kcal/mol T*S(tot)=    20.93 kcal/mol
 sn= 8  qrot/sn=    8767.3322 T*S(rot)=     6.27 kcal/mol T*S(tot)=    20.85 kcal/mol
 sn= 9  qrot/sn=    7793.1842 T*S(rot)=     6.20 kcal/mol T*S(tot)=    20.78 kcal/mol
 sn=10  qrot/sn=    7013.8658 T*S(rot)=     6.14 kcal/mol T*S(tot)=    20.72 kcal/mol
 sn=11  qrot/sn=    6376.2416 T*S(rot)=     6.08 kcal/mol T*S(tot)=    20.66 kcal/mol
 sn=12  qrot/sn=    5844.8881 T*S(rot)=     6.03 kcal/mol T*S(tot)=    20.61 kcal/mol

-------------------
GIBBS FREE ENTHALPY
-------------------

The Gibbs free enthalpy is G = H - T*S

Total enthalpy                    ...   -248.51644327 Eh
Total entropy correction          ...     -0.03415557 Eh    -21.43 kcal/mol
-----------------------------------------------------------------------
Final Gibbs free enthalpy         ...   -248.55059884 Eh

For completeness - the Gibbs free enthalpy minus the electronic energy
G-E(el)                           ...      0.09128666 Eh     57.28 kcal/mol

                             ****ORCA TERMINATED NORMALLY****
TOTAL RUN TIME: 0 days 0 hours 9 minutes 38 seconds 791 msec
