                         Program Version 3.0.3 - RELEASE   -
|  1> ! NORI PBE0 def2-TZVP UseSym TightOPT Freq TightSCF Grid3 FinalGrid5 XYZFile
|  2> % pal
|  3>     nprocs 8
|  4> end
|  5> %method
|  6>     SymThresh 5.0e-2
|  7> end
|  8> % geom
|  9>     MaxIter 10
| 10> end
| 11> % maxcore 2000
| 12> % output
| 13>     printlevel mini
| 14>     print[ P_Basis ] 0
| 15>     print[ P_SCFInfo ] 1
| 16>     print[ P_SCFIterInfo ] 1
| 17>     print[ P_OrbEn ] 0
| 18>     print[ P_Cartesian ] 0
| 19> end
| 20> % elprop
| 21>     Dipole false
| 22> end
| 23> *xyz 1 1
| 24>  O        1.2451891379    -0.0663304768     0.5793527459
| 25>  C        2.3540764061    -0.0667545383     0.1927511872
| 26>  C        3.3521887347     1.0300559801    -0.2012417973
| 27>  N        4.3622878393    -0.0674844354    -0.5077514015
| 28>  C        3.3801751907    -1.1642758377    -0.1189092807
| 29>  H        3.0975861622     1.6134061474    -1.0865746350
| 30>  H        3.6874187212     1.6835897666     0.6048057547
| 31>  H        4.6572456265    -0.1002638436    -1.4829049756
| 32>  H        5.2001375840    -0.0350415885     0.0718080246
| 33>  H        3.7313262160    -1.7470088176     0.7332704489
| 34>  H        3.1410283814    -1.8183523562    -0.9579760712
| 35> *
| 36>
| 37>                          ****END OF INPUT****
 Total Charge           Charge          ....    1
 Multiplicity           Mult            ....    1
 Number of Electrons    NEL             ....   38
FINAL SINGLE POINT ENERGY      -247.418823516809

CARTESIAN COORDINATES (ANGSTROEM)
---------------------------------
  O      0.000000    0.000000    1.823209
  C     -0.000000    0.000000    0.648843
  C     -0.000000    1.098010   -0.422992
  N     -0.000000   -0.000000   -1.477972
  C     -0.000000   -1.098010   -0.422992
  H     -0.896227    1.716752   -0.473863
  H      0.896227    1.716752   -0.473863
  H     -0.824111    0.000000   -2.078013
  H      0.824111    0.000000   -2.078013
  H      0.896227   -1.716752   -0.473863
  H     -0.896227   -1.716752   -0.473863

FINAL SINGLE POINT ENERGY      -247.418823722256
                    ***********************HURRAY********************
 Multiplicity           Mult            ....    1
 Number of Electrons    NEL             ....   38
 Basis Dimension        Dim             ....  191
FINAL SINGLE POINT ENERGY      -247.418823728361

VIBRATIONAL FREQUENCIES
-----------------------

   0:         0.00 cm**-1
   1:         0.00 cm**-1
   2:         0.00 cm**-1
   3:         0.00 cm**-1
   4:         0.00 cm**-1
   5:         0.00 cm**-1
   6:       109.42 cm**-1
   7:       407.83 cm**-1
   8:       455.99 cm**-1
   9:       669.75 cm**-1
  10:       706.39 cm**-1
  11:       821.80 cm**-1
  12:       834.87 cm**-1
  13:       892.49 cm**-1
  14:       957.74 cm**-1
  15:      1022.89 cm**-1
  16:      1068.26 cm**-1
  17:      1082.07 cm**-1
  18:      1241.88 cm**-1
  19:      1267.27 cm**-1
  20:      1281.23 cm**-1
  21:      1289.55 cm**-1
  22:      1309.59 cm**-1
  23:      1430.72 cm**-1
  24:      1448.27 cm**-1
  25:      1652.34 cm**-1
  26:      1990.77 cm**-1
  27:      3107.24 cm**-1
  28:      3111.42 cm**-1
  29:      3182.43 cm**-1
  30:      3182.57 cm**-1
  31:      3474.78 cm**-1
  32:      3535.74 cm**-1

IR SPECTRUM
-----------

 Mode    freq (cm**-1)   T**2         TX         TY         TZ
-------------------------------------------------------------------
   6:       109.42    0.159296  (  0.399119  -0.000000   0.000017)
   7:       407.83    0.005407  (  0.073532   0.000000   0.000073)
   8:       455.99    2.104092  (  0.000000  -1.450549  -0.000000)
   9:       669.75    0.000000  ( -0.000000   0.000000   0.000000)
  10:       706.39    4.286941  (  0.000000   0.000000  -2.070493)
  11:       821.80   15.441227  (  3.929533   0.000000   0.000022)
  12:       834.87    1.126489  ( -0.000000  -0.000000  -1.061362)
  13:       892.49    9.348068  (  0.000000   3.057461   0.000000)
  14:       957.74   12.553709  ( -0.000000  -0.000000   3.543121)
  15:      1022.89    0.000000  ( -0.000000   0.000000   0.000000)
  16:      1068.26   80.627796  (  0.000000   8.979298  -0.000000)
  17:      1082.07    0.021529  ( -0.146728   0.000000  -0.000063)
  18:      1241.88   51.892930  (  0.000000   7.203675  -0.000000)
  19:      1267.27    5.256548  (  2.292716   0.000000   0.000008)
  20:      1281.23    0.000000  ( -0.000000  -0.000000  -0.000000)
  21:      1289.55    5.233941  (  0.000000   0.000000   2.287781)
  22:      1309.59   11.157810  ( -0.000000   3.340331  -0.000000)
  23:      1430.72   44.141270  ( -0.000000   6.643890  -0.000000)
  24:      1448.27    4.285510  ( -0.000000   0.000000   2.070147)
  25:      1652.34   63.627675  (  0.000000   0.000000   7.976696)
  26:      1990.77  244.567220  ( -0.000000  -0.000000  15.638645)
  27:      3107.24   18.878300  ( -0.000000  -4.344917  -0.000000)
  28:      3111.42    2.643864  (  0.000000   0.000000   1.625996)
  29:      3182.43   16.104280  (  4.013014   0.000000   0.000012)
  30:      3182.57    0.000000  ( -0.000000  -0.000000   0.000000)
  31:      3474.78   95.387342  (  0.000000   0.000000   9.766644)
  32:      3535.74  115.760808  (-10.759220   0.000000  -0.000003)

--------------------------
THERMOCHEMISTRY AT 298.15K
--------------------------

Temperature         ... 298.15 K
Pressure            ... 1.00 atm
Total Mass          ... 72.09 AMU

Throughout the following assumptions are being made:
  (1) The electronic state is orbitally nondegenerate
  (2) There are no thermally accessible electronically excited states
  (3) Hindered rotations indicated by low frequency modes) are not
      treated as such but are treated as vibrations and this may
      case some error
  (4) All equations used are the standard statistical mechanics
      equations for an ideal gas
  (5) All vibrations are strinctly harmonic

------------
INNER ENERGY
------------

The inner energy is: U= E(el) + E(ZPE) + E(vib) + E(rot) + E(trans)
    E(el)   - is the total energy from the electronic structure calculation
              = E(kin-el) + E(nuc-el) + E(el-el) + E(nuc-nuc)
    E(ZPE)  - the the zero temperature vibrational energy from the frequency calculation
    E(vib)  - the the finite temperature correction to E(ZPE) due to population
              of excietd vibrational states
    E(rot)  - is the rotational thermal energy
    E(trans)- is the translational thermal energy

Summary of contributions to the inner energy U:
Electronic energy                ...   -247.41882373 Eh
Zero point energy                ...      0.09462446 Eh      59.38 kcal/mol
Thermal vibrational correction   ...      0.00191918 Eh       1.20 kcal/mol
Thermal rotational correction    ...      0.00141627 Eh       0.89 kcal/mol
Thermal translational correction ...      0.00141627 Eh       0.89 kcal/mol
-----------------------------------------------------------------------
Total thermal energy                   -247.31944755 Eh

Summary of corrections to the electronic energy:
(perhaps to be used in another calculation)
Total thermal correction                  0.00475172 Eh       2.98 kcal/mol
Non-thermal (ZPE) correction              0.09462446 Eh      59.38 kcal/mol
-----------------------------------------------------------------------
Total correction                          0.09937618 Eh      62.36 kcal/mol

--------
ENTHALPY
--------

The enthalpy is H = U + kB*T
                kB is Boltzmann's constant
Total free energy                 ...   -247.31944755 Eh
Thermal Enthalpy correction       ...      0.00094421 Eh       0.59 kcal/mol
-----------------------------------------------------------------------
Total Enthalpy                    ...   -247.31850334 Eh

-------
ENTROPY
-------

The entropy contributions are T*S = T*(S(el)+S(vib)+S(rot)+S(trans)
     S(el)   - electronic entropy
     S(vib)  - vibrational entropy
     S(rot)  - rotational entropy
     S(trans)- translational entropy
The entropies will be listed as mutliplied by the temperature to get
units of energy

Electronic entropy                ...      0.00000000 Eh      0.00 kcal/mol
Vibrational entropy               ...      0.00316990 Eh      1.99 kcal/mol
Rotational entropy                ...      0.01082703 Eh      6.79 kcal/mol
Translational entropy             ...      0.01840770 Eh     11.55 kcal/mol
-----------------------------------------------------------------------
Final entropy term                ...      0.03240464 Eh     20.33 kcal/mol

CAUTION: The rotational entropy is not quite correctly treated here
         because it includes a symmetry number that is not yet correctly
         implemented in ORCA!
For a nonlinear molecule the correct rotational entropy is:
    S(rot) = R*(ln(qrot/sn)+1.5)
    R    = 8.31441 J/mol/K = 1.987191683e-3 kcal/mol/K
    qrot = 63941.9322613
    sn is the rotational symmetry number. We have assumed 3 here
       if it is different for your molecule then you should correct
       the printed rotational entropy by manually evaluating the equation
       as given above

For convenience we print out the resulting values for sn=1 - 12:
 sn= 1  qrot/sn=   63941.9323 T*S(rot)=     7.44 kcal/mol T*S(tot)=    20.99 kcal/mol
 sn= 2  qrot/sn=   31970.9661 T*S(rot)=     7.03 kcal/mol T*S(tot)=    20.57 kcal/mol
 sn= 3  qrot/sn=   21313.9774 T*S(rot)=     6.79 kcal/mol T*S(tot)=    20.33 kcal/mol
 sn= 4  qrot/sn=   15985.4831 T*S(rot)=     6.62 kcal/mol T*S(tot)=    20.16 kcal/mol
 sn= 5  qrot/sn=   12788.3865 T*S(rot)=     6.49 kcal/mol T*S(tot)=    20.03 kcal/mol
 sn= 6  qrot/sn=   10656.9887 T*S(rot)=     6.38 kcal/mol T*S(tot)=    19.92 kcal/mol
 sn= 7  qrot/sn=    9134.5618 T*S(rot)=     6.29 kcal/mol T*S(tot)=    19.83 kcal/mol
 sn= 8  qrot/sn=    7992.7415 T*S(rot)=     6.21 kcal/mol T*S(tot)=    19.75 kcal/mol
 sn= 9  qrot/sn=    7104.6591 T*S(rot)=     6.14 kcal/mol T*S(tot)=    19.68 kcal/mol
 sn=10  qrot/sn=    6394.1932 T*S(rot)=     6.08 kcal/mol T*S(tot)=    19.62 kcal/mol
 sn=11  qrot/sn=    5812.9029 T*S(rot)=     6.02 kcal/mol T*S(tot)=    19.56 kcal/mol
 sn=12  qrot/sn=    5328.4944 T*S(rot)=     5.97 kcal/mol T*S(tot)=    19.51 kcal/mol

-------------------
GIBBS FREE ENTHALPY
-------------------

The Gibbs free enthalpy is G = H - T*S

Total enthalpy                    ...   -247.31850334 Eh
Total entropy correction          ...     -0.03240464 Eh    -20.33 kcal/mol
-----------------------------------------------------------------------
Final Gibbs free enthalpy         ...   -247.35090798 Eh

For completeness - the Gibbs free enthalpy minus the electronic energy
G-E(el)                           ...      0.06791575 Eh     42.62 kcal/mol

                             ****ORCA TERMINATED NORMALLY****
TOTAL RUN TIME: 0 days 0 hours 7 minutes 57 seconds 532 msec
