                         Program Version 3.0.3 - RELEASE   -
|  1> ! NORI PBE0 def2-TZVP UseSym TightOPT Freq TightSCF Grid3 FinalGrid5 XYZFile
|  2> % pal
|  3>     nprocs 8
|  4> end
|  5> %method
|  6>     SymThresh 5.0e-2
|  7> end
|  8> % geom
|  9>     MaxIter 10
| 10> end
| 11> % maxcore 2000
| 12> % output
| 13>     printlevel mini
| 14>     print[ P_Basis ] 0
| 15>     print[ P_SCFInfo ] 1
| 16>     print[ P_SCFIterInfo ] 1
| 17>     print[ P_OrbEn ] 0
| 18>     print[ P_Cartesian ] 0
| 19> end
| 20> % elprop
| 21>     Dipole false
| 22> end
| 23> *xyz 1 1
| 24>  O        3.2370949926     0.2725786155     0.9594554520
| 25>  C        2.2918446058    -0.1787866606     0.0330224075
| 26>  C        2.7832201684     0.2759195401    -1.3080810309
| 27>  C        1.8928426577     0.8915163195    -2.3032045390
| 28>  N        2.7863115128     1.7535963626    -1.4955294936
| 29>  H        3.1066315592    -0.1577380771     1.8098808480
| 30>  H        2.2015032027    -1.2711459184     0.0008643435
| 31>  H        1.2892068932     0.2321593331     0.2262549471
| 32>  H        3.7050078704    -0.1751637488    -1.6583971267
| 33>  H        2.1497759693     0.8488784633    -3.3539262155
| 34>  H        0.8415150987     1.0139009247    -2.0731011508
| 35>  H        2.3871033886     2.3109305404    -0.7462904011
| 36>  H        3.5884020807     2.1820643058    -1.9444680408
| 37> *
| 38>
| 39>                          ****END OF INPUT****
 Total Charge           Charge          ....    1
 Multiplicity           Mult            ....    1
 Number of Electrons    NEL             ....   40
FINAL SINGLE POINT ENERGY      -248.633100200447

CARTESIAN COORDINATES (ANGSTROEM)
---------------------------------
  O      0.000292    0.000376    1.860472
  C     -0.833537    0.280127    0.773398
  C     -0.261033   -0.476208   -0.387084
  C     -0.103265    0.128968   -1.717687
  N      1.078019   -0.000276   -0.833469
  H     -0.416210    0.274498    2.683110
  H     -1.865218   -0.062597    0.917093
  H     -0.869786    1.355487    0.541591
  H     -0.300967   -1.557785   -0.320126
  H     -0.070273   -0.503210   -2.595351
  H     -0.419853    1.152030   -1.877817
  H      1.444285    0.829730   -0.377207
  H      1.785394   -0.690418   -1.061111

FINAL SINGLE POINT ENERGY      -248.633100719271
                    ***********************HURRAY********************
 Multiplicity           Mult            ....    1
 Number of Electrons    NEL             ....   40
 Basis Dimension        Dim             ....  203
FINAL SINGLE POINT ENERGY      -248.633101017938

VIBRATIONAL FREQUENCIES
-----------------------

   0:         0.00 cm**-1
   1:         0.00 cm**-1
   2:         0.00 cm**-1
   3:         0.00 cm**-1
   4:         0.00 cm**-1
   5:         0.00 cm**-1
   6:        82.55 cm**-1
   7:       240.65 cm**-1
   8:       280.03 cm**-1
   9:       365.32 cm**-1
  10:       511.27 cm**-1
  11:       779.32 cm**-1
  12:       845.66 cm**-1
  13:       864.23 cm**-1
  14:       945.72 cm**-1
  15:       954.17 cm**-1
  16:       976.01 cm**-1
  17:      1027.34 cm**-1
  18:      1131.53 cm**-1
  19:      1153.46 cm**-1
  20:      1181.30 cm**-1
  21:      1195.14 cm**-1
  22:      1233.42 cm**-1
  23:      1243.86 cm**-1
  24:      1282.30 cm**-1
  25:      1308.33 cm**-1
  26:      1394.66 cm**-1
  27:      1479.10 cm**-1
  28:      1499.10 cm**-1
  29:      1508.72 cm**-1
  30:      1639.70 cm**-1
  31:      2998.61 cm**-1
  32:      3067.48 cm**-1
  33:      3175.18 cm**-1
  34:      3204.46 cm**-1
  35:      3277.03 cm**-1
  36:      3510.22 cm**-1
  37:      3612.48 cm**-1
  38:      3859.60 cm**-1

IR SPECTRUM
-----------

 Mode    freq (cm**-1)   T**2         TX         TY         TZ
-------------------------------------------------------------------
   6:        82.55   11.354782  (  0.695431   1.929499  -2.673610)
   7:       240.65   11.949079  (  0.120673   1.699530   3.007676)
   8:       280.03  137.345273  ( -4.935082 -10.523975   1.495391)
   9:       365.32    6.587494  ( -1.754437  -1.332489   1.316783)
  10:       511.27    7.972375  (  0.622425  -0.578546   2.692628)
  11:       779.32    4.382168  ( -0.566947  -0.505953  -1.950577)
  12:       845.66    6.334155  ( -2.288045  -1.009593  -0.282357)
  13:       864.23    7.647129  (  2.720369  -0.307112   0.390388)
  14:       945.72    8.953428  ( -0.712812  -1.501360  -2.488222)
  15:       954.17   31.284393  ( -5.310704  -1.492813   0.923214)
  16:       976.01   10.523887  (  2.624704  -1.167241   1.507437)
  17:      1027.34   97.529322  (  1.094568   4.142379  -8.897862)
  18:      1131.53   73.439273  ( -4.029140   1.509327  -7.411291)
  19:      1153.46    3.575061  (  0.555356  -1.414288   1.125358)
  20:      1181.30    4.615215  (  1.238289   0.838314  -1.542428)
  21:      1195.14    0.062764  (  0.199903   0.064831   0.136381)
  22:      1233.42   52.794317  ( -4.631731   1.876449  -5.274497)
  23:      1243.86    3.765346  (  1.330133  -1.401664  -0.177288)
  24:      1282.30    3.441006  ( -0.017788   1.837470  -0.253763)
  25:      1308.33    9.704011  ( -1.906484   0.328145  -2.441649)
  26:      1394.66    9.116769  (  2.741480  -1.231948   0.288722)
  27:      1479.10   10.462515  ( -1.058731  -1.255342   2.786704)
  28:      1499.10    4.237162  ( -0.679211   0.123352  -1.939232)
  29:      1508.72    7.022652  ( -1.643993   2.050864   0.337486)
  30:      1639.70   62.481613  (  7.684591   1.688929   0.759079)
  31:      2998.61   30.673525  (  1.630685  -3.955257   3.517148)
  32:      3067.48    5.920581  (  1.774777   1.564143   0.569392)
  33:      3175.18    3.202691  (  0.547440  -0.397012   1.656919)
  34:      3204.46    2.292075  ( -0.429209  -1.403908   0.369996)
  35:      3277.03    6.982569  ( -0.377737   2.393831   1.053307)
  36:      3510.22  114.096599  (-10.438418  -1.578149  -1.626489)
  37:      3612.48  138.345608  ( -3.384279  10.193363   4.794541)
  38:      3859.60  120.213821  ( -2.196163   1.800361  10.590061)

--------------------------
THERMOCHEMISTRY AT 298.15K
--------------------------

Temperature         ... 298.15 K
Pressure            ... 1.00 atm
Total Mass          ... 74.10 AMU

Throughout the following assumptions are being made:
  (1) The electronic state is orbitally nondegenerate
  (2) There are no thermally accessible electronically excited states
  (3) Hindered rotations indicated by low frequency modes) are not
      treated as such but are treated as vibrations and this may
      case some error
  (4) All equations used are the standard statistical mechanics
      equations for an ideal gas
  (5) All vibrations are strinctly harmonic

------------
INNER ENERGY
------------

The inner energy is: U= E(el) + E(ZPE) + E(vib) + E(rot) + E(trans)
    E(el)   - is the total energy from the electronic structure calculation
              = E(kin-el) + E(nuc-el) + E(el-el) + E(nuc-nuc)
    E(ZPE)  - the the zero temperature vibrational energy from the frequency calculation
    E(vib)  - the the finite temperature correction to E(ZPE) due to population
              of excietd vibrational states
    E(rot)  - is the rotational thermal energy
    E(trans)- is the translational thermal energy

Summary of contributions to the inner energy U:
Electronic energy                ...   -248.63310102 Eh
Zero point energy                ...      0.11807274 Eh      74.09 kcal/mol
Thermal vibrational correction   ...      0.00280449 Eh       1.76 kcal/mol
Thermal rotational correction    ...      0.00141627 Eh       0.89 kcal/mol
Thermal translational correction ...      0.00141627 Eh       0.89 kcal/mol
-----------------------------------------------------------------------
Total thermal energy                   -248.50939125 Eh

Summary of corrections to the electronic energy:
(perhaps to be used in another calculation)
Total thermal correction                  0.00563703 Eh       3.54 kcal/mol
Non-thermal (ZPE) correction              0.11807274 Eh      74.09 kcal/mol
-----------------------------------------------------------------------
Total correction                          0.12370976 Eh      77.63 kcal/mol

--------
ENTHALPY
--------

The enthalpy is H = U + kB*T
                kB is Boltzmann's constant
Total free energy                 ...   -248.50939125 Eh
Thermal Enthalpy correction       ...      0.00094421 Eh       0.59 kcal/mol
-----------------------------------------------------------------------
Total Enthalpy                    ...   -248.50844704 Eh

-------
ENTROPY
-------

The entropy contributions are T*S = T*(S(el)+S(vib)+S(rot)+S(trans)
     S(el)   - electronic entropy
     S(vib)  - vibrational entropy
     S(rot)  - rotational entropy
     S(trans)- translational entropy
The entropies will be listed as mutliplied by the temperature to get
units of energy

Electronic entropy                ...      0.00000000 Eh      0.00 kcal/mol
Vibrational entropy               ...      0.00486751 Eh      3.05 kcal/mol
Rotational entropy                ...      0.01099637 Eh      6.90 kcal/mol
Translational entropy             ...      0.01844677 Eh     11.58 kcal/mol
-----------------------------------------------------------------------
Final entropy term                ...      0.03431065 Eh     21.53 kcal/mol

CAUTION: The rotational entropy is not quite correctly treated here
         because it includes a symmetry number that is not yet correctly
         implemented in ORCA!
For a nonlinear molecule the correct rotational entropy is:
    S(rot) = R*(ln(qrot/sn)+1.5)
    R    = 8.31441 J/mol/K = 1.987191683e-3 kcal/mol/K
    qrot = 76502.3029722
    sn is the rotational symmetry number. We have assumed 3 here
       if it is different for your molecule then you should correct
       the printed rotational entropy by manually evaluating the equation
       as given above

For convenience we print out the resulting values for sn=1 - 12:
 sn= 1  qrot/sn=   76502.3030 T*S(rot)=     7.55 kcal/mol T*S(tot)=    22.18 kcal/mol
 sn= 2  qrot/sn=   38251.1515 T*S(rot)=     7.14 kcal/mol T*S(tot)=    21.77 kcal/mol
 sn= 3  qrot/sn=   25500.7677 T*S(rot)=     6.90 kcal/mol T*S(tot)=    21.53 kcal/mol
 sn= 4  qrot/sn=   19125.5757 T*S(rot)=     6.73 kcal/mol T*S(tot)=    21.36 kcal/mol
 sn= 5  qrot/sn=   15300.4606 T*S(rot)=     6.60 kcal/mol T*S(tot)=    21.23 kcal/mol
 sn= 6  qrot/sn=   12750.3838 T*S(rot)=     6.49 kcal/mol T*S(tot)=    21.12 kcal/mol
 sn= 7  qrot/sn=   10928.9004 T*S(rot)=     6.40 kcal/mol T*S(tot)=    21.03 kcal/mol
 sn= 8  qrot/sn=    9562.7879 T*S(rot)=     6.32 kcal/mol T*S(tot)=    20.95 kcal/mol
 sn= 9  qrot/sn=    8500.2559 T*S(rot)=     6.25 kcal/mol T*S(tot)=    20.88 kcal/mol
 sn=10  qrot/sn=    7650.2303 T*S(rot)=     6.19 kcal/mol T*S(tot)=    20.82 kcal/mol
 sn=11  qrot/sn=    6954.7548 T*S(rot)=     6.13 kcal/mol T*S(tot)=    20.76 kcal/mol
 sn=12  qrot/sn=    6375.1919 T*S(rot)=     6.08 kcal/mol T*S(tot)=    20.71 kcal/mol

-------------------
GIBBS FREE ENTHALPY
-------------------

The Gibbs free enthalpy is G = H - T*S

Total enthalpy                    ...   -248.50844704 Eh
Total entropy correction          ...     -0.03431065 Eh    -21.53 kcal/mol
-----------------------------------------------------------------------
Final Gibbs free enthalpy         ...   -248.54275769 Eh

For completeness - the Gibbs free enthalpy minus the electronic energy
G-E(el)                           ...      0.09034333 Eh     56.69 kcal/mol

                             ****ORCA TERMINATED NORMALLY****
TOTAL RUN TIME: 0 days 0 hours 9 minutes 14 seconds 900 msec
