                         Program Version 3.0.3 - RELEASE   -
|  1> ! NORI PBE0 def2-TZVP UseSym TightOPT Freq TightSCF Grid3 FinalGrid5 XYZFile
|  2> % pal
|  3>     nprocs 8
|  4> end
|  5> %method
|  6>     SymThresh 5.0e-2
|  7> end
|  8> % geom
|  9>     MaxIter 10
| 10> end
| 11> % maxcore 2000
| 12> % output
| 13>     printlevel mini
| 14>     print[ P_Basis ] 0
| 15>     print[ P_SCFInfo ] 1
| 16>     print[ P_SCFIterInfo ] 1
| 17>     print[ P_OrbEn ] 0
| 18>     print[ P_Cartesian ] 0
| 19> end
| 20> % elprop
| 21>     Dipole false
| 22> end
| 23> *xyz 1 1
| 24>  O        2.3028596686    -0.1520270103    -1.2778694407
| 25>  C        2.2488877821    -0.0773827514    -0.0848927874
| 26>  C        3.0907457774    -1.0213768006     0.7456014138
| 27>  C        2.8650451450    -2.4710104768     0.5341339460
| 28>  N        3.9918176744    -1.7934141693    -0.1263603897
| 29>  H        1.6007934512     0.6285490664     0.4559866419
| 30>  H        3.5127283036    -0.6826459256     1.6844183043
| 31>  H        3.1472025384    -3.1685763508     1.3121224713
| 32>  H        2.0827856988    -2.7816559815    -0.1480539940
| 33>  H        3.8617989941    -1.5495557531    -1.1154671199
| 34>  H        4.9419249663    -1.9846138470     0.1743909545
| 35> *
| 36>
| 37>                          ****END OF INPUT****
 Total Charge           Charge          ....    1
 Multiplicity           Mult            ....    1
 Number of Electrons    NEL             ....   38
FINAL SINGLE POINT ENERGY      -247.411114972809

CARTESIAN COORDINATES (ANGSTROEM)
---------------------------------
  O      0.000576   -0.000557    1.656792
  C     -0.761626   -0.456292    0.854978
  C     -0.374440   -0.449704   -0.607772
  C     -0.076563    0.872219   -1.208528
  N      1.019536    0.000033   -0.757966
  H     -1.749639   -0.866130    1.113124
  H     -0.682484   -1.266170   -1.250308
  H     -0.149056    0.993310   -2.281711
  H     -0.204519    1.760317   -0.601433
  H      1.442513    0.229938    0.149052
  H      1.622060   -0.447041   -1.441235

FINAL SINGLE POINT ENERGY      -247.411115111425
                    ***********************HURRAY********************
 Multiplicity           Mult            ....    1
 Number of Electrons    NEL             ....   38
 Basis Dimension        Dim             ....  191
FINAL SINGLE POINT ENERGY      -247.411115117277

VIBRATIONAL FREQUENCIES
-----------------------

   0:         0.00 cm**-1
   1:         0.00 cm**-1
   2:         0.00 cm**-1
   3:         0.00 cm**-1
   4:         0.00 cm**-1
   5:         0.00 cm**-1
   6:       164.13 cm**-1
   7:       282.19 cm**-1
   8:       350.64 cm**-1
   9:       688.69 cm**-1
  10:       800.59 cm**-1
  11:       862.18 cm**-1
  12:       885.72 cm**-1
  13:       911.75 cm**-1
  14:       950.00 cm**-1
  15:      1036.43 cm**-1
  16:      1081.63 cm**-1
  17:      1108.99 cm**-1
  18:      1156.52 cm**-1
  19:      1183.14 cm**-1
  20:      1249.91 cm**-1
  21:      1271.76 cm**-1
  22:      1378.76 cm**-1
  23:      1396.83 cm**-1
  24:      1485.04 cm**-1
  25:      1585.99 cm**-1
  26:      1836.76 cm**-1
  27:      3050.44 cm**-1
  28:      3169.06 cm**-1
  29:      3215.42 cm**-1
  30:      3276.99 cm**-1
  31:      3373.89 cm**-1
  32:      3578.91 cm**-1

IR SPECTRUM
-----------

 Mode    freq (cm**-1)   T**2         TX         TY         TZ
-------------------------------------------------------------------
   6:       164.13   11.666963  (  1.263658  -3.159942   0.291373)
   7:       282.19   36.846437  (  3.503647   0.650356  -4.914054)
   8:       350.64    7.341475  (  0.107603   1.929821  -1.898865)
   9:       688.69    3.979513  ( -0.823549   0.110046   1.813607)
  10:       800.59   15.629602  ( -0.101979   0.019915   3.952063)
  11:       862.18    6.955849  ( -1.937150   1.633980  -0.730349)
  12:       885.72    5.891505  (  0.897503  -0.178162   2.248166)
  13:       911.75   30.143359  ( -4.271062  -1.037257   3.290211)
  14:       950.00   24.897868  (  3.498663  -0.453963  -3.528618)
  15:      1036.43   10.615753  ( -1.664118  -2.578587  -1.094236)
  16:      1081.63   98.838389  (  3.916755   8.388467  -3.623677)
  17:      1108.99   16.800093  ( -2.430778  -1.208927   3.070816)
  18:      1156.52    2.544658  ( -0.878603   0.879551  -0.999553)
  19:      1183.14    6.972631  ( -2.509775  -0.760790   0.307989)
  20:      1249.91    5.244073  (  1.038374   1.424428  -1.461800)
  21:      1271.76   16.602822  (  0.864029  -0.571926   3.940708)
  22:      1378.76    4.956070  ( -1.604591  -0.208525  -1.529011)
  23:      1396.83   30.010086  ( -3.090244  -2.923253   3.451821)
  24:      1485.04    9.756934  (  1.567327  -2.692727  -0.222811)
  25:      1585.99   86.340434  ( -9.125644   0.690798  -1.608060)
  26:      1836.76   89.311986  ( -3.185894  -1.688468  -8.735625)
  27:      3050.44    7.976716  ( -2.400815  -1.369865   0.579891)
  28:      3169.06    5.513049  (  0.552075  -2.209588   0.570951)
  29:      3215.42    7.777751  ( -0.894480  -2.018156  -1.704319)
  30:      3276.99   13.596258  ( -0.124953   1.464854   3.381545)
  31:      3373.89  121.431216  ( -6.274316   0.298845  -9.053997)
  32:      3578.91  189.145969  ( -7.436407   4.792421  10.529887)

--------------------------
THERMOCHEMISTRY AT 298.15K
--------------------------

Temperature         ... 298.15 K
Pressure            ... 1.00 atm
Total Mass          ... 72.09 AMU

Throughout the following assumptions are being made:
  (1) The electronic state is orbitally nondegenerate
  (2) There are no thermally accessible electronically excited states
  (3) Hindered rotations indicated by low frequency modes) are not
      treated as such but are treated as vibrations and this may
      case some error
  (4) All equations used are the standard statistical mechanics
      equations for an ideal gas
  (5) All vibrations are strinctly harmonic

------------
INNER ENERGY
------------

The inner energy is: U= E(el) + E(ZPE) + E(vib) + E(rot) + E(trans)
    E(el)   - is the total energy from the electronic structure calculation
              = E(kin-el) + E(nuc-el) + E(el-el) + E(nuc-nuc)
    E(ZPE)  - the the zero temperature vibrational energy from the frequency calculation
    E(vib)  - the the finite temperature correction to E(ZPE) due to population
              of excietd vibrational states
    E(rot)  - is the rotational thermal energy
    E(trans)- is the translational thermal energy

Summary of contributions to the inner energy U:
Electronic energy                ...   -247.41111512 Eh
Zero point energy                ...      0.09416204 Eh      59.09 kcal/mol
Thermal vibrational correction   ...      0.00200625 Eh       1.26 kcal/mol
Thermal rotational correction    ...      0.00141627 Eh       0.89 kcal/mol
Thermal translational correction ...      0.00141627 Eh       0.89 kcal/mol
-----------------------------------------------------------------------
Total thermal energy                   -247.31211429 Eh

Summary of corrections to the electronic energy:
(perhaps to be used in another calculation)
Total thermal correction                  0.00483879 Eh       3.04 kcal/mol
Non-thermal (ZPE) correction              0.09416204 Eh      59.09 kcal/mol
-----------------------------------------------------------------------
Total correction                          0.09900083 Eh      62.12 kcal/mol

--------
ENTHALPY
--------

The enthalpy is H = U + kB*T
                kB is Boltzmann's constant
Total free energy                 ...   -247.31211429 Eh
Thermal Enthalpy correction       ...      0.00094421 Eh       0.59 kcal/mol
-----------------------------------------------------------------------
Total Enthalpy                    ...   -247.31117008 Eh

-------
ENTROPY
-------

The entropy contributions are T*S = T*(S(el)+S(vib)+S(rot)+S(trans)
     S(el)   - electronic entropy
     S(vib)  - vibrational entropy
     S(rot)  - rotational entropy
     S(trans)- translational entropy
The entropies will be listed as mutliplied by the temperature to get
units of energy

Electronic entropy                ...      0.00000000 Eh      0.00 kcal/mol
Vibrational entropy               ...      0.00318212 Eh      2.00 kcal/mol
Rotational entropy                ...      0.01080809 Eh      6.78 kcal/mol
Translational entropy             ...      0.01840770 Eh     11.55 kcal/mol
-----------------------------------------------------------------------
Final entropy term                ...      0.03239791 Eh     20.33 kcal/mol

CAUTION: The rotational entropy is not quite correctly treated here
         because it includes a symmetry number that is not yet correctly
         implemented in ORCA!
For a nonlinear molecule the correct rotational entropy is:
    S(rot) = R*(ln(qrot/sn)+1.5)
    R    = 8.31441 J/mol/K = 1.987191683e-3 kcal/mol/K
    qrot = 62671.6442430
    sn is the rotational symmetry number. We have assumed 3 here
       if it is different for your molecule then you should correct
       the printed rotational entropy by manually evaluating the equation
       as given above

For convenience we print out the resulting values for sn=1 - 12:
 sn= 1  qrot/sn=   62671.6442 T*S(rot)=     7.43 kcal/mol T*S(tot)=    20.98 kcal/mol
 sn= 2  qrot/sn=   31335.8221 T*S(rot)=     7.02 kcal/mol T*S(tot)=    20.57 kcal/mol
 sn= 3  qrot/sn=   20890.5481 T*S(rot)=     6.78 kcal/mol T*S(tot)=    20.33 kcal/mol
 sn= 4  qrot/sn=   15667.9111 T*S(rot)=     6.61 kcal/mol T*S(tot)=    20.16 kcal/mol
 sn= 5  qrot/sn=   12534.3288 T*S(rot)=     6.48 kcal/mol T*S(tot)=    20.03 kcal/mol
 sn= 6  qrot/sn=   10445.2740 T*S(rot)=     6.37 kcal/mol T*S(tot)=    19.92 kcal/mol
 sn= 7  qrot/sn=    8953.0920 T*S(rot)=     6.28 kcal/mol T*S(tot)=    19.83 kcal/mol
 sn= 8  qrot/sn=    7833.9555 T*S(rot)=     6.20 kcal/mol T*S(tot)=    19.75 kcal/mol
 sn= 9  qrot/sn=    6963.5160 T*S(rot)=     6.13 kcal/mol T*S(tot)=    19.68 kcal/mol
 sn=10  qrot/sn=    6267.1644 T*S(rot)=     6.07 kcal/mol T*S(tot)=    19.62 kcal/mol
 sn=11  qrot/sn=    5697.4222 T*S(rot)=     6.01 kcal/mol T*S(tot)=    19.56 kcal/mol
 sn=12  qrot/sn=    5222.6370 T*S(rot)=     5.96 kcal/mol T*S(tot)=    19.51 kcal/mol

-------------------
GIBBS FREE ENTHALPY
-------------------

The Gibbs free enthalpy is G = H - T*S

Total enthalpy                    ...   -247.31117008 Eh
Total entropy correction          ...     -0.03239791 Eh    -20.33 kcal/mol
-----------------------------------------------------------------------
Final Gibbs free enthalpy         ...   -247.34356799 Eh

For completeness - the Gibbs free enthalpy minus the electronic energy
G-E(el)                           ...      0.06754713 Eh     42.39 kcal/mol

                             ****ORCA TERMINATED NORMALLY****
TOTAL RUN TIME: 0 days 0 hours 8 minutes 31 seconds 126 msec
