                         Program Version 3.0.3 - RELEASE   -
|  1> ! NORI PBE0 def2-TZVP UseSym TightOPT Freq TightSCF Grid3 FinalGrid5 XYZFile
|  2> % pal
|  3>     nprocs 8
|  4> end
|  5> %method
|  6>     SymThresh 5.0e-2
|  7> end
|  8> % geom
|  9>     MaxIter 10
| 10> end
| 11> % maxcore 2000
| 12> % output
| 13>     printlevel mini
| 14>     print[ P_Basis ] 0
| 15>     print[ P_SCFInfo ] 1
| 16>     print[ P_SCFIterInfo ] 1
| 17>     print[ P_OrbEn ] 0
| 18>     print[ P_Cartesian ] 0
| 19> end
| 20> % elprop
| 21>     Dipole false
| 22> end
| 23> *xyz 1 1
| 24>  C        0.2925277941     0.8502309304    -0.1589716147
| 25>  C       -0.7026443878    -0.2470668960     0.0581658737
| 26>  C        0.7463787387    -0.5783740165    -0.1036258886
| 27>  C        1.5491725456    -1.1429236995     1.0098729810
| 28>  C        2.8871289524    -0.6289147990     1.3508863244
| 29>  N        1.7382468011    -0.3044996860     2.2300205361
| 30>  H        0.3297354226     1.3422442594    -1.1219989064
| 31>  H        0.4828234126     1.5309093139     0.6661541045
| 32>  H       -1.3733230020    -0.5087993080    -0.7490631689
| 33>  H       -1.1410444844    -0.3361371876     1.0457770572
| 34>  H        1.0410006877    -1.0214787379    -1.0497231549
| 35>  H        1.3500180338    -2.1768823196     1.2757979402
| 36>  H        3.2667332169     0.2275908040     0.8082596333
| 37>  H        3.6224342404    -1.2796777925     1.8062599716
| 38>  H        1.6844944961    -0.7451962348     3.1413394287
| 39>  H        1.3844575323     0.6460953699     2.2006588828
| 40> *
| 41>
| 42>                          ****END OF INPUT****
 Total Charge           Charge          ....    1
 Multiplicity           Mult            ....    1
 Number of Electrons    NEL             ....   46
FINAL SINGLE POINT ENERGY      -250.784713155498
FINAL SINGLE POINT ENERGY      -250.784714215321
FINAL SINGLE POINT ENERGY      -250.784715232814
FINAL SINGLE POINT ENERGY      -250.784715905455
FINAL SINGLE POINT ENERGY      -250.784716591329
FINAL SINGLE POINT ENERGY      -250.784717250942

CARTESIAN COORDINATES (ANGSTROEM)
---------------------------------
  C      1.242973   -0.011437   -1.166039
  C      0.498553    1.270909   -1.369921
  C     -0.240740    0.039204   -0.952931
  C     -0.882705   -0.073121    0.380434
  C     -0.700405   -1.252057    1.244539
  N     -0.006967    0.013044    1.586702
  H      1.597226   -0.555364   -2.031649
  H      1.928250   -0.073214   -0.325114
  H      0.349986    1.631781   -2.378689
  H      0.640978    2.055041   -0.634847
  H     -0.848824   -0.443561   -1.711520
  H     -1.799699    0.490531    0.525032
  H     -0.027025   -2.034571    0.918094
  H     -1.471218   -1.538172    1.948217
  H     -0.327408    0.542428    2.389657
  H      0.995272    0.049774    1.431356

FINAL SINGLE POINT ENERGY      -250.784717998368
                    ***********************HURRAY********************
 Multiplicity           Mult            ....    1
 Number of Electrons    NEL             ....   46
 Basis Dimension        Dim             ....  246
FINAL SINGLE POINT ENERGY      -250.784718078465

VIBRATIONAL FREQUENCIES
-----------------------

   0:         0.00 cm**-1
   1:         0.00 cm**-1
   2:         0.00 cm**-1
   3:         0.00 cm**-1
   4:         0.00 cm**-1
   5:         0.00 cm**-1
   6:        61.54 cm**-1
   7:       210.21 cm**-1
   8:       242.66 cm**-1
   9:       442.97 cm**-1
  10:       498.88 cm**-1
  11:       714.24 cm**-1
  12:       776.44 cm**-1
  13:       822.98 cm**-1
  14:       837.54 cm**-1
  15:       880.42 cm**-1
  16:       883.68 cm**-1
  17:       925.66 cm**-1
  18:       954.20 cm**-1
  19:       988.54 cm**-1
  20:      1030.05 cm**-1
  21:      1063.09 cm**-1
  22:      1094.01 cm**-1
  23:      1117.11 cm**-1
  24:      1124.67 cm**-1
  25:      1155.04 cm**-1
  26:      1167.16 cm**-1
  27:      1185.00 cm**-1
  28:      1190.12 cm**-1
  29:      1235.41 cm**-1
  30:      1255.80 cm**-1
  31:      1279.82 cm**-1
  32:      1389.55 cm**-1
  33:      1449.02 cm**-1
  34:      1470.62 cm**-1
  35:      1490.55 cm**-1
  36:      1521.43 cm**-1
  37:      1619.34 cm**-1
  38:      3133.18 cm**-1
  39:      3158.22 cm**-1
  40:      3172.56 cm**-1
  41:      3175.05 cm**-1
  42:      3181.17 cm**-1
  43:      3232.42 cm**-1
  44:      3251.91 cm**-1
  45:      3277.05 cm**-1
  46:      3507.28 cm**-1
  47:      3614.14 cm**-1

IR SPECTRUM
-----------

 Mode    freq (cm**-1)   T**2         TX         TY         TZ
-------------------------------------------------------------------
   6:        61.54    1.860093  (  0.576499  -1.122705   0.516987)
   7:       210.21    2.254336  ( -0.468162  -0.734528   1.222959)
   8:       242.66   10.113593  ( -1.357437  -0.230829   2.866649)
   9:       442.97    0.787964  ( -0.834320   0.067048   0.295599)
  10:       498.88    2.441709  (  0.183062   0.689848  -1.390074)
  11:       714.24    4.032477  (  1.927520   0.562798   0.020052)
  12:       776.44    0.037960  ( -0.091667  -0.114988  -0.127808)
  13:       822.98   11.561093  (  0.930442   2.906053   1.500075)
  14:       837.54   10.181482  ( -2.447610   0.727194  -1.913603)
  15:       880.42    6.937288  (  0.377577   0.297347  -2.589654)
  16:       883.68    0.422039  ( -0.483253  -0.226624  -0.370334)
  17:       925.66    8.942571  (  0.903388   1.951098   2.078383)
  18:       954.20    3.952864  ( -0.285982   1.773491   0.851944)
  19:       988.54   18.958931  ( -4.017311  -0.578267  -1.576627)
  20:      1030.05   98.356449  (  0.867958  -7.229252   6.733574)
  21:      1063.09    9.104184  (  2.420229   1.673191  -0.668660)
  22:      1094.01    8.142321  ( -1.983259   1.890620  -0.796592)
  23:      1117.11    2.762701  (  1.297563   0.190585  -1.021131)
  24:      1124.67    1.856903  (  0.811486  -0.744777   0.802310)
  25:      1155.04    4.915204  ( -0.800752   0.026523   2.067195)
  26:      1167.16    2.096899  (  1.032972  -0.062568   1.012893)
  27:      1185.00    0.446202  ( -0.314385  -0.064135  -0.585876)
  28:      1190.12    1.344985  ( -0.623217   0.839138  -0.502427)
  29:      1235.41    1.774229  (  0.838532   1.008993  -0.230274)
  30:      1255.80    5.412001  (  1.589789   0.677738  -1.557319)
  31:      1279.82    3.952501  ( -1.858212  -0.313397  -0.633507)
  32:      1389.55    3.444588  (  0.477181  -0.450303  -1.736120)
  33:      1449.02   12.201039  ( -3.157727   0.157845   1.484884)
  34:      1470.62    9.855632  ( -1.244819   2.881551   0.052177)
  35:      1490.55   15.453957  ( -1.178188  -3.306102   1.770739)
  36:      1521.43    1.068151  ( -0.563535  -0.696727  -0.514927)
  37:      1619.34   74.371855  (  4.708763   2.256580   6.863472)
  38:      3133.18   14.246614  ( -1.256913   0.901098  -3.443081)
  39:      3158.22    3.601945  ( -0.024661  -1.069524  -1.567627)
  40:      3172.56    2.964773  ( -0.279444  -1.607653   0.549669)
  41:      3175.05    0.800032  ( -0.048990   0.378790   0.808796)
  42:      3181.17    2.685916  ( -0.178616   0.570051  -1.526124)
  43:      3232.42    0.665774  ( -0.392815   0.460182  -0.547451)
  44:      3251.91    0.087816  ( -0.134882  -0.220293  -0.145237)
  45:      3277.05    5.829014  ( -1.911133   0.760568   1.264168)
  46:      3507.28   74.159901  (  5.421444   4.725431   4.736892)
  47:      3614.14  144.413363  ( -7.448124   3.518568   8.749771)

--------------------------
THERMOCHEMISTRY AT 298.15K
--------------------------

Temperature         ... 298.15 K
Pressure            ... 1.00 atm
Total Mass          ... 84.14 AMU

Throughout the following assumptions are being made:
  (1) The electronic state is orbitally nondegenerate
  (2) There are no thermally accessible electronically excited states
  (3) Hindered rotations indicated by low frequency modes) are not
      treated as such but are treated as vibrations and this may
      case some error
  (4) All equations used are the standard statistical mechanics
      equations for an ideal gas
  (5) All vibrations are strinctly harmonic

------------
INNER ENERGY
------------

The inner energy is: U= E(el) + E(ZPE) + E(vib) + E(rot) + E(trans)
    E(el)   - is the total energy from the electronic structure calculation
              = E(kin-el) + E(nuc-el) + E(el-el) + E(nuc-nuc)
    E(ZPE)  - the the zero temperature vibrational energy from the frequency calculation
    E(vib)  - the the finite temperature correction to E(ZPE) due to population
              of excietd vibrational states
    E(rot)  - is the rotational thermal energy
    E(trans)- is the translational thermal energy

Summary of contributions to the inner energy U:
Electronic energy                ...   -250.78471808 Eh
Zero point energy                ...      0.14758134 Eh      92.61 kcal/mol
Thermal vibrational correction   ...      0.00320699 Eh       2.01 kcal/mol
Thermal rotational correction    ...      0.00141627 Eh       0.89 kcal/mol
Thermal translational correction ...      0.00141627 Eh       0.89 kcal/mol
-----------------------------------------------------------------------
Total thermal energy                   -250.63109720 Eh

Summary of corrections to the electronic energy:
(perhaps to be used in another calculation)
Total thermal correction                  0.00603954 Eh       3.79 kcal/mol
Non-thermal (ZPE) correction              0.14758134 Eh      92.61 kcal/mol
-----------------------------------------------------------------------
Total correction                          0.15362088 Eh      96.40 kcal/mol

--------
ENTHALPY
--------

The enthalpy is H = U + kB*T
                kB is Boltzmann's constant
Total free energy                 ...   -250.63109720 Eh
Thermal Enthalpy correction       ...      0.00094421 Eh       0.59 kcal/mol
-----------------------------------------------------------------------
Total Enthalpy                    ...   -250.63015299 Eh

-------
ENTROPY
-------

The entropy contributions are T*S = T*(S(el)+S(vib)+S(rot)+S(trans)
     S(el)   - electronic entropy
     S(vib)  - vibrational entropy
     S(rot)  - rotational entropy
     S(trans)- translational entropy
The entropies will be listed as mutliplied by the temperature to get
units of energy

Electronic entropy                ...      0.00000000 Eh      0.00 kcal/mol
Vibrational entropy               ...      0.00566619 Eh      3.56 kcal/mol
Rotational entropy                ...      0.01145184 Eh      7.19 kcal/mol
Translational entropy             ...      0.01862670 Eh     11.69 kcal/mol
-----------------------------------------------------------------------
Final entropy term                ...      0.03574473 Eh     22.43 kcal/mol

CAUTION: The rotational entropy is not quite correctly treated here
         because it includes a symmetry number that is not yet correctly
         implemented in ORCA!
For a nonlinear molecule the correct rotational entropy is:
    S(rot) = R*(ln(qrot/sn)+1.5)
    R    = 8.31441 J/mol/K = 1.987191683e-3 kcal/mol/K
    qrot = 123929.6671518
    sn is the rotational symmetry number. We have assumed 3 here
       if it is different for your molecule then you should correct
       the printed rotational entropy by manually evaluating the equation
       as given above

For convenience we print out the resulting values for sn=1 - 12:
 sn= 1  qrot/sn=  123929.6672 T*S(rot)=     7.84 kcal/mol T*S(tot)=    23.08 kcal/mol
 sn= 2  qrot/sn=   61964.8336 T*S(rot)=     7.43 kcal/mol T*S(tot)=    22.67 kcal/mol
 sn= 3  qrot/sn=   41309.8891 T*S(rot)=     7.19 kcal/mol T*S(tot)=    22.43 kcal/mol
 sn= 4  qrot/sn=   30982.4168 T*S(rot)=     7.02 kcal/mol T*S(tot)=    22.26 kcal/mol
 sn= 5  qrot/sn=   24785.9334 T*S(rot)=     6.88 kcal/mol T*S(tot)=    22.13 kcal/mol
 sn= 6  qrot/sn=   20654.9445 T*S(rot)=     6.78 kcal/mol T*S(tot)=    22.02 kcal/mol
 sn= 7  qrot/sn=   17704.2382 T*S(rot)=     6.68 kcal/mol T*S(tot)=    21.93 kcal/mol
 sn= 8  qrot/sn=   15491.2084 T*S(rot)=     6.60 kcal/mol T*S(tot)=    21.85 kcal/mol
 sn= 9  qrot/sn=   13769.9630 T*S(rot)=     6.54 kcal/mol T*S(tot)=    21.78 kcal/mol
 sn=10  qrot/sn=   12392.9667 T*S(rot)=     6.47 kcal/mol T*S(tot)=    21.72 kcal/mol
 sn=11  qrot/sn=   11266.3334 T*S(rot)=     6.42 kcal/mol T*S(tot)=    21.66 kcal/mol
 sn=12  qrot/sn=   10327.4723 T*S(rot)=     6.36 kcal/mol T*S(tot)=    21.61 kcal/mol

-------------------
GIBBS FREE ENTHALPY
-------------------

The Gibbs free enthalpy is G = H - T*S

Total enthalpy                    ...   -250.63015299 Eh
Total entropy correction          ...     -0.03574473 Eh    -22.43 kcal/mol
-----------------------------------------------------------------------
Final Gibbs free enthalpy         ...   -250.66589773 Eh

For completeness - the Gibbs free enthalpy minus the electronic energy
G-E(el)                           ...      0.11882035 Eh     74.56 kcal/mol

                             ****ORCA TERMINATED NORMALLY****
TOTAL RUN TIME: 0 days 0 hours 24 minutes 26 seconds 335 msec
