                         Program Version 3.0.3 - RELEASE   -
|  1> ! NORI PBE0 def2-TZVP UseSym TightOPT Freq TightSCF Grid3 FinalGrid5 XYZFile
|  2> % pal
|  3>     nprocs 8
|  4> end
|  5> %method
|  6>     SymThresh 5.0e-2
|  7> end
|  8> % geom
|  9>     MaxIter 10
| 10> end
| 11> % maxcore 2000
| 12> % output
| 13>     printlevel mini
| 14>     print[ P_Basis ] 0
| 15>     print[ P_SCFInfo ] 1
| 16>     print[ P_SCFIterInfo ] 1
| 17>     print[ P_OrbEn ] 0
| 18>     print[ P_Cartesian ] 0
| 19> end
| 20> % elprop
| 21>     Dipole false
| 22> end
| 23> *xyz 1 1
| 24>  C       -0.5026514312     0.8563683230     0.1403487369
| 25>  C       -0.4467162066    -0.5734035544    -0.3106111769
| 26>  C        0.7994433323     0.1357101522     0.0923162012
| 27>  N        1.4335307601    -0.2376350223     1.3526005183
| 28>  C        2.7196694029    -0.9663100994     1.3837208826
| 29>  C        2.6603263228     0.4356211979     1.8308638403
| 30>  H       -0.9421971687     1.0602796257     1.1100276590
| 31>  H       -0.6622345764     1.6368412020    -0.5919197837
| 32>  H       -0.5666260338    -0.8022921751    -1.3612346180
| 33>  H       -0.8489947577    -1.3265875135     0.3573655202
| 34>  H        1.5416518770     0.3989620671    -0.6511214312
| 35>  H        0.7730467584    -0.4972145527     2.0791807115
| 36>  H        3.1112192377    -1.1928549232     0.4006814600
| 37>  H        2.7773920295    -1.7611020547     2.1162974224
| 38>  H        3.0101851864     1.2184968730     1.1704377855
| 39>  H        2.6739852675     0.6619204545     2.8892262718
| 40> *
| 41>
| 42>                          ****END OF INPUT****
 Total Charge           Charge          ....    1
 Multiplicity           Mult            ....    1
 Number of Electrons    NEL             ....   46
FINAL SINGLE POINT ENERGY      -250.778557156399

CARTESIAN COORDINATES (ANGSTROEM)
---------------------------------
  C     -1.504548   -1.013022    0.750037
  C     -1.504548   -1.013022   -0.750037
  C     -0.766325    0.040546    0.000000
  N      0.692638   -0.000138    0.000000
  C      1.493624    1.001237   -0.736303
  C      1.493624    1.001237    0.736303
  H     -0.931152   -1.784052    1.252166
  H     -2.397413   -0.708068    1.279632
  H     -2.397413   -0.708068   -1.279632
  H     -0.931152   -1.784052   -1.252166
  H     -1.125003    1.062589    0.000000
  H      1.073847   -0.941568    0.000000
  H      0.893545    1.729281   -1.266571
  H      2.344455    0.601063   -1.272455
  H      0.893545    1.729281    1.266571
  H      2.344455    0.601063    1.272455

FINAL SINGLE POINT ENERGY      -250.778557601717
                    ***********************HURRAY********************
 Multiplicity           Mult            ....    1
 Number of Electrons    NEL             ....   46
 Basis Dimension        Dim             ....  246
FINAL SINGLE POINT ENERGY      -250.778557860698

VIBRATIONAL FREQUENCIES
-----------------------

   0:         0.00 cm**-1
   1:         0.00 cm**-1
   2:         0.00 cm**-1
   3:         0.00 cm**-1
   4:         0.00 cm**-1
   5:         0.00 cm**-1
   6:        67.12 cm**-1
   7:       215.78 cm**-1
   8:       254.06 cm**-1
   9:       377.47 cm**-1
  10:       465.24 cm**-1
  11:       722.83 cm**-1
  12:       775.81 cm**-1
  13:       821.48 cm**-1
  14:       826.15 cm**-1
  15:       863.20 cm**-1
  16:       919.86 cm**-1
  17:       933.27 cm**-1
  18:      1014.25 cm**-1
  19:      1026.84 cm**-1
  20:      1075.66 cm**-1
  21:      1084.65 cm**-1
  22:      1096.83 cm**-1
  23:      1118.21 cm**-1
  24:      1149.18 cm**-1
  25:      1154.74 cm**-1
  26:      1175.15 cm**-1
  27:      1192.30 cm**-1
  28:      1213.21 cm**-1
  29:      1246.64 cm**-1
  30:      1267.39 cm**-1
  31:      1274.00 cm**-1
  32:      1370.67 cm**-1
  33:      1462.27 cm**-1
  34:      1475.34 cm**-1
  35:      1477.74 cm**-1
  36:      1510.60 cm**-1
  37:      1518.91 cm**-1
  38:      3157.81 cm**-1
  39:      3160.66 cm**-1
  40:      3173.08 cm**-1
  41:      3174.62 cm**-1
  42:      3202.13 cm**-1
  43:      3244.57 cm**-1
  44:      3255.88 cm**-1
  45:      3271.03 cm**-1
  46:      3281.48 cm**-1
  47:      3537.43 cm**-1

IR SPECTRUM
-----------

 Mode    freq (cm**-1)   T**2         TX         TY         TZ
-------------------------------------------------------------------
   6:        67.12    0.793524  (  0.000021   0.000005  -0.890800)
   7:       215.78    0.209207  ( -0.000024   0.000008  -0.457391)
   8:       254.06    2.806741  (  1.657268  -0.245366  -0.000002)
   9:       377.47    2.019671  (  1.117963   0.877399  -0.000007)
  10:       465.24    0.867217  (  0.000005   0.000000   0.931245)
  11:       722.83    0.011127  (  0.059884  -0.086837   0.000012)
  12:       775.81    1.273673  (  0.629323  -0.936817   0.000046)
  13:       821.48    0.363555  ( -0.381361   0.467033  -0.000037)
  14:       826.15   10.218594  (  0.000002   0.000017   3.196654)
  15:       863.20    4.271466  ( -0.000015  -0.000036  -2.066753)
  16:       919.86   52.419498  (  4.039197   6.008693  -0.000014)
  17:       933.27    3.087008  (  0.000019   0.000035   1.756988)
  18:      1014.25   10.914784  (  2.436506   2.231193   0.000032)
  19:      1026.84   16.637088  (  0.000022   0.000012  -4.078859)
  20:      1075.66   19.208454  ( -2.607276  -3.522863   0.000005)
  21:      1084.65    8.523229  (  2.651853   1.221025  -0.000014)
  22:      1096.83    2.267673  ( -0.000011  -0.000008   1.505879)
  23:      1118.21    0.390959  ( -0.000010  -0.000036   0.625267)
  24:      1149.18    8.823379  ( -0.000107   0.000018  -2.970417)
  25:      1154.74    0.620410  ( -0.755469   0.222884   0.000405)
  26:      1175.15    1.007684  ( -0.000021   0.000014  -1.003835)
  27:      1192.30    0.783818  (  0.000010   0.000012  -0.885335)
  28:      1213.21    6.188767  (  0.000024   0.000018   2.487723)
  29:      1246.64    5.140953  ( -1.137249  -1.961534   0.000008)
  30:      1267.39    2.860807  (  1.207688  -1.184186  -0.000002)
  31:      1274.00    9.934926  (  1.790487   2.594047  -0.000006)
  32:      1370.67    4.273151  (  1.191651  -1.689118   0.000010)
  33:      1462.27   11.151289  ( -0.000002   0.000003  -3.339355)
  34:      1475.34   19.437176  ( -4.247215  -1.182516  -0.000767)
  35:      1477.74   16.113601  ( -0.000866  -0.000208   4.014175)
  36:      1510.60   10.624622  ( -1.286417  -2.994955   0.000065)
  37:      1518.91   17.541501  (  3.728253   1.908306   0.000064)
  38:      3157.81    0.009339  ( -0.000336  -0.000025  -0.096637)
  39:      3160.66    3.684997  (  1.912711   0.162886  -0.000021)
  40:      3173.08    4.059814  (  0.000133   0.000102  -2.014898)
  41:      3174.62    2.105857  ( -1.045785  -1.006077  -0.000206)
  42:      3202.13    0.546632  (  0.705080  -0.222473   0.000000)
  43:      3244.57    0.072666  ( -0.000048   0.000033   0.269566)
  44:      3255.88    1.041319  ( -0.902092   0.477021  -0.000015)
  45:      3271.03    0.056101  (  0.000023  -0.000024   0.236856)
  46:      3281.48   11.574276  ( -2.646217   2.138180   0.000005)
  47:      3537.43   73.106221  ( -2.302412   8.234387   0.000000)

--------------------------
THERMOCHEMISTRY AT 298.15K
--------------------------

Temperature         ... 298.15 K
Pressure            ... 1.00 atm
Total Mass          ... 84.14 AMU

Throughout the following assumptions are being made:
  (1) The electronic state is orbitally nondegenerate
  (2) There are no thermally accessible electronically excited states
  (3) Hindered rotations indicated by low frequency modes) are not
      treated as such but are treated as vibrations and this may
      case some error
  (4) All equations used are the standard statistical mechanics
      equations for an ideal gas
  (5) All vibrations are strinctly harmonic

------------
INNER ENERGY
------------

The inner energy is: U= E(el) + E(ZPE) + E(vib) + E(rot) + E(trans)
    E(el)   - is the total energy from the electronic structure calculation
              = E(kin-el) + E(nuc-el) + E(el-el) + E(nuc-nuc)
    E(ZPE)  - the the zero temperature vibrational energy from the frequency calculation
    E(vib)  - the the finite temperature correction to E(ZPE) due to population
              of excietd vibrational states
    E(rot)  - is the rotational thermal energy
    E(trans)- is the translational thermal energy

Summary of contributions to the inner energy U:
Electronic energy                ...   -250.77855786 Eh
Zero point energy                ...      0.14718222 Eh      92.36 kcal/mol
Thermal vibrational correction   ...      0.00322884 Eh       2.03 kcal/mol
Thermal rotational correction    ...      0.00141627 Eh       0.89 kcal/mol
Thermal translational correction ...      0.00141627 Eh       0.89 kcal/mol
-----------------------------------------------------------------------
Total thermal energy                   -250.62531425 Eh

Summary of corrections to the electronic energy:
(perhaps to be used in another calculation)
Total thermal correction                  0.00606139 Eh       3.80 kcal/mol
Non-thermal (ZPE) correction              0.14718222 Eh      92.36 kcal/mol
-----------------------------------------------------------------------
Total correction                          0.15324361 Eh      96.16 kcal/mol

--------
ENTHALPY
--------

The enthalpy is H = U + kB*T
                kB is Boltzmann's constant
Total free energy                 ...   -250.62531425 Eh
Thermal Enthalpy correction       ...      0.00094421 Eh       0.59 kcal/mol
-----------------------------------------------------------------------
Total Enthalpy                    ...   -250.62437004 Eh

-------
ENTROPY
-------

The entropy contributions are T*S = T*(S(el)+S(vib)+S(rot)+S(trans)
     S(el)   - electronic entropy
     S(vib)  - vibrational entropy
     S(rot)  - rotational entropy
     S(trans)- translational entropy
The entropies will be listed as mutliplied by the temperature to get
units of energy

Electronic entropy                ...      0.00000000 Eh      0.00 kcal/mol
Vibrational entropy               ...      0.00563835 Eh      3.54 kcal/mol
Rotational entropy                ...      0.01148004 Eh      7.20 kcal/mol
Translational entropy             ...      0.01862670 Eh     11.69 kcal/mol
-----------------------------------------------------------------------
Final entropy term                ...      0.03574508 Eh     22.43 kcal/mol

CAUTION: The rotational entropy is not quite correctly treated here
         because it includes a symmetry number that is not yet correctly
         implemented in ORCA!
For a nonlinear molecule the correct rotational entropy is:
    S(rot) = R*(ln(qrot/sn)+1.5)
    R    = 8.31441 J/mol/K = 1.987191683e-3 kcal/mol/K
    qrot = 127686.8867238
    sn is the rotational symmetry number. We have assumed 3 here
       if it is different for your molecule then you should correct
       the printed rotational entropy by manually evaluating the equation
       as given above

For convenience we print out the resulting values for sn=1 - 12:
 sn= 1  qrot/sn=  127686.8867 T*S(rot)=     7.85 kcal/mol T*S(tot)=    23.08 kcal/mol
 sn= 2  qrot/sn=   63843.4434 T*S(rot)=     7.44 kcal/mol T*S(tot)=    22.67 kcal/mol
 sn= 3  qrot/sn=   42562.2956 T*S(rot)=     7.20 kcal/mol T*S(tot)=    22.43 kcal/mol
 sn= 4  qrot/sn=   31921.7217 T*S(rot)=     7.03 kcal/mol T*S(tot)=    22.26 kcal/mol
 sn= 5  qrot/sn=   25537.3773 T*S(rot)=     6.90 kcal/mol T*S(tot)=    22.13 kcal/mol
 sn= 6  qrot/sn=   21281.1478 T*S(rot)=     6.79 kcal/mol T*S(tot)=    22.02 kcal/mol
 sn= 7  qrot/sn=   18240.9838 T*S(rot)=     6.70 kcal/mol T*S(tot)=    21.93 kcal/mol
 sn= 8  qrot/sn=   15960.8608 T*S(rot)=     6.62 kcal/mol T*S(tot)=    21.85 kcal/mol
 sn= 9  qrot/sn=   14187.4319 T*S(rot)=     6.55 kcal/mol T*S(tot)=    21.78 kcal/mol
 sn=10  qrot/sn=   12768.6887 T*S(rot)=     6.49 kcal/mol T*S(tot)=    21.72 kcal/mol
 sn=11  qrot/sn=   11607.8988 T*S(rot)=     6.43 kcal/mol T*S(tot)=    21.66 kcal/mol
 sn=12  qrot/sn=   10640.5739 T*S(rot)=     6.38 kcal/mol T*S(tot)=    21.61 kcal/mol

-------------------
GIBBS FREE ENTHALPY
-------------------

The Gibbs free enthalpy is G = H - T*S

Total enthalpy                    ...   -250.62437004 Eh
Total entropy correction          ...     -0.03574508 Eh    -22.43 kcal/mol
-----------------------------------------------------------------------
Final Gibbs free enthalpy         ...   -250.66011513 Eh

For completeness - the Gibbs free enthalpy minus the electronic energy
G-E(el)                           ...      0.11844274 Eh     74.32 kcal/mol

                             ****ORCA TERMINATED NORMALLY****
TOTAL RUN TIME: 0 days 0 hours 19 minutes 47 seconds 249 msec
