                         Program Version 3.0.3 - RELEASE   -
|  1> ! NORI PBE0 def2-TZVP UseSym TightOPT Freq TightSCF Grid3 FinalGrid5 XYZFile
|  2> % pal
|  3>     nprocs 8
|  4> end
|  5> %method
|  6>     SymThresh 5.0e-2
|  7> end
|  8> % geom
|  9>     MaxIter 10
| 10> end
| 11> % maxcore 2000
| 12> % output
| 13>     printlevel mini
| 14>     print[ P_Basis ] 0
| 15>     print[ P_SCFInfo ] 1
| 16>     print[ P_SCFIterInfo ] 1
| 17>     print[ P_OrbEn ] 0
| 18>     print[ P_Cartesian ] 0
| 19> end
| 20> % elprop
| 21>     Dipole false
| 22> end
| 23> *xyz 1 1
| 24>  C        0.7953524126     0.0212011378     1.1012957271
| 25>  C        0.2991614726     1.0122544471     0.0349043269
| 26>  C       -1.2057327742     0.7881144203     0.0020526903
| 27>  C       -1.2190226966    -0.7643090126     0.0410258462
| 28>  C        0.2818770523    -1.0122462035     0.0844995768
| 29>  N        0.7586081601    -0.0297085426    -0.9921055558
| 30>  H        0.3048567469     0.0490592649     2.0711446007
| 31>  H        1.8797113335     0.0147462807     1.2180228759
| 32>  H        0.7050627011     2.0120190596    -0.0967942549
| 33>  H       -1.6725067424     1.2035863957    -0.8923004698
| 34>  H       -1.6788333750     1.2484076192     0.8684277998
| 35>  H       -1.6975466818    -1.1716089473     0.9307621127
| 36>  H       -1.6951925001    -1.2167787123    -0.8300195973
| 37>  H        0.6707440993    -2.0239727388     0.0017940101
| 38>  H        1.7703742209    -0.0412239086    -1.1142854655
| 39>  H        0.2937965708    -0.0479505596    -1.9006742233
| 40> *
| 41>
| 42>                          ****END OF INPUT****
 Total Charge           Charge          ....    1
 Multiplicity           Mult            ....    1
 Number of Electrons    NEL             ....   46
FINAL SINGLE POINT ENERGY      -250.822390246034

CARTESIAN COORDINATES (ANGSTROEM)
---------------------------------
  C     -0.336902   -1.323590   -0.000000
  C      0.170176   -0.283030    1.012547
  C     -0.729617    0.921666    0.776547
  C     -0.729617    0.921666   -0.776547
  C      0.170176   -0.283030   -1.012547
  N      1.286250    0.000295    0.000000
  H     -1.402727   -1.537478    0.000000
  H      0.241558   -2.248216    0.000000
  H      0.500274   -0.529068    2.018488
  H     -0.327464    1.838090    1.210624
  H     -1.714058    0.752317    1.210545
  H     -1.714058    0.752317   -1.210545
  H     -0.327464    1.838090   -1.210624
  H      0.500274   -0.529068   -2.018488
  H      2.008473   -0.718832    0.000000
  H      1.712458    0.927679   -0.000000

FINAL SINGLE POINT ENERGY      -250.822390713299
                    ***********************HURRAY********************
 Multiplicity           Mult            ....    1
 Number of Electrons    NEL             ....   46
 Basis Dimension        Dim             ....  246
FINAL SINGLE POINT ENERGY      -250.822390788755

VIBRATIONAL FREQUENCIES
-----------------------

   0:         0.00 cm**-1
   1:         0.00 cm**-1
   2:         0.00 cm**-1
   3:         0.00 cm**-1
   4:         0.00 cm**-1
   5:         0.00 cm**-1
   6:       307.15 cm**-1
   7:       435.47 cm**-1
   8:       492.92 cm**-1
   9:       641.25 cm**-1
  10:       798.23 cm**-1
  11:       810.67 cm**-1
  12:       821.98 cm**-1
  13:       869.18 cm**-1
  14:       869.75 cm**-1
  15:       935.40 cm**-1
  16:       955.56 cm**-1
  17:       968.57 cm**-1
  18:       983.60 cm**-1
  19:       997.82 cm**-1
  20:      1037.89 cm**-1
  21:      1086.98 cm**-1
  22:      1110.10 cm**-1
  23:      1132.13 cm**-1
  24:      1160.39 cm**-1
  25:      1166.54 cm**-1
  26:      1236.65 cm**-1
  27:      1252.06 cm**-1
  28:      1273.89 cm**-1
  29:      1285.87 cm**-1
  30:      1302.75 cm**-1
  31:      1314.88 cm**-1
  32:      1354.84 cm**-1
  33:      1356.57 cm**-1
  34:      1487.85 cm**-1
  35:      1494.11 cm**-1
  36:      1512.21 cm**-1
  37:      1646.53 cm**-1
  38:      3101.35 cm**-1
  39:      3107.01 cm**-1
  40:      3110.39 cm**-1
  41:      3153.16 cm**-1
  42:      3165.35 cm**-1
  43:      3180.44 cm**-1
  44:      3181.58 cm**-1
  45:      3189.60 cm**-1
  46:      3451.95 cm**-1
  47:      3539.42 cm**-1

IR SPECTRUM
-----------

 Mode    freq (cm**-1)   T**2         TX         TY         TZ
-------------------------------------------------------------------
   6:       307.15    0.773586  (  0.000004  -0.000001  -0.879537)
   7:       435.47    2.237518  ( -1.143350   0.964505  -0.000001)
   8:       492.92    3.485698  ( -0.004552  -1.866997  -0.000000)
   9:       641.25    0.641305  (  0.000006  -0.000001  -0.800815)
  10:       798.23    1.955524  (  0.000004   0.000001   1.398401)
  11:       810.67    6.494195  ( -2.525975   0.337115  -0.000001)
  12:       821.98    2.499764  (  1.537031   0.370540  -0.000004)
  13:       869.18    3.118766  ( -1.139588  -1.349113  -0.000700)
  14:       869.75    4.278237  ( -0.000382  -0.000456   2.068390)
  15:       935.40    1.060483  ( -0.862853   0.562110  -0.000003)
  16:       955.56    0.458888  ( -0.000001   0.000004   0.677413)
  17:       968.57    3.918244  ( -1.089936  -1.652357   0.000001)
  18:       983.60    0.009509  ( -0.000014   0.000024  -0.097512)
  19:       997.82    0.480147  (  0.427546  -0.545299  -0.000004)
  20:      1037.89    4.193984  ( -1.557441   1.329797   0.000004)
  21:      1086.98    3.815508  (  0.108080  -1.950340  -0.000001)
  22:      1110.10    0.031127  ( -0.000009   0.000000  -0.176428)
  23:      1132.13    0.757120  (  0.000003   0.000001  -0.870127)
  24:      1160.39   19.696730  (  0.000007  -0.000008   4.438100)
  25:      1166.54    4.963125  (  0.515148   2.167429   0.000014)
  26:      1236.65   17.144659  (  0.000001   0.000014  -4.140611)
  27:      1252.06   28.492899  (  0.000011  -0.000008  -5.337874)
  28:      1273.89    8.727952  ( -1.846861   2.305875   0.000033)
  29:      1285.87   18.940763  ( -0.000029   0.000023  -4.352099)
  30:      1302.75    7.637623  ( -0.000017   0.000012   2.763625)
  31:      1314.88    0.729942  ( -0.773049   0.363783  -0.000002)
  32:      1354.84   24.160117  ( -0.000008   0.000003   4.915294)
  33:      1356.57    1.690966  (  0.052614  -1.299307   0.000004)
  34:      1487.85    4.088074  ( -0.000015   0.000033   2.021899)
  35:      1494.11   16.158757  ( -0.063875  -4.019288   0.000017)
  36:      1512.21   14.099604  (  3.749397  -0.204023   0.000007)
  37:      1646.53   65.476580  (  8.001454   1.205537  -0.000001)
  38:      3101.35    3.086753  (  0.000006   0.000005   1.756916)
  39:      3107.01    3.593992  (  0.431074   1.846122  -0.000005)
  40:      3110.39    1.330729  ( -0.778166   0.851578   0.000001)
  41:      3153.16    0.005841  (  0.000007  -0.000001  -0.076424)
  42:      3165.35    1.231962  ( -0.062029  -1.108203  -0.000000)
  43:      3180.44    2.035509  ( -0.000000  -0.000000  -1.426713)
  44:      3181.58    0.200480  (  0.385284  -0.228115   0.000001)
  45:      3189.60    0.368785  ( -0.465785   0.389653  -0.000000)
  46:      3451.95   51.480201  (  6.983272   1.647456  -0.000000)
  47:      3539.42   63.519503  (  3.213066  -7.293539  -0.000000)

--------------------------
THERMOCHEMISTRY AT 298.15K
--------------------------

Temperature         ... 298.15 K
Pressure            ... 1.00 atm
Total Mass          ... 84.14 AMU

Throughout the following assumptions are being made:
  (1) The electronic state is orbitally nondegenerate
  (2) There are no thermally accessible electronically excited states
  (3) Hindered rotations indicated by low frequency modes) are not
      treated as such but are treated as vibrations and this may
      case some error
  (4) All equations used are the standard statistical mechanics
      equations for an ideal gas
  (5) All vibrations are strinctly harmonic

------------
INNER ENERGY
------------

The inner energy is: U= E(el) + E(ZPE) + E(vib) + E(rot) + E(trans)
    E(el)   - is the total energy from the electronic structure calculation
              = E(kin-el) + E(nuc-el) + E(el-el) + E(nuc-nuc)
    E(ZPE)  - the the zero temperature vibrational energy from the frequency calculation
    E(vib)  - the the finite temperature correction to E(ZPE) due to population
              of excietd vibrational states
    E(rot)  - is the rotational thermal energy
    E(trans)- is the translational thermal energy

Summary of contributions to the inner energy U:
Electronic energy                ...   -250.82239079 Eh
Zero point energy                ...      0.15099714 Eh      94.75 kcal/mol
Thermal vibrational correction   ...      0.00186463 Eh       1.17 kcal/mol
Thermal rotational correction    ...      0.00141627 Eh       0.89 kcal/mol
Thermal translational correction ...      0.00141627 Eh       0.89 kcal/mol
-----------------------------------------------------------------------
Total thermal energy                   -250.66669647 Eh

Summary of corrections to the electronic energy:
(perhaps to be used in another calculation)
Total thermal correction                  0.00469718 Eh       2.95 kcal/mol
Non-thermal (ZPE) correction              0.15099714 Eh      94.75 kcal/mol
-----------------------------------------------------------------------
Total correction                          0.15569432 Eh      97.70 kcal/mol

--------
ENTHALPY
--------

The enthalpy is H = U + kB*T
                kB is Boltzmann's constant
Total free energy                 ...   -250.66669647 Eh
Thermal Enthalpy correction       ...      0.00094421 Eh       0.59 kcal/mol
-----------------------------------------------------------------------
Total Enthalpy                    ...   -250.66575226 Eh

-------
ENTROPY
-------

The entropy contributions are T*S = T*(S(el)+S(vib)+S(rot)+S(trans)
     S(el)   - electronic entropy
     S(vib)  - vibrational entropy
     S(rot)  - rotational entropy
     S(trans)- translational entropy
The entropies will be listed as mutliplied by the temperature to get
units of energy

Electronic entropy                ...      0.00000000 Eh      0.00 kcal/mol
Vibrational entropy               ...      0.00254110 Eh      1.59 kcal/mol
Rotational entropy                ...      0.01114422 Eh      6.99 kcal/mol
Translational entropy             ...      0.01862670 Eh     11.69 kcal/mol
-----------------------------------------------------------------------
Final entropy term                ...      0.03231203 Eh     20.28 kcal/mol

CAUTION: The rotational entropy is not quite correctly treated here
         because it includes a symmetry number that is not yet correctly
         implemented in ORCA!
For a nonlinear molecule the correct rotational entropy is:
    S(rot) = R*(ln(qrot/sn)+1.5)
    R    = 8.31441 J/mol/K = 1.987191683e-3 kcal/mol/K
    qrot = 89471.1955610
    sn is the rotational symmetry number. We have assumed 3 here
       if it is different for your molecule then you should correct
       the printed rotational entropy by manually evaluating the equation
       as given above

For convenience we print out the resulting values for sn=1 - 12:
 sn= 1  qrot/sn=   89471.1956 T*S(rot)=     7.64 kcal/mol T*S(tot)=    20.93 kcal/mol
 sn= 2  qrot/sn=   44735.5978 T*S(rot)=     7.23 kcal/mol T*S(tot)=    20.52 kcal/mol
 sn= 3  qrot/sn=   29823.7319 T*S(rot)=     6.99 kcal/mol T*S(tot)=    20.28 kcal/mol
 sn= 4  qrot/sn=   22367.7989 T*S(rot)=     6.82 kcal/mol T*S(tot)=    20.11 kcal/mol
 sn= 5  qrot/sn=   17894.2391 T*S(rot)=     6.69 kcal/mol T*S(tot)=    19.97 kcal/mol
 sn= 6  qrot/sn=   14911.8659 T*S(rot)=     6.58 kcal/mol T*S(tot)=    19.87 kcal/mol
 sn= 7  qrot/sn=   12781.5994 T*S(rot)=     6.49 kcal/mol T*S(tot)=    19.77 kcal/mol
 sn= 8  qrot/sn=   11183.8994 T*S(rot)=     6.41 kcal/mol T*S(tot)=    19.69 kcal/mol
 sn= 9  qrot/sn=    9941.2440 T*S(rot)=     6.34 kcal/mol T*S(tot)=    19.63 kcal/mol
 sn=10  qrot/sn=    8947.1196 T*S(rot)=     6.28 kcal/mol T*S(tot)=    19.56 kcal/mol
 sn=11  qrot/sn=    8133.7451 T*S(rot)=     6.22 kcal/mol T*S(tot)=    19.51 kcal/mol
 sn=12  qrot/sn=    7455.9330 T*S(rot)=     6.17 kcal/mol T*S(tot)=    19.45 kcal/mol

-------------------
GIBBS FREE ENTHALPY
-------------------

The Gibbs free enthalpy is G = H - T*S

Total enthalpy                    ...   -250.66575226 Eh
Total entropy correction          ...     -0.03231203 Eh    -20.28 kcal/mol
-----------------------------------------------------------------------
Final Gibbs free enthalpy         ...   -250.69806429 Eh

For completeness - the Gibbs free enthalpy minus the electronic energy
G-E(el)                           ...      0.12432650 Eh     78.02 kcal/mol

                             ****ORCA TERMINATED NORMALLY****
TOTAL RUN TIME: 0 days 0 hours 22 minutes 49 seconds 773 msec
