                         Program Version 3.0.3 - RELEASE   -
|  1> ! NORI PBE0 def2-TZVP UseSym TightOPT Freq TightSCF Grid3 FinalGrid5 XYZFile
|  2> % pal
|  3>     nprocs 8
|  4> end
|  5> %method
|  6>     SymThresh 5.0e-2
|  7> end
|  8> % geom
|  9>     MaxIter 10
| 10> end
| 11> % maxcore 2000
| 12> % output
| 13>     printlevel mini
| 14>     print[ P_Basis ] 0
| 15>     print[ P_SCFInfo ] 1
| 16>     print[ P_SCFIterInfo ] 1
| 17>     print[ P_OrbEn ] 0
| 18>     print[ P_Cartesian ] 0
| 19> end
| 20> % elprop
| 21>     Dipole false
| 22> end
| 23> *xyz 1 1
| 24>  C        0.7542454578     1.3105694999    -0.6183083591
| 25>  C       -0.3543004058     0.9821165339     0.3329394826
| 26>  C       -1.4190659721     0.0217632402    -0.1742777548
| 27>  C       -0.8147271742    -1.3661855272     0.0016063732
| 28>  N        0.6812181911    -1.1475942422    -0.0757685688
| 29>  C        0.9440449715     0.2410687170     0.3999648450
| 30>  H        1.3180248711     2.2220597670    -0.4645304271
| 31>  H        0.6350803277     1.0279964686    -1.6599696543
| 32>  H       -0.6069533894     1.6882402194     1.1124309252
| 33>  H       -2.3384138965     0.1011394084     0.4040852108
| 34>  H       -1.6727146159     0.2201609971    -1.2174740215
| 35>  H       -1.1096528091    -2.1066785988    -0.7410583538
| 36>  H       -1.0107243000    -1.7599076058     0.9988276411
| 37>  H        1.0194791488    -1.2699448312    -1.0317317272
| 38>  H        1.1800786860    -1.8279423967     0.4971795714
| 39>  H        1.6685709091     0.3081183506     1.1996648174
| 40> *
| 41>
| 42>                          ****END OF INPUT****
 Total Charge           Charge          ....    1
 Multiplicity           Mult            ....    1
 Number of Electrons    NEL             ....   46
FINAL SINGLE POINT ENERGY      -250.820862634453

CARTESIAN COORDINATES (ANGSTROEM)
---------------------------------
  C      1.509638   -0.000123   -0.699652
  C      0.113048    0.410657   -1.049398
  C     -0.978470   -0.617240   -0.793878
  C     -1.284529   -0.506136    0.695150
  N      0.000204    0.000220    1.315781
  C      0.706223    0.794601    0.269545
  H      2.336458    0.515682   -1.170950
  H      1.697233   -1.048770   -0.489630
  H     -0.040189    1.167734   -1.806568
  H     -1.875465   -0.401964   -1.373439
  H     -0.651242   -1.623620   -1.062655
  H     -1.581591   -1.432189    1.186078
  H     -2.035114    0.259697    0.889041
  H      0.583622   -0.776062    1.632603
  H     -0.191912    0.572267    2.138083
  H      0.970820    1.797140    0.574835

FINAL SINGLE POINT ENERGY      -250.820863342194
                    ***********************HURRAY********************
 Multiplicity           Mult            ....    1
 Number of Electrons    NEL             ....   46
 Basis Dimension        Dim             ....  246
FINAL SINGLE POINT ENERGY      -250.820863551950

VIBRATIONAL FREQUENCIES
-----------------------

   0:         0.00 cm**-1
   1:         0.00 cm**-1
   2:         0.00 cm**-1
   3:         0.00 cm**-1
   4:         0.00 cm**-1
   5:         0.00 cm**-1
   6:       132.64 cm**-1
   7:       293.19 cm**-1
   8:       431.11 cm**-1
   9:       596.78 cm**-1
  10:       679.03 cm**-1
  11:       783.78 cm**-1
  12:       815.00 cm**-1
  13:       843.28 cm**-1
  14:       866.68 cm**-1
  15:       880.64 cm**-1
  16:       933.09 cm**-1
  17:       959.54 cm**-1
  18:       980.99 cm**-1
  19:      1031.41 cm**-1
  20:      1059.83 cm**-1
  21:      1083.73 cm**-1
  22:      1100.48 cm**-1
  23:      1120.71 cm**-1
  24:      1153.56 cm**-1
  25:      1216.94 cm**-1
  26:      1235.08 cm**-1
  27:      1251.06 cm**-1
  28:      1286.84 cm**-1
  29:      1328.18 cm**-1
  30:      1351.27 cm**-1
  31:      1370.15 cm**-1
  32:      1401.91 cm**-1
  33:      1415.54 cm**-1
  34:      1481.51 cm**-1
  35:      1495.49 cm**-1
  36:      1503.45 cm**-1
  37:      1652.37 cm**-1
  38:      3092.19 cm**-1
  39:      3109.99 cm**-1
  40:      3143.64 cm**-1
  41:      3149.22 cm**-1
  42:      3174.35 cm**-1
  43:      3220.35 cm**-1
  44:      3231.48 cm**-1
  45:      3244.19 cm**-1
  46:      3450.89 cm**-1
  47:      3511.35 cm**-1

IR SPECTRUM
-----------

 Mode    freq (cm**-1)   T**2         TX         TY         TZ
-------------------------------------------------------------------
   6:       132.64    1.758669  (  0.174706  -1.153454  -0.630628)
   7:       293.19    2.165738  (  1.060576  -0.635948  -0.797801)
   8:       431.11    3.017206  ( -1.385651   0.564750   0.882176)
   9:       596.78    2.827837  (  0.194195  -1.496599  -0.741833)
  10:       679.03    3.961886  ( -0.709227  -0.301882  -1.835143)
  11:       783.78   10.998425  ( -0.687496  -1.064347  -3.064790)
  12:       815.00   10.466521  (  2.761287  -1.656083  -0.314968)
  13:       843.28    0.651886  (  0.646610   0.447702  -0.182604)
  14:       866.68    1.986412  ( -0.339866   1.353668   0.196178)
  15:       880.64    3.584885  ( -0.789233   1.622054   0.575272)
  16:       933.09    1.631990  ( -0.715290   0.913351  -0.534921)
  17:       959.54    1.779622  (  1.332311   0.006552  -0.067285)
  18:       980.99    0.151995  ( -0.233850  -0.311301   0.020017)
  19:      1031.41    2.983951  ( -1.268161  -0.842213  -0.816331)
  20:      1059.83    4.954262  (  1.891299   0.715340   0.930343)
  21:      1083.73   10.984784  ( -0.896414  -0.399289  -3.165722)
  22:      1100.48    3.078454  ( -0.792615  -1.536719  -0.297843)
  23:      1120.71    0.056381  (  0.230682  -0.012812   0.054793)
  24:      1153.56    1.959990  (  0.441744  -1.253337  -0.440452)
  25:      1216.94    1.398951  ( -1.155072  -0.207862  -0.146807)
  26:      1235.08    1.025546  ( -0.754961   0.668165   0.095579)
  27:      1251.06    7.554240  ( -2.695087  -0.448802   0.298866)
  28:      1286.84   17.016514  (  3.278084   1.828372  -1.711063)
  29:      1328.18    1.202935  ( -0.147282  -0.001560   1.086849)
  30:      1351.27    5.990888  (  1.087680   1.313995  -1.755351)
  31:      1370.15   32.650657  ( -4.197217  -3.836731   0.559930)
  32:      1401.91    0.030816  (  0.143966   0.050923   0.086586)
  33:      1415.54   10.076564  ( -3.043935  -0.900562   0.003542)
  34:      1481.51    3.360471  (  0.738552  -1.391233   0.937807)
  35:      1495.49   18.285472  (  1.608659  -2.926178  -2.671174)
  36:      1503.45    7.365034  (  2.270954   1.477662   0.155943)
  37:      1652.37   65.129518  (  2.410063  -2.158794   7.393289)
  38:      3092.19    3.539388  (  0.239881   1.765954   0.602704)
  39:      3109.99    1.947110  (  0.888726  -0.100342  -1.071078)
  40:      3143.64    2.210305  ( -0.530854  -0.846876   1.100591)
  41:      3149.22    0.329160  ( -0.207971   0.336092   0.415873)
  42:      3174.35    0.342344  ( -0.256008  -0.525641  -0.022494)
  43:      3220.35    0.611960  ( -0.291512   0.168936  -0.706004)
  44:      3231.48    1.011032  (  0.138158   0.994254   0.058332)
  45:      3244.19    1.620015  ( -0.806535  -0.809550   0.560487)
  46:      3450.89   50.625606  (  2.949842  -1.853360   6.203958)
  47:      3511.35   84.525948  ( -3.462261   6.751641   5.191728)

--------------------------
THERMOCHEMISTRY AT 298.15K
--------------------------

Temperature         ... 298.15 K
Pressure            ... 1.00 atm
Total Mass          ... 84.14 AMU

Throughout the following assumptions are being made:
  (1) The electronic state is orbitally nondegenerate
  (2) There are no thermally accessible electronically excited states
  (3) Hindered rotations indicated by low frequency modes) are not
      treated as such but are treated as vibrations and this may
      case some error
  (4) All equations used are the standard statistical mechanics
      equations for an ideal gas
  (5) All vibrations are strinctly harmonic

------------
INNER ENERGY
------------

The inner energy is: U= E(el) + E(ZPE) + E(vib) + E(rot) + E(trans)
    E(el)   - is the total energy from the electronic structure calculation
              = E(kin-el) + E(nuc-el) + E(el-el) + E(nuc-nuc)
    E(ZPE)  - the the zero temperature vibrational energy from the frequency calculation
    E(vib)  - the the finite temperature correction to E(ZPE) due to population
              of excietd vibrational states
    E(rot)  - is the rotational thermal energy
    E(trans)- is the translational thermal energy

Summary of contributions to the inner energy U:
Electronic energy                ...   -250.82086355 Eh
Zero point energy                ...      0.15050235 Eh      94.44 kcal/mol
Thermal vibrational correction   ...      0.00241186 Eh       1.51 kcal/mol
Thermal rotational correction    ...      0.00141627 Eh       0.89 kcal/mol
Thermal translational correction ...      0.00141627 Eh       0.89 kcal/mol
-----------------------------------------------------------------------
Total thermal energy                   -250.66511681 Eh

Summary of corrections to the electronic energy:
(perhaps to be used in another calculation)
Total thermal correction                  0.00524440 Eh       3.29 kcal/mol
Non-thermal (ZPE) correction              0.15050235 Eh      94.44 kcal/mol
-----------------------------------------------------------------------
Total correction                          0.15574675 Eh      97.73 kcal/mol

--------
ENTHALPY
--------

The enthalpy is H = U + kB*T
                kB is Boltzmann's constant
Total free energy                 ...   -250.66511681 Eh
Thermal Enthalpy correction       ...      0.00094421 Eh       0.59 kcal/mol
-----------------------------------------------------------------------
Total Enthalpy                    ...   -250.66417260 Eh

-------
ENTROPY
-------

The entropy contributions are T*S = T*(S(el)+S(vib)+S(rot)+S(trans)
     S(el)   - electronic entropy
     S(vib)  - vibrational entropy
     S(rot)  - rotational entropy
     S(trans)- translational entropy
The entropies will be listed as mutliplied by the temperature to get
units of energy

Electronic entropy                ...      0.00000000 Eh      0.00 kcal/mol
Vibrational entropy               ...      0.00375962 Eh      2.36 kcal/mol
Rotational entropy                ...      0.01127212 Eh      7.07 kcal/mol
Translational entropy             ...      0.01862670 Eh     11.69 kcal/mol
-----------------------------------------------------------------------
Final entropy term                ...      0.03365844 Eh     21.12 kcal/mol

CAUTION: The rotational entropy is not quite correctly treated here
         because it includes a symmetry number that is not yet correctly
         implemented in ORCA!
For a nonlinear molecule the correct rotational entropy is:
    S(rot) = R*(ln(qrot/sn)+1.5)
    R    = 8.31441 J/mol/K = 1.987191683e-3 kcal/mol/K
    qrot = 102449.7251933
    sn is the rotational symmetry number. We have assumed 3 here
       if it is different for your molecule then you should correct
       the printed rotational entropy by manually evaluating the equation
       as given above

For convenience we print out the resulting values for sn=1 - 12:
 sn= 1  qrot/sn=  102449.7252 T*S(rot)=     7.72 kcal/mol T*S(tot)=    21.77 kcal/mol
 sn= 2  qrot/sn=   51224.8626 T*S(rot)=     7.31 kcal/mol T*S(tot)=    21.36 kcal/mol
 sn= 3  qrot/sn=   34149.9084 T*S(rot)=     7.07 kcal/mol T*S(tot)=    21.12 kcal/mol
 sn= 4  qrot/sn=   25612.4313 T*S(rot)=     6.90 kcal/mol T*S(tot)=    20.95 kcal/mol
 sn= 5  qrot/sn=   20489.9450 T*S(rot)=     6.77 kcal/mol T*S(tot)=    20.82 kcal/mol
 sn= 6  qrot/sn=   17074.9542 T*S(rot)=     6.66 kcal/mol T*S(tot)=    20.71 kcal/mol
 sn= 7  qrot/sn=   14635.6750 T*S(rot)=     6.57 kcal/mol T*S(tot)=    20.62 kcal/mol
 sn= 8  qrot/sn=   12806.2156 T*S(rot)=     6.49 kcal/mol T*S(tot)=    20.54 kcal/mol
 sn= 9  qrot/sn=   11383.3028 T*S(rot)=     6.42 kcal/mol T*S(tot)=    20.47 kcal/mol
 sn=10  qrot/sn=   10244.9725 T*S(rot)=     6.36 kcal/mol T*S(tot)=    20.41 kcal/mol
 sn=11  qrot/sn=    9313.6114 T*S(rot)=     6.30 kcal/mol T*S(tot)=    20.35 kcal/mol
 sn=12  qrot/sn=    8537.4771 T*S(rot)=     6.25 kcal/mol T*S(tot)=    20.30 kcal/mol

-------------------
GIBBS FREE ENTHALPY
-------------------

The Gibbs free enthalpy is G = H - T*S

Total enthalpy                    ...   -250.66417260 Eh
Total entropy correction          ...     -0.03365844 Eh    -21.12 kcal/mol
-----------------------------------------------------------------------
Final Gibbs free enthalpy         ...   -250.69783104 Eh

For completeness - the Gibbs free enthalpy minus the electronic energy
G-E(el)                           ...      0.12303251 Eh     77.20 kcal/mol

                             ****ORCA TERMINATED NORMALLY****
TOTAL RUN TIME: 0 days 0 hours 21 minutes 54 seconds 964 msec
