                         Program Version 3.0.3 - RELEASE   -
|  1> ! NORI PBE0 def2-TZVP UseSym TightOPT Freq TightSCF Grid3 FinalGrid5 XYZFile
|  2> % pal
|  3>     nprocs 8
|  4> end
|  5> %method
|  6>     SymThresh 5.0e-2
|  7> end
|  8> % geom
|  9>     MaxIter 10
| 10> end
| 11> % maxcore 2000
| 12> % output
| 13>     printlevel mini
| 14>     print[ P_Basis ] 0
| 15>     print[ P_SCFInfo ] 1
| 16>     print[ P_SCFIterInfo ] 1
| 17>     print[ P_OrbEn ] 0
| 18>     print[ P_Cartesian ] 0
| 19> end
| 20> % elprop
| 21>     Dipole false
| 22> end
| 23> *xyz 1 1
| 24>  C        0.6408609212     1.3993087356    -0.5575465738
| 25>  C       -0.4967904498     1.0030154219     0.2883748068
| 26>  C       -1.4919923488    -0.0086487179    -0.2401571503
| 27>  C       -0.8333540048    -1.3737118284     0.0110468632
| 28>  C        0.6671962571    -1.1185152968    -0.0580949896
| 29>  N        0.8148340627     0.2917231510     0.4061531352
| 30>  H        1.2035917376     2.2937085588    -0.3190952415
| 31>  H        0.6654460542     1.0830123372    -1.5935359360
| 32>  H       -0.7501054580     1.6316234831     1.1337070699
| 33>  H       -2.4468742433     0.0803751448     0.2747437610
| 34>  H       -1.6736846625     0.1626984175    -1.3028450405
| 35>  H       -1.1463878927    -2.1283447698    -0.7096022833
| 36>  H       -1.0989849878    -1.7371205117     1.0057796294
| 37>  H        1.0728005102    -1.1881849448    -1.0676284837
| 38>  H        1.2563055317    -1.7570114893     0.5981364261
| 39>  H        1.4061389730     0.4689423088     1.2101840072
| 40> *
| 41>
| 42>                          ****END OF INPUT****
 Total Charge           Charge          ....    1
 Multiplicity           Mult            ....    1
 Number of Electrons    NEL             ....   46
FINAL SINGLE POINT ENERGY      -250.820737257016

CARTESIAN COORDINATES (ANGSTROEM)
---------------------------------
  C      1.455504   -0.000090    0.784208
  C      0.595454    0.928589    0.032372
  C      0.053820    0.504286   -1.316645
  C     -1.172107   -0.362948   -0.991008
  C     -0.870245   -1.000244    0.359840
  N      0.000177   -0.000032    1.043938
  H      2.057633    0.368612    1.605604
  H      1.811349   -0.901596    0.300047
  H      0.595289    1.973312    0.319544
  H     -0.212463    1.371661   -1.918614
  H      0.811519   -0.057610   -1.866077
  H     -1.368078   -1.114213   -1.755245
  H     -2.061424    0.265242   -0.910433
  H     -0.317196   -1.936684    0.283629
  H     -1.750680   -1.165901    0.978725
  H     -0.308849    0.368907    1.935926

FINAL SINGLE POINT ENERGY      -250.820737706738
                    ***********************HURRAY********************
 Multiplicity           Mult            ....    1
 Number of Electrons    NEL             ....   46
 Basis Dimension        Dim             ....  246
FINAL SINGLE POINT ENERGY      -250.820737829818

VIBRATIONAL FREQUENCIES
-----------------------

   0:         0.00 cm**-1
   1:         0.00 cm**-1
   2:         0.00 cm**-1
   3:         0.00 cm**-1
   4:         0.00 cm**-1
   5:         0.00 cm**-1
   6:       140.68 cm**-1
   7:       303.49 cm**-1
   8:       431.32 cm**-1
   9:       580.05 cm**-1
  10:       675.67 cm**-1
  11:       779.06 cm**-1
  12:       801.70 cm**-1
  13:       853.86 cm**-1
  14:       860.32 cm**-1
  15:       890.35 cm**-1
  16:       933.80 cm**-1
  17:       968.98 cm**-1
  18:       998.89 cm**-1
  19:      1011.54 cm**-1
  20:      1072.38 cm**-1
  21:      1104.61 cm**-1
  22:      1143.20 cm**-1
  23:      1167.13 cm**-1
  24:      1176.73 cm**-1
  25:      1230.22 cm**-1
  26:      1237.84 cm**-1
  27:      1259.46 cm**-1
  28:      1288.61 cm**-1
  29:      1328.25 cm**-1
  30:      1348.83 cm**-1
  31:      1365.24 cm**-1
  32:      1399.33 cm**-1
  33:      1424.84 cm**-1
  34:      1483.01 cm**-1
  35:      1494.61 cm**-1
  36:      1499.40 cm**-1
  37:      1515.66 cm**-1
  38:      3092.31 cm**-1
  39:      3097.18 cm**-1
  40:      3108.37 cm**-1
  41:      3150.54 cm**-1
  42:      3159.07 cm**-1
  43:      3162.14 cm**-1
  44:      3171.50 cm**-1
  45:      3211.54 cm**-1
  46:      3264.17 cm**-1
  47:      3566.59 cm**-1

IR SPECTRUM
-----------

 Mode    freq (cm**-1)   T**2         TX         TY         TZ
-------------------------------------------------------------------
   6:       140.68    0.211773  (  0.275054   0.038258   0.366953)
   7:       303.49    0.247435  (  0.390529  -0.264905  -0.157314)
   8:       431.32    0.060998  ( -0.024695   0.206742  -0.132838)
   9:       580.05    1.667453  ( -0.906335   0.919707   0.012284)
  10:       675.67    2.057326  (  0.652843   1.124437  -0.605610)
  11:       779.06    4.441601  (  1.134284   0.979541  -1.481722)
  12:       801.70    9.413731  (  2.343149   0.287847  -1.959727)
  13:       853.86    1.182918  (  0.522665   0.744625  -0.596048)
  14:       860.32    0.683792  (  0.122764   0.189307  -0.795540)
  15:       890.35    5.215346  (  1.629471  -0.105350   1.596581)
  16:       933.80   13.550611  ( -1.848690   2.110782  -2.382763)
  17:       968.98    7.557364  (  0.274528  -2.724420   0.243990)
  18:       998.89   12.173737  ( -3.145856  -1.496495  -0.194497)
  19:      1011.54   11.501865  ( -2.415145   2.009166  -1.277572)
  20:      1072.38   12.950627  ( -2.208804  -2.799425   0.484796)
  21:      1104.61    2.643148  (  1.126533  -0.899163   0.752049)
  22:      1143.20    5.226153  (  0.519367  -1.346487   1.772959)
  23:      1167.13    0.471324  ( -0.521257   0.041035  -0.444894)
  24:      1176.73    1.893497  (  1.370253  -0.063129   0.109171)
  25:      1230.22    5.969381  (  0.361171   0.813023  -2.275507)
  26:      1237.84    1.216615  (  0.195031   0.518865  -0.953602)
  27:      1259.46    1.972793  (  0.132263  -1.397484   0.048340)
  28:      1288.61    0.504843  (  0.336452  -0.507933  -0.365579)
  29:      1328.25    4.168832  (  1.271370   1.398467  -0.772489)
  30:      1348.83    0.742251  (  0.282631   0.442432   0.683099)
  31:      1365.24    2.864121  ( -1.587131  -0.566266   0.156452)
  32:      1399.33    9.622728  (  1.121477   2.870270  -0.355763)
  33:      1424.84   31.296895  (  5.185687   2.098838   0.020644)
  34:      1483.01    2.321954  ( -1.484362  -0.344043  -0.016078)
  35:      1494.61    7.091098  (  2.013692   0.433803  -1.687589)
  36:      1499.40   15.815918  (  1.051723  -2.343569   3.036030)
  37:      1515.66   11.103970  (  0.872855  -3.206097  -0.251076)
  38:      3092.31    1.386968  ( -1.037748   0.297893  -0.470434)
  39:      3097.18    4.354074  ( -1.923454   0.183795   0.787793)
  40:      3108.37    2.399303  ( -0.412804   1.326921  -0.684234)
  41:      3150.54    0.029992  ( -0.020482  -0.147033  -0.089187)
  42:      3159.07    0.447469  (  0.383707  -0.546054  -0.045413)
  43:      3162.14    1.438150  (  1.077387  -0.302374   0.431228)
  44:      3171.50    0.327545  ( -0.219919   0.496145   0.181715)
  45:      3211.54    1.340919  (  0.022885  -1.133185   0.237248)
  46:      3264.17    4.036324  (  0.288273   1.487198   1.319646)
  47:      3566.59  105.957276  ( -3.497161   2.822818   9.260607)

--------------------------
THERMOCHEMISTRY AT 298.15K
--------------------------

Temperature         ... 298.15 K
Pressure            ... 1.00 atm
Total Mass          ... 84.14 AMU

Throughout the following assumptions are being made:
  (1) The electronic state is orbitally nondegenerate
  (2) There are no thermally accessible electronically excited states
  (3) Hindered rotations indicated by low frequency modes) are not
      treated as such but are treated as vibrations and this may
      case some error
  (4) All equations used are the standard statistical mechanics
      equations for an ideal gas
  (5) All vibrations are strinctly harmonic

------------
INNER ENERGY
------------

The inner energy is: U= E(el) + E(ZPE) + E(vib) + E(rot) + E(trans)
    E(el)   - is the total energy from the electronic structure calculation
              = E(kin-el) + E(nuc-el) + E(el-el) + E(nuc-nuc)
    E(ZPE)  - the the zero temperature vibrational energy from the frequency calculation
    E(vib)  - the the finite temperature correction to E(ZPE) due to population
              of excietd vibrational states
    E(rot)  - is the rotational thermal energy
    E(trans)- is the translational thermal energy

Summary of contributions to the inner energy U:
Electronic energy                ...   -250.82073783 Eh
Zero point energy                ...      0.14979517 Eh      94.00 kcal/mol
Thermal vibrational correction   ...      0.00238330 Eh       1.50 kcal/mol
Thermal rotational correction    ...      0.00141627 Eh       0.89 kcal/mol
Thermal translational correction ...      0.00141627 Eh       0.89 kcal/mol
-----------------------------------------------------------------------
Total thermal energy                   -250.66572681 Eh

Summary of corrections to the electronic energy:
(perhaps to be used in another calculation)
Total thermal correction                  0.00521584 Eh       3.27 kcal/mol
Non-thermal (ZPE) correction              0.14979517 Eh      94.00 kcal/mol
-----------------------------------------------------------------------
Total correction                          0.15501102 Eh      97.27 kcal/mol

--------
ENTHALPY
--------

The enthalpy is H = U + kB*T
                kB is Boltzmann's constant
Total free energy                 ...   -250.66572681 Eh
Thermal Enthalpy correction       ...      0.00094421 Eh       0.59 kcal/mol
-----------------------------------------------------------------------
Total Enthalpy                    ...   -250.66478261 Eh

-------
ENTROPY
-------

The entropy contributions are T*S = T*(S(el)+S(vib)+S(rot)+S(trans)
     S(el)   - electronic entropy
     S(vib)  - vibrational entropy
     S(rot)  - rotational entropy
     S(trans)- translational entropy
The entropies will be listed as mutliplied by the temperature to get
units of energy

Electronic entropy                ...      0.00000000 Eh      0.00 kcal/mol
Vibrational entropy               ...      0.00367982 Eh      2.31 kcal/mol
Rotational entropy                ...      0.01126661 Eh      7.07 kcal/mol
Translational entropy             ...      0.01862670 Eh     11.69 kcal/mol
-----------------------------------------------------------------------
Final entropy term                ...      0.03357313 Eh     21.07 kcal/mol

CAUTION: The rotational entropy is not quite correctly treated here
         because it includes a symmetry number that is not yet correctly
         implemented in ORCA!
For a nonlinear molecule the correct rotational entropy is:
    S(rot) = R*(ln(qrot/sn)+1.5)
    R    = 8.31441 J/mol/K = 1.987191683e-3 kcal/mol/K
    qrot = 101853.4475090
    sn is the rotational symmetry number. We have assumed 3 here
       if it is different for your molecule then you should correct
       the printed rotational entropy by manually evaluating the equation
       as given above

For convenience we print out the resulting values for sn=1 - 12:
 sn= 1  qrot/sn=  101853.4475 T*S(rot)=     7.72 kcal/mol T*S(tot)=    21.72 kcal/mol
 sn= 2  qrot/sn=   50926.7238 T*S(rot)=     7.31 kcal/mol T*S(tot)=    21.31 kcal/mol
 sn= 3  qrot/sn=   33951.1492 T*S(rot)=     7.07 kcal/mol T*S(tot)=    21.07 kcal/mol
 sn= 4  qrot/sn=   25463.3619 T*S(rot)=     6.90 kcal/mol T*S(tot)=    20.90 kcal/mol
 sn= 5  qrot/sn=   20370.6895 T*S(rot)=     6.77 kcal/mol T*S(tot)=    20.76 kcal/mol
 sn= 6  qrot/sn=   16975.5746 T*S(rot)=     6.66 kcal/mol T*S(tot)=    20.66 kcal/mol
 sn= 7  qrot/sn=   14550.4925 T*S(rot)=     6.57 kcal/mol T*S(tot)=    20.57 kcal/mol
 sn= 8  qrot/sn=   12731.6809 T*S(rot)=     6.49 kcal/mol T*S(tot)=    20.49 kcal/mol
 sn= 9  qrot/sn=   11317.0497 T*S(rot)=     6.42 kcal/mol T*S(tot)=    20.42 kcal/mol
 sn=10  qrot/sn=   10185.3448 T*S(rot)=     6.36 kcal/mol T*S(tot)=    20.35 kcal/mol
 sn=11  qrot/sn=    9259.4043 T*S(rot)=     6.30 kcal/mol T*S(tot)=    20.30 kcal/mol
 sn=12  qrot/sn=    8487.7873 T*S(rot)=     6.25 kcal/mol T*S(tot)=    20.25 kcal/mol

-------------------
GIBBS FREE ENTHALPY
-------------------

The Gibbs free enthalpy is G = H - T*S

Total enthalpy                    ...   -250.66478261 Eh
Total entropy correction          ...     -0.03357313 Eh    -21.07 kcal/mol
-----------------------------------------------------------------------
Final Gibbs free enthalpy         ...   -250.69835574 Eh

For completeness - the Gibbs free enthalpy minus the electronic energy
G-E(el)                           ...      0.12238209 Eh     76.80 kcal/mol

                             ****ORCA TERMINATED NORMALLY****
TOTAL RUN TIME: 0 days 0 hours 21 minutes 59 seconds 282 msec
