                         Program Version 3.0.3 - RELEASE   -
|  1> ! NORI PBE0 def2-TZVP UseSym TightOPT Freq TightSCF Grid3 FinalGrid5 XYZFile
|  2> % pal
|  3>     nprocs 8
|  4> end
|  5> %method
|  6>     SymThresh 5.0e-2
|  7> end
|  8> % geom
|  9>     MaxIter 10
| 10> end
| 11> % maxcore 2000
| 12> % output
| 13>     printlevel mini
| 14>     print[ P_Basis ] 0
| 15>     print[ P_SCFInfo ] 1
| 16>     print[ P_SCFIterInfo ] 1
| 17>     print[ P_OrbEn ] 0
| 18>     print[ P_Cartesian ] 0
| 19> end
| 20> % elprop
| 21>     Dipole false
| 22> end
| 23> *xyz 1 1
| 24>  C        0.7881890794     1.3802836729     0.3227114524
| 25>  C       -0.6759901653     1.2978907531    -0.1350804355
| 26>  C       -0.9629246503    -0.1761712323    -0.2206559465
| 27>  N       -0.5277647229    -0.9398006153     0.9914795312
| 28>  C        0.3165220110    -0.9084849833    -0.2446646290
| 29>  C        1.4451892935     0.0835187333    -0.1748998951
| 30>  H        1.2881250683     2.2668294627    -0.0631661064
| 31>  H        0.8526656645     1.4560631796     1.4124160640
| 32>  H       -1.3726380311     1.8350687080     0.5105032796
| 33>  H       -0.7997965031     1.6972004799    -1.1453970122
| 34>  H       -1.8707122004    -0.5622548125    -0.6663744054
| 35>  H       -0.2154138412    -0.4199758186     1.8051852921
| 36>  H       -1.0156660607    -1.8008070504     1.2086267479
| 37>  H        0.4299343682    -1.8796074379    -0.7094195837
| 38>  H        1.8242412379     0.1949648179    -1.1941691099
| 39>  H        2.2779994522    -0.2559378572     0.4430547564
| 40> *
| 41>
| 42>                          ****END OF INPUT****
 Total Charge           Charge          ....    1
 Multiplicity           Mult            ....    1
 Number of Electrons    NEL             ....   46
FINAL SINGLE POINT ENERGY      -250.829767172331

CARTESIAN COORDINATES (ANGSTROEM)
---------------------------------
  C     -1.065485    1.021611    0.000000
  C     -0.698042    0.166101    1.222315
  C      0.408357   -0.730181    0.737231
  N      1.487892    0.000084   -0.000000
  C      0.408357   -0.730181   -0.737231
  C     -0.698042    0.166101   -1.222315
  H     -2.116429    1.305557   -0.000000
  H     -0.506287    1.962025    0.000000
  H     -0.424860    0.748069    2.103969
  H     -1.523785   -0.489502    1.511775
  H      0.778415   -1.560279    1.325663
  H      1.473791    1.014851   -0.000000
  H      2.417094   -0.404195   -0.000000
  H      0.778415   -1.560279   -1.325663
  H     -1.523785   -0.489502   -1.511775
  H     -0.424860    0.748069   -2.103969

FINAL SINGLE POINT ENERGY      -250.829767543168
                    ***********************HURRAY********************
 Multiplicity           Mult            ....    1
 Number of Electrons    NEL             ....   46
 Basis Dimension        Dim             ....  246
FINAL SINGLE POINT ENERGY      -250.829767641822

VIBRATIONAL FREQUENCIES
-----------------------

   0:         0.00 cm**-1
   1:         0.00 cm**-1
   2:         0.00 cm**-1
   3:         0.00 cm**-1
   4:         0.00 cm**-1
   5:         0.00 cm**-1
   6:       235.09 cm**-1
   7:       322.81 cm**-1
   8:       385.21 cm**-1
   9:       614.69 cm**-1
  10:       645.75 cm**-1
  11:       758.73 cm**-1
  12:       815.48 cm**-1
  13:       849.91 cm**-1
  14:       877.54 cm**-1
  15:       895.74 cm**-1
  16:       924.66 cm**-1
  17:       933.98 cm**-1
  18:       964.50 cm**-1
  19:       989.69 cm**-1
  20:      1016.61 cm**-1
  21:      1064.40 cm**-1
  22:      1066.97 cm**-1
  23:      1141.29 cm**-1
  24:      1144.93 cm**-1
  25:      1202.26 cm**-1
  26:      1228.55 cm**-1
  27:      1252.33 cm**-1
  28:      1275.15 cm**-1
  29:      1315.17 cm**-1
  30:      1336.19 cm**-1
  31:      1343.54 cm**-1
  32:      1386.47 cm**-1
  33:      1403.47 cm**-1
  34:      1472.66 cm**-1
  35:      1482.61 cm**-1
  36:      1510.13 cm**-1
  37:      1618.46 cm**-1
  38:      3068.01 cm**-1
  39:      3084.44 cm**-1
  40:      3085.70 cm**-1
  41:      3135.46 cm**-1
  42:      3136.40 cm**-1
  43:      3152.92 cm**-1
  44:      3220.12 cm**-1
  45:      3228.36 cm**-1
  46:      3510.30 cm**-1
  47:      3619.95 cm**-1

IR SPECTRUM
-----------

 Mode    freq (cm**-1)   T**2         TX         TY         TZ
-------------------------------------------------------------------
   6:       235.09    1.683122  (  1.048663  -0.763824   0.000001)
   7:       322.81    1.843799  (  0.000001  -0.000000  -1.357866)
   8:       385.21    4.847982  (  1.569367  -1.544367   0.000000)
   9:       614.69    0.890833  (  0.000010   0.000004   0.943840)
  10:       645.75    2.896907  ( -1.555389  -0.691138   0.000008)
  11:       758.73    1.647098  ( -0.000000   0.000000  -1.283393)
  12:       815.48    0.139250  (  0.312064  -0.204611   0.000002)
  13:       849.91   29.367164  (  4.770009   2.571804  -0.000003)
  14:       877.54    0.452733  (  0.000000   0.000001   0.672854)
  15:       895.74    2.752452  (  0.051808  -1.658242   0.000008)
  16:       924.66    2.825602  (  1.674676  -0.145129  -0.000009)
  17:       933.98    2.395756  (  0.000002  -0.000012  -1.547823)
  18:       964.50    5.796805  ( -2.154194   1.075292  -0.000011)
  19:       989.69   13.560377  ( -0.000011   0.000003   3.682442)
  20:      1016.61   75.183019  (  0.000006  -0.000001   8.670814)
  21:      1064.40    6.749083  (  2.574226  -0.349917  -0.000026)
  22:      1066.97    6.855388  ( -0.000019   0.000003  -2.618280)
  23:      1141.29    0.047736  (  0.000000   0.000002   0.218486)
  24:      1144.93    3.199559  ( -0.042005  -1.788238   0.000002)
  25:      1202.26    0.068271  ( -0.000000   0.000000   0.261287)
  26:      1228.55    0.758224  ( -0.000001   0.000003   0.870761)
  27:      1252.33    3.007472  ( -0.909165  -1.476784  -0.000002)
  28:      1275.15    2.920324  ( -1.099196   1.308470   0.000003)
  29:      1315.17    0.714107  ( -0.000001   0.000002  -0.845049)
  30:      1336.19    1.628430  ( -0.000004   0.000006  -1.276099)
  31:      1343.54   11.152904  ( -2.123464   2.577558   0.000001)
  32:      1386.47    5.537474  ( -0.000000   0.000002   2.353184)
  33:      1403.47    0.852643  (  0.807278   0.448269   0.000003)
  34:      1472.66   13.661746  ( -0.000001   0.000012  -3.696180)
  35:      1482.61    4.769092  ( -1.949785  -0.983580  -0.000012)
  36:      1510.13   11.623599  ( -2.386571   2.434724   0.000013)
  37:      1618.46   83.653979  ( -7.562554  -5.144099  -0.000002)
  38:      3068.01    9.692257  ( -1.729611  -2.588572   0.000000)
  39:      3084.44    2.161218  ( -0.000001   0.000002  -1.470108)
  40:      3085.70    1.619554  (  0.382077  -1.213907  -0.000002)
  41:      3135.46    1.540854  (  0.000000  -0.000005   1.241311)
  42:      3136.40    0.885496  ( -0.022037   0.940750   0.000006)
  43:      3152.92    0.266069  (  0.411406   0.311150  -0.000001)
  44:      3220.12    1.596429  ( -0.000000  -0.000000  -1.263499)
  45:      3228.36    1.844319  ( -0.065390  -1.356482   0.000001)
  46:      3510.30   81.483594  ( -7.796813  -4.548989  -0.000000)
  47:      3619.95  128.445270  (  8.283669  -7.734733   0.000000)

--------------------------
THERMOCHEMISTRY AT 298.15K
--------------------------

Temperature         ... 298.15 K
Pressure            ... 1.00 atm
Total Mass          ... 84.14 AMU

Throughout the following assumptions are being made:
  (1) The electronic state is orbitally nondegenerate
  (2) There are no thermally accessible electronically excited states
  (3) Hindered rotations indicated by low frequency modes) are not
      treated as such but are treated as vibrations and this may
      case some error
  (4) All equations used are the standard statistical mechanics
      equations for an ideal gas
  (5) All vibrations are strinctly harmonic

------------
INNER ENERGY
------------

The inner energy is: U= E(el) + E(ZPE) + E(vib) + E(rot) + E(trans)
    E(el)   - is the total energy from the electronic structure calculation
              = E(kin-el) + E(nuc-el) + E(el-el) + E(nuc-nuc)
    E(ZPE)  - the the zero temperature vibrational energy from the frequency calculation
    E(vib)  - the the finite temperature correction to E(ZPE) due to population
              of excietd vibrational states
    E(rot)  - is the rotational thermal energy
    E(trans)- is the translational thermal energy

Summary of contributions to the inner energy U:
Electronic energy                ...   -250.82976764 Eh
Zero point energy                ...      0.14971351 Eh      93.95 kcal/mol
Thermal vibrational correction   ...      0.00228858 Eh       1.44 kcal/mol
Thermal rotational correction    ...      0.00141627 Eh       0.89 kcal/mol
Thermal translational correction ...      0.00141627 Eh       0.89 kcal/mol
-----------------------------------------------------------------------
Total thermal energy                   -250.67493301 Eh

Summary of corrections to the electronic energy:
(perhaps to be used in another calculation)
Total thermal correction                  0.00512112 Eh       3.21 kcal/mol
Non-thermal (ZPE) correction              0.14971351 Eh      93.95 kcal/mol
-----------------------------------------------------------------------
Total correction                          0.15483463 Eh      97.16 kcal/mol

--------
ENTHALPY
--------

The enthalpy is H = U + kB*T
                kB is Boltzmann's constant
Total free energy                 ...   -250.67493301 Eh
Thermal Enthalpy correction       ...      0.00094421 Eh       0.59 kcal/mol
-----------------------------------------------------------------------
Total Enthalpy                    ...   -250.67398880 Eh

-------
ENTROPY
-------

The entropy contributions are T*S = T*(S(el)+S(vib)+S(rot)+S(trans)
     S(el)   - electronic entropy
     S(vib)  - vibrational entropy
     S(rot)  - rotational entropy
     S(trans)- translational entropy
The entropies will be listed as mutliplied by the temperature to get
units of energy

Electronic entropy                ...      0.00000000 Eh      0.00 kcal/mol
Vibrational entropy               ...      0.00329942 Eh      2.07 kcal/mol
Rotational entropy                ...      0.01125347 Eh      7.06 kcal/mol
Translational entropy             ...      0.01862670 Eh     11.69 kcal/mol
-----------------------------------------------------------------------
Final entropy term                ...      0.03317959 Eh     20.82 kcal/mol

CAUTION: The rotational entropy is not quite correctly treated here
         because it includes a symmetry number that is not yet correctly
         implemented in ORCA!
For a nonlinear molecule the correct rotational entropy is:
    S(rot) = R*(ln(qrot/sn)+1.5)
    R    = 8.31441 J/mol/K = 1.987191683e-3 kcal/mol/K
    qrot = 100445.5869637
    sn is the rotational symmetry number. We have assumed 3 here
       if it is different for your molecule then you should correct
       the printed rotational entropy by manually evaluating the equation
       as given above

For convenience we print out the resulting values for sn=1 - 12:
 sn= 1  qrot/sn=  100445.5870 T*S(rot)=     7.71 kcal/mol T*S(tot)=    21.47 kcal/mol
 sn= 2  qrot/sn=   50222.7935 T*S(rot)=     7.30 kcal/mol T*S(tot)=    21.06 kcal/mol
 sn= 3  qrot/sn=   33481.8623 T*S(rot)=     7.06 kcal/mol T*S(tot)=    20.82 kcal/mol
 sn= 4  qrot/sn=   25111.3967 T*S(rot)=     6.89 kcal/mol T*S(tot)=    20.65 kcal/mol
 sn= 5  qrot/sn=   20089.1174 T*S(rot)=     6.76 kcal/mol T*S(tot)=    20.52 kcal/mol
 sn= 6  qrot/sn=   16740.9312 T*S(rot)=     6.65 kcal/mol T*S(tot)=    20.41 kcal/mol
 sn= 7  qrot/sn=   14349.3696 T*S(rot)=     6.56 kcal/mol T*S(tot)=    20.32 kcal/mol
 sn= 8  qrot/sn=   12555.6984 T*S(rot)=     6.48 kcal/mol T*S(tot)=    20.24 kcal/mol
 sn= 9  qrot/sn=   11160.6208 T*S(rot)=     6.41 kcal/mol T*S(tot)=    20.17 kcal/mol
 sn=10  qrot/sn=   10044.5587 T*S(rot)=     6.35 kcal/mol T*S(tot)=    20.11 kcal/mol
 sn=11  qrot/sn=    9131.4170 T*S(rot)=     6.29 kcal/mol T*S(tot)=    20.05 kcal/mol
 sn=12  qrot/sn=    8370.4656 T*S(rot)=     6.24 kcal/mol T*S(tot)=    20.00 kcal/mol

-------------------
GIBBS FREE ENTHALPY
-------------------

The Gibbs free enthalpy is G = H - T*S

Total enthalpy                    ...   -250.67398880 Eh
Total entropy correction          ...     -0.03317959 Eh    -20.82 kcal/mol
-----------------------------------------------------------------------
Final Gibbs free enthalpy         ...   -250.70716839 Eh

For completeness - the Gibbs free enthalpy minus the electronic energy
G-E(el)                           ...      0.12259925 Eh     76.93 kcal/mol

                             ****ORCA TERMINATED NORMALLY****
TOTAL RUN TIME: 0 days 0 hours 22 minutes 28 seconds 29 msec
