                         Program Version 3.0.3 - RELEASE   -
|  1> ! NORI PBE0 def2-TZVP UseSym TightOPT Freq TightSCF Grid3 FinalGrid5 XYZFile
|  2> % pal
|  3>     nprocs 8
|  4> end
|  5> %method
|  6>     SymThresh 5.0e-2
|  7> end
|  8> % geom
|  9>     MaxIter 10
| 10> end
| 11> % maxcore 2000
| 12> % output
| 13>     printlevel mini
| 14>     print[ P_Basis ] 0
| 15>     print[ P_SCFInfo ] 1
| 16>     print[ P_SCFIterInfo ] 1
| 17>     print[ P_OrbEn ] 0
| 18>     print[ P_Cartesian ] 0
| 19> end
| 20> % elprop
| 21>     Dipole false
| 22> end
| 23> *xyz 1 1
| 24>  C        0.2510525430     1.4789110232    -0.3504592462
| 25>  C       -0.7879921850     0.7896622291     0.4434980469
| 26>  C       -1.3600871143    -0.4431423815    -0.1474530468
| 27>  C       -0.4322733151    -1.3774908294    -0.3070913096
| 28>  C        0.9061229403    -0.9484662177     0.2065332766
| 29>  N        0.6598847618     0.4533201645     0.6339351133
| 30>  H        0.5571254416     2.4826410101    -0.0819722651
| 31>  H        0.3937554282     1.1853205621    -1.3832477940
| 32>  H       -1.2768563455     1.3157122853     1.2560935377
| 33>  H       -2.4039878475    -0.5168227901    -0.4183202378
| 34>  H       -0.5813102075    -2.3506639493    -0.7542340525
| 35>  H        1.7020497936    -0.9701218076    -0.5414359946
| 36>  H        1.2330081462    -1.5228267742     1.0769670465
| 37>  H        1.1361879601     0.7850774756     1.4646569256
| 38> *
| 39>
| 40>                          ****END OF INPUT****
 Total Charge           Charge          ....    1
 Multiplicity           Mult            ....    1
 Number of Electrons    NEL             ....   44
FINAL SINGLE POINT ENERGY      -249.588847570000

CARTESIAN COORDINATES (ANGSTROEM)
---------------------------------
  C      1.431374    0.000015    0.649673
  C      0.522070    0.975484    0.012374
  C     -0.121369    0.548797   -1.252504
  C     -0.897442   -0.510603   -1.065857
  C     -0.951663   -0.934713    0.367977
  N     -0.000100   -0.000033    1.023157
  H      2.087420    0.318421    1.450652
  H      1.741952   -0.867267    0.080248
  H      0.558580    2.016627    0.313702
  H      0.065731    1.055330   -2.188980
  H     -1.445252   -1.039862   -1.833592
  H     -0.634496   -1.965144    0.543562
  H     -1.938153   -0.794811    0.817101
  H     -0.227084    0.330948    1.953753

FINAL SINGLE POINT ENERGY      -249.588847924208
                    ***********************HURRAY********************
 Multiplicity           Mult            ....    1
 Number of Electrons    NEL             ....   44
 Basis Dimension        Dim             ....  234
FINAL SINGLE POINT ENERGY      -249.588848053459

VIBRATIONAL FREQUENCIES
-----------------------

   0:         0.00 cm**-1
   1:         0.00 cm**-1
   2:         0.00 cm**-1
   3:         0.00 cm**-1
   4:         0.00 cm**-1
   5:         0.00 cm**-1
   6:       290.75 cm**-1
   7:       353.71 cm**-1
   8:       498.38 cm**-1
   9:       705.89 cm**-1
  10:       738.92 cm**-1
  11:       756.06 cm**-1
  12:       785.04 cm**-1
  13:       834.17 cm**-1
  14:       904.56 cm**-1
  15:       959.77 cm**-1
  16:       970.67 cm**-1
  17:       973.09 cm**-1
  18:      1027.02 cm**-1
  19:      1037.04 cm**-1
  20:      1080.00 cm**-1
  21:      1130.79 cm**-1
  22:      1146.37 cm**-1
  23:      1158.56 cm**-1
  24:      1163.29 cm**-1
  25:      1230.60 cm**-1
  26:      1259.05 cm**-1
  27:      1326.50 cm**-1
  28:      1357.20 cm**-1
  29:      1403.74 cm**-1
  30:      1436.12 cm**-1
  31:      1476.08 cm**-1
  32:      1495.09 cm**-1
  33:      1696.59 cm**-1
  34:      3082.08 cm**-1
  35:      3131.33 cm**-1
  36:      3163.49 cm**-1
  37:      3202.71 cm**-1
  38:      3242.36 cm**-1
  39:      3260.88 cm**-1
  40:      3269.62 cm**-1
  41:      3570.76 cm**-1

IR SPECTRUM
-----------

 Mode    freq (cm**-1)   T**2         TX         TY         TZ
-------------------------------------------------------------------
   6:       290.75    0.078454  (  0.227771   0.048578  -0.155610)
   7:       353.71    0.196314  ( -0.089985   0.181939  -0.393846)
   8:       498.38    6.343197  ( -2.167055   1.217451   0.406061)
   9:       705.89    1.898262  (  1.201039   0.264836  -0.620991)
  10:       738.92   43.463943  (  4.951482  -4.341830  -0.308678)
  11:       756.06   13.333202  (  3.040520  -1.553402  -1.294365)
  12:       785.04   12.198049  ( -1.979810  -1.698188   2.322619)
  13:       834.17    2.877028  (  1.305374  -1.076343   0.120472)
  14:       904.56    9.310806  ( -2.048276   0.549713  -2.193898)
  15:       959.77    6.822293  ( -0.313263   2.569067  -0.352213)
  16:       970.67    2.102997  ( -0.205501   1.375627   0.410387)
  17:       973.09    9.084553  ( -0.849264   2.411214  -1.596669)
  18:      1027.02   11.140891  ( -0.178724  -3.131148   1.142305)
  19:      1037.04   22.393291  ( -4.674920  -0.511929   0.525685)
  20:      1080.00    9.849623  ( -1.143385   2.893700   0.410846)
  21:      1130.79    1.515166  (  0.999612  -0.715076  -0.067884)
  22:      1146.37    7.249025  ( -0.081400   1.198925  -2.409352)
  23:      1158.56    0.302265  ( -0.050197   0.376544  -0.397442)
  24:      1163.29    2.034697  ( -1.176427  -0.197646   0.782082)
  25:      1230.60    5.420149  ( -0.594302  -2.198880   0.481540)
  26:      1259.05    2.937201  ( -0.248556  -1.057109   1.325874)
  27:      1326.50    1.848531  ( -0.820655  -0.847200   0.676247)
  28:      1357.20    4.049097  ( -1.932201  -0.083205   0.555674)
  29:      1403.74   11.063795  ( -0.675524  -3.167806   0.756615)
  30:      1436.12   38.508253  (  5.448177   2.961122  -0.239524)
  31:      1476.08    4.233711  ( -1.502844   0.235975   1.385455)
  32:      1495.09   20.163949  (  0.204895   4.053007  -1.922264)
  33:      1696.59    1.835378  (  0.439246   1.022133   0.773101)
  34:      3082.08    0.450786  (  0.293901   0.433726  -0.419869)
  35:      3131.33    0.650328  (  0.535244  -0.587474   0.136806)
  36:      3163.49    2.111581  ( -1.336645   0.567271  -0.056257)
  37:      3202.71    1.420802  (  0.380039  -1.127605   0.069857)
  38:      3242.36    7.483988  ( -1.650170  -2.179038   0.112779)
  39:      3260.88   10.307773  ( -0.288727   0.477295  -3.161740)
  40:      3269.62    5.179511  (  0.221264   1.711289   1.483928)
  41:      3570.76  118.955257  ( -2.749175   2.660379  10.213700)

--------------------------
THERMOCHEMISTRY AT 298.15K
--------------------------

Temperature         ... 298.15 K
Pressure            ... 1.00 atm
Total Mass          ... 82.13 AMU

Throughout the following assumptions are being made:
  (1) The electronic state is orbitally nondegenerate
  (2) There are no thermally accessible electronically excited states
  (3) Hindered rotations indicated by low frequency modes) are not
      treated as such but are treated as vibrations and this may
      case some error
  (4) All equations used are the standard statistical mechanics
      equations for an ideal gas
  (5) All vibrations are strinctly harmonic

------------
INNER ENERGY
------------

The inner energy is: U= E(el) + E(ZPE) + E(vib) + E(rot) + E(trans)
    E(el)   - is the total energy from the electronic structure calculation
              = E(kin-el) + E(nuc-el) + E(el-el) + E(nuc-nuc)
    E(ZPE)  - the the zero temperature vibrational energy from the frequency calculation
    E(vib)  - the the finite temperature correction to E(ZPE) due to population
              of excietd vibrational states
    E(rot)  - is the rotational thermal energy
    E(trans)- is the translational thermal energy

Summary of contributions to the inner energy U:
Electronic energy                ...   -249.58884805 Eh
Zero point energy                ...      0.12556870 Eh      78.80 kcal/mol
Thermal vibrational correction   ...      0.00189233 Eh       1.19 kcal/mol
Thermal rotational correction    ...      0.00141627 Eh       0.89 kcal/mol
Thermal translational correction ...      0.00141627 Eh       0.89 kcal/mol
-----------------------------------------------------------------------
Total thermal energy                   -249.45855448 Eh

Summary of corrections to the electronic energy:
(perhaps to be used in another calculation)
Total thermal correction                  0.00472487 Eh       2.96 kcal/mol
Non-thermal (ZPE) correction              0.12556870 Eh      78.80 kcal/mol
-----------------------------------------------------------------------
Total correction                          0.13029357 Eh      81.76 kcal/mol

--------
ENTHALPY
--------

The enthalpy is H = U + kB*T
                kB is Boltzmann's constant
Total free energy                 ...   -249.45855448 Eh
Thermal Enthalpy correction       ...      0.00094421 Eh       0.59 kcal/mol
-----------------------------------------------------------------------
Total Enthalpy                    ...   -249.45761027 Eh

-------
ENTROPY
-------

The entropy contributions are T*S = T*(S(el)+S(vib)+S(rot)+S(trans)
     S(el)   - electronic entropy
     S(vib)  - vibrational entropy
     S(rot)  - rotational entropy
     S(trans)- translational entropy
The entropies will be listed as mutliplied by the temperature to get
units of energy

Electronic entropy                ...      0.00000000 Eh      0.00 kcal/mol
Vibrational entropy               ...      0.00264252 Eh      1.66 kcal/mol
Rotational entropy                ...      0.01113650 Eh      6.99 kcal/mol
Translational entropy             ...      0.01859236 Eh     11.67 kcal/mol
-----------------------------------------------------------------------
Final entropy term                ...      0.03237137 Eh     20.31 kcal/mol

CAUTION: The rotational entropy is not quite correctly treated here
         because it includes a symmetry number that is not yet correctly
         implemented in ORCA!
For a nonlinear molecule the correct rotational entropy is:
    S(rot) = R*(ln(qrot/sn)+1.5)
    R    = 8.31441 J/mol/K = 1.987191683e-3 kcal/mol/K
    qrot = 88742.5058625
    sn is the rotational symmetry number. We have assumed 3 here
       if it is different for your molecule then you should correct
       the printed rotational entropy by manually evaluating the equation
       as given above

For convenience we print out the resulting values for sn=1 - 12:
 sn= 1  qrot/sn=   88742.5059 T*S(rot)=     7.64 kcal/mol T*S(tot)=    20.96 kcal/mol
 sn= 2  qrot/sn=   44371.2529 T*S(rot)=     7.23 kcal/mol T*S(tot)=    20.55 kcal/mol
 sn= 3  qrot/sn=   29580.8353 T*S(rot)=     6.99 kcal/mol T*S(tot)=    20.31 kcal/mol
 sn= 4  qrot/sn=   22185.6265 T*S(rot)=     6.82 kcal/mol T*S(tot)=    20.14 kcal/mol
 sn= 5  qrot/sn=   17748.5012 T*S(rot)=     6.69 kcal/mol T*S(tot)=    20.01 kcal/mol
 sn= 6  qrot/sn=   14790.4176 T*S(rot)=     6.58 kcal/mol T*S(tot)=    19.90 kcal/mol
 sn= 7  qrot/sn=   12677.5008 T*S(rot)=     6.49 kcal/mol T*S(tot)=    19.81 kcal/mol
 sn= 8  qrot/sn=   11092.8132 T*S(rot)=     6.41 kcal/mol T*S(tot)=    19.73 kcal/mol
 sn= 9  qrot/sn=    9860.2784 T*S(rot)=     6.34 kcal/mol T*S(tot)=    19.66 kcal/mol
 sn=10  qrot/sn=    8874.2506 T*S(rot)=     6.27 kcal/mol T*S(tot)=    19.60 kcal/mol
 sn=11  qrot/sn=    8067.5005 T*S(rot)=     6.22 kcal/mol T*S(tot)=    19.54 kcal/mol
 sn=12  qrot/sn=    7395.2088 T*S(rot)=     6.17 kcal/mol T*S(tot)=    19.49 kcal/mol

-------------------
GIBBS FREE ENTHALPY
-------------------

The Gibbs free enthalpy is G = H - T*S

Total enthalpy                    ...   -249.45761027 Eh
Total entropy correction          ...     -0.03237137 Eh    -20.31 kcal/mol
-----------------------------------------------------------------------
Final Gibbs free enthalpy         ...   -249.48998165 Eh

For completeness - the Gibbs free enthalpy minus the electronic energy
G-E(el)                           ...      0.09886641 Eh     62.04 kcal/mol

                             ****ORCA TERMINATED NORMALLY****
TOTAL RUN TIME: 0 days 0 hours 18 minutes 38 seconds 712 msec
