                         Program Version 3.0.3 - RELEASE   -
|  1> ! NORI PBE0 def2-TZVP UseSym TightOPT Freq TightSCF Grid3 FinalGrid5 XYZFile
|  2> % pal
|  3>     nprocs 8
|  4> end
|  5> %method
|  6>     SymThresh 5.0e-2
|  7> end
|  8> % geom
|  9>     MaxIter 10
| 10> end
| 11> % maxcore 2000
| 12> % output
| 13>     printlevel mini
| 14>     print[ P_Basis ] 0
| 15>     print[ P_SCFInfo ] 1
| 16>     print[ P_SCFIterInfo ] 1
| 17>     print[ P_OrbEn ] 0
| 18>     print[ P_Cartesian ] 0
| 19> end
| 20> % elprop
| 21>     Dipole false
| 22> end
| 23> *xyz 1 1
| 24>  C        0.9870509321    -1.0041227441     0.0494606472
| 25>  C       -0.4479836072    -1.3934477640     0.2623108006
| 26>  C       -1.2907889076    -0.3874565264     0.0293880658
| 27>  C       -0.5309401640     0.8368768093    -0.3206830254
| 28>  N        0.3182137425     1.3025608622     0.8370724279
| 29>  C        0.9005652252     0.4704880266    -0.2560285796
| 30>  H        1.6366706977    -1.2299801020     0.9007830030
| 31>  H        1.4197228484    -1.5256782265    -0.8107511825
| 32>  H       -0.7387786615    -2.3891975029     0.5713478396
| 33>  H       -2.3704112880    -0.4151850437     0.0837761989
| 34>  H       -0.9273500130     1.6438601544    -0.9232417595
| 35>  H        0.1342747735     0.8661345329     1.7361087016
| 36>  H        0.6006428529     2.2761452740     0.8806808934
| 37>  H        1.6684015690     0.9858022502    -0.8174540310
| 38> *
| 39>
| 40>                          ****END OF INPUT****
 Total Charge           Charge          ....    1
 Multiplicity           Mult            ....    1
 Number of Electrons    NEL             ....   44
FINAL SINGLE POINT ENERGY      -249.596150706923

CARTESIAN COORDINATES (ANGSTROEM)
---------------------------------
  C      1.211548    0.000078   -0.712178
  C      0.065671   -0.818745   -1.234463
  C     -1.091643   -0.510822   -0.649335
  C     -0.871878    0.523350    0.390455
  N     -0.000063   -0.000244    1.505835
  C      0.579404    0.808238    0.393436
  H      2.063673   -0.597889   -0.375032
  H      1.599896    0.679186   -1.478308
  H      0.193280   -1.570749   -2.002597
  H     -2.063454   -0.932846   -0.863906
  H     -1.630819    1.220624    0.720712
  H      0.165973   -1.002651    1.516861
  H     -0.053423    0.437599    2.419595
  H      0.996137    1.749539    0.726157

FINAL SINGLE POINT ENERGY      -249.596151110682
                    ***********************HURRAY********************
 Multiplicity           Mult            ....    1
 Number of Electrons    NEL             ....   44
 Basis Dimension        Dim             ....  234
FINAL SINGLE POINT ENERGY      -249.596151207445

VIBRATIONAL FREQUENCIES
-----------------------

   0:         0.00 cm**-1
   1:         0.00 cm**-1
   2:         0.00 cm**-1
   3:         0.00 cm**-1
   4:         0.00 cm**-1
   5:         0.00 cm**-1
   6:       300.88 cm**-1
   7:       365.83 cm**-1
   8:       495.94 cm**-1
   9:       692.70 cm**-1
  10:       738.49 cm**-1
  11:       761.51 cm**-1
  12:       795.43 cm**-1
  13:       834.32 cm**-1
  14:       908.54 cm**-1
  15:       939.95 cm**-1
  16:       951.36 cm**-1
  17:       967.95 cm**-1
  18:       985.84 cm**-1
  19:      1005.82 cm**-1
  20:      1028.75 cm**-1
  21:      1059.53 cm**-1
  22:      1103.77 cm**-1
  23:      1136.93 cm**-1
  24:      1165.12 cm**-1
  25:      1207.52 cm**-1
  26:      1261.17 cm**-1
  27:      1309.45 cm**-1
  28:      1347.59 cm**-1
  29:      1380.53 cm**-1
  30:      1401.15 cm**-1
  31:      1450.37 cm**-1
  32:      1605.60 cm**-1
  33:      1670.24 cm**-1
  34:      3069.49 cm**-1
  35:      3106.27 cm**-1
  36:      3227.83 cm**-1
  37:      3233.69 cm**-1
  38:      3235.54 cm**-1
  39:      3257.00 cm**-1
  40:      3488.30 cm**-1
  41:      3605.70 cm**-1

IR SPECTRUM
-----------

 Mode    freq (cm**-1)   T**2         TX         TY         TZ
-------------------------------------------------------------------
   6:       300.88    2.216073  (  0.920810   0.609220   0.998516)
   7:       365.83    2.069671  (  1.066345  -0.939767  -0.222297)
   8:       495.94    3.257255  ( -0.183100  -1.589903   0.834228)
   9:       692.70    2.002812  ( -0.816153  -0.915038  -0.706691)
  10:       738.49   14.967192  (  1.976283  -3.143530   1.086147)
  11:       761.51   36.342637  (  0.504739   3.769968  -4.677095)
  12:       795.43    7.715505  ( -0.460987   0.979860  -2.557903)
  13:       834.32   32.616859  ( -1.313565   1.975779  -5.194969)
  14:       908.54    5.592065  ( -0.095591   1.702487  -1.638434)
  15:       939.95    4.171685  ( -1.015508  -0.919736  -1.514765)
  16:       951.36    6.392430  ( -2.326525   0.869406  -0.473122)
  17:       967.95    9.923635  (  0.938065  -0.655846  -2.934882)
  18:       985.84    2.216610  (  1.093649  -0.849904   0.546083)
  19:      1005.82   73.191220  (  8.485835   0.991157  -0.446581)
  20:      1028.75   13.485232  (  3.206128  -0.027184  -1.790317)
  21:      1059.53    9.782707  ( -1.663889  -2.614319  -0.423693)
  22:      1103.77    4.746040  ( -0.551199   1.569974   1.406201)
  23:      1136.93    0.196001  ( -0.083229   0.434195  -0.023437)
  24:      1165.12    2.156374  (  1.172511  -0.232832   0.852866)
  25:      1207.52    3.079909  (  0.838880  -1.180701   0.991026)
  26:      1261.17    4.609331  ( -0.578994   2.065687  -0.083870)
  27:      1309.45    1.431302  (  0.270242  -0.688572  -0.940287)
  28:      1347.59   14.035610  ( -0.298683   2.802929   2.467790)
  29:      1380.53   16.928461  (  3.345343  -0.157283  -2.390063)
  30:      1401.15   10.319698  (  2.973892  -0.677154  -1.008528)
  31:      1450.37   17.308741  (  3.881724  -0.011841  -1.496936)
  32:      1605.60   78.456473  (  0.869024  -4.758580   7.420053)
  33:      1670.24    6.832413  (  1.792875  -1.829853  -0.519281)
  34:      3069.49    0.855133  (  0.147956   0.194952  -0.891760)
  35:      3106.27    0.592714  ( -0.196461  -0.493450   0.557337)
  36:      3227.83    1.566567  ( -1.116052  -0.365289  -0.433081)
  37:      3233.69    3.458203  ( -1.662716  -0.192479   0.810265)
  38:      3235.54    5.002023  (  0.484517  -2.112606  -0.551510)
  39:      3257.00    4.164013  (  1.791651   0.757541   0.616547)
  40:      3488.30   85.598370  ( -0.314658   4.424477  -8.119320)
  41:      3605.70  115.225563  ( -1.374515   8.063529   6.950955)

--------------------------
THERMOCHEMISTRY AT 298.15K
--------------------------

Temperature         ... 298.15 K
Pressure            ... 1.00 atm
Total Mass          ... 82.13 AMU

Throughout the following assumptions are being made:
  (1) The electronic state is orbitally nondegenerate
  (2) There are no thermally accessible electronically excited states
  (3) Hindered rotations indicated by low frequency modes) are not
      treated as such but are treated as vibrations and this may
      case some error
  (4) All equations used are the standard statistical mechanics
      equations for an ideal gas
  (5) All vibrations are strinctly harmonic

------------
INNER ENERGY
------------

The inner energy is: U= E(el) + E(ZPE) + E(vib) + E(rot) + E(trans)
    E(el)   - is the total energy from the electronic structure calculation
              = E(kin-el) + E(nuc-el) + E(el-el) + E(nuc-nuc)
    E(ZPE)  - the the zero temperature vibrational energy from the frequency calculation
    E(vib)  - the the finite temperature correction to E(ZPE) due to population
              of excietd vibrational states
    E(rot)  - is the rotational thermal energy
    E(trans)- is the translational thermal energy

Summary of contributions to the inner energy U:
Electronic energy                ...   -249.59615121 Eh
Zero point energy                ...      0.12551811 Eh      78.76 kcal/mol
Thermal vibrational correction   ...      0.00190694 Eh       1.20 kcal/mol
Thermal rotational correction    ...      0.00141627 Eh       0.89 kcal/mol
Thermal translational correction ...      0.00141627 Eh       0.89 kcal/mol
-----------------------------------------------------------------------
Total thermal energy                   -249.46589361 Eh

Summary of corrections to the electronic energy:
(perhaps to be used in another calculation)
Total thermal correction                  0.00473949 Eh       2.97 kcal/mol
Non-thermal (ZPE) correction              0.12551811 Eh      78.76 kcal/mol
-----------------------------------------------------------------------
Total correction                          0.13025760 Eh      81.74 kcal/mol

--------
ENTHALPY
--------

The enthalpy is H = U + kB*T
                kB is Boltzmann's constant
Total free energy                 ...   -249.46589361 Eh
Thermal Enthalpy correction       ...      0.00094421 Eh       0.59 kcal/mol
-----------------------------------------------------------------------
Total Enthalpy                    ...   -249.46494940 Eh

-------
ENTROPY
-------

The entropy contributions are T*S = T*(S(el)+S(vib)+S(rot)+S(trans)
     S(el)   - electronic entropy
     S(vib)  - vibrational entropy
     S(rot)  - rotational entropy
     S(trans)- translational entropy
The entropies will be listed as mutliplied by the temperature to get
units of energy

Electronic entropy                ...      0.00000000 Eh      0.00 kcal/mol
Vibrational entropy               ...      0.00264155 Eh      1.66 kcal/mol
Rotational entropy                ...      0.01115102 Eh      7.00 kcal/mol
Translational entropy             ...      0.01859236 Eh     11.67 kcal/mol
-----------------------------------------------------------------------
Final entropy term                ...      0.03238493 Eh     20.32 kcal/mol

CAUTION: The rotational entropy is not quite correctly treated here
         because it includes a symmetry number that is not yet correctly
         implemented in ORCA!
For a nonlinear molecule the correct rotational entropy is:
    S(rot) = R*(ln(qrot/sn)+1.5)
    R    = 8.31441 J/mol/K = 1.987191683e-3 kcal/mol/K
    qrot = 90117.7812034
    sn is the rotational symmetry number. We have assumed 3 here
       if it is different for your molecule then you should correct
       the printed rotational entropy by manually evaluating the equation
       as given above

For convenience we print out the resulting values for sn=1 - 12:
 sn= 1  qrot/sn=   90117.7812 T*S(rot)=     7.65 kcal/mol T*S(tot)=    20.97 kcal/mol
 sn= 2  qrot/sn=   45058.8906 T*S(rot)=     7.24 kcal/mol T*S(tot)=    20.56 kcal/mol
 sn= 3  qrot/sn=   30039.2604 T*S(rot)=     7.00 kcal/mol T*S(tot)=    20.32 kcal/mol
 sn= 4  qrot/sn=   22529.4453 T*S(rot)=     6.83 kcal/mol T*S(tot)=    20.15 kcal/mol
 sn= 5  qrot/sn=   18023.5562 T*S(rot)=     6.69 kcal/mol T*S(tot)=    20.02 kcal/mol
 sn= 6  qrot/sn=   15019.6302 T*S(rot)=     6.59 kcal/mol T*S(tot)=    19.91 kcal/mol
 sn= 7  qrot/sn=   12873.9687 T*S(rot)=     6.50 kcal/mol T*S(tot)=    19.82 kcal/mol
 sn= 8  qrot/sn=   11264.7227 T*S(rot)=     6.42 kcal/mol T*S(tot)=    19.74 kcal/mol
 sn= 9  qrot/sn=   10013.0868 T*S(rot)=     6.35 kcal/mol T*S(tot)=    19.67 kcal/mol
 sn=10  qrot/sn=    9011.7781 T*S(rot)=     6.28 kcal/mol T*S(tot)=    19.61 kcal/mol
 sn=11  qrot/sn=    8192.5256 T*S(rot)=     6.23 kcal/mol T*S(tot)=    19.55 kcal/mol
 sn=12  qrot/sn=    7509.8151 T*S(rot)=     6.18 kcal/mol T*S(tot)=    19.50 kcal/mol

-------------------
GIBBS FREE ENTHALPY
-------------------

The Gibbs free enthalpy is G = H - T*S

Total enthalpy                    ...   -249.46494940 Eh
Total entropy correction          ...     -0.03238493 Eh    -20.32 kcal/mol
-----------------------------------------------------------------------
Final Gibbs free enthalpy         ...   -249.49733433 Eh

For completeness - the Gibbs free enthalpy minus the electronic energy
G-E(el)                           ...      0.09881687 Eh     62.01 kcal/mol

                             ****ORCA TERMINATED NORMALLY****
TOTAL RUN TIME: 0 days 0 hours 18 minutes 19 seconds 971 msec
