                         Program Version 3.0.3 - RELEASE   -
|  1> ! NORI PBE0 def2-TZVP UseSym TightOPT Freq TightSCF Grid3 FinalGrid5 XYZFile
|  2> % pal
|  3>     nprocs 8
|  4> end
|  5> %method
|  6>     SymThresh 5.0e-2
|  7> end
|  8> % geom
|  9>     MaxIter 10
| 10> end
| 11> % maxcore 2000
| 12> % output
| 13>     printlevel mini
| 14>     print[ P_Basis ] 0
| 15>     print[ P_SCFInfo ] 1
| 16>     print[ P_SCFIterInfo ] 1
| 17>     print[ P_OrbEn ] 0
| 18>     print[ P_Cartesian ] 0
| 19> end
| 20> % elprop
| 21>     Dipole false
| 22> end
| 23> *xyz 1 1
| 24>  C        0.3694565704     1.3546671104    -0.2499540119
| 25>  C       -1.0672422149     1.0681594670     0.1286384318
| 26>  C       -1.3797259845    -0.3923035548     0.0579437223
| 27>  C       -0.4540546092    -1.3341678853    -0.0663771766
| 28>  C        1.0090362059    -1.0461070485    -0.0951857955
| 29>  N        1.2657204079     0.3421982008     0.4038497230
| 30>  H        0.7000174702     2.3439408117     0.0661207779
| 31>  H        0.5328459210     1.2527239880    -1.3239350580
| 32>  H       -1.7146459429     1.6225688544    -0.5563342089
| 33>  H       -1.2970286308     1.4612393562     1.1263754417
| 34>  H       -2.4246683567    -0.6764093204     0.1131896921
| 35>  H       -0.7272113778    -2.3803775486    -0.1395565471
| 36>  H        1.4339461387    -1.1116166766    -1.1010748023
| 37>  H        1.5684010775    -1.7305019205     0.5463983307
| 38>  H        1.1045597928     0.3627764513     1.4134425521
| 39>  H        2.2447035325     0.5892697149     0.2549189287
| 40> *
| 41>
| 42>                          ****END OF INPUT****
 Total Charge           Charge          ....    1
 Multiplicity           Mult            ....    1
 Number of Electrons    NEL             ....   46
FINAL SINGLE POINT ENERGY      -250.835361810133

CARTESIAN COORDINATES (ANGSTROEM)
---------------------------------
  C      1.285305   -0.000057    0.567048
  C      1.078991    0.735685   -0.738768
  C     -0.211969    0.357660   -1.391616
  C     -1.167278   -0.331231   -0.781024
  C     -1.083795   -0.760510    0.644880
  N      0.000044    0.000094    1.344257
  H      2.051947    0.456915    1.192664
  H      1.539105   -1.048583    0.404680
  H      1.916575    0.494161   -1.399058
  H      1.129913    1.821286   -0.591183
  H     -0.356129    0.672815   -2.419018
  H     -2.078007   -0.605527   -1.300525
  H     -0.854085   -1.824489    0.753942
  H     -2.015228   -0.565528    1.181013
  H     -0.307687    0.966704    1.472011
  H      0.151009   -0.388178    2.275907

FINAL SINGLE POINT ENERGY      -250.835362192258
                    ***********************HURRAY********************
 Multiplicity           Mult            ....    1
 Number of Electrons    NEL             ....   46
 Basis Dimension        Dim             ....  246
FINAL SINGLE POINT ENERGY      -250.835362337994

VIBRATIONAL FREQUENCIES
-----------------------

   0:         0.00 cm**-1
   1:         0.00 cm**-1
   2:         0.00 cm**-1
   3:         0.00 cm**-1
   4:         0.00 cm**-1
   5:         0.00 cm**-1
   6:       163.87 cm**-1
   7:       275.31 cm**-1
   8:       405.08 cm**-1
   9:       456.57 cm**-1
  10:       512.03 cm**-1
  11:       671.44 cm**-1
  12:       741.74 cm**-1
  13:       828.96 cm**-1
  14:       847.77 cm**-1
  15:       903.38 cm**-1
  16:       930.03 cm**-1
  17:       984.33 cm**-1
  18:      1016.10 cm**-1
  19:      1036.12 cm**-1
  20:      1055.74 cm**-1
  21:      1068.81 cm**-1
  22:      1102.86 cm**-1
  23:      1187.64 cm**-1
  24:      1197.84 cm**-1
  25:      1263.00 cm**-1
  26:      1301.41 cm**-1
  27:      1340.04 cm**-1
  28:      1374.42 cm**-1
  29:      1411.53 cm**-1
  30:      1419.71 cm**-1
  31:      1423.82 cm**-1
  32:      1446.83 cm**-1
  33:      1469.66 cm**-1
  34:      1484.16 cm**-1
  35:      1501.48 cm**-1
  36:      1641.52 cm**-1
  37:      1746.02 cm**-1
  38:      3047.01 cm**-1
  39:      3073.20 cm**-1
  40:      3096.54 cm**-1
  41:      3104.88 cm**-1
  42:      3123.37 cm**-1
  43:      3160.77 cm**-1
  44:      3201.53 cm**-1
  45:      3218.28 cm**-1
  46:      3442.44 cm**-1
  47:      3502.12 cm**-1

IR SPECTRUM
-----------

 Mode    freq (cm**-1)   T**2         TX         TY         TZ
-------------------------------------------------------------------
   6:       163.87    0.716370  (  0.038838  -0.400604   0.744566)
   7:       275.31    5.283988  (  0.644312  -1.473357   1.642580)
   8:       405.08    0.315855  ( -0.442213  -0.336497   0.084100)
   9:       456.57    4.755703  (  0.116608  -1.411035   1.658640)
  10:       512.03    1.422863  (  0.452333   0.583060   0.937176)
  11:       671.44   39.612336  ( -2.284516   5.646262   1.585259)
  12:       741.74   10.309585  (  1.140490  -2.754528  -1.192244)
  13:       828.96    1.828121  ( -0.007887  -0.122268   1.346517)
  14:       847.77    5.706923  ( -1.773117   1.039945  -1.217167)
  15:       903.38    3.843246  (  1.155663   0.273934  -1.559696)
  16:       930.03    3.607136  ( -0.034254  -0.607531   1.799130)
  17:       984.33   11.847601  (  1.202120   3.202212   0.385157)
  18:      1016.10    0.408896  (  0.031218  -0.636777   0.049356)
  19:      1036.12    5.452211  ( -0.098219  -2.107747   0.999984)
  20:      1055.74   11.384125  ( -3.216987  -0.951857   0.359285)
  21:      1068.81    1.644399  (  0.888023   0.911638   0.157255)
  22:      1102.86    0.396042  ( -0.558617   0.144593  -0.251161)
  23:      1187.64    5.490534  ( -1.970406   0.927969   0.864239)
  24:      1197.84    2.181730  ( -1.326866  -0.240728   0.602668)
  25:      1263.00    1.598798  (  0.900289   0.622984  -0.632589)
  26:      1301.41    8.515593  ( -2.857629   0.332592  -0.488805)
  27:      1340.04    3.764530  ( -1.181157  -1.516188  -0.265653)
  28:      1374.42    1.233316  ( -0.159992  -0.614150   0.911339)
  29:      1411.53    9.928718  (  2.923035   0.273228   1.144522)
  30:      1419.71   15.347989  ( -3.651958  -1.370269  -0.365450)
  31:      1423.82    9.153293  (  2.560645   1.041271  -1.229693)
  32:      1446.83   16.795447  (  3.648619   1.626694  -0.914817)
  33:      1469.66   10.920597  ( -1.147414  -2.466696   1.876020)
  34:      1484.16   14.204982  (  3.363361   1.233444  -1.171068)
  35:      1501.48   18.737567  ( -1.161675   2.990537  -2.905988)
  36:      1641.52   73.728883  ( -1.142422   4.315929   7.334611)
  37:      1746.02    3.348097  (  1.610793   0.867952  -0.010198)
  38:      3047.01    2.695986  (  0.464466   1.558378   0.227412)
  39:      3073.20    2.645563  (  0.445864   0.921749  -1.263783)
  40:      3096.54    0.520367  ( -0.500270   0.434451  -0.285218)
  41:      3104.88    1.579653  (  0.396888  -0.697366   0.967375)
  42:      3123.37    0.059362  ( -0.197020  -0.105421  -0.097116)
  43:      3160.77    0.372169  (  0.492137   0.272351   0.236209)
  44:      3201.53    1.383576  (  1.040875   0.529684  -0.139962)
  45:      3218.28    0.933140  ( -0.688969  -0.136262  -0.663246)
  46:      3442.44   52.056765  (  1.206363  -3.819528  -6.001055)
  47:      3502.12   75.624324  (  2.204459  -6.306076   5.567592)

--------------------------
THERMOCHEMISTRY AT 298.15K
--------------------------

Temperature         ... 298.15 K
Pressure            ... 1.00 atm
Total Mass          ... 84.14 AMU

Throughout the following assumptions are being made:
  (1) The electronic state is orbitally nondegenerate
  (2) There are no thermally accessible electronically excited states
  (3) Hindered rotations indicated by low frequency modes) are not
      treated as such but are treated as vibrations and this may
      case some error
  (4) All equations used are the standard statistical mechanics
      equations for an ideal gas
  (5) All vibrations are strinctly harmonic

------------
INNER ENERGY
------------

The inner energy is: U= E(el) + E(ZPE) + E(vib) + E(rot) + E(trans)
    E(el)   - is the total energy from the electronic structure calculation
              = E(kin-el) + E(nuc-el) + E(el-el) + E(nuc-nuc)
    E(ZPE)  - the the zero temperature vibrational energy from the frequency calculation
    E(vib)  - the the finite temperature correction to E(ZPE) due to population
              of excietd vibrational states
    E(rot)  - is the rotational thermal energy
    E(trans)- is the translational thermal energy

Summary of contributions to the inner energy U:
Electronic energy                ...   -250.83536234 Eh
Zero point energy                ...      0.15076767 Eh      94.61 kcal/mol
Thermal vibrational correction   ...      0.00262073 Eh       1.64 kcal/mol
Thermal rotational correction    ...      0.00141627 Eh       0.89 kcal/mol
Thermal translational correction ...      0.00141627 Eh       0.89 kcal/mol
-----------------------------------------------------------------------
Total thermal energy                   -250.67914139 Eh

Summary of corrections to the electronic energy:
(perhaps to be used in another calculation)
Total thermal correction                  0.00545328 Eh       3.42 kcal/mol
Non-thermal (ZPE) correction              0.15076767 Eh      94.61 kcal/mol
-----------------------------------------------------------------------
Total correction                          0.15622095 Eh      98.03 kcal/mol

--------
ENTHALPY
--------

The enthalpy is H = U + kB*T
                kB is Boltzmann's constant
Total free energy                 ...   -250.67914139 Eh
Thermal Enthalpy correction       ...      0.00094421 Eh       0.59 kcal/mol
-----------------------------------------------------------------------
Total Enthalpy                    ...   -250.67819718 Eh

-------
ENTROPY
-------

The entropy contributions are T*S = T*(S(el)+S(vib)+S(rot)+S(trans)
     S(el)   - electronic entropy
     S(vib)  - vibrational entropy
     S(rot)  - rotational entropy
     S(trans)- translational entropy
The entropies will be listed as mutliplied by the temperature to get
units of energy

Electronic entropy                ...      0.00000000 Eh      0.00 kcal/mol
Vibrational entropy               ...      0.00399709 Eh      2.51 kcal/mol
Rotational entropy                ...      0.01137813 Eh      7.14 kcal/mol
Translational entropy             ...      0.01862670 Eh     11.69 kcal/mol
-----------------------------------------------------------------------
Final entropy term                ...      0.03400193 Eh     21.34 kcal/mol

CAUTION: The rotational entropy is not quite correctly treated here
         because it includes a symmetry number that is not yet correctly
         implemented in ORCA!
For a nonlinear molecule the correct rotational entropy is:
    S(rot) = R*(ln(qrot/sn)+1.5)
    R    = 8.31441 J/mol/K = 1.987191683e-3 kcal/mol/K
    qrot = 114623.5407059
    sn is the rotational symmetry number. We have assumed 3 here
       if it is different for your molecule then you should correct
       the printed rotational entropy by manually evaluating the equation
       as given above

For convenience we print out the resulting values for sn=1 - 12:
 sn= 1  qrot/sn=  114623.5407 T*S(rot)=     7.79 kcal/mol T*S(tot)=    21.99 kcal/mol
 sn= 2  qrot/sn=   57311.7704 T*S(rot)=     7.38 kcal/mol T*S(tot)=    21.58 kcal/mol
 sn= 3  qrot/sn=   38207.8469 T*S(rot)=     7.14 kcal/mol T*S(tot)=    21.34 kcal/mol
 sn= 4  qrot/sn=   28655.8852 T*S(rot)=     6.97 kcal/mol T*S(tot)=    21.17 kcal/mol
 sn= 5  qrot/sn=   22924.7081 T*S(rot)=     6.84 kcal/mol T*S(tot)=    21.03 kcal/mol
 sn= 6  qrot/sn=   19103.9235 T*S(rot)=     6.73 kcal/mol T*S(tot)=    20.93 kcal/mol
 sn= 7  qrot/sn=   16374.7915 T*S(rot)=     6.64 kcal/mol T*S(tot)=    20.83 kcal/mol
 sn= 8  qrot/sn=   14327.9426 T*S(rot)=     6.56 kcal/mol T*S(tot)=    20.76 kcal/mol
 sn= 9  qrot/sn=   12735.9490 T*S(rot)=     6.49 kcal/mol T*S(tot)=    20.69 kcal/mol
 sn=10  qrot/sn=   11462.3541 T*S(rot)=     6.43 kcal/mol T*S(tot)=    20.62 kcal/mol
 sn=11  qrot/sn=   10420.3219 T*S(rot)=     6.37 kcal/mol T*S(tot)=    20.57 kcal/mol
 sn=12  qrot/sn=    9551.9617 T*S(rot)=     6.32 kcal/mol T*S(tot)=    20.52 kcal/mol

-------------------
GIBBS FREE ENTHALPY
-------------------

The Gibbs free enthalpy is G = H - T*S

Total enthalpy                    ...   -250.67819718 Eh
Total entropy correction          ...     -0.03400193 Eh    -21.34 kcal/mol
-----------------------------------------------------------------------
Final Gibbs free enthalpy         ...   -250.71219911 Eh

For completeness - the Gibbs free enthalpy minus the electronic energy
G-E(el)                           ...      0.12316323 Eh     77.29 kcal/mol

                             ****ORCA TERMINATED NORMALLY****
TOTAL RUN TIME: 0 days 0 hours 21 minutes 23 seconds 122 msec
