                         Program Version 3.0.3 - RELEASE   -
|  1> ! NORI PBE0 def2-TZVP UseSym TightOPT Freq TightSCF Grid3 FinalGrid5 XYZFile
|  2> % pal
|  3>     nprocs 8
|  4> end
|  5> %method
|  6>     SymThresh 5.0e-2
|  7> end
|  8> % geom
|  9>     MaxIter 10
| 10> end
| 11> % maxcore 2000
| 12> % output
| 13>     printlevel mini
| 14>     print[ P_Basis ] 0
| 15>     print[ P_SCFInfo ] 1
| 16>     print[ P_SCFIterInfo ] 1
| 17>     print[ P_OrbEn ] 0
| 18>     print[ P_Cartesian ] 0
| 19> end
| 20> % elprop
| 21>     Dipole false
| 22> end
| 23> *xyz 1 1
| 24>  C        0.7294749436     1.2683581375    -0.2206448646
| 25>  C       -0.7239136485     1.2540516361     0.2339959650
| 26>  C       -1.4421048838     0.0078540013    -0.2360992185
| 27>  N       -0.6964984116    -1.2138421126     0.2242487753
| 28>  C        0.7297775138    -1.2417578540    -0.2497847607
| 29>  C        1.4516233399     0.0020960297     0.2207042106
| 30>  H        0.7740155314     1.3572987156    -1.3116463552
| 31>  H        1.2364800931     2.1457398070     0.1833728806
| 32>  H       -0.7836577755     1.3209749856     1.3268876997
| 33>  H       -1.2654990038     2.1191794306    -0.1540140611
| 34>  H       -1.4794068806    -0.0532306082    -1.3259082677
| 35>  H       -2.4581851328    -0.0665058850     0.1529720031
| 36>  H       -0.7042434022    -1.2384342732     1.2465314688
| 37>  H       -1.1821894749    -2.0549116217    -0.0899747028
| 38>  H        1.1791836798    -2.1603039977     0.1299521536
| 39>  H        0.6856068231    -1.2988439805    -1.3395177387
| 40>  H        2.4680037901    -0.0299137825    -0.1764072824
| 41>  H        1.5492928988    -0.0218886278     1.3126120950
| 42> *
| 43>
| 44>                          ****END OF INPUT****
 Total Charge           Charge          ....    1
 Multiplicity           Mult            ....    1
 Number of Electrons    NEL             ....   48
FINAL SINGLE POINT ENERGY      -252.068691899535
                    ***********************HURRAY********************
 Multiplicity           Mult            ....    1
 Number of Electrons    NEL             ....   48
 Basis Dimension        Dim             ....  258
FINAL SINGLE POINT ENERGY      -252.068692206892

VIBRATIONAL FREQUENCIES
-----------------------

   0:         0.00 cm**-1
   1:         0.00 cm**-1
   2:         0.00 cm**-1
   3:         0.00 cm**-1
   4:         0.00 cm**-1
   5:         0.00 cm**-1
   6:       230.76 cm**-1
   7:       235.00 cm**-1
   8:       378.21 cm**-1
   9:       424.60 cm**-1
  10:       443.82 cm**-1
  11:       526.94 cm**-1
  12:       802.29 cm**-1
  13:       803.54 cm**-1
  14:       810.87 cm**-1
  15:       874.71 cm**-1
  16:       885.76 cm**-1
  17:       917.12 cm**-1
  18:       949.03 cm**-1
  19:      1030.24 cm**-1
  20:      1047.05 cm**-1
  21:      1059.27 cm**-1
  22:      1105.13 cm**-1
  23:      1118.14 cm**-1
  24:      1177.00 cm**-1
  25:      1191.13 cm**-1
  26:      1299.98 cm**-1
  27:      1306.74 cm**-1
  28:      1321.88 cm**-1
  29:      1339.80 cm**-1
  30:      1362.80 cm**-1
  31:      1394.85 cm**-1
  32:      1399.34 cm**-1
  33:      1417.59 cm**-1
  34:      1422.01 cm**-1
  35:      1439.98 cm**-1
  36:      1476.79 cm**-1
  37:      1479.89 cm**-1
  38:      1486.90 cm**-1
  39:      1487.19 cm**-1
  40:      1506.05 cm**-1
  41:      1645.16 cm**-1
  42:      3044.95 cm**-1
  43:      3047.45 cm**-1
  44:      3062.12 cm**-1
  45:      3090.01 cm**-1
  46:      3090.90 cm**-1
  47:      3121.03 cm**-1
  48:      3121.64 cm**-1
  49:      3129.02 cm**-1
  50:      3149.76 cm**-1
  51:      3150.67 cm**-1
  52:      3438.74 cm**-1
  53:      3498.30 cm**-1

IR SPECTRUM
-----------

 Mode    freq (cm**-1)   T**2         TX         TY         TZ
-------------------------------------------------------------------
   6:       230.76    2.819865  (  0.865575  -1.438973   0.000069)
   7:       235.00    0.228312  ( -0.000125   0.000210   0.477820)
   8:       378.21    2.365489  (  1.243527  -0.905058   0.000002)
   9:       424.60    3.744357  (  1.935030  -0.003685  -0.000004)
  10:       443.82    0.592869  ( -0.000005  -0.000002  -0.769980)
  11:       526.94    3.016257  ( -0.688469   1.594449   0.000001)
  12:       802.29    0.428202  ( -0.000016  -0.000112   0.654371)
  13:       803.54    0.245790  (  0.229893   0.439248   0.000133)
  14:       810.87    1.324397  (  1.018179  -0.536385  -0.000019)
  15:       874.71    4.613443  ( -2.133464   0.248548   0.000023)
  16:       885.76    0.651367  (  0.000020   0.000009   0.807073)
  17:       917.12    7.625232  (  2.540419  -1.082361  -0.000021)
  18:       949.03   12.022552  (  0.000031  -0.000001   3.467355)
  19:      1030.24    9.939196  ( -0.000003  -0.000006   3.152649)
  20:      1047.05    2.258846  ( -0.649664  -1.355280   0.000002)
  21:      1059.27    6.979979  (  0.720768  -2.541746   0.000003)
  22:      1105.13    2.999931  ( -0.000001   0.000002  -1.732031)
  23:      1118.14    1.469895  ( -0.000002   0.000003  -1.212392)
  24:      1177.00    1.902626  ( -0.000000   0.000000   1.379357)
  25:      1191.13    0.526485  (  0.119884   0.715620   0.000006)
  26:      1299.98    0.034782  ( -0.000005  -0.000001   0.186500)
  27:      1306.74    5.894634  ( -2.352884   0.598808   0.000001)
  28:      1321.88   13.282204  (  0.000002   0.000002  -3.644476)
  29:      1339.80    3.145731  (  0.603637   1.667739  -0.000000)
  30:      1362.80    0.327616  ( -0.000002   0.000001   0.572377)
  31:      1394.85    0.004707  ( -0.000001   0.000001   0.068607)
  32:      1399.34    1.030860  (  0.478062  -0.895721  -0.000003)
  33:      1417.59   36.172916  ( -0.000000  -0.000000   6.014392)
  34:      1422.01    0.249216  ( -0.453558   0.208570  -0.000000)
  35:      1439.98   12.862929  (  0.000007   0.000004   3.586493)
  36:      1476.79    3.208741  ( -0.000009  -0.000014  -1.791296)
  37:      1479.89   12.816588  (  0.728888   3.505041  -0.000183)
  38:      1486.90   21.176156  (  4.090041  -2.108957  -0.004596)
  39:      1487.19    8.747474  (  0.006400  -0.003104   2.957604)
  40:      1506.05   13.831378  (  1.419361  -3.437556  -0.000028)
  41:      1645.16   72.330918  (  7.372489   4.239967  -0.000000)
  42:      3044.95    3.362968  ( -0.382318  -1.793544   0.000000)
  43:      3047.45    1.494950  (  0.000000   0.000001  -1.222681)
  44:      3062.12   19.813307  ( -2.095848  -3.926924  -0.000003)
  45:      3090.01    0.281050  (  0.000006   0.000006  -0.530142)
  46:      3090.90    5.494213  ( -1.359430   1.909493  -0.000003)
  47:      3121.03    1.893719  ( -0.000010  -0.000012  -1.376125)
  48:      3121.64    1.781252  ( -0.235384  -1.313715   0.000023)
  49:      3129.02    5.131857  (  1.220674  -1.908353  -0.000000)
  50:      3149.76    0.957701  ( -0.000021   0.000005   0.978622)
  51:      3150.67    2.084829  (  0.749308   1.234247   0.000008)
  52:      3438.74   44.485670  (  5.826354   3.246424   0.000000)
  53:      3498.30   69.341928  ( -5.261573   6.454284   0.000000)

--------------------------
THERMOCHEMISTRY AT 298.15K
--------------------------

Temperature         ... 298.15 K
Pressure            ... 1.00 atm
Total Mass          ... 86.16 AMU

Throughout the following assumptions are being made:
  (1) The electronic state is orbitally nondegenerate
  (2) There are no thermally accessible electronically excited states
  (3) Hindered rotations indicated by low frequency modes) are not
      treated as such but are treated as vibrations and this may
      case some error
  (4) All equations used are the standard statistical mechanics
      equations for an ideal gas
  (5) All vibrations are strinctly harmonic

------------
INNER ENERGY
------------

The inner energy is: U= E(el) + E(ZPE) + E(vib) + E(rot) + E(trans)
    E(el)   - is the total energy from the electronic structure calculation
              = E(kin-el) + E(nuc-el) + E(el-el) + E(nuc-nuc)
    E(ZPE)  - the the zero temperature vibrational energy from the frequency calculation
    E(vib)  - the the finite temperature correction to E(ZPE) due to population
              of excietd vibrational states
    E(rot)  - is the rotational thermal energy
    E(trans)- is the translational thermal energy

Summary of contributions to the inner energy U:
Electronic energy                ...   -252.06869221 Eh
Zero point energy                ...      0.17483145 Eh     109.71 kcal/mol
Thermal vibrational correction   ...      0.00284610 Eh       1.79 kcal/mol
Thermal rotational correction    ...      0.00141627 Eh       0.89 kcal/mol
Thermal translational correction ...      0.00141627 Eh       0.89 kcal/mol
-----------------------------------------------------------------------
Total thermal energy                   -251.88818211 Eh

Summary of corrections to the electronic energy:
(perhaps to be used in another calculation)
Total thermal correction                  0.00567865 Eh       3.56 kcal/mol
Non-thermal (ZPE) correction              0.17483145 Eh     109.71 kcal/mol
-----------------------------------------------------------------------
Total correction                          0.18051010 Eh     113.27 kcal/mol

--------
ENTHALPY
--------

The enthalpy is H = U + kB*T
                kB is Boltzmann's constant
Total free energy                 ...   -251.88818211 Eh
Thermal Enthalpy correction       ...      0.00094421 Eh       0.59 kcal/mol
-----------------------------------------------------------------------
Total Enthalpy                    ...   -251.88723790 Eh

-------
ENTROPY
-------

The entropy contributions are T*S = T*(S(el)+S(vib)+S(rot)+S(trans)
     S(el)   - electronic entropy
     S(vib)  - vibrational entropy
     S(rot)  - rotational entropy
     S(trans)- translational entropy
The entropies will be listed as mutliplied by the temperature to get
units of energy

Electronic entropy                ...      0.00000000 Eh      0.00 kcal/mol
Vibrational entropy               ...      0.00423741 Eh      2.66 kcal/mol
Rotational entropy                ...      0.01147236 Eh      7.20 kcal/mol
Translational entropy             ...      0.01866024 Eh     11.71 kcal/mol
-----------------------------------------------------------------------
Final entropy term                ...      0.03437000 Eh     21.57 kcal/mol

CAUTION: The rotational entropy is not quite correctly treated here
         because it includes a symmetry number that is not yet correctly
         implemented in ORCA!
For a nonlinear molecule the correct rotational entropy is:
    S(rot) = R*(ln(qrot/sn)+1.5)
    R    = 8.31441 J/mol/K = 1.987191683e-3 kcal/mol/K
    qrot = 126653.1982590
    sn is the rotational symmetry number. We have assumed 3 here
       if it is different for your molecule then you should correct
       the printed rotational entropy by manually evaluating the equation
       as given above

For convenience we print out the resulting values for sn=1 - 12:
 sn= 1  qrot/sn=  126653.1983 T*S(rot)=     7.85 kcal/mol T*S(tot)=    22.22 kcal/mol
 sn= 2  qrot/sn=   63326.5991 T*S(rot)=     7.44 kcal/mol T*S(tot)=    21.81 kcal/mol
 sn= 3  qrot/sn=   42217.7328 T*S(rot)=     7.20 kcal/mol T*S(tot)=    21.57 kcal/mol
 sn= 4  qrot/sn=   31663.2996 T*S(rot)=     7.03 kcal/mol T*S(tot)=    21.40 kcal/mol
 sn= 5  qrot/sn=   25330.6397 T*S(rot)=     6.90 kcal/mol T*S(tot)=    21.26 kcal/mol
 sn= 6  qrot/sn=   21108.8664 T*S(rot)=     6.79 kcal/mol T*S(tot)=    21.16 kcal/mol
 sn= 7  qrot/sn=   18093.3140 T*S(rot)=     6.70 kcal/mol T*S(tot)=    21.07 kcal/mol
 sn= 8  qrot/sn=   15831.6498 T*S(rot)=     6.62 kcal/mol T*S(tot)=    20.99 kcal/mol
 sn= 9  qrot/sn=   14072.5776 T*S(rot)=     6.55 kcal/mol T*S(tot)=    20.92 kcal/mol
 sn=10  qrot/sn=   12665.3198 T*S(rot)=     6.49 kcal/mol T*S(tot)=    20.85 kcal/mol
 sn=11  qrot/sn=   11513.9271 T*S(rot)=     6.43 kcal/mol T*S(tot)=    20.80 kcal/mol
 sn=12  qrot/sn=   10554.4332 T*S(rot)=     6.38 kcal/mol T*S(tot)=    20.75 kcal/mol

-------------------
GIBBS FREE ENTHALPY
-------------------

The Gibbs free enthalpy is G = H - T*S

Total enthalpy                    ...   -251.88723790 Eh
Total entropy correction          ...     -0.03437000 Eh    -21.57 kcal/mol
-----------------------------------------------------------------------
Final Gibbs free enthalpy         ...   -251.92160790 Eh

For completeness - the Gibbs free enthalpy minus the electronic energy
G-E(el)                           ...      0.14708431 Eh     92.30 kcal/mol

                             ****ORCA TERMINATED NORMALLY****
TOTAL RUN TIME: 0 days 0 hours 27 minutes 16 seconds 87 msec
