                         Program Version 3.0.3 - RELEASE   -
|  1> ! NORI PBE0 def2-TZVP UseSym TightOPT Freq TightSCF Grid3 FinalGrid5 XYZFile
|  2> % pal
|  3>     nprocs 8
|  4> end
|  5> %method
|  6>     SymThresh 5.0e-2
|  7> end
|  8> % geom
|  9>     MaxIter 10
| 10> end
| 11> % maxcore 2000
| 12> % output
| 13>     printlevel mini
| 14>     print[ P_Basis ] 0
| 15>     print[ P_SCFInfo ] 1
| 16>     print[ P_SCFIterInfo ] 1
| 17>     print[ P_OrbEn ] 0
| 18>     print[ P_Cartesian ] 0
| 19> end
| 20> % elprop
| 21>     Dipole false
| 22> end
| 23> *xyz 1 1
| 24>  C        0.8573271605    -0.0314331024     0.9724312569
| 25>  C        0.2921649838    -1.0779431140    -0.0044199574
| 26>  C        0.7399306781    -0.0902201742    -1.0970006938
| 27>  N        0.3341489013     0.9418134526    -0.0642907966
| 28>  C       -1.1554798477     0.7598114429     0.0247758277
| 29>  C       -1.2096438067    -0.7840145429     0.0732873061
| 30>  H        0.4087031867     0.0925530412     1.9570720255
| 31>  H        1.9439414617     0.0188447116     1.0088385511
| 32>  H        0.6260189451    -2.1095787811     0.0060409328
| 33>  H        1.8150211161    -0.0453072202    -1.2586329241
| 34>  H        0.1820448423    -0.0202336592    -2.0298730231
| 35>  H        0.6769073156     1.9001940237    -0.1108998131
| 36>  H       -1.6191831285     1.2031877242    -0.8547581120
| 37>  H       -1.5202092375     1.2558810720     0.9225244549
| 38>  H       -1.6559315711    -1.1519419021     0.9964559209
| 39>  H       -1.7589309996    -1.2045029720    -0.7681809559
| 40> *
| 41>
| 42>                          ****END OF INPUT****
 Total Charge           Charge          ....    1
 Multiplicity           Mult            ....    1
 Number of Electrons    NEL             ....   46
FINAL SINGLE POINT ENERGY      -250.813063321192

CARTESIAN COORDINATES (ANGSTROEM)
---------------------------------
  C      0.248692   -0.785560    1.036739
  C     -0.882442   -0.665500   -0.000000
  C      0.248692   -0.785560   -1.036739
  N      1.025829   -0.000002    0.000000
  C      0.332582    1.334089   -0.000000
  C     -1.134016    0.846146    0.000000
  H      0.162990   -0.279782    1.997363
  H      0.672620   -1.783055    1.135941
  H     -1.732436   -1.338636   -0.000000
  H      0.672620   -1.783055   -1.135941
  H      0.162990   -0.279782   -1.997363
  H      2.044541    0.012746    0.000000
  H      0.627705    1.886583   -0.890302
  H      0.627705    1.886583    0.890302
  H     -1.678203    1.175723    0.884076
  H     -1.678203    1.175723   -0.884076

FINAL SINGLE POINT ENERGY      -250.813063622740
                    ***********************HURRAY********************
 Multiplicity           Mult            ....    1
 Number of Electrons    NEL             ....   46
 Basis Dimension        Dim             ....  246
FINAL SINGLE POINT ENERGY      -250.813063682581

VIBRATIONAL FREQUENCIES
-----------------------

   0:         0.00 cm**-1
   1:         0.00 cm**-1
   2:         0.00 cm**-1
   3:         0.00 cm**-1
   4:         0.00 cm**-1
   5:         0.00 cm**-1
   6:       314.11 cm**-1
   7:       444.83 cm**-1
   8:       529.52 cm**-1
   9:       662.13 cm**-1
  10:       831.10 cm**-1
  11:       848.58 cm**-1
  12:       853.13 cm**-1
  13:       862.24 cm**-1
  14:       871.04 cm**-1
  15:       929.69 cm**-1
  16:       956.03 cm**-1
  17:       971.60 cm**-1
  18:       996.75 cm**-1
  19:      1053.89 cm**-1
  20:      1056.21 cm**-1
  21:      1095.95 cm**-1
  22:      1117.83 cm**-1
  23:      1172.89 cm**-1
  24:      1180.86 cm**-1
  25:      1211.08 cm**-1
  26:      1257.47 cm**-1
  27:      1265.11 cm**-1
  28:      1275.93 cm**-1
  29:      1284.51 cm**-1
  30:      1312.80 cm**-1
  31:      1328.26 cm**-1
  32:      1360.47 cm**-1
  33:      1389.58 cm**-1
  34:      1492.38 cm**-1
  35:      1499.97 cm**-1
  36:      1504.91 cm**-1
  37:      1539.65 cm**-1
  38:      3112.50 cm**-1
  39:      3113.84 cm**-1
  40:      3117.15 cm**-1
  41:      3120.96 cm**-1
  42:      3163.19 cm**-1
  43:      3184.48 cm**-1
  44:      3193.83 cm**-1
  45:      3196.41 cm**-1
  46:      3208.33 cm**-1
  47:      3507.77 cm**-1

IR SPECTRUM
-----------

 Mode    freq (cm**-1)   T**2         TX         TY         TZ
-------------------------------------------------------------------
   6:       314.11    0.022251  ( -0.000002  -0.000009  -0.149169)
   7:       444.83    0.118738  ( -0.000002  -0.000004  -0.344584)
   8:       529.52    0.064249  ( -0.167142  -0.190559  -0.000001)
   9:       662.13    0.697177  (  0.644295   0.531094  -0.000003)
  10:       831.10    1.954336  (  0.000029   0.000015  -1.397976)
  11:       848.58    3.843377  ( -0.000011   0.000009   1.960453)
  12:       853.13    7.287822  (  2.685220   0.278233   0.000019)
  13:       862.24    4.247908  ( -0.192601   2.052027   0.000002)
  14:       871.04    0.191744  (  0.000041   0.000044   0.437885)
  15:       929.69    0.812887  (  0.782209   0.448372   0.000007)
  16:       956.03    3.200493  ( -0.443162  -1.733234   0.000009)
  17:       971.60    0.000239  (  0.000014   0.000058  -0.015454)
  18:       996.75    2.683541  (  0.003139  -1.638149  -0.000013)
  19:      1053.89    0.238477  (  0.475144   0.112761   0.000004)
  20:      1056.21    0.050517  ( -0.000029  -0.000015   0.224760)
  21:      1095.95    0.924183  ( -0.497228   0.822768  -0.000011)
  22:      1117.83    1.897535  (  0.000000   0.000005   1.377510)
  23:      1172.89    1.635843  ( -0.212116  -1.261289   0.000098)
  24:      1180.86    9.044405  ( -0.000009  -0.000049  -3.007392)
  25:      1211.08   11.184009  (  0.000016   0.000011   3.344250)
  26:      1257.47    3.219626  (  0.000036  -0.000002   1.794331)
  27:      1265.11    6.759515  (  1.602868  -2.047029  -0.000092)
  28:      1275.93    0.927950  ( -0.000004   0.000048  -0.963301)
  29:      1284.51    7.686984  ( -0.578720   2.711470  -0.000072)
  30:      1312.80    2.475150  ( -0.128005   1.568045   0.000065)
  31:      1328.26   33.751243  ( -0.000020  -0.000040   5.809582)
  32:      1360.47   21.056582  (  3.477940   2.993412   0.000025)
  33:      1389.58   21.646705  ( -0.714317   4.597440   0.000010)
  34:      1492.38   12.770350  (  0.000010  -0.000000   3.573563)
  35:      1499.97    6.677816  (  2.414610   0.920584   0.000001)
  36:      1504.91   10.387121  (  1.652864  -2.766796  -0.000013)
  37:      1539.65    3.028990  ( -1.661485  -0.518128  -0.000009)
  38:      3112.50    2.666837  (  1.556338  -0.494620  -0.000097)
  39:      3113.84    2.983516  (  0.000087  -0.000025   1.727286)
  40:      3117.15    0.357620  (  0.018795   0.597718  -0.000002)
  41:      3120.96    1.120280  ( -0.588864  -0.879500   0.000015)
  42:      3163.19    0.507835  (  0.000000  -0.000010  -0.712626)
  43:      3184.48    0.008835  ( -0.000000  -0.000004  -0.093996)
  44:      3193.83    1.130869  ( -0.000002   0.000002   1.063423)
  45:      3196.41    0.078283  ( -0.129219   0.248165  -0.000003)
  46:      3208.33    0.071627  ( -0.194931  -0.183383  -0.000000)
  47:      3507.77   68.326313  (  8.264890   0.133809   0.000000)

--------------------------
THERMOCHEMISTRY AT 298.15K
--------------------------

Temperature         ... 298.15 K
Pressure            ... 1.00 atm
Total Mass          ... 84.14 AMU

Throughout the following assumptions are being made:
  (1) The electronic state is orbitally nondegenerate
  (2) There are no thermally accessible electronically excited states
  (3) Hindered rotations indicated by low frequency modes) are not
      treated as such but are treated as vibrations and this may
      case some error
  (4) All equations used are the standard statistical mechanics
      equations for an ideal gas
  (5) All vibrations are strinctly harmonic

------------
INNER ENERGY
------------

The inner energy is: U= E(el) + E(ZPE) + E(vib) + E(rot) + E(trans)
    E(el)   - is the total energy from the electronic structure calculation
              = E(kin-el) + E(nuc-el) + E(el-el) + E(nuc-nuc)
    E(ZPE)  - the the zero temperature vibrational energy from the frequency calculation
    E(vib)  - the the finite temperature correction to E(ZPE) due to population
              of excietd vibrational states
    E(rot)  - is the rotational thermal energy
    E(trans)- is the translational thermal energy

Summary of contributions to the inner energy U:
Electronic energy                ...   -250.81306368 Eh
Zero point energy                ...      0.15124516 Eh      94.91 kcal/mol
Thermal vibrational correction   ...      0.00176314 Eh       1.11 kcal/mol
Thermal rotational correction    ...      0.00141627 Eh       0.89 kcal/mol
Thermal translational correction ...      0.00141627 Eh       0.89 kcal/mol
-----------------------------------------------------------------------
Total thermal energy                   -250.65722284 Eh

Summary of corrections to the electronic energy:
(perhaps to be used in another calculation)
Total thermal correction                  0.00459568 Eh       2.88 kcal/mol
Non-thermal (ZPE) correction              0.15124516 Eh      94.91 kcal/mol
-----------------------------------------------------------------------
Total correction                          0.15584084 Eh      97.79 kcal/mol

--------
ENTHALPY
--------

The enthalpy is H = U + kB*T
                kB is Boltzmann's constant
Total free energy                 ...   -250.65722284 Eh
Thermal Enthalpy correction       ...      0.00094421 Eh       0.59 kcal/mol
-----------------------------------------------------------------------
Total Enthalpy                    ...   -250.65627864 Eh

-------
ENTROPY
-------

The entropy contributions are T*S = T*(S(el)+S(vib)+S(rot)+S(trans)
     S(el)   - electronic entropy
     S(vib)  - vibrational entropy
     S(rot)  - rotational entropy
     S(trans)- translational entropy
The entropies will be listed as mutliplied by the temperature to get
units of energy

Electronic entropy                ...      0.00000000 Eh      0.00 kcal/mol
Vibrational entropy               ...      0.00239118 Eh      1.50 kcal/mol
Rotational entropy                ...      0.01112151 Eh      6.98 kcal/mol
Translational entropy             ...      0.01862670 Eh     11.69 kcal/mol
-----------------------------------------------------------------------
Final entropy term                ...      0.03213939 Eh     20.17 kcal/mol

CAUTION: The rotational entropy is not quite correctly treated here
         because it includes a symmetry number that is not yet correctly
         implemented in ORCA!
For a nonlinear molecule the correct rotational entropy is:
    S(rot) = R*(ln(qrot/sn)+1.5)
    R    = 8.31441 J/mol/K = 1.987191683e-3 kcal/mol/K
    qrot = 87344.1658241
    sn is the rotational symmetry number. We have assumed 3 here
       if it is different for your molecule then you should correct
       the printed rotational entropy by manually evaluating the equation
       as given above

For convenience we print out the resulting values for sn=1 - 12:
 sn= 1  qrot/sn=   87344.1658 T*S(rot)=     7.63 kcal/mol T*S(tot)=    20.82 kcal/mol
 sn= 2  qrot/sn=   43672.0829 T*S(rot)=     7.22 kcal/mol T*S(tot)=    20.41 kcal/mol
 sn= 3  qrot/sn=   29114.7219 T*S(rot)=     6.98 kcal/mol T*S(tot)=    20.17 kcal/mol
 sn= 4  qrot/sn=   21836.0415 T*S(rot)=     6.81 kcal/mol T*S(tot)=    20.00 kcal/mol
 sn= 5  qrot/sn=   17468.8332 T*S(rot)=     6.68 kcal/mol T*S(tot)=    19.87 kcal/mol
 sn= 6  qrot/sn=   14557.3610 T*S(rot)=     6.57 kcal/mol T*S(tot)=    19.76 kcal/mol
 sn= 7  qrot/sn=   12477.7380 T*S(rot)=     6.48 kcal/mol T*S(tot)=    19.67 kcal/mol
 sn= 8  qrot/sn=   10918.0207 T*S(rot)=     6.40 kcal/mol T*S(tot)=    19.59 kcal/mol
 sn= 9  qrot/sn=    9704.9073 T*S(rot)=     6.33 kcal/mol T*S(tot)=    19.52 kcal/mol
 sn=10  qrot/sn=    8734.4166 T*S(rot)=     6.27 kcal/mol T*S(tot)=    19.45 kcal/mol
 sn=11  qrot/sn=    7940.3787 T*S(rot)=     6.21 kcal/mol T*S(tot)=    19.40 kcal/mol
 sn=12  qrot/sn=    7278.6805 T*S(rot)=     6.16 kcal/mol T*S(tot)=    19.35 kcal/mol

-------------------
GIBBS FREE ENTHALPY
-------------------

The Gibbs free enthalpy is G = H - T*S

Total enthalpy                    ...   -250.65627864 Eh
Total entropy correction          ...     -0.03213939 Eh    -20.17 kcal/mol
-----------------------------------------------------------------------
Final Gibbs free enthalpy         ...   -250.68841803 Eh

For completeness - the Gibbs free enthalpy minus the electronic energy
G-E(el)                           ...      0.12464565 Eh     78.22 kcal/mol

                             ****ORCA TERMINATED NORMALLY****
TOTAL RUN TIME: 0 days 0 hours 22 minutes 52 seconds 375 msec
