                         Program Version 3.0.3 - RELEASE   -
|  1> ! NORI PBE0 def2-TZVP UseSym TightOPT Freq TightSCF Grid3 FinalGrid5 XYZFile
|  2> % pal
|  3>     nprocs 8
|  4> end
|  5> %method
|  6>     SymThresh 5.0e-2
|  7> end
|  8> % geom
|  9>     MaxIter 10
| 10> end
| 11> % maxcore 2000
| 12> % output
| 13>     printlevel mini
| 14>     print[ P_Basis ] 0
| 15>     print[ P_SCFInfo ] 1
| 16>     print[ P_SCFIterInfo ] 1
| 17>     print[ P_OrbEn ] 0
| 18>     print[ P_Cartesian ] 0
| 19> end
| 20> % elprop
| 21>     Dipole false
| 22> end
| 23> *xyz 1 1
| 24>  C        0.8831485842    -0.0087047148     1.0008627245
| 25>  C        0.3222872474    -1.0358654912    -0.0116076746
| 26>  C        0.7436739066    -0.0294454770    -1.1094875163
| 27>  C        0.3636983830     0.9948477005    -0.0343467514
| 28>  N       -1.1287942541     0.7507050160     0.0665743818
| 29>  C       -1.1723022726    -0.7775819698     0.0844346798
| 30>  H        0.4770940631     0.0208508624     2.0145758965
| 31>  H        1.9706167390    -0.0076502115     1.0311447622
| 32>  H        0.6270680388    -2.0783373204    -0.0214024527
| 33>  H        1.8173931204    -0.0301997519    -1.2825694239
| 34>  H        0.2075760385    -0.0193041784    -2.0613838347
| 35>  H        0.5970226977     2.0569447156    -0.0599866192
| 36>  H       -1.6331449705     1.1402071164    -0.7289478241
| 37>  H       -1.5251610692     1.1567289364     0.9133613553
| 38>  H       -1.6346727821    -1.1118719434     1.0118517732
| 39>  H       -1.7517834705    -1.1290032889    -0.7678334765
| 40> *
| 41>
| 42>                          ****END OF INPUT****
 Total Charge           Charge          ....    1
 Multiplicity           Mult            ....    1
 Number of Electrons    NEL             ....   46
FINAL SINGLE POINT ENERGY      -250.819291990869

CARTESIAN COORDINATES (ANGSTROEM)
---------------------------------
  C     -0.714503   -0.461625    1.057645
  C     -0.881252    0.655685   -0.000000
  C     -0.714503   -0.461625   -1.057645
  C      0.228601   -1.045355    0.000000
  N      1.326446   -0.000026   -0.000000
  C      0.501292    1.287253    0.000000
  H     -0.313249   -0.211576    2.042287
  H     -1.608696   -1.072454    1.160028
  H     -1.720823    1.344675   -0.000000
  H     -1.608696   -1.072454   -1.160028
  H     -0.313249   -0.211576   -2.042287
  H      0.633902   -2.054550    0.000000
  H      1.923357   -0.074134   -0.822949
  H      1.923357   -0.074134    0.822949
  H      0.739284    1.864818    0.891635
  H      0.739284    1.864818   -0.891635

FINAL SINGLE POINT ENERGY      -250.819292394651
                    ***********************HURRAY********************
 Multiplicity           Mult            ....    1
 Number of Electrons    NEL             ....   46
 Basis Dimension        Dim             ....  246
FINAL SINGLE POINT ENERGY      -250.819292440188

VIBRATIONAL FREQUENCIES
-----------------------

   0:         0.00 cm**-1
   1:         0.00 cm**-1
   2:         0.00 cm**-1
   3:         0.00 cm**-1
   4:         0.00 cm**-1
   5:         0.00 cm**-1
   6:       309.62 cm**-1
   7:       440.43 cm**-1
   8:       513.33 cm**-1
   9:       657.65 cm**-1
  10:       814.43 cm**-1
  11:       853.34 cm**-1
  12:       858.71 cm**-1
  13:       858.94 cm**-1
  14:       877.44 cm**-1
  15:       892.53 cm**-1
  16:       951.47 cm**-1
  17:       964.84 cm**-1
  18:       969.32 cm**-1
  19:       994.89 cm**-1
  20:      1052.37 cm**-1
  21:      1086.43 cm**-1
  22:      1095.59 cm**-1
  23:      1132.46 cm**-1
  24:      1163.88 cm**-1
  25:      1174.71 cm**-1
  26:      1236.08 cm**-1
  27:      1254.56 cm**-1
  28:      1269.96 cm**-1
  29:      1299.17 cm**-1
  30:      1305.86 cm**-1
  31:      1320.59 cm**-1
  32:      1365.16 cm**-1
  33:      1372.62 cm**-1
  34:      1478.60 cm**-1
  35:      1501.26 cm**-1
  36:      1517.26 cm**-1
  37:      1655.47 cm**-1
  38:      3090.60 cm**-1
  39:      3092.40 cm**-1
  40:      3117.78 cm**-1
  41:      3171.79 cm**-1
  42:      3175.58 cm**-1
  43:      3181.02 cm**-1
  44:      3182.08 cm**-1
  45:      3185.24 cm**-1
  46:      3470.17 cm**-1
  47:      3531.21 cm**-1

IR SPECTRUM
-----------

 Mode    freq (cm**-1)   T**2         TX         TY         TZ
-------------------------------------------------------------------
   6:       309.62    2.840555  ( -0.000000  -0.000001  -1.685395)
   7:       440.43    2.844960  (  0.000001   0.000004   1.686701)
   8:       513.33    0.830477  (  0.863706   0.290670  -0.000005)
   9:       657.65    3.533397  ( -1.877301   0.095592  -0.000000)
  10:       814.43    0.222768  (  0.131919   0.453172   0.000002)
  11:       853.34    0.462961  (  0.000002  -0.000004   0.680412)
  12:       858.71   12.400377  (  3.148836  -1.576455  -0.000512)
  13:       858.94    5.118312  ( -0.000714   0.000359  -2.262368)
  14:       877.44    0.021002  ( -0.000012   0.000011  -0.144922)
  15:       892.53    0.058805  ( -0.192476  -0.147507   0.000004)
  16:       951.47    6.837170  (  0.397996   2.584331   0.000018)
  17:       964.84    1.071095  ( -0.000019   0.000035   1.034937)
  18:       969.32    1.238421  (  0.127174  -1.105553   0.000051)
  19:       994.89    0.389690  ( -0.000009  -0.000036   0.624252)
  20:      1052.37    5.940462  ( -1.371165  -2.015036  -0.000001)
  21:      1086.43    0.004338  (  0.000003  -0.000004   0.065861)
  22:      1095.59    0.854559  ( -0.924232  -0.018843  -0.000005)
  23:      1132.46    2.489601  (  1.427019  -0.673216  -0.000001)
  24:      1163.88    0.117254  ( -0.000000   0.000005   0.342423)
  25:      1174.71   14.981518  ( -0.000000  -0.000004   3.870597)
  26:      1236.08    0.292276  ( -0.000000  -0.000005  -0.540626)
  27:      1254.56   27.290004  (  1.964672   4.840462   0.000002)
  28:      1269.96   11.135657  ( -2.227505   2.484729   0.000001)
  29:      1299.17    0.002806  (  0.000001   0.000003  -0.052969)
  30:      1305.86    1.687856  (  1.292113   0.135276  -0.000002)
  31:      1320.59    1.845984  (  0.000002   0.000000   1.358670)
  32:      1365.16    3.845905  (  1.139433  -1.596119   0.000001)
  33:      1372.62   53.820016  ( -0.419791   7.324192   0.000001)
  34:      1478.60   13.994224  (  0.000025   0.000011   3.740885)
  35:      1501.26   11.776089  ( -2.529075  -2.319454   0.000027)
  36:      1517.26    2.402110  ( -1.373783   0.717517   0.000023)
  37:      1655.47   62.109322  (  7.867265  -0.464175   0.000000)
  38:      3090.60   15.530566  (  0.000945   0.000289  -3.940884)
  39:      3092.40    1.835333  (  1.293553   0.402550   0.002858)
  40:      3117.78    2.549180  ( -0.806379  -1.378017  -0.000007)
  41:      3171.79    1.842044  (  0.958361  -0.961035  -0.000030)
  42:      3175.58    3.511366  ( -0.000032   0.000053  -1.873864)
  43:      3181.02    0.426441  ( -0.054155   0.650775   0.000068)
  44:      3182.08    0.661826  (  0.000001   0.000024   0.813527)
  45:      3185.24    0.265849  ( -0.122882  -0.500749   0.000027)
  46:      3470.17   62.565864  (  7.816673  -1.210573   0.000000)
  47:      3531.21   73.358637  ( -0.000000   0.000000  -8.564966)

--------------------------
THERMOCHEMISTRY AT 298.15K
--------------------------

Temperature         ... 298.15 K
Pressure            ... 1.00 atm
Total Mass          ... 84.14 AMU

Throughout the following assumptions are being made:
  (1) The electronic state is orbitally nondegenerate
  (2) There are no thermally accessible electronically excited states
  (3) Hindered rotations indicated by low frequency modes) are not
      treated as such but are treated as vibrations and this may
      case some error
  (4) All equations used are the standard statistical mechanics
      equations for an ideal gas
  (5) All vibrations are strinctly harmonic

------------
INNER ENERGY
------------

The inner energy is: U= E(el) + E(ZPE) + E(vib) + E(rot) + E(trans)
    E(el)   - is the total energy from the electronic structure calculation
              = E(kin-el) + E(nuc-el) + E(el-el) + E(nuc-nuc)
    E(ZPE)  - the the zero temperature vibrational energy from the frequency calculation
    E(vib)  - the the finite temperature correction to E(ZPE) due to population
              of excietd vibrational states
    E(rot)  - is the rotational thermal energy
    E(trans)- is the translational thermal energy

Summary of contributions to the inner energy U:
Electronic energy                ...   -250.81929244 Eh
Zero point energy                ...      0.15135424 Eh      94.98 kcal/mol
Thermal vibrational correction   ...      0.00181943 Eh       1.14 kcal/mol
Thermal rotational correction    ...      0.00141627 Eh       0.89 kcal/mol
Thermal translational correction ...      0.00141627 Eh       0.89 kcal/mol
-----------------------------------------------------------------------
Total thermal energy                   -250.66328623 Eh

Summary of corrections to the electronic energy:
(perhaps to be used in another calculation)
Total thermal correction                  0.00465197 Eh       2.92 kcal/mol
Non-thermal (ZPE) correction              0.15135424 Eh      94.98 kcal/mol
-----------------------------------------------------------------------
Total correction                          0.15600621 Eh      97.90 kcal/mol

--------
ENTHALPY
--------

The enthalpy is H = U + kB*T
                kB is Boltzmann's constant
Total free energy                 ...   -250.66328623 Eh
Thermal Enthalpy correction       ...      0.00094421 Eh       0.59 kcal/mol
-----------------------------------------------------------------------
Total Enthalpy                    ...   -250.66234203 Eh

-------
ENTROPY
-------

The entropy contributions are T*S = T*(S(el)+S(vib)+S(rot)+S(trans)
     S(el)   - electronic entropy
     S(vib)  - vibrational entropy
     S(rot)  - rotational entropy
     S(trans)- translational entropy
The entropies will be listed as mutliplied by the temperature to get
units of energy

Electronic entropy                ...      0.00000000 Eh      0.00 kcal/mol
Vibrational entropy               ...      0.00247206 Eh      1.55 kcal/mol
Rotational entropy                ...      0.01113754 Eh      6.99 kcal/mol
Translational entropy             ...      0.01862670 Eh     11.69 kcal/mol
-----------------------------------------------------------------------
Final entropy term                ...      0.03223630 Eh     20.23 kcal/mol

CAUTION: The rotational entropy is not quite correctly treated here
         because it includes a symmetry number that is not yet correctly
         implemented in ORCA!
For a nonlinear molecule the correct rotational entropy is:
    S(rot) = R*(ln(qrot/sn)+1.5)
    R    = 8.31441 J/mol/K = 1.987191683e-3 kcal/mol/K
    qrot = 88839.9293496
    sn is the rotational symmetry number. We have assumed 3 here
       if it is different for your molecule then you should correct
       the printed rotational entropy by manually evaluating the equation
       as given above

For convenience we print out the resulting values for sn=1 - 12:
 sn= 1  qrot/sn=   88839.9293 T*S(rot)=     7.64 kcal/mol T*S(tot)=    20.88 kcal/mol
 sn= 2  qrot/sn=   44419.9647 T*S(rot)=     7.23 kcal/mol T*S(tot)=    20.47 kcal/mol
 sn= 3  qrot/sn=   29613.3098 T*S(rot)=     6.99 kcal/mol T*S(tot)=    20.23 kcal/mol
 sn= 4  qrot/sn=   22209.9823 T*S(rot)=     6.82 kcal/mol T*S(tot)=    20.06 kcal/mol
 sn= 5  qrot/sn=   17767.9859 T*S(rot)=     6.69 kcal/mol T*S(tot)=    19.93 kcal/mol
 sn= 6  qrot/sn=   14806.6549 T*S(rot)=     6.58 kcal/mol T*S(tot)=    19.82 kcal/mol
 sn= 7  qrot/sn=   12691.4185 T*S(rot)=     6.49 kcal/mol T*S(tot)=    19.73 kcal/mol
 sn= 8  qrot/sn=   11104.9912 T*S(rot)=     6.41 kcal/mol T*S(tot)=    19.65 kcal/mol
 sn= 9  qrot/sn=    9871.1033 T*S(rot)=     6.34 kcal/mol T*S(tot)=    19.58 kcal/mol
 sn=10  qrot/sn=    8883.9929 T*S(rot)=     6.28 kcal/mol T*S(tot)=    19.52 kcal/mol
 sn=11  qrot/sn=    8076.3572 T*S(rot)=     6.22 kcal/mol T*S(tot)=    19.46 kcal/mol
 sn=12  qrot/sn=    7403.3274 T*S(rot)=     6.17 kcal/mol T*S(tot)=    19.41 kcal/mol

-------------------
GIBBS FREE ENTHALPY
-------------------

The Gibbs free enthalpy is G = H - T*S

Total enthalpy                    ...   -250.66234203 Eh
Total entropy correction          ...     -0.03223630 Eh    -20.23 kcal/mol
-----------------------------------------------------------------------
Final Gibbs free enthalpy         ...   -250.69457833 Eh

For completeness - the Gibbs free enthalpy minus the electronic energy
G-E(el)                           ...      0.12471411 Eh     78.26 kcal/mol

                             ****ORCA TERMINATED NORMALLY****
TOTAL RUN TIME: 0 days 0 hours 22 minutes 57 seconds 576 msec
