                         Program Version 3.0.3 - RELEASE   -
|  1> ! NORI PBE0 def2-TZVP UseSym TightOPT Freq TightSCF Grid3 FinalGrid5 XYZFile
|  2> % pal
|  3>     nprocs 8
|  4> end
|  5> %method
|  6>     SymThresh 5.0e-2
|  7> end
|  8> % geom
|  9>     MaxIter 10
| 10> end
| 11> % maxcore 2000
| 12> % output
| 13>     printlevel mini
| 14>     print[ P_Basis ] 0
| 15>     print[ P_SCFInfo ] 1
| 16>     print[ P_SCFIterInfo ] 1
| 17>     print[ P_OrbEn ] 0
| 18>     print[ P_Cartesian ] 0
| 19> end
| 20> % elprop
| 21>     Dipole false
| 22> end
| 23> *xyz 1 1
| 24>  C        0.6443996734     1.1255921194    -0.8306460776
| 25>  C       -0.3546201831     0.8810845289     0.2555174344
| 26>  C       -1.4600234511    -0.0955132698    -0.0230044988
| 27>  N       -0.7438998928    -1.2784389641    -0.6330010080
| 28>  C        0.6486885565    -1.3144408213    -0.0461421591
| 29>  C        0.9480391177     0.1279236569     0.2417770414
| 30>  H        0.4411364608     0.7913016940    -1.8449670194
| 31>  H        1.1847661336     2.0621139258    -0.7942257521
| 32>  H       -0.5549455211     1.6500540010     0.9894550723
| 33>  H       -1.9381749078    -0.4352175170     0.8963073391
| 34>  H       -2.2253270813     0.2424105213    -0.7233531825
| 35>  H       -1.2475550185    -2.1514275387    -0.4782995047
| 36>  H       -0.6819689382    -1.1532714097    -1.6425592478
| 37>  H        1.3115880589    -1.8022485436    -0.7624818719
| 38>  H        0.6083816172    -1.9069594765     0.8684810118
| 39>  H        1.7257053759     0.3311870935     0.9657624229
| 40> *
| 41>
| 42>                          ****END OF INPUT****
 Total Charge           Charge          ....    1
 Multiplicity           Mult            ....    1
 Number of Electrons    NEL             ....   46
FINAL SINGLE POINT ENERGY      -250.825773282759

CARTESIAN COORDINATES (ANGSTROEM)
---------------------------------
  C     -1.179365   -1.065297   -0.000000
  C     -0.845770    0.183872    0.752254
  C      0.570610    0.357487    1.217689
  N      1.391120   -0.000609    0.000000
  C      0.570610    0.357487   -1.217689
  C     -0.845770    0.183872   -0.752254
  H     -0.487547   -1.903456   -0.000000
  H     -2.216379   -1.372974   -0.000000
  H     -1.612655    0.696309    1.317200
  H      0.786782    1.396357    1.470010
  H      0.880292   -0.285409    2.042740
  H      2.298391    0.464264   -0.000000
  H      1.577459   -1.002650    0.000000
  H      0.880292   -0.285409   -2.042740
  H      0.786782    1.396357   -1.470011
  H     -1.612655    0.696309   -1.317200

FINAL SINGLE POINT ENERGY      -250.825774044007
                    ***********************HURRAY********************
 Multiplicity           Mult            ....    1
 Number of Electrons    NEL             ....   46
 Basis Dimension        Dim             ....  246
FINAL SINGLE POINT ENERGY      -250.825774303091

VIBRATIONAL FREQUENCIES
-----------------------

   0:         0.00 cm**-1
   1:         0.00 cm**-1
   2:         0.00 cm**-1
   3:         0.00 cm**-1
   4:         0.00 cm**-1
   5:         0.00 cm**-1
   6:       217.07 cm**-1
   7:       290.93 cm**-1
   8:       391.78 cm**-1
   9:       622.86 cm**-1
  10:       641.55 cm**-1
  11:       787.00 cm**-1
  12:       833.07 cm**-1
  13:       843.74 cm**-1
  14:       879.50 cm**-1
  15:       897.36 cm**-1
  16:       899.98 cm**-1
  17:       977.49 cm**-1
  18:       992.22 cm**-1
  19:      1038.20 cm**-1
  20:      1066.59 cm**-1
  21:      1077.21 cm**-1
  22:      1097.44 cm**-1
  23:      1112.39 cm**-1
  24:      1141.46 cm**-1
  25:      1198.03 cm**-1
  26:      1208.31 cm**-1
  27:      1249.59 cm**-1
  28:      1308.69 cm**-1
  29:      1344.44 cm**-1
  30:      1388.47 cm**-1
  31:      1388.87 cm**-1
  32:      1409.43 cm**-1
  33:      1418.04 cm**-1
  34:      1495.24 cm**-1
  35:      1502.05 cm**-1
  36:      1506.92 cm**-1
  37:      1648.65 cm**-1
  38:      3097.38 cm**-1
  39:      3098.99 cm**-1
  40:      3135.73 cm**-1
  41:      3155.23 cm**-1
  42:      3156.04 cm**-1
  43:      3221.36 cm**-1
  44:      3226.06 cm**-1
  45:      3242.58 cm**-1
  46:      3476.00 cm**-1
  47:      3529.98 cm**-1

IR SPECTRUM
-----------

 Mode    freq (cm**-1)   T**2         TX         TY         TZ
-------------------------------------------------------------------
   6:       217.07    6.182591  ( -1.754004  -1.762402   0.000013)
   7:       290.93    0.045720  (  0.000039   0.000037   0.213823)
   8:       391.78    3.678540  (  1.348904   1.363451   0.000007)
   9:       622.86    1.362537  ( -0.000007   0.000000  -1.167278)
  10:       641.55    6.889332  ( -2.072617  -1.610463   0.000004)
  11:       787.00    9.443587  (  0.000003   0.000027  -3.073042)
  12:       833.07    8.716079  ( -0.386585   2.926881   0.000013)
  13:       843.74    4.420193  ( -0.256110  -2.086768  -0.000012)
  14:       879.50    3.284972  ( -1.632624  -0.787089   0.000018)
  15:       897.36    2.686679  ( -0.472747   1.569455  -0.000092)
  16:       899.98    6.942037  (  0.000008  -0.000058  -2.634774)
  17:       977.49    3.016719  ( -0.000019  -0.000007  -1.736870)
  18:       992.22   11.276094  (  3.311485   0.556923  -0.000015)
  19:      1038.20    3.377316  (  0.000018   0.000004   1.837748)
  20:      1066.59    4.950348  (  0.000028   0.000007   2.224938)
  21:      1077.21    0.445153  ( -0.473040   0.470518   0.000021)
  22:      1097.44    3.887503  (  0.000011   0.000007  -1.971675)
  23:      1112.39    1.094347  (  0.000024   0.000008   1.046111)
  24:      1141.46    0.097583  (  0.310713  -0.032261  -0.000001)
  25:      1198.03    0.646900  ( -0.000002  -0.000006  -0.804301)
  26:      1208.31    0.621858  (  0.271228  -0.740468   0.000008)
  27:      1249.59   13.284462  (  0.000003  -0.000000   3.644786)
  28:      1308.69    4.180147  ( -0.157970  -2.038429  -0.000005)
  29:      1344.44    0.060680  (  0.000009   0.000001  -0.246333)
  30:      1388.47   24.270609  (  0.000026   0.000033   4.926521)
  31:      1388.87    3.541081  ( -1.167954  -1.475454   0.000116)
  32:      1409.43   30.770306  ( -0.000011  -0.000004   5.547099)
  33:      1418.04    2.952930  (  1.325004   1.094210   0.000040)
  34:      1495.24   10.481250  ( -0.000013  -0.000017   3.237476)
  35:      1502.05    7.310938  (  0.308415   2.686228   0.000010)
  36:      1506.92    5.933619  ( -2.107371  -1.221723  -0.000029)
  37:      1648.65   80.310280  (  7.873763  -4.279502  -0.000002)
  38:      3097.38    3.093492  ( -0.000022  -0.000011  -1.758833)
  39:      3098.99    4.227876  (  1.848071   0.901393  -0.000012)
  40:      3135.73    7.820349  ( -2.208532   1.715440  -0.000000)
  41:      3155.23    0.067714  ( -0.000025   0.000032   0.260218)
  42:      3156.04    0.217172  (  0.300999  -0.355768   0.000033)
  43:      3221.36    0.439054  (  0.000016   0.000007  -0.662612)
  44:      3226.06    3.216007  (  1.571768  -0.863454   0.000000)
  45:      3242.58    1.439230  (  0.973922   0.700504   0.000000)
  46:      3476.00   64.340968  (  7.585282  -2.608536  -0.000000)
  47:      3529.98   82.156797  (  4.687324   7.757950  -0.000000)

--------------------------
THERMOCHEMISTRY AT 298.15K
--------------------------

Temperature         ... 298.15 K
Pressure            ... 1.00 atm
Total Mass          ... 84.14 AMU

Throughout the following assumptions are being made:
  (1) The electronic state is orbitally nondegenerate
  (2) There are no thermally accessible electronically excited states
  (3) Hindered rotations indicated by low frequency modes) are not
      treated as such but are treated as vibrations and this may
      case some error
  (4) All equations used are the standard statistical mechanics
      equations for an ideal gas
  (5) All vibrations are strinctly harmonic

------------
INNER ENERGY
------------

The inner energy is: U= E(el) + E(ZPE) + E(vib) + E(rot) + E(trans)
    E(el)   - is the total energy from the electronic structure calculation
              = E(kin-el) + E(nuc-el) + E(el-el) + E(nuc-nuc)
    E(ZPE)  - the the zero temperature vibrational energy from the frequency calculation
    E(vib)  - the the finite temperature correction to E(ZPE) due to population
              of excietd vibrational states
    E(rot)  - is the rotational thermal energy
    E(trans)- is the translational thermal energy

Summary of contributions to the inner energy U:
Electronic energy                ...   -250.82577430 Eh
Zero point energy                ...      0.15084637 Eh      94.66 kcal/mol
Thermal vibrational correction   ...      0.00230478 Eh       1.45 kcal/mol
Thermal rotational correction    ...      0.00141627 Eh       0.89 kcal/mol
Thermal translational correction ...      0.00141627 Eh       0.89 kcal/mol
-----------------------------------------------------------------------
Total thermal energy                   -250.66979061 Eh

Summary of corrections to the electronic energy:
(perhaps to be used in another calculation)
Total thermal correction                  0.00513732 Eh       3.22 kcal/mol
Non-thermal (ZPE) correction              0.15084637 Eh      94.66 kcal/mol
-----------------------------------------------------------------------
Total correction                          0.15598369 Eh      97.88 kcal/mol

--------
ENTHALPY
--------

The enthalpy is H = U + kB*T
                kB is Boltzmann's constant
Total free energy                 ...   -250.66979061 Eh
Thermal Enthalpy correction       ...      0.00094421 Eh       0.59 kcal/mol
-----------------------------------------------------------------------
Total Enthalpy                    ...   -250.66884640 Eh

-------
ENTROPY
-------

The entropy contributions are T*S = T*(S(el)+S(vib)+S(rot)+S(trans)
     S(el)   - electronic entropy
     S(vib)  - vibrational entropy
     S(rot)  - rotational entropy
     S(trans)- translational entropy
The entropies will be listed as mutliplied by the temperature to get
units of energy

Electronic entropy                ...      0.00000000 Eh      0.00 kcal/mol
Vibrational entropy               ...      0.00338254 Eh      2.12 kcal/mol
Rotational entropy                ...      0.01124909 Eh      7.06 kcal/mol
Translational entropy             ...      0.01862670 Eh     11.69 kcal/mol
-----------------------------------------------------------------------
Final entropy term                ...      0.03325833 Eh     20.87 kcal/mol

CAUTION: The rotational entropy is not quite correctly treated here
         because it includes a symmetry number that is not yet correctly
         implemented in ORCA!
For a nonlinear molecule the correct rotational entropy is:
    S(rot) = R*(ln(qrot/sn)+1.5)
    R    = 8.31441 J/mol/K = 1.987191683e-3 kcal/mol/K
    qrot = 99981.2193516
    sn is the rotational symmetry number. We have assumed 3 here
       if it is different for your molecule then you should correct
       the printed rotational entropy by manually evaluating the equation
       as given above

For convenience we print out the resulting values for sn=1 - 12:
 sn= 1  qrot/sn=   99981.2194 T*S(rot)=     7.71 kcal/mol T*S(tot)=    21.52 kcal/mol
 sn= 2  qrot/sn=   49990.6097 T*S(rot)=     7.30 kcal/mol T*S(tot)=    21.11 kcal/mol
 sn= 3  qrot/sn=   33327.0731 T*S(rot)=     7.06 kcal/mol T*S(tot)=    20.87 kcal/mol
 sn= 4  qrot/sn=   24995.3048 T*S(rot)=     6.89 kcal/mol T*S(tot)=    20.70 kcal/mol
 sn= 5  qrot/sn=   19996.2439 T*S(rot)=     6.76 kcal/mol T*S(tot)=    20.57 kcal/mol
 sn= 6  qrot/sn=   16663.5366 T*S(rot)=     6.65 kcal/mol T*S(tot)=    20.46 kcal/mol
 sn= 7  qrot/sn=   14283.0313 T*S(rot)=     6.56 kcal/mol T*S(tot)=    20.37 kcal/mol
 sn= 8  qrot/sn=   12497.6524 T*S(rot)=     6.48 kcal/mol T*S(tot)=    20.29 kcal/mol
 sn= 9  qrot/sn=   11109.0244 T*S(rot)=     6.41 kcal/mol T*S(tot)=    20.22 kcal/mol
 sn=10  qrot/sn=    9998.1219 T*S(rot)=     6.35 kcal/mol T*S(tot)=    20.16 kcal/mol
 sn=11  qrot/sn=    9089.2018 T*S(rot)=     6.29 kcal/mol T*S(tot)=    20.10 kcal/mol
 sn=12  qrot/sn=    8331.7683 T*S(rot)=     6.24 kcal/mol T*S(tot)=    20.05 kcal/mol

-------------------
GIBBS FREE ENTHALPY
-------------------

The Gibbs free enthalpy is G = H - T*S

Total enthalpy                    ...   -250.66884640 Eh
Total entropy correction          ...     -0.03325833 Eh    -20.87 kcal/mol
-----------------------------------------------------------------------
Final Gibbs free enthalpy         ...   -250.70210473 Eh

For completeness - the Gibbs free enthalpy minus the electronic energy
G-E(el)                           ...      0.12366957 Eh     77.60 kcal/mol

                             ****ORCA TERMINATED NORMALLY****
TOTAL RUN TIME: 0 days 0 hours 22 minutes 27 seconds 348 msec
