                         Program Version 3.0.3 - RELEASE   -
|  1> ! NORI PBE0 def2-TZVP UseSym TightOPT Freq TightSCF Grid3 FinalGrid5 XYZFile
|  2> % pal
|  3>     nprocs 8
|  4> end
|  5> %method
|  6>     SymThresh 5.0e-2
|  7> end
|  8> % geom
|  9>     MaxIter 10
| 10> end
| 11> % maxcore 2000
| 12> % output
| 13>     printlevel mini
| 14>     print[ P_Basis ] 0
| 15>     print[ P_SCFInfo ] 1
| 16>     print[ P_SCFIterInfo ] 1
| 17>     print[ P_OrbEn ] 0
| 18>     print[ P_Cartesian ] 0
| 19> end
| 20> % elprop
| 21>     Dipole false
| 22> end
| 23> *xyz 1 1
| 24>  C        0.9408662945     0.2068163200    -0.2439508318
| 25>  C        2.4383508084     0.1706245296    -0.1276832525
| 26>  C        3.2436954337    -0.7790294918    -0.9469498012
| 27>  C        3.3024851423     0.6916149659    -1.2539751619
| 28>  C        4.5574120142     1.4290970477    -0.9508163669
| 29>  N        4.2320933764     2.8518002327    -0.5323982968
| 30>  H        0.5295235299     1.1693163788     0.0704124917
| 31>  H        0.4901947243    -0.5659476285     0.3814129265
| 32>  H        0.6235751470     0.0252808820    -1.2732015692
| 33>  H        2.8252304507     0.3426120646     0.8756140473
| 34>  H        4.1168060780    -1.2406714356    -0.5023596812
| 35>  H        2.7229643410    -1.4031292089    -1.6620011708
| 36>  H        2.7884646170     1.0090149310    -2.1575507182
| 37>  H        5.2312089674     1.5107417193    -1.8057860801
| 38>  H        5.1006137886     0.9872215311    -0.1143528800
| 39>  H        3.7669272451     3.3532641621    -1.2915998512
| 40>  H        5.0641882691     3.3816040963    -0.2658985865
| 41>  H        3.5869597726     2.8359889037     0.2608947829
| 42> *
| 43>
| 44>                          ****END OF INPUT****
 Total Charge           Charge          ....    1
 Multiplicity           Mult            ....    1
 Number of Electrons    NEL             ....   48
FINAL SINGLE POINT ENERGY      -252.029497368165

CARTESIAN COORDINATES (ANGSTROEM)
---------------------------------
  C      1.709385    0.000251   -1.575389
  C      0.460539    0.473738   -0.886966
  C     -0.884335    0.066150   -1.383767
  C     -0.379169   -0.493329   -0.082744
  C     -1.026418   -0.047491    1.179619
  N     -0.000220   -0.000663    2.297451
  H      2.575164    0.017682   -0.908826
  H      1.938094    0.636726   -2.432189
  H      1.589591   -1.020615   -1.945163
  H      0.509026    1.488415   -0.494771
  H     -1.693664    0.785346   -1.348048
  H     -0.931663   -0.619115   -2.220451
  H     -0.074688   -1.536535   -0.100977
  H     -1.817929   -0.716453    1.522177
  H     -1.429249    0.963059    1.099141
  H      0.385438   -0.930699    2.471595
  H     -0.391752    0.348994    3.174141
  H      0.777479    0.603781    2.023041

FINAL SINGLE POINT ENERGY      -252.029498225791
                    ***********************HURRAY********************
 Multiplicity           Mult            ....    1
 Number of Electrons    NEL             ....   48
 Basis Dimension        Dim             ....  258
FINAL SINGLE POINT ENERGY      -252.029498790305

VIBRATIONAL FREQUENCIES
-----------------------

   0:         0.00 cm**-1
   1:         0.00 cm**-1
   2:         0.00 cm**-1
   3:         0.00 cm**-1
   4:         0.00 cm**-1
   5:         0.00 cm**-1
   6:       102.17 cm**-1
   7:       154.38 cm**-1
   8:       196.08 cm**-1
   9:       217.11 cm**-1
  10:       283.70 cm**-1
  11:       361.17 cm**-1
  12:       403.62 cm**-1
  13:       464.86 cm**-1
  14:       777.68 cm**-1
  15:       818.53 cm**-1
  16:       842.91 cm**-1
  17:       879.62 cm**-1
  18:       897.76 cm**-1
  19:       913.05 cm**-1
  20:       977.69 cm**-1
  21:      1016.55 cm**-1
  22:      1069.13 cm**-1
  23:      1081.89 cm**-1
  24:      1108.58 cm**-1
  25:      1133.15 cm**-1
  26:      1138.22 cm**-1
  27:      1205.29 cm**-1
  28:      1223.60 cm**-1
  29:      1245.10 cm**-1
  30:      1331.29 cm**-1
  31:      1355.59 cm**-1
  32:      1391.19 cm**-1
  33:      1420.23 cm**-1
  34:      1452.28 cm**-1
  35:      1480.88 cm**-1
  36:      1488.20 cm**-1
  37:      1489.41 cm**-1
  38:      1492.89 cm**-1
  39:      1512.00 cm**-1
  40:      1650.90 cm**-1
  41:      1663.14 cm**-1
  42:      3054.33 cm**-1
  43:      3093.94 cm**-1
  44:      3118.58 cm**-1
  45:      3130.24 cm**-1
  46:      3139.95 cm**-1
  47:      3145.45 cm**-1
  48:      3159.22 cm**-1
  49:      3162.05 cm**-1
  50:      3247.96 cm**-1
  51:      3420.96 cm**-1
  52:      3506.12 cm**-1
  53:      3513.81 cm**-1

IR SPECTRUM
-----------

 Mode    freq (cm**-1)   T**2         TX         TY         TZ
-------------------------------------------------------------------
   6:       102.17   10.703296  (  1.507008   1.426224  -2.529448)
   7:       154.38    6.418156  (  1.738746  -1.259385  -1.344942)
   8:       196.08    0.392554  (  0.376351  -0.374361   0.332818)
   9:       217.11    0.413028  (  0.179843  -0.052374   0.614769)
  10:       283.70    1.411086  ( -0.131460  -0.200741   1.163403)
  11:       361.17    5.753874  ( -0.115617  -0.576639  -2.325509)
  12:       403.62    0.096154  ( -0.008610  -0.220378  -0.217976)
  13:       464.86    5.657309  ( -0.472679  -1.038997  -2.086712)
  14:       777.68   12.522740  ( -0.952120  -1.571570   3.024298)
  15:       818.53   10.491575  (  1.079039   1.894718  -2.395265)
  16:       842.91    8.071219  (  0.048608  -2.835489  -0.169871)
  17:       879.62    0.307121  (  0.183471   0.491864  -0.177564)
  18:       897.76   18.103904  (  0.070763   0.266313   4.245936)
  19:       913.05   20.867724  (  2.354203   1.767244   3.493179)
  20:       977.69    4.367177  ( -1.173469   1.650245  -0.516566)
  21:      1016.55    4.484088  (  1.108781  -0.712335  -1.657490)
  22:      1069.13    4.761401  ( -0.957158  -1.737882   0.908304)
  23:      1081.89    5.047886  ( -2.021957  -0.858430  -0.471884)
  24:      1108.58   19.304461  (  0.309603  -1.438206   4.140069)
  25:      1133.15   14.811408  (  2.413665   0.260734  -2.986243)
  26:      1138.22    1.327129  (  0.725334   0.871137   0.205281)
  27:      1205.29    2.332754  ( -0.444836   0.915277   1.138922)
  28:      1223.60    9.220574  ( -1.430620   1.191120   2.398986)
  29:      1245.10    4.747585  (  0.641654  -1.235374   1.676221)
  30:      1331.29    2.003763  ( -0.152933  -1.311805   0.509452)
  31:      1355.59    7.966464  ( -1.705838  -1.382425   1.773550)
  32:      1391.19   11.167017  ( -0.819671  -0.289903   3.226626)
  33:      1420.23    5.233308  ( -1.242384   1.729264  -0.836322)
  34:      1452.28   25.363564  (  0.699200  -0.312227   4.977670)
  35:      1480.88    3.140310  (  0.004558  -1.216417   1.288650)
  36:      1488.20   18.730049  (  2.867479  -2.296053   2.288176)
  37:      1489.41   18.254401  (  0.843076  -0.562373  -4.150586)
  38:      1492.89  129.662765  (  7.091989   2.422991   8.572955)
  39:      1512.00   15.613705  ( -3.648361   1.013123  -1.129933)
  40:      1650.90   49.098347  (  0.761142   6.916636  -0.824109)
  41:      1663.14   33.480367  ( -3.874694   0.412248   4.277519)
  42:      3054.33   11.636023  ( -3.207586   1.007118   0.577176)
  43:      3093.94    3.963460  (  1.206855  -0.232816  -1.566128)
  44:      3118.58    4.534662  ( -1.913817   0.728962   0.583595)
  45:      3130.24   14.353616  (  1.583731   1.118579   3.254872)
  46:      3139.95   10.002318  ( -0.901991  -2.999200  -0.439918)
  47:      3145.45    1.516422  ( -0.486257   1.108939   0.224124)
  48:      3159.22    1.164249  ( -1.022444   0.344755  -0.001056)
  49:      3162.05    3.003856  (  0.026962  -1.490274   0.884428)
  50:      3247.96    0.350276  (  0.518856  -0.282628  -0.034426)
  51:      3420.96   33.426945  ( -3.315194  -0.355372  -4.723361)
  52:      3506.12   91.906409  (  3.811491   6.794680  -5.586705)
  53:      3513.81   92.556902  ( -5.406700   6.440317   4.674059)

--------------------------
THERMOCHEMISTRY AT 298.15K
--------------------------

Temperature         ... 298.15 K
Pressure            ... 1.00 atm
Total Mass          ... 86.16 AMU

Throughout the following assumptions are being made:
  (1) The electronic state is orbitally nondegenerate
  (2) There are no thermally accessible electronically excited states
  (3) Hindered rotations indicated by low frequency modes) are not
      treated as such but are treated as vibrations and this may
      case some error
  (4) All equations used are the standard statistical mechanics
      equations for an ideal gas
  (5) All vibrations are strinctly harmonic

------------
INNER ENERGY
------------

The inner energy is: U= E(el) + E(ZPE) + E(vib) + E(rot) + E(trans)
    E(el)   - is the total energy from the electronic structure calculation
              = E(kin-el) + E(nuc-el) + E(el-el) + E(nuc-nuc)
    E(ZPE)  - the the zero temperature vibrational energy from the frequency calculation
    E(vib)  - the the finite temperature correction to E(ZPE) due to population
              of excietd vibrational states
    E(rot)  - is the rotational thermal energy
    E(trans)- is the translational thermal energy

Summary of contributions to the inner energy U:
Electronic energy                ...   -252.02949879 Eh
Zero point energy                ...      0.17070868 Eh     107.12 kcal/mol
Thermal vibrational correction   ...      0.00451691 Eh       2.83 kcal/mol
Thermal rotational correction    ...      0.00141627 Eh       0.89 kcal/mol
Thermal translational correction ...      0.00141627 Eh       0.89 kcal/mol
-----------------------------------------------------------------------
Total thermal energy                   -251.85144066 Eh

Summary of corrections to the electronic energy:
(perhaps to be used in another calculation)
Total thermal correction                  0.00734945 Eh       4.61 kcal/mol
Non-thermal (ZPE) correction              0.17070868 Eh     107.12 kcal/mol
-----------------------------------------------------------------------
Total correction                          0.17805813 Eh     111.73 kcal/mol

--------
ENTHALPY
--------

The enthalpy is H = U + kB*T
                kB is Boltzmann's constant
Total free energy                 ...   -251.85144066 Eh
Thermal Enthalpy correction       ...      0.00094421 Eh       0.59 kcal/mol
-----------------------------------------------------------------------
Total Enthalpy                    ...   -251.85049645 Eh

-------
ENTROPY
-------

The entropy contributions are T*S = T*(S(el)+S(vib)+S(rot)+S(trans)
     S(el)   - electronic entropy
     S(vib)  - vibrational entropy
     S(rot)  - rotational entropy
     S(trans)- translational entropy
The entropies will be listed as mutliplied by the temperature to get
units of energy

Electronic entropy                ...      0.00000000 Eh      0.00 kcal/mol
Vibrational entropy               ...      0.00774837 Eh      4.86 kcal/mol
Rotational entropy                ...      0.01178213 Eh      7.39 kcal/mol
Translational entropy             ...      0.01866024 Eh     11.71 kcal/mol
-----------------------------------------------------------------------
Final entropy term                ...      0.03819073 Eh     23.96 kcal/mol

CAUTION: The rotational entropy is not quite correctly treated here
         because it includes a symmetry number that is not yet correctly
         implemented in ORCA!
For a nonlinear molecule the correct rotational entropy is:
    S(rot) = R*(ln(qrot/sn)+1.5)
    R    = 8.31441 J/mol/K = 1.987191683e-3 kcal/mol/K
    qrot = 175832.2671403
    sn is the rotational symmetry number. We have assumed 3 here
       if it is different for your molecule then you should correct
       the printed rotational entropy by manually evaluating the equation
       as given above

For convenience we print out the resulting values for sn=1 - 12:
 sn= 1  qrot/sn=  175832.2671 T*S(rot)=     8.04 kcal/mol T*S(tot)=    24.62 kcal/mol
 sn= 2  qrot/sn=   87916.1336 T*S(rot)=     7.63 kcal/mol T*S(tot)=    24.21 kcal/mol
 sn= 3  qrot/sn=   58610.7557 T*S(rot)=     7.39 kcal/mol T*S(tot)=    23.96 kcal/mol
 sn= 4  qrot/sn=   43958.0668 T*S(rot)=     7.22 kcal/mol T*S(tot)=    23.79 kcal/mol
 sn= 5  qrot/sn=   35166.4534 T*S(rot)=     7.09 kcal/mol T*S(tot)=    23.66 kcal/mol
 sn= 6  qrot/sn=   29305.3779 T*S(rot)=     6.98 kcal/mol T*S(tot)=    23.55 kcal/mol
 sn= 7  qrot/sn=   25118.8953 T*S(rot)=     6.89 kcal/mol T*S(tot)=    23.46 kcal/mol
 sn= 8  qrot/sn=   21979.0334 T*S(rot)=     6.81 kcal/mol T*S(tot)=    23.38 kcal/mol
 sn= 9  qrot/sn=   19536.9186 T*S(rot)=     6.74 kcal/mol T*S(tot)=    23.31 kcal/mol
 sn=10  qrot/sn=   17583.2267 T*S(rot)=     6.68 kcal/mol T*S(tot)=    23.25 kcal/mol
 sn=11  qrot/sn=   15984.7516 T*S(rot)=     6.62 kcal/mol T*S(tot)=    23.20 kcal/mol
 sn=12  qrot/sn=   14652.6889 T*S(rot)=     6.57 kcal/mol T*S(tot)=    23.14 kcal/mol

-------------------
GIBBS FREE ENTHALPY
-------------------

The Gibbs free enthalpy is G = H - T*S

Total enthalpy                    ...   -251.85049645 Eh
Total entropy correction          ...     -0.03819073 Eh    -23.96 kcal/mol
-----------------------------------------------------------------------
Final Gibbs free enthalpy         ...   -251.88868719 Eh

For completeness - the Gibbs free enthalpy minus the electronic energy
G-E(el)                           ...      0.14081161 Eh     88.36 kcal/mol

                             ****ORCA TERMINATED NORMALLY****
TOTAL RUN TIME: 0 days 0 hours 24 minutes 40 seconds 948 msec
