                         Program Version 3.0.3 - RELEASE   -
|  1> ! NORI PBE0 def2-TZVP UseSym TightOPT Freq TightSCF Grid3 FinalGrid5 XYZFile
|  2> % pal
|  3>     nprocs 8
|  4> end
|  5> %method
|  6>     SymThresh 5.0e-2
|  7> end
|  8> % geom
|  9>     MaxIter 10
| 10> end
| 11> % maxcore 2000
| 12> % output
| 13>     printlevel mini
| 14>     print[ P_Basis ] 0
| 15>     print[ P_SCFInfo ] 1
| 16>     print[ P_SCFIterInfo ] 1
| 17>     print[ P_OrbEn ] 0
| 18>     print[ P_Cartesian ] 0
| 19> end
| 20> % elprop
| 21>     Dipole false
| 22> end
| 23> *xyz 1 1
| 24>  C        0.8596647668    -0.4327935069    -0.7034811487
| 25>  C        1.9786938366     0.4416966571    -0.2153670005
| 26>  C        3.4187199540     0.0095505545    -0.2838448316
| 27>  C        2.9296948985     1.1159668666    -1.1583331976
| 28>  C        2.8614815410     1.0295638049    -2.6510383183
| 29>  N        3.3644373459     2.4816045978    -0.7278472224
| 30>  H       -0.0051710650     0.1577194722    -1.0118719152
| 31>  H        0.5408819640    -1.0999763800     0.0990235075
| 32>  H        1.1652442448    -1.0591122616    -1.5430757582
| 33>  H        1.7255043578     1.0210335108     0.6713782111
| 34>  H        4.0723968896     0.2353187731     0.5520112190
| 35>  H        3.6493901651    -0.9255719699    -0.7799820792
| 36>  H        3.8380026264     1.2142572284    -3.1090314365
| 37>  H        2.1369982641     1.7360305386    -3.0672869100
| 38>  H        2.5505948549     0.0309480937    -2.9517974945
| 39>  H        4.2950071735     2.7030812597    -1.0931617613
| 40>  H        3.4028217448     2.5551630552     0.2906100474
| 41>  H        2.7163264372     3.1968797056    -1.0685739110
| 42> *
| 43>
| 44>                          ****END OF INPUT****
 Total Charge           Charge          ....    1
 Multiplicity           Mult            ....    1
 Number of Electrons    NEL             ....   48
FINAL SINGLE POINT ENERGY      -252.030480695824
FINAL SINGLE POINT ENERGY      -252.030482076300

CARTESIAN COORDINATES (ANGSTROEM)
---------------------------------
  C      1.139124   -0.000045   -1.815642
  C      0.707947    0.570196   -0.494534
  C     -0.667209    1.144160   -0.281239
  C     -0.278816   -0.131526    0.389914
  C     -0.910116   -1.455125    0.088940
  N      0.001099   -0.000019    1.854216
  H      1.919920   -0.752897   -1.691275
  H      1.539459    0.796242   -2.445260
  H      0.307267   -0.453742   -2.355738
  H      1.500771    1.097324    0.033486
  H     -0.769410    2.050120    0.306599
  H     -1.387828    1.059407   -1.085726
  H     -1.863911   -1.572872    0.611314
  H     -0.254832   -2.289234    0.356921
  H     -1.116621   -1.534064   -0.976795
  H     -0.862978   -0.060144    2.400284
  H      0.444593    0.895000    2.069161
  H      0.626638   -0.743697    2.175872

FINAL SINGLE POINT ENERGY      -252.030482804098
                    ***********************HURRAY********************
 Multiplicity           Mult            ....    1
 Number of Electrons    NEL             ....   48
 Basis Dimension        Dim             ....  258
FINAL SINGLE POINT ENERGY      -252.030483054622

VIBRATIONAL FREQUENCIES
-----------------------

   0:         0.00 cm**-1
   1:         0.00 cm**-1
   2:         0.00 cm**-1
   3:         0.00 cm**-1
   4:         0.00 cm**-1
   5:         0.00 cm**-1
   6:       173.55 cm**-1
   7:       191.41 cm**-1
   8:       199.03 cm**-1
   9:       227.22 cm**-1
  10:       254.59 cm**-1
  11:       360.35 cm**-1
  12:       368.94 cm**-1
  13:       434.28 cm**-1
  14:       460.25 cm**-1
  15:       679.67 cm**-1
  16:       792.96 cm**-1
  17:       868.70 cm**-1
  18:       885.09 cm**-1
  19:       923.19 cm**-1
  20:       962.76 cm**-1
  21:      1003.26 cm**-1
  22:      1007.21 cm**-1
  23:      1065.86 cm**-1
  24:      1080.90 cm**-1
  25:      1132.63 cm**-1
  26:      1147.63 cm**-1
  27:      1193.60 cm**-1
  28:      1208.60 cm**-1
  29:      1233.31 cm**-1
  30:      1373.00 cm**-1
  31:      1418.51 cm**-1
  32:      1423.03 cm**-1
  33:      1438.41 cm**-1
  34:      1474.11 cm**-1
  35:      1477.43 cm**-1
  36:      1484.73 cm**-1
  37:      1489.60 cm**-1
  38:      1500.66 cm**-1
  39:      1523.16 cm**-1
  40:      1647.44 cm**-1
  41:      1657.74 cm**-1
  42:      3050.35 cm**-1
  43:      3066.69 cm**-1
  44:      3117.31 cm**-1
  45:      3126.75 cm**-1
  46:      3142.36 cm**-1
  47:      3148.34 cm**-1
  48:      3151.21 cm**-1
  49:      3170.79 cm**-1
  50:      3237.18 cm**-1
  51:      3403.51 cm**-1
  52:      3479.15 cm**-1
  53:      3503.43 cm**-1

IR SPECTRUM
-----------

 Mode    freq (cm**-1)   T**2         TX         TY         TZ
-------------------------------------------------------------------
   6:       173.55    0.166223  (  0.301945  -0.258408  -0.090979)
   7:       191.41    0.262128  (  0.104804   0.370029  -0.337968)
   8:       199.03    2.211966  ( -1.356824   0.609073   0.005060)
   9:       227.22    3.124497  ( -1.676468   0.337726   0.447093)
  10:       254.59    1.987480  (  0.874808  -0.859467   0.695346)
  11:       360.35    6.529168  (  1.345805   1.996076  -0.856538)
  12:       368.94    7.941511  ( -0.917342   1.488205   2.210258)
  13:       434.28    0.323791  ( -0.403304   0.351310  -0.194210)
  14:       460.25    4.126683  ( -1.719425  -0.345209  -1.025228)
  15:       679.67    1.033363  ( -0.340015  -0.866114  -0.409390)
  16:       792.96    2.932664  (  0.674111   1.562972   0.188030)
  17:       868.70    1.319591  (  0.730794  -0.766635   0.444749)
  18:       885.09    3.398403  ( -0.406897  -1.797000  -0.060249)
  19:       923.19    3.210239  (  1.447746   0.627199  -0.849053)
  20:       962.76    4.878270  (  0.909028   2.012191  -0.055003)
  21:      1003.26    8.152076  (  2.135541   1.875509  -0.272043)
  22:      1007.21    9.124251  (  0.599627   2.413800  -1.714137)
  23:      1065.86    3.676877  (  1.202845  -1.493269   0.013680)
  24:      1080.90    7.740126  (  0.896210   2.153958  -1.515717)
  25:      1132.63    5.257732  ( -1.051404  -0.910951   1.822759)
  26:      1147.63    6.989210  (  2.013782   0.480590  -1.644058)
  27:      1193.60    7.218692  ( -1.966658   0.606991   1.726995)
  28:      1208.60   12.433511  (  2.792819  -1.954629   0.901720)
  29:      1233.31   14.204900  (  0.558136  -0.009385   3.727371)
  30:      1373.00    0.886374  ( -0.493959  -0.728274   0.334657)
  31:      1418.51   10.469189  ( -0.091629   2.028431   2.519179)
  32:      1423.03    3.913245  ( -1.229738  -1.279023  -0.874694)
  33:      1438.41   14.679983  ( -1.983029  -1.829250  -2.720556)
  34:      1474.11   10.519624  (  2.068371   1.165866  -2.209576)
  35:      1477.43    6.412822  ( -0.783912   0.548483  -2.344668)
  36:      1484.73   27.967203  ( -3.140319  -0.315629  -4.243345)
  37:      1489.60   36.893810  (  3.911440  -1.657248   4.341426)
  38:      1500.66   56.035519  ( -0.400156   0.353746   7.466610)
  39:      1523.16   51.490944  (  1.499772   3.595854   6.025899)
  40:      1647.44   38.916395  (  5.600085  -2.601982  -0.886077)
  41:      1657.74   37.269996  (  2.426056   5.601132  -0.107528)
  42:      3050.35    7.928304  ( -0.658841  -1.858318   2.010195)
  43:      3066.69    4.674584  (  0.630254  -1.403495  -1.519067)
  44:      3117.31    5.176709  (  2.078581  -0.859507  -0.342724)
  45:      3126.75    4.500756  (  0.014715  -0.500873  -2.061472)
  46:      3142.36    3.750908  (  1.122626  -1.439025   0.647940)
  47:      3148.34    1.834548  (  0.686768   0.211099  -1.148188)
  48:      3151.21    9.876627  (  2.593494   1.253181   1.256962)
  49:      3170.79    0.702481  ( -0.150324   0.710938  -0.417673)
  50:      3237.18    0.314297  ( -0.454419   0.327772  -0.019109)
  51:      3403.51   27.767005  ( -0.201775   0.537984  -5.238021)
  52:      3479.15   73.882817  (  7.931984  -3.192635  -0.879505)
  53:      3503.43   68.977329  ( -2.995506  -7.746122   0.043190)

--------------------------
THERMOCHEMISTRY AT 298.15K
--------------------------

Temperature         ... 298.15 K
Pressure            ... 1.00 atm
Total Mass          ... 86.16 AMU

Throughout the following assumptions are being made:
  (1) The electronic state is orbitally nondegenerate
  (2) There are no thermally accessible electronically excited states
  (3) Hindered rotations indicated by low frequency modes) are not
      treated as such but are treated as vibrations and this may
      case some error
  (4) All equations used are the standard statistical mechanics
      equations for an ideal gas
  (5) All vibrations are strinctly harmonic

------------
INNER ENERGY
------------

The inner energy is: U= E(el) + E(ZPE) + E(vib) + E(rot) + E(trans)
    E(el)   - is the total energy from the electronic structure calculation
              = E(kin-el) + E(nuc-el) + E(el-el) + E(nuc-nuc)
    E(ZPE)  - the the zero temperature vibrational energy from the frequency calculation
    E(vib)  - the the finite temperature correction to E(ZPE) due to population
              of excietd vibrational states
    E(rot)  - is the rotational thermal energy
    E(trans)- is the translational thermal energy

Summary of contributions to the inner energy U:
Electronic energy                ...   -252.03048305 Eh
Zero point energy                ...      0.16940429 Eh     106.30 kcal/mol
Thermal vibrational correction   ...      0.00465679 Eh       2.92 kcal/mol
Thermal rotational correction    ...      0.00141627 Eh       0.89 kcal/mol
Thermal translational correction ...      0.00141627 Eh       0.89 kcal/mol
-----------------------------------------------------------------------
Total thermal energy                   -251.85358942 Eh

Summary of corrections to the electronic energy:
(perhaps to be used in another calculation)
Total thermal correction                  0.00748934 Eh       4.70 kcal/mol
Non-thermal (ZPE) correction              0.16940429 Eh     106.30 kcal/mol
-----------------------------------------------------------------------
Total correction                          0.17689363 Eh     111.00 kcal/mol

--------
ENTHALPY
--------

The enthalpy is H = U + kB*T
                kB is Boltzmann's constant
Total free energy                 ...   -251.85358942 Eh
Thermal Enthalpy correction       ...      0.00094421 Eh       0.59 kcal/mol
-----------------------------------------------------------------------
Total Enthalpy                    ...   -251.85264522 Eh

-------
ENTROPY
-------

The entropy contributions are T*S = T*(S(el)+S(vib)+S(rot)+S(trans)
     S(el)   - electronic entropy
     S(vib)  - vibrational entropy
     S(rot)  - rotational entropy
     S(trans)- translational entropy
The entropies will be listed as mutliplied by the temperature to get
units of energy

Electronic entropy                ...      0.00000000 Eh      0.00 kcal/mol
Vibrational entropy               ...      0.00758057 Eh      4.76 kcal/mol
Rotational entropy                ...      0.01163021 Eh      7.30 kcal/mol
Translational entropy             ...      0.01866024 Eh     11.71 kcal/mol
-----------------------------------------------------------------------
Final entropy term                ...      0.03787102 Eh     23.76 kcal/mol

CAUTION: The rotational entropy is not quite correctly treated here
         because it includes a symmetry number that is not yet correctly
         implemented in ORCA!
For a nonlinear molecule the correct rotational entropy is:
    S(rot) = R*(ln(qrot/sn)+1.5)
    R    = 8.31441 J/mol/K = 1.987191683e-3 kcal/mol/K
    qrot = 149699.7081737
    sn is the rotational symmetry number. We have assumed 3 here
       if it is different for your molecule then you should correct
       the printed rotational entropy by manually evaluating the equation
       as given above

For convenience we print out the resulting values for sn=1 - 12:
 sn= 1  qrot/sn=  149699.7082 T*S(rot)=     7.95 kcal/mol T*S(tot)=    24.42 kcal/mol
 sn= 2  qrot/sn=   74849.8541 T*S(rot)=     7.54 kcal/mol T*S(tot)=    24.00 kcal/mol
 sn= 3  qrot/sn=   49899.9027 T*S(rot)=     7.30 kcal/mol T*S(tot)=    23.76 kcal/mol
 sn= 4  qrot/sn=   37424.9270 T*S(rot)=     7.13 kcal/mol T*S(tot)=    23.59 kcal/mol
 sn= 5  qrot/sn=   29939.9416 T*S(rot)=     7.00 kcal/mol T*S(tot)=    23.46 kcal/mol
 sn= 6  qrot/sn=   24949.9514 T*S(rot)=     6.89 kcal/mol T*S(tot)=    23.35 kcal/mol
 sn= 7  qrot/sn=   21385.6726 T*S(rot)=     6.80 kcal/mol T*S(tot)=    23.26 kcal/mol
 sn= 8  qrot/sn=   18712.4635 T*S(rot)=     6.72 kcal/mol T*S(tot)=    23.18 kcal/mol
 sn= 9  qrot/sn=   16633.3009 T*S(rot)=     6.65 kcal/mol T*S(tot)=    23.11 kcal/mol
 sn=10  qrot/sn=   14969.9708 T*S(rot)=     6.58 kcal/mol T*S(tot)=    23.05 kcal/mol
 sn=11  qrot/sn=   13609.0644 T*S(rot)=     6.53 kcal/mol T*S(tot)=    22.99 kcal/mol
 sn=12  qrot/sn=   12474.9757 T*S(rot)=     6.48 kcal/mol T*S(tot)=    22.94 kcal/mol

-------------------
GIBBS FREE ENTHALPY
-------------------

The Gibbs free enthalpy is G = H - T*S

Total enthalpy                    ...   -251.85264522 Eh
Total entropy correction          ...     -0.03787102 Eh    -23.76 kcal/mol
-----------------------------------------------------------------------
Final Gibbs free enthalpy         ...   -251.89051623 Eh

For completeness - the Gibbs free enthalpy minus the electronic energy
G-E(el)                           ...      0.13996682 Eh     87.83 kcal/mol

                             ****ORCA TERMINATED NORMALLY****
TOTAL RUN TIME: 0 days 0 hours 27 minutes 28 seconds 719 msec
