                         Program Version 3.0.3 - RELEASE   -
|  1> ! NORI PBE0 def2-TZVP UseSym TightOPT Freq TightSCF Grid3 FinalGrid5 XYZFile
|  2> % pal
|  3>     nprocs 8
|  4> end
|  5> %method
|  6>     SymThresh 5.0e-2
|  7> end
|  8> % geom
|  9>     MaxIter 10
| 10> end
| 11> % maxcore 2000
| 12> % output
| 13>     printlevel mini
| 14>     print[ P_Basis ] 0
| 15>     print[ P_SCFInfo ] 1
| 16>     print[ P_SCFIterInfo ] 1
| 17>     print[ P_OrbEn ] 0
| 18>     print[ P_Cartesian ] 0
| 19> end
| 20> % elprop
| 21>     Dipole false
| 22> end
| 23> *xyz 1 1
| 24>  C        0.9409961863     0.0395432532    -0.0917528371
| 25>  C        2.4455066898     0.0876448340    -0.0004885691
| 26>  C        3.1447394668     1.1360657703     0.8987379783
| 27>  C        4.2180547663     0.0823383769     1.2478710648
| 28>  C        3.1906944872    -0.9642956081     0.8287615181
| 29>  N        3.6998746743    -2.1870437622     0.1055424388
| 30>  H        0.5882044240    -0.8166970666    -0.6740700873
| 31>  H        0.5612633953     0.9379662455    -0.5820242902
| 32>  H        0.4871625130    -0.0118844152     0.9009139239
| 33>  H        2.8961663289     0.1384868052    -1.0003062925
| 34>  H        2.5311374304     1.3888564196     1.7646626117
| 35>  H        3.4840031586     2.0536740881     0.4233531914
| 36>  H        5.0572511305     0.1343743108     0.5480821325
| 37>  H        4.6030617494     0.0355041107     2.2650760940
| 38>  H        2.5940741985    -1.3355086457     1.6641637883
| 39>  H        4.2777222662    -1.9129104786    -0.6918709399
| 40>  H        2.9300347305    -2.7597418634    -0.2484045465
| 41>  H        4.2720024041    -2.7744423748     0.7168728207
| 42> *
| 43>
| 44>                          ****END OF INPUT****
 Total Charge           Charge          ....    1
 Multiplicity           Mult            ....    1
 Number of Electrons    NEL             ....   48
FINAL SINGLE POINT ENERGY      -252.034378329321

CARTESIAN COORDINATES (ANGSTROEM)
---------------------------------
  C      1.867550    0.000080   -1.008656
  C      0.506362    0.410275   -0.505317
  C     -0.757732    0.156286   -1.362291
  C     -1.542746   -0.146663   -0.067536
  C     -0.188234   -0.425516    0.575881
  N     -0.000051    0.000078    2.011140
  H      2.647576    0.140505   -0.254885
  H      2.148632    0.600759   -1.875655
  H      1.874415   -1.048364   -1.316536
  H      0.505375    1.464028   -0.197165
  H     -0.644154   -0.734161   -1.982664
  H     -1.114098    0.977260   -1.980368
  H     -2.004072    0.761860    0.330210
  H     -2.277797   -0.949732   -0.069502
  H      0.095506   -1.478776    0.534638
  H     -0.255051    0.983295    2.126075
  H      0.972427   -0.107294    2.308341
  H     -0.584213   -0.549069    2.645899

FINAL SINGLE POINT ENERGY      -252.034379037819
                    ***********************HURRAY********************
 Multiplicity           Mult            ....    1
 Number of Electrons    NEL             ....   48
 Basis Dimension        Dim             ....  258
FINAL SINGLE POINT ENERGY      -252.034379390847

VIBRATIONAL FREQUENCIES
-----------------------

   0:         0.00 cm**-1
   1:         0.00 cm**-1
   2:         0.00 cm**-1
   3:         0.00 cm**-1
   4:         0.00 cm**-1
   5:         0.00 cm**-1
   6:       139.92 cm**-1
   7:       194.14 cm**-1
   8:       210.09 cm**-1
   9:       245.34 cm**-1
  10:       303.43 cm**-1
  11:       373.19 cm**-1
  12:       478.09 cm**-1
  13:       583.60 cm**-1
  14:       765.14 cm**-1
  15:       787.22 cm**-1
  16:       895.51 cm**-1
  17:       905.31 cm**-1
  18:       919.95 cm**-1
  19:       954.40 cm**-1
  20:       978.74 cm**-1
  21:       989.04 cm**-1
  22:      1031.74 cm**-1
  23:      1133.58 cm**-1
  24:      1152.15 cm**-1
  25:      1186.27 cm**-1
  26:      1200.68 cm**-1
  27:      1232.91 cm**-1
  28:      1257.83 cm**-1
  29:      1270.96 cm**-1
  30:      1289.07 cm**-1
  31:      1302.46 cm**-1
  32:      1375.34 cm**-1
  33:      1413.64 cm**-1
  34:      1419.34 cm**-1
  35:      1476.25 cm**-1
  36:      1481.90 cm**-1
  37:      1487.42 cm**-1
  38:      1493.45 cm**-1
  39:      1502.24 cm**-1
  40:      1655.08 cm**-1
  41:      1655.88 cm**-1
  42:      3032.56 cm**-1
  43:      3050.28 cm**-1
  44:      3073.78 cm**-1
  45:      3099.53 cm**-1
  46:      3115.09 cm**-1
  47:      3121.76 cm**-1
  48:      3139.30 cm**-1
  49:      3155.33 cm**-1
  50:      3170.93 cm**-1
  51:      3415.24 cm**-1
  52:      3502.21 cm**-1
  53:      3503.42 cm**-1

IR SPECTRUM
-----------

 Mode    freq (cm**-1)   T**2         TX         TY         TZ
-------------------------------------------------------------------
   6:       139.92    3.120877  (  1.159343  -1.296545  -0.309467)
   7:       194.14    2.011371  (  1.195419   0.156828  -0.746826)
   8:       210.09    1.769834  (  0.904208   0.671657  -0.707898)
   9:       245.34    4.695633  (  1.839944   0.378873  -1.080136)
  10:       303.43    3.028247  ( -0.053377  -1.202754   1.256495)
  11:       373.19    3.003792  (  1.657458   0.192360   0.468639)
  12:       478.09    3.095815  (  0.162298  -0.129945   1.747166)
  13:       583.60    4.211064  ( -0.063357   1.321219   1.568894)
  14:       765.14    2.216183  ( -0.341311  -0.166437   1.439440)
  15:       787.22    2.535250  ( -0.816996  -0.838737   1.079022)
  16:       895.51   12.090795  ( -3.066854  -0.043094  -1.638092)
  17:       905.31    7.639439  ( -0.965215   1.315677  -2.230873)
  18:       919.95    0.762739  (  0.370945  -0.340116   0.713764)
  19:       954.40    3.215360  ( -0.886364   0.260523   1.536830)
  20:       978.74   13.361877  (  0.021398   3.067211  -1.988374)
  21:       989.04   11.786859  (  2.207335   1.029490  -2.419645)
  22:      1031.74   11.927000  ( -0.558690  -1.730125  -2.936245)
  23:      1133.58    6.017968  ( -2.409691  -0.209345  -0.409304)
  24:      1152.15    0.458081  (  0.488131  -0.219416   0.414325)
  25:      1186.27    1.948084  ( -0.934715  -1.005963  -0.249859)
  26:      1200.68    5.849071  ( -2.274857  -0.353362   0.741103)
  27:      1232.91    1.389754  ( -0.335450   0.399797  -1.057067)
  28:      1257.83    1.551615  (  0.625784   0.215451   1.055268)
  29:      1270.96    1.882173  ( -0.400194  -0.457491   1.229927)
  30:      1289.07    2.909529  ( -0.540044   0.221405  -1.602767)
  31:      1302.46    0.378074  ( -0.141015  -0.583835   0.131627)
  32:      1375.34    5.316768  (  0.497432   0.950836  -2.040892)
  33:      1413.64   13.702644  ( -0.550537   0.676048  -3.597570)
  34:      1419.34    7.493400  ( -2.444194   1.230344   0.074631)
  35:      1476.25    5.662190  (  2.204457   0.431360   0.785168)
  36:      1481.90   33.326007  (  0.641638  -1.243944   5.600617)
  37:      1487.42   16.186247  (  0.364126  -0.210477  -4.001170)
  38:      1493.45  116.110096  (  2.064969   4.629092   9.508812)
  39:      1502.24   19.067160  (  1.507258  -2.249599  -3.425586)
  40:      1655.08   39.679764  (  2.670510   5.399517  -1.842106)
  41:      1655.88   45.101881  ( -5.553087   3.770936  -0.212478)
  42:      3032.56   12.133434  ( -0.769412   2.662072   2.110643)
  43:      3050.28    8.563551  (  2.667559  -1.038912   0.606912)
  44:      3073.78    8.969023  (  1.661167  -1.170312  -2.199981)
  45:      3099.53    6.224338  (  0.220582  -0.763036  -2.365049)
  46:      3115.09    2.690816  (  1.291572  -1.009835   0.053760)
  47:      3121.76   14.056968  (  1.600445   2.023932   2.720155)
  48:      3139.30    4.401490  (  0.007066   1.994401  -0.651004)
  49:      3155.33    4.799181  ( -1.738918  -1.271548  -0.398137)
  50:      3170.93    3.880966  (  0.254797  -1.905625   0.429694)
  51:      3415.24   39.905976  (  0.705132   0.661314   6.242710)
  52:      3502.21   89.007466  ( -5.829843  -6.740090   3.097028)
  53:      3503.42   80.712294  ( -7.199298   5.327938  -0.703899)

--------------------------
THERMOCHEMISTRY AT 298.15K
--------------------------

Temperature         ... 298.15 K
Pressure            ... 1.00 atm
Total Mass          ... 86.16 AMU

Throughout the following assumptions are being made:
  (1) The electronic state is orbitally nondegenerate
  (2) There are no thermally accessible electronically excited states
  (3) Hindered rotations indicated by low frequency modes) are not
      treated as such but are treated as vibrations and this may
      case some error
  (4) All equations used are the standard statistical mechanics
      equations for an ideal gas
  (5) All vibrations are strinctly harmonic

------------
INNER ENERGY
------------

The inner energy is: U= E(el) + E(ZPE) + E(vib) + E(rot) + E(trans)
    E(el)   - is the total energy from the electronic structure calculation
              = E(kin-el) + E(nuc-el) + E(el-el) + E(nuc-nuc)
    E(ZPE)  - the the zero temperature vibrational energy from the frequency calculation
    E(vib)  - the the finite temperature correction to E(ZPE) due to population
              of excietd vibrational states
    E(rot)  - is the rotational thermal energy
    E(trans)- is the translational thermal energy

Summary of contributions to the inner energy U:
Electronic energy                ...   -252.03437939 Eh
Zero point energy                ...      0.17113763 Eh     107.39 kcal/mol
Thermal vibrational correction   ...      0.00410869 Eh       2.58 kcal/mol
Thermal rotational correction    ...      0.00141627 Eh       0.89 kcal/mol
Thermal translational correction ...      0.00141627 Eh       0.89 kcal/mol
-----------------------------------------------------------------------
Total thermal energy                   -251.85630053 Eh

Summary of corrections to the electronic energy:
(perhaps to be used in another calculation)
Total thermal correction                  0.00694123 Eh       4.36 kcal/mol
Non-thermal (ZPE) correction              0.17113763 Eh     107.39 kcal/mol
-----------------------------------------------------------------------
Total correction                          0.17807886 Eh     111.75 kcal/mol

--------
ENTHALPY
--------

The enthalpy is H = U + kB*T
                kB is Boltzmann's constant
Total free energy                 ...   -251.85630053 Eh
Thermal Enthalpy correction       ...      0.00094421 Eh       0.59 kcal/mol
-----------------------------------------------------------------------
Total Enthalpy                    ...   -251.85535632 Eh

-------
ENTROPY
-------

The entropy contributions are T*S = T*(S(el)+S(vib)+S(rot)+S(trans)
     S(el)   - electronic entropy
     S(vib)  - vibrational entropy
     S(rot)  - rotational entropy
     S(trans)- translational entropy
The entropies will be listed as mutliplied by the temperature to get
units of energy

Electronic entropy                ...      0.00000000 Eh      0.00 kcal/mol
Vibrational entropy               ...      0.00674147 Eh      4.23 kcal/mol
Rotational entropy                ...      0.01166558 Eh      7.32 kcal/mol
Translational entropy             ...      0.01866024 Eh     11.71 kcal/mol
-----------------------------------------------------------------------
Final entropy term                ...      0.03706729 Eh     23.26 kcal/mol

CAUTION: The rotational entropy is not quite correctly treated here
         because it includes a symmetry number that is not yet correctly
         implemented in ORCA!
For a nonlinear molecule the correct rotational entropy is:
    S(rot) = R*(ln(qrot/sn)+1.5)
    R    = 8.31441 J/mol/K = 1.987191683e-3 kcal/mol/K
    qrot = 155414.9507855
    sn is the rotational symmetry number. We have assumed 3 here
       if it is different for your molecule then you should correct
       the printed rotational entropy by manually evaluating the equation
       as given above

For convenience we print out the resulting values for sn=1 - 12:
 sn= 1  qrot/sn=  155414.9508 T*S(rot)=     7.97 kcal/mol T*S(tot)=    23.91 kcal/mol
 sn= 2  qrot/sn=   77707.4754 T*S(rot)=     7.56 kcal/mol T*S(tot)=    23.50 kcal/mol
 sn= 3  qrot/sn=   51804.9836 T*S(rot)=     7.32 kcal/mol T*S(tot)=    23.26 kcal/mol
 sn= 4  qrot/sn=   38853.7377 T*S(rot)=     7.15 kcal/mol T*S(tot)=    23.09 kcal/mol
 sn= 5  qrot/sn=   31082.9902 T*S(rot)=     7.02 kcal/mol T*S(tot)=    22.96 kcal/mol
 sn= 6  qrot/sn=   25902.4918 T*S(rot)=     6.91 kcal/mol T*S(tot)=    22.85 kcal/mol
 sn= 7  qrot/sn=   22202.1358 T*S(rot)=     6.82 kcal/mol T*S(tot)=    22.76 kcal/mol
 sn= 8  qrot/sn=   19426.8688 T*S(rot)=     6.74 kcal/mol T*S(tot)=    22.68 kcal/mol
 sn= 9  qrot/sn=   17268.3279 T*S(rot)=     6.67 kcal/mol T*S(tot)=    22.61 kcal/mol
 sn=10  qrot/sn=   15541.4951 T*S(rot)=     6.61 kcal/mol T*S(tot)=    22.55 kcal/mol
 sn=11  qrot/sn=   14128.6319 T*S(rot)=     6.55 kcal/mol T*S(tot)=    22.49 kcal/mol
 sn=12  qrot/sn=   12951.2459 T*S(rot)=     6.50 kcal/mol T*S(tot)=    22.44 kcal/mol

-------------------
GIBBS FREE ENTHALPY
-------------------

The Gibbs free enthalpy is G = H - T*S

Total enthalpy                    ...   -251.85535632 Eh
Total entropy correction          ...     -0.03706729 Eh    -23.26 kcal/mol
-----------------------------------------------------------------------
Final Gibbs free enthalpy         ...   -251.89242361 Eh

For completeness - the Gibbs free enthalpy minus the electronic energy
G-E(el)                           ...      0.14195578 Eh     89.08 kcal/mol

                             ****ORCA TERMINATED NORMALLY****
TOTAL RUN TIME: 0 days 0 hours 26 minutes 18 seconds 993 msec
