                         Program Version 3.0.3 - RELEASE   -
|  1> ! NORI PBE0 def2-TZVP UseSym TightOPT Freq TightSCF Grid3 FinalGrid5 XYZFile
|  2> % pal
|  3>     nprocs 8
|  4> end
|  5> %method
|  6>     SymThresh 5.0e-2
|  7> end
|  8> % geom
|  9>     MaxIter 10
| 10> end
| 11> % maxcore 2000
| 12> % output
| 13>     printlevel mini
| 14>     print[ P_Basis ] 0
| 15>     print[ P_SCFInfo ] 1
| 16>     print[ P_SCFIterInfo ] 1
| 17>     print[ P_OrbEn ] 0
| 18>     print[ P_Cartesian ] 0
| 19> end
| 20> % elprop
| 21>     Dipole false
| 22> end
| 23> *xyz 1 1
| 24>  C        0.8673523301     0.0890828115    -0.2302513668
| 25>  C        2.3475355780     0.0478701207     0.0519644552
| 26>  C        2.7047586756    -0.0263692664     1.5167016177
| 27>  C        3.2467596577    -0.6547574870    -0.9278200126
| 28>  C        3.2166675195     0.8360512727    -0.8842973148
| 29>  N        4.4064085380     1.5452469043    -0.3531049159
| 30>  H        0.6607533864     0.1682394570    -1.2994148915
| 31>  H        0.3945753044     0.9355271565     0.2732797712
| 32>  H        0.3931699223    -0.8252093696     0.1330205619
| 33>  H        3.7738530547    -0.1752669409     1.7078929797
| 34>  H        2.2101207734    -0.8900689896     1.9652112332
| 35>  H        2.3659768992     0.8597924140     2.0606651908
| 36>  H        4.1207692074    -1.1612288533    -0.5298912112
| 37>  H        2.8228355276    -1.1257546812    -1.8060203646
| 38>  H        2.7721267888     1.3968687575    -1.6968500270
| 39>  H        4.7200643426     1.1052987950     0.5155053124
| 40>  H        4.1931610120     2.5223752589    -0.1388867879
| 41>  H        5.1854214820     1.5286426402    -1.0163642298
| 42> *
| 43>
| 44>                          ****END OF INPUT****
 Total Charge           Charge          ....    1
 Multiplicity           Mult            ....    1
 Number of Electrons    NEL             ....   48
FINAL SINGLE POINT ENERGY      -252.027132231214
FINAL SINGLE POINT ENERGY      -252.027133795087

CARTESIAN COORDINATES (ANGSTROEM)
---------------------------------
  C      1.042393   -0.000277   -1.692875
  C      0.028934    0.120174   -0.583411
  C     -0.672940    1.454774   -0.516376
  C     -0.749155   -1.103598   -0.185328
  C      0.355587   -0.609692    0.687123
  N     -0.000379    0.000184    1.991242
  H      1.540999   -0.971346   -1.682383
  H      1.805710    0.777162   -1.613196
  H      0.550075    0.109709   -2.661226
  H     -1.485162    1.493185    0.218479
  H     -1.144871    1.662930   -1.478477
  H      0.027039    2.270063   -0.314833
  H     -1.771052   -0.958272    0.150254
  H     -0.581111   -2.039639   -0.702929
  H      1.277798   -1.170444    0.770108
  H     -0.770257    0.663682    1.872626
  H      0.787622    0.517514    2.388137
  H     -0.291825   -0.704979    2.672593

FINAL SINGLE POINT ENERGY      -252.027134539363
                    ***********************HURRAY********************
 Multiplicity           Mult            ....    1
 Number of Electrons    NEL             ....   48
 Basis Dimension        Dim             ....  258
FINAL SINGLE POINT ENERGY      -252.027134854593

VIBRATIONAL FREQUENCIES
-----------------------

   0:         0.00 cm**-1
   1:         0.00 cm**-1
   2:         0.00 cm**-1
   3:         0.00 cm**-1
   4:         0.00 cm**-1
   5:         0.00 cm**-1
   6:       170.19 cm**-1
   7:       188.76 cm**-1
   8:       205.81 cm**-1
   9:       233.59 cm**-1
  10:       276.93 cm**-1
  11:       349.87 cm**-1
  12:       376.62 cm**-1
  13:       438.62 cm**-1
  14:       474.60 cm**-1
  15:       706.35 cm**-1
  16:       775.36 cm**-1
  17:       865.38 cm**-1
  18:       908.41 cm**-1
  19:       934.81 cm**-1
  20:       974.08 cm**-1
  21:       995.97 cm**-1
  22:      1004.43 cm**-1
  23:      1053.56 cm**-1
  24:      1078.83 cm**-1
  25:      1121.15 cm**-1
  26:      1147.67 cm**-1
  27:      1172.07 cm**-1
  28:      1190.52 cm**-1
  29:      1307.42 cm**-1
  30:      1344.51 cm**-1
  31:      1415.68 cm**-1
  32:      1426.81 cm**-1
  33:      1428.51 cm**-1
  34:      1465.58 cm**-1
  35:      1482.13 cm**-1
  36:      1485.16 cm**-1
  37:      1488.62 cm**-1
  38:      1514.08 cm**-1
  39:      1518.92 cm**-1
  40:      1649.76 cm**-1
  41:      1659.00 cm**-1
  42:      3032.47 cm**-1
  43:      3057.65 cm**-1
  44:      3104.91 cm**-1
  45:      3134.27 cm**-1
  46:      3135.68 cm**-1
  47:      3140.15 cm**-1
  48:      3147.11 cm**-1
  49:      3208.36 cm**-1
  50:      3239.75 cm**-1
  51:      3408.00 cm**-1
  52:      3483.30 cm**-1
  53:      3491.22 cm**-1

IR SPECTRUM
-----------

 Mode    freq (cm**-1)   T**2         TX         TY         TZ
-------------------------------------------------------------------
   6:       170.19    3.345268  (  0.005435   1.178243  -1.398922)
   7:       188.76    3.616693  ( -0.517249   1.413927  -1.161877)
   8:       205.81    5.433152  (  1.811436   1.423703  -0.353442)
   9:       233.59    3.978096  ( -1.635543   0.377502  -1.077305)
  10:       276.93    7.814278  (  0.154627  -1.768676   2.159202)
  11:       349.87    3.002130  (  0.031455  -0.703001   1.583329)
  12:       376.62    1.042843  (  0.697331   0.550698  -0.503294)
  13:       438.62    7.316431  ( -0.865775  -0.618109  -2.486927)
  14:       474.60    5.515332  (  0.481552  -1.022154   2.058796)
  15:       706.35    0.037177  (  0.013123  -0.052440  -0.185080)
  16:       775.36    9.924079  (  1.502706  -1.530150   2.307508)
  17:       865.38    7.193089  (  2.151762   1.596418   0.120237)
  18:       908.41    2.768307  (  1.128198  -0.962223   0.754720)
  19:       934.81    6.009868  ( -1.897898  -0.180325  -1.541211)
  20:       974.08    1.678454  (  1.111405  -0.438442  -0.500999)
  21:       995.97    6.652193  (  0.491763   2.281102  -1.098606)
  22:      1004.43   14.780805  ( -1.154404   2.475678  -2.705397)
  23:      1053.56    9.070111  (  0.076765  -2.407555   1.807733)
  24:      1078.83    1.398250  ( -0.130415   0.576197  -1.024323)
  25:      1121.15   11.101718  ( -0.320855  -1.630505   2.887945)
  26:      1147.67    5.190518  (  1.613377   0.134488   1.602949)
  27:      1172.07    3.174157  ( -0.579521   1.681120   0.110221)
  28:      1190.52   10.597566  ( -2.805208  -1.622252   0.310920)
  29:      1307.42    5.228915  (  0.241728  -1.264507   1.889843)
  30:      1344.51    4.469821  ( -1.121691   0.613590  -1.683787)
  31:      1415.68    8.023274  (  2.226037  -1.424414  -1.019352)
  32:      1426.81    3.437983  ( -0.825318  -0.934482   1.372435)
  33:      1428.51    1.773814  ( -0.056438  -1.130420   0.701983)
  34:      1465.58    2.564903  (  0.734814   0.828040  -1.157282)
  35:      1482.13   32.190639  (  0.625376   3.614856   4.328090)
  36:      1485.16   14.394824  ( -0.650856  -3.352926  -1.651999)
  37:      1488.62   39.127892  (  1.464494   1.274559   5.946314)
  38:      1514.08   90.147214  ( -5.559013   2.540806   7.265596)
  39:      1518.92   15.673972  ( -0.529076  -0.860546   3.827990)
  40:      1649.76   29.995266  (  4.683858   2.837549  -0.071127)
  41:      1659.00   38.650799  ( -3.567257   4.457809  -2.460369)
  42:      3032.47   22.397674  ( -2.082123   1.659012   3.912815)
  43:      3057.65    5.080714  ( -1.827148  -0.094300   1.316569)
  44:      3104.91   16.731998  ( -2.434903  -1.907945   2.676376)
  45:      3134.27    0.074745  (  0.077723  -0.084793  -0.248020)
  46:      3135.68    8.275620  (  1.472358   2.371405   0.695859)
  47:      3140.15    6.922429  ( -1.212118   2.022315  -1.167665)
  48:      3147.11    2.269357  (  0.481174  -0.200023  -1.413442)
  49:      3208.36    0.156703  ( -0.206514   0.272450   0.199566)
  50:      3239.75    0.136764  ( -0.043241   0.359752   0.073973)
  51:      3408.00   23.038415  ( -1.011873   2.141245   4.174877)
  52:      3483.30  116.728311  ( -5.113781   6.849779  -6.607427)
  53:      3491.22   90.070562  (  7.398677   5.943285  -0.086652)

--------------------------
THERMOCHEMISTRY AT 298.15K
--------------------------

Temperature         ... 298.15 K
Pressure            ... 1.00 atm
Total Mass          ... 86.16 AMU

Throughout the following assumptions are being made:
  (1) The electronic state is orbitally nondegenerate
  (2) There are no thermally accessible electronically excited states
  (3) Hindered rotations indicated by low frequency modes) are not
      treated as such but are treated as vibrations and this may
      case some error
  (4) All equations used are the standard statistical mechanics
      equations for an ideal gas
  (5) All vibrations are strinctly harmonic

------------
INNER ENERGY
------------

The inner energy is: U= E(el) + E(ZPE) + E(vib) + E(rot) + E(trans)
    E(el)   - is the total energy from the electronic structure calculation
              = E(kin-el) + E(nuc-el) + E(el-el) + E(nuc-nuc)
    E(ZPE)  - the the zero temperature vibrational energy from the frequency calculation
    E(vib)  - the the finite temperature correction to E(ZPE) due to population
              of excietd vibrational states
    E(rot)  - is the rotational thermal energy
    E(trans)- is the translational thermal energy

Summary of contributions to the inner energy U:
Electronic energy                ...   -252.02713485 Eh
Zero point energy                ...      0.16952442 Eh     106.38 kcal/mol
Thermal vibrational correction   ...      0.00459495 Eh       2.88 kcal/mol
Thermal rotational correction    ...      0.00141627 Eh       0.89 kcal/mol
Thermal translational correction ...      0.00141627 Eh       0.89 kcal/mol
-----------------------------------------------------------------------
Total thermal energy                   -251.85018294 Eh

Summary of corrections to the electronic energy:
(perhaps to be used in another calculation)
Total thermal correction                  0.00742750 Eh       4.66 kcal/mol
Non-thermal (ZPE) correction              0.16952442 Eh     106.38 kcal/mol
-----------------------------------------------------------------------
Total correction                          0.17695191 Eh     111.04 kcal/mol

--------
ENTHALPY
--------

The enthalpy is H = U + kB*T
                kB is Boltzmann's constant
Total free energy                 ...   -251.85018294 Eh
Thermal Enthalpy correction       ...      0.00094421 Eh       0.59 kcal/mol
-----------------------------------------------------------------------
Total Enthalpy                    ...   -251.84923873 Eh

-------
ENTROPY
-------

The entropy contributions are T*S = T*(S(el)+S(vib)+S(rot)+S(trans)
     S(el)   - electronic entropy
     S(vib)  - vibrational entropy
     S(rot)  - rotational entropy
     S(trans)- translational entropy
The entropies will be listed as mutliplied by the temperature to get
units of energy

Electronic entropy                ...      0.00000000 Eh      0.00 kcal/mol
Vibrational entropy               ...      0.00745594 Eh      4.68 kcal/mol
Rotational entropy                ...      0.01161613 Eh      7.29 kcal/mol
Translational entropy             ...      0.01866024 Eh     11.71 kcal/mol
-----------------------------------------------------------------------
Final entropy term                ...      0.03773231 Eh     23.68 kcal/mol

CAUTION: The rotational entropy is not quite correctly treated here
         because it includes a symmetry number that is not yet correctly
         implemented in ORCA!
For a nonlinear molecule the correct rotational entropy is:
    S(rot) = R*(ln(qrot/sn)+1.5)
    R    = 8.31441 J/mol/K = 1.987191683e-3 kcal/mol/K
    qrot = 147484.0544202
    sn is the rotational symmetry number. We have assumed 3 here
       if it is different for your molecule then you should correct
       the printed rotational entropy by manually evaluating the equation
       as given above

For convenience we print out the resulting values for sn=1 - 12:
 sn= 1  qrot/sn=  147484.0544 T*S(rot)=     7.94 kcal/mol T*S(tot)=    24.33 kcal/mol
 sn= 2  qrot/sn=   73742.0272 T*S(rot)=     7.53 kcal/mol T*S(tot)=    23.92 kcal/mol
 sn= 3  qrot/sn=   49161.3515 T*S(rot)=     7.29 kcal/mol T*S(tot)=    23.68 kcal/mol
 sn= 4  qrot/sn=   36871.0136 T*S(rot)=     7.12 kcal/mol T*S(tot)=    23.51 kcal/mol
 sn= 5  qrot/sn=   29496.8109 T*S(rot)=     6.99 kcal/mol T*S(tot)=    23.37 kcal/mol
 sn= 6  qrot/sn=   24580.6757 T*S(rot)=     6.88 kcal/mol T*S(tot)=    23.27 kcal/mol
 sn= 7  qrot/sn=   21069.1506 T*S(rot)=     6.79 kcal/mol T*S(tot)=    23.18 kcal/mol
 sn= 8  qrot/sn=   18435.5068 T*S(rot)=     6.71 kcal/mol T*S(tot)=    23.10 kcal/mol
 sn= 9  qrot/sn=   16387.1172 T*S(rot)=     6.64 kcal/mol T*S(tot)=    23.03 kcal/mol
 sn=10  qrot/sn=   14748.4054 T*S(rot)=     6.58 kcal/mol T*S(tot)=    22.96 kcal/mol
 sn=11  qrot/sn=   13407.6413 T*S(rot)=     6.52 kcal/mol T*S(tot)=    22.91 kcal/mol
 sn=12  qrot/sn=   12290.3379 T*S(rot)=     6.47 kcal/mol T*S(tot)=    22.86 kcal/mol

-------------------
GIBBS FREE ENTHALPY
-------------------

The Gibbs free enthalpy is G = H - T*S

Total enthalpy                    ...   -251.84923873 Eh
Total entropy correction          ...     -0.03773231 Eh    -23.68 kcal/mol
-----------------------------------------------------------------------
Final Gibbs free enthalpy         ...   -251.88697104 Eh

For completeness - the Gibbs free enthalpy minus the electronic energy
G-E(el)                           ...      0.14016382 Eh     87.95 kcal/mol

                             ****ORCA TERMINATED NORMALLY****
TOTAL RUN TIME: 0 days 0 hours 27 minutes 50 seconds 21 msec
