                         Program Version 3.0.3 - RELEASE   -
|  1> ! NORI PBE0 def2-TZVP UseSym TightOPT Freq TightSCF Grid3 FinalGrid5 XYZFile
|  2> % pal
|  3>     nprocs 8
|  4> end
|  5> %method
|  6>     SymThresh 5.0e-2
|  7> end
|  8> % geom
|  9>     MaxIter 10
| 10> end
| 11> % maxcore 2000
| 12> % output
| 13>     printlevel mini
| 14>     print[ P_Basis ] 0
| 15>     print[ P_SCFInfo ] 1
| 16>     print[ P_SCFIterInfo ] 1
| 17>     print[ P_OrbEn ] 0
| 18>     print[ P_Cartesian ] 0
| 19> end
| 20> % elprop
| 21>     Dipole false
| 22> end
| 23> *xyz 1 1
| 24>  C        0.9848812992     0.1335793166    -0.1360280237
| 25>  C        2.4829047876     0.0184411380    -0.1006006082
| 26>  C        3.2781489055    -0.8552369718    -1.0438864417
| 27>  C        2.6565173280    -1.7017551468    -2.1187267787
| 28>  C        3.3171710002     0.6314335197    -1.1764148371
| 29>  N        4.5586806867     1.3543798802    -0.7989400780
| 30>  H        0.6549743848     1.0568957759     0.3440648623
| 31>  H        0.5300457521    -0.7016172842     0.3994016714
| 32>  H        0.5950045591     0.1287436589    -1.1543100199
| 33>  H        2.9079243391     0.0752135170     0.8999435144
| 34>  H        4.1594347512    -1.2991604568    -0.5848932446
| 35>  H        1.8072654661    -1.2076227854    -2.5914651297
| 36>  H        2.3013782249    -2.6438283828    -1.6984140177
| 37>  H        3.3847321305    -1.9362801594    -2.8973361952
| 38>  H        2.8393934131     1.1102892137    -2.0228542831
| 39>  H        5.0136195234     0.8992596565    -0.0047725268
| 40>  H        4.3635763584     2.3215362545    -0.5266719333
| 41>  H        5.2330770899     1.3724292563    -1.5689859306
| 42> *
| 43>
| 44>                          ****END OF INPUT****
 Total Charge           Charge          ....    1
 Multiplicity           Mult            ....    1
 Number of Electrons    NEL             ....   48
FINAL SINGLE POINT ENERGY      -252.026635201131

CARTESIAN COORDINATES (ANGSTROEM)
---------------------------------
  C     -1.323867    0.209669    1.587742
  C     -0.252040   -0.436547    0.755793
  C     -0.252040   -0.436547   -0.755793
  C     -1.323867    0.209669   -1.587742
  C      0.729003    0.397416    0.000000
  N      2.160163   -0.000426    0.000000
  H     -0.957642    0.425215    2.593235
  H     -2.182175   -0.457789    1.680983
  H     -1.675481    1.145072    1.151459
  H      0.156719   -1.347167    1.189774
  H      0.156719   -1.347167   -1.189774
  H     -1.675481    1.145072   -1.151459
  H     -2.182175   -0.457789   -1.680983
  H     -0.957642    0.425215   -2.593235
  H      0.633082    1.476584    0.000000
  H      2.250961   -1.018630   -0.000000
  H      2.648819    0.350432    0.828068
  H      2.648819    0.350432   -0.828068

FINAL SINGLE POINT ENERGY      -252.026636177343
                    ***********************HURRAY********************
 Multiplicity           Mult            ....    1
 Number of Electrons    NEL             ....   48
 Basis Dimension        Dim             ....  258
FINAL SINGLE POINT ENERGY      -252.026636877854

VIBRATIONAL FREQUENCIES
-----------------------

   0:         0.00 cm**-1
   1:         0.00 cm**-1
   2:         0.00 cm**-1
   3:         0.00 cm**-1
   4:         0.00 cm**-1
   5:         0.00 cm**-1
   6:       167.01 cm**-1
   7:       174.86 cm**-1
   8:       180.54 cm**-1
   9:       222.40 cm**-1
  10:       241.68 cm**-1
  11:       270.39 cm**-1
  12:       314.75 cm**-1
  13:       439.48 cm**-1
  14:       526.43 cm**-1
  15:       766.66 cm**-1
  16:       819.68 cm**-1
  17:       831.53 cm**-1
  18:       931.27 cm**-1
  19:       939.10 cm**-1
  20:      1020.78 cm**-1
  21:      1039.91 cm**-1
  22:      1048.63 cm**-1
  23:      1078.05 cm**-1
  24:      1116.98 cm**-1
  25:      1143.85 cm**-1
  26:      1183.87 cm**-1
  27:      1202.71 cm**-1
  28:      1206.47 cm**-1
  29:      1258.14 cm**-1
  30:      1360.39 cm**-1
  31:      1375.20 cm**-1
  32:      1421.08 cm**-1
  33:      1426.45 cm**-1
  34:      1476.84 cm**-1
  35:      1477.47 cm**-1
  36:      1485.13 cm**-1
  37:      1489.58 cm**-1
  38:      1505.79 cm**-1
  39:      1521.18 cm**-1
  40:      1652.51 cm**-1
  41:      1659.17 cm**-1
  42:      3066.46 cm**-1
  43:      3069.89 cm**-1
  44:      3125.31 cm**-1
  45:      3137.06 cm**-1
  46:      3141.34 cm**-1
  47:      3142.77 cm**-1
  48:      3150.19 cm**-1
  49:      3158.80 cm**-1
  50:      3201.89 cm**-1
  51:      3408.24 cm**-1
  52:      3483.70 cm**-1
  53:      3498.03 cm**-1

IR SPECTRUM
-----------

 Mode    freq (cm**-1)   T**2         TX         TY         TZ
-------------------------------------------------------------------
   6:       167.01    0.084405  (  0.000050  -0.000009   0.290525)
   7:       174.86    0.091789  ( -0.302124   0.022585   0.000085)
   8:       180.54    0.089862  ( -0.000047   0.000035   0.299770)
   9:       222.40    2.246921  (  0.275411   1.473455   0.000089)
  10:       241.68   13.605671  (  0.000038   0.000011   3.688587)
  11:       270.39    4.852603  ( -1.521064  -1.593414   0.000091)
  12:       314.75    0.006571  (  0.000076   0.000051  -0.081062)
  13:       439.48    4.848293  (  2.170777  -0.368810   0.000000)
  14:       526.43    0.152235  ( -0.000005  -0.000003  -0.390173)
  15:       766.66    5.726102  (  0.483391   2.343595   0.000015)
  16:       819.68    0.129695  ( -0.000059   0.000051   0.360132)
  17:       831.53    1.113013  ( -0.674225   0.811439  -0.000019)
  18:       931.27   17.372903  (  0.000107   0.000111  -4.168081)
  19:       939.10   19.961053  (  3.213755   3.103681   0.000160)
  20:      1020.78   11.719596  ( -1.212978  -3.201294   0.000002)
  21:      1039.91    3.025984  ( -0.000020   0.000060  -1.739536)
  22:      1048.63    1.756155  ( -1.311633  -0.189142   0.000109)
  23:      1078.05   10.644097  (  0.000013   0.000020   3.262529)
  24:      1116.98    0.380837  (  0.547524   0.284700   0.000017)
  25:      1143.85    1.247079  (  0.000009   0.000016  -1.116727)
  26:      1183.87    8.559064  ( -0.000007  -0.000005   2.925588)
  27:      1202.71    0.972948  ( -0.000007  -0.000017  -0.986381)
  28:      1206.47    1.952114  ( -1.383192   0.197213   0.000010)
  29:      1258.14    1.329223  ( -0.696876  -0.918470   0.000003)
  30:      1360.39    6.225917  ( -2.270928  -1.033829   0.000008)
  31:      1375.20    0.240279  (  0.000096  -0.000014  -0.490183)
  32:      1421.08    1.377900  ( -0.000643   0.000530  -1.173839)
  33:      1426.45    7.443157  (  1.986199  -1.870340  -0.000398)
  34:      1476.84    4.452348  (  0.005498  -0.004575   2.110047)
  35:      1477.47   16.065716  (  3.183073  -2.435929  -0.003813)
  36:      1485.13   12.332952  (  0.001249   0.000715   3.511830)
  37:      1489.58   15.471812  ( -3.434042  -1.918115   0.001195)
  38:      1505.79   79.072775  (  8.807451  -1.225390   0.000037)
  39:      1521.18   54.063112  ( -4.950025   5.436944   0.000014)
  40:      1652.51   32.100075  (  0.000000  -0.000000   5.665693)
  41:      1659.17   49.043776  ( -1.321537  -6.877305   0.000009)
  42:      3066.46    4.581219  ( -0.000222   0.000227   2.140378)
  43:      3069.89    5.346944  (  1.768936  -1.489232   0.000288)
  44:      3125.31    0.646059  (  0.000020  -0.000006  -0.803778)
  45:      3137.06    5.308392  (  2.026464  -1.096284   0.000044)
  46:      3141.34    5.206954  (  0.000558   0.000137  -2.281875)
  47:      3142.77    5.343022  (  2.199130   0.711933   0.000496)
  48:      3150.19    5.428380  ( -0.000065   0.000073  -2.329888)
  49:      3158.80   12.086617  ( -1.431549   3.168168   0.000062)
  50:      3201.89    0.075040  (  0.138913   0.236101  -0.000001)
  51:      3408.24   37.076871  (  6.085609   0.205502  -0.000009)
  52:      3483.70   88.758733  (  0.000000   0.000000   9.421185)
  53:      3498.03   81.422381  (  1.460948   8.904382  -0.000005)

--------------------------
THERMOCHEMISTRY AT 298.15K
--------------------------

Temperature         ... 298.15 K
Pressure            ... 1.00 atm
Total Mass          ... 86.16 AMU

Throughout the following assumptions are being made:
  (1) The electronic state is orbitally nondegenerate
  (2) There are no thermally accessible electronically excited states
  (3) Hindered rotations indicated by low frequency modes) are not
      treated as such but are treated as vibrations and this may
      case some error
  (4) All equations used are the standard statistical mechanics
      equations for an ideal gas
  (5) All vibrations are strinctly harmonic

------------
INNER ENERGY
------------

The inner energy is: U= E(el) + E(ZPE) + E(vib) + E(rot) + E(trans)
    E(el)   - is the total energy from the electronic structure calculation
              = E(kin-el) + E(nuc-el) + E(el-el) + E(nuc-nuc)
    E(ZPE)  - the the zero temperature vibrational energy from the frequency calculation
    E(vib)  - the the finite temperature correction to E(ZPE) due to population
              of excietd vibrational states
    E(rot)  - is the rotational thermal energy
    E(trans)- is the translational thermal energy

Summary of contributions to the inner energy U:
Electronic energy                ...   -252.02663688 Eh
Zero point energy                ...      0.16985934 Eh     106.59 kcal/mol
Thermal vibrational correction   ...      0.00479443 Eh       3.01 kcal/mol
Thermal rotational correction    ...      0.00141627 Eh       0.89 kcal/mol
Thermal translational correction ...      0.00141627 Eh       0.89 kcal/mol
-----------------------------------------------------------------------
Total thermal energy                   -251.84915056 Eh

Summary of corrections to the electronic energy:
(perhaps to be used in another calculation)
Total thermal correction                  0.00762697 Eh       4.79 kcal/mol
Non-thermal (ZPE) correction              0.16985934 Eh     106.59 kcal/mol
-----------------------------------------------------------------------
Total correction                          0.17748631 Eh     111.37 kcal/mol

--------
ENTHALPY
--------

The enthalpy is H = U + kB*T
                kB is Boltzmann's constant
Total free energy                 ...   -251.84915056 Eh
Thermal Enthalpy correction       ...      0.00094421 Eh       0.59 kcal/mol
-----------------------------------------------------------------------
Total Enthalpy                    ...   -251.84820636 Eh

-------
ENTROPY
-------

The entropy contributions are T*S = T*(S(el)+S(vib)+S(rot)+S(trans)
     S(el)   - electronic entropy
     S(vib)  - vibrational entropy
     S(rot)  - rotational entropy
     S(trans)- translational entropy
The entropies will be listed as mutliplied by the temperature to get
units of energy

Electronic entropy                ...      0.00000000 Eh      0.00 kcal/mol
Vibrational entropy               ...      0.00800630 Eh      5.02 kcal/mol
Rotational entropy                ...      0.01176367 Eh      7.38 kcal/mol
Translational entropy             ...      0.01866024 Eh     11.71 kcal/mol
-----------------------------------------------------------------------
Final entropy term                ...      0.03843021 Eh     24.12 kcal/mol

CAUTION: The rotational entropy is not quite correctly treated here
         because it includes a symmetry number that is not yet correctly
         implemented in ORCA!
For a nonlinear molecule the correct rotational entropy is:
    S(rot) = R*(ln(qrot/sn)+1.5)
    R    = 8.31441 J/mol/K = 1.987191683e-3 kcal/mol/K
    qrot = 172428.9867793
    sn is the rotational symmetry number. We have assumed 3 here
       if it is different for your molecule then you should correct
       the printed rotational entropy by manually evaluating the equation
       as given above

For convenience we print out the resulting values for sn=1 - 12:
 sn= 1  qrot/sn=  172428.9868 T*S(rot)=     8.03 kcal/mol T*S(tot)=    24.77 kcal/mol
 sn= 2  qrot/sn=   86214.4934 T*S(rot)=     7.62 kcal/mol T*S(tot)=    24.36 kcal/mol
 sn= 3  qrot/sn=   57476.3289 T*S(rot)=     7.38 kcal/mol T*S(tot)=    24.12 kcal/mol
 sn= 4  qrot/sn=   43107.2467 T*S(rot)=     7.21 kcal/mol T*S(tot)=    23.94 kcal/mol
 sn= 5  qrot/sn=   34485.7974 T*S(rot)=     7.08 kcal/mol T*S(tot)=    23.81 kcal/mol
 sn= 6  qrot/sn=   28738.1645 T*S(rot)=     6.97 kcal/mol T*S(tot)=    23.70 kcal/mol
 sn= 7  qrot/sn=   24632.7124 T*S(rot)=     6.88 kcal/mol T*S(tot)=    23.61 kcal/mol
 sn= 8  qrot/sn=   21553.6233 T*S(rot)=     6.80 kcal/mol T*S(tot)=    23.53 kcal/mol
 sn= 9  qrot/sn=   19158.7763 T*S(rot)=     6.73 kcal/mol T*S(tot)=    23.46 kcal/mol
 sn=10  qrot/sn=   17242.8987 T*S(rot)=     6.67 kcal/mol T*S(tot)=    23.40 kcal/mol
 sn=11  qrot/sn=   15675.3624 T*S(rot)=     6.61 kcal/mol T*S(tot)=    23.35 kcal/mol
 sn=12  qrot/sn=   14369.0822 T*S(rot)=     6.56 kcal/mol T*S(tot)=    23.29 kcal/mol

-------------------
GIBBS FREE ENTHALPY
-------------------

The Gibbs free enthalpy is G = H - T*S

Total enthalpy                    ...   -251.84820636 Eh
Total entropy correction          ...     -0.03843021 Eh    -24.12 kcal/mol
-----------------------------------------------------------------------
Final Gibbs free enthalpy         ...   -251.88663657 Eh

For completeness - the Gibbs free enthalpy minus the electronic energy
G-E(el)                           ...      0.14000031 Eh     87.85 kcal/mol

                             ****ORCA TERMINATED NORMALLY****
TOTAL RUN TIME: 0 days 0 hours 26 minutes 6 seconds 262 msec
