                         Program Version 3.0.3 - RELEASE   -
|  1> ! NORI PBE0 def2-TZVP UseSym TightOPT Freq TightSCF Grid3 FinalGrid5 XYZFile
|  2> % pal
|  3>     nprocs 8
|  4> end
|  5> %method
|  6>     SymThresh 5.0e-2
|  7> end
|  8> % geom
|  9>     MaxIter 10
| 10> end
| 11> % maxcore 2000
| 12> % output
| 13>     printlevel mini
| 14>     print[ P_Basis ] 0
| 15>     print[ P_SCFInfo ] 1
| 16>     print[ P_SCFIterInfo ] 1
| 17>     print[ P_OrbEn ] 0
| 18>     print[ P_Cartesian ] 0
| 19> end
| 20> % elprop
| 21>     Dipole false
| 22> end
| 23> *xyz 1 1
| 24>  C        0.8930344997    -0.0443633973    -0.0542788044
| 25>  C        2.3973931831     0.0219020585     0.0132831528
| 26>  C        3.0110624747     1.1198093933     0.8619428931
| 27>  C        4.4174200095     0.6123828227     1.1457127457
| 28>  C        4.2120031423    -0.8654061960     1.4431756508
| 29>  N        2.9721196936    -1.2443677610     0.6526525420
| 30>  H        0.5151005749     0.8675404197    -0.5189065514
| 31>  H        0.4508136301    -0.1098167900     0.9441829187
| 32>  H        0.5418948174    -0.8849687672    -0.6568657179
| 33>  H        2.8296049372     0.0510339576    -0.9902407573
| 34>  H        2.4408981279     1.2454812248     1.7879746566
| 35>  H        2.9993376298     2.0732925410     0.3341566261
| 36>  H        4.8968149549     1.1172555789     1.9836026622
| 37>  H        5.0579144836     0.7429990370     0.2701535546
| 38>  H        5.0356564121    -1.5108698659     1.1438122388
| 39>  H        3.9900641601    -1.0463194785     2.4940515797
| 40>  H        3.1776760519    -1.9455680816    -0.0570744604
| 41>  H        2.2711212172    -1.6562166961     1.2686350704
| 42> *
| 43>
| 44>                          ****END OF INPUT****
 Total Charge           Charge          ....    1
 Multiplicity           Mult            ....    1
 Number of Electrons    NEL             ....   48
FINAL SINGLE POINT ENERGY      -252.066830645415

CARTESIAN COORDINATES (ANGSTROEM)
---------------------------------
  C      2.196809    0.000073   -0.051330
  C      0.755462    0.437764   -0.109625
  C     -0.105181   -0.135905   -1.219952
  C     -1.526127    0.053812   -0.709100
  C     -1.432089   -0.325556    0.761189
  N      0.000087   -0.000007    1.147450
  H      2.708289    0.331856   -0.955973
  H      2.281496   -1.089650   -0.008448
  H      2.727381    0.433789    0.799013
  H      0.681478    1.528293   -0.116320
  H      0.124534   -1.196351   -1.367366
  H      0.081670    0.377105   -2.163090
  H     -2.256845   -0.566109   -1.227218
  H     -1.838549    1.094916   -0.818442
  H     -2.109420    0.217310    1.417585
  H     -1.572378   -1.393937    0.920097
  H      0.041822    0.723237    1.863477
  H      0.456175   -0.821951    1.542878

FINAL SINGLE POINT ENERGY      -252.066831157420
                    ***********************HURRAY********************
 Multiplicity           Mult            ....    1
 Number of Electrons    NEL             ....   48
 Basis Dimension        Dim             ....  258
FINAL SINGLE POINT ENERGY      -252.066831307061

VIBRATIONAL FREQUENCIES
-----------------------

   0:         0.00 cm**-1
   1:         0.00 cm**-1
   2:         0.00 cm**-1
   3:         0.00 cm**-1
   4:         0.00 cm**-1
   5:         0.00 cm**-1
   6:        50.62 cm**-1
   7:       212.61 cm**-1
   8:       246.61 cm**-1
   9:       312.66 cm**-1
  10:       430.09 cm**-1
  11:       545.30 cm**-1
  12:       613.83 cm**-1
  13:       802.18 cm**-1
  14:       813.46 cm**-1
  15:       838.16 cm**-1
  16:       894.54 cm**-1
  17:       913.38 cm**-1
  18:       929.26 cm**-1
  19:       984.35 cm**-1
  20:      1000.51 cm**-1
  21:      1045.08 cm**-1
  22:      1057.91 cm**-1
  23:      1105.88 cm**-1
  24:      1166.71 cm**-1
  25:      1217.09 cm**-1
  26:      1245.64 cm**-1
  27:      1256.62 cm**-1
  28:      1315.73 cm**-1
  29:      1323.77 cm**-1
  30:      1338.07 cm**-1
  31:      1358.94 cm**-1
  32:      1380.09 cm**-1
  33:      1393.31 cm**-1
  34:      1407.52 cm**-1
  35:      1422.98 cm**-1
  36:      1482.74 cm**-1
  37:      1483.46 cm**-1
  38:      1490.94 cm**-1
  39:      1492.92 cm**-1
  40:      1507.67 cm**-1
  41:      1652.53 cm**-1
  42:      3054.61 cm**-1
  43:      3063.06 cm**-1
  44:      3088.03 cm**-1
  45:      3093.85 cm**-1
  46:      3115.87 cm**-1
  47:      3134.33 cm**-1
  48:      3147.97 cm**-1
  49:      3150.93 cm**-1
  50:      3153.58 cm**-1
  51:      3177.83 cm**-1
  52:      3469.91 cm**-1
  53:      3529.72 cm**-1

IR SPECTRUM
-----------

 Mode    freq (cm**-1)   T**2         TX         TY         TZ
-------------------------------------------------------------------
   6:        50.62    3.515057  (  0.440709  -1.813993  -0.173962)
   7:       212.61    0.253606  (  0.282732   0.230095   0.347455)
   8:       246.61    0.423761  (  0.079593   0.645761   0.020466)
   9:       312.66    2.061695  ( -1.183731   0.053840   0.810911)
  10:       430.09    2.513683  (  0.848063  -1.027433  -0.859566)
  11:       545.30    1.692235  (  0.148855  -1.187324  -0.510235)
  12:       613.83    1.323464  ( -0.050335   0.573674  -0.995906)
  13:       802.18    5.503860  ( -0.838473   1.694702   1.388815)
  14:       813.46    1.102080  (  0.672468   0.515292  -0.619952)
  15:       838.16    3.851469  (  1.491563  -0.726335  -1.048402)
  16:       894.54    2.820116  ( -1.019808  -0.280085  -1.304477)
  17:       913.38    2.097396  ( -1.395924   0.356241   0.147931)
  18:       929.26    0.991595  (  0.004783   0.628295  -0.772540)
  19:       984.35   11.745097  ( -2.944338  -1.276713  -1.202486)
  20:      1000.51    2.505204  (  1.386288  -0.737656   0.198170)
  21:      1045.08   10.450932  (  2.421504   0.962036  -1.913567)
  22:      1057.91    5.468632  (  0.475350   0.933340  -2.090826)
  23:      1105.88    4.292365  ( -1.341158  -0.141087   1.572817)
  24:      1166.71   12.017474  ( -1.627763  -1.280266   2.780068)
  25:      1217.09    4.360309  ( -1.699356  -0.853929  -0.862151)
  26:      1245.64    1.266296  (  0.787744   0.572287  -0.564130)
  27:      1256.62    1.543298  (  0.442551   1.137190   0.232909)
  28:      1315.73    2.603659  ( -0.740779  -1.035855   0.990913)
  29:      1323.77   20.941183  (  3.560808   2.000662  -2.063778)
  30:      1338.07   26.647494  (  4.809808   0.313069  -1.848034)
  31:      1358.94    6.259493  (  1.874832   0.079312  -1.654754)
  32:      1380.09    0.245871  (  0.156399   0.164028  -0.441028)
  33:      1393.31    4.342411  (  0.661474   1.424956   1.369074)
  34:      1407.52   26.272840  ( -4.605469  -0.953484   2.037981)
  35:      1422.98   10.995764  (  2.997211  -1.299828  -0.568276)
  36:      1482.74    4.373962  ( -1.487625   1.426156   0.356387)
  37:      1483.46    9.219227  ( -1.036034  -0.836750   2.728683)
  38:      1490.94   18.261811  (  0.511501   3.679221   2.112702)
  39:      1492.92   11.839285  ( -1.134545   1.984847  -2.571473)
  40:      1507.67    5.684494  ( -2.174240  -0.976758   0.055830)
  41:      1652.53   50.989557  (  2.297595  -1.464604   6.600420)
  42:      3054.61    2.609118  ( -0.256981   0.999560  -1.242562)
  43:      3063.06    2.605063  ( -0.754844   1.394511   0.301018)
  44:      3088.03    1.628493  (  0.708016  -1.045018   0.187465)
  45:      3093.85    7.467133  ( -1.495387   2.286699  -0.044229)
  46:      3115.87    2.080275  (  0.429224   0.862450  -1.073416)
  47:      3134.33    5.657585  ( -0.695410  -2.095956  -0.883719)
  48:      3147.97    0.740472  ( -0.331625  -0.599984  -0.520112)
  49:      3150.93    0.831263  (  0.798800  -0.219157   0.380989)
  50:      3153.58    1.466524  ( -0.121644  -1.177438   0.255669)
  51:      3177.83    0.463168  (  0.262870  -0.597641  -0.192076)
  52:      3469.91   50.417209  (  2.827634  -1.281661   6.385847)
  53:      3529.72   73.978342  ( -1.906312   7.761130   3.179493)

--------------------------
THERMOCHEMISTRY AT 298.15K
--------------------------

Temperature         ... 298.15 K
Pressure            ... 1.00 atm
Total Mass          ... 86.16 AMU

Throughout the following assumptions are being made:
  (1) The electronic state is orbitally nondegenerate
  (2) There are no thermally accessible electronically excited states
  (3) Hindered rotations indicated by low frequency modes) are not
      treated as such but are treated as vibrations and this may
      case some error
  (4) All equations used are the standard statistical mechanics
      equations for an ideal gas
  (5) All vibrations are strinctly harmonic

------------
INNER ENERGY
------------

The inner energy is: U= E(el) + E(ZPE) + E(vib) + E(rot) + E(trans)
    E(el)   - is the total energy from the electronic structure calculation
              = E(kin-el) + E(nuc-el) + E(el-el) + E(nuc-nuc)
    E(ZPE)  - the the zero temperature vibrational energy from the frequency calculation
    E(vib)  - the the finite temperature correction to E(ZPE) due to population
              of excietd vibrational states
    E(rot)  - is the rotational thermal energy
    E(trans)- is the translational thermal energy

Summary of contributions to the inner energy U:
Electronic energy                ...   -252.06683131 Eh
Zero point energy                ...      0.17294223 Eh     108.52 kcal/mol
Thermal vibrational correction   ...      0.00359199 Eh       2.25 kcal/mol
Thermal rotational correction    ...      0.00141627 Eh       0.89 kcal/mol
Thermal translational correction ...      0.00141627 Eh       0.89 kcal/mol
-----------------------------------------------------------------------
Total thermal energy                   -251.88746455 Eh

Summary of corrections to the electronic energy:
(perhaps to be used in another calculation)
Total thermal correction                  0.00642453 Eh       4.03 kcal/mol
Non-thermal (ZPE) correction              0.17294223 Eh     108.52 kcal/mol
-----------------------------------------------------------------------
Total correction                          0.17936676 Eh     112.55 kcal/mol

--------
ENTHALPY
--------

The enthalpy is H = U + kB*T
                kB is Boltzmann's constant
Total free energy                 ...   -251.88746455 Eh
Thermal Enthalpy correction       ...      0.00094421 Eh       0.59 kcal/mol
-----------------------------------------------------------------------
Total Enthalpy                    ...   -251.88652034 Eh

-------
ENTROPY
-------

The entropy contributions are T*S = T*(S(el)+S(vib)+S(rot)+S(trans)
     S(el)   - electronic entropy
     S(vib)  - vibrational entropy
     S(rot)  - rotational entropy
     S(trans)- translational entropy
The entropies will be listed as mutliplied by the temperature to get
units of energy

Electronic entropy                ...      0.00000000 Eh      0.00 kcal/mol
Vibrational entropy               ...      0.00642803 Eh      4.03 kcal/mol
Rotational entropy                ...      0.01152490 Eh      7.23 kcal/mol
Translational entropy             ...      0.01866024 Eh     11.71 kcal/mol
-----------------------------------------------------------------------
Final entropy term                ...      0.03661316 Eh     22.98 kcal/mol

CAUTION: The rotational entropy is not quite correctly treated here
         because it includes a symmetry number that is not yet correctly
         implemented in ORCA!
For a nonlinear molecule the correct rotational entropy is:
    S(rot) = R*(ln(qrot/sn)+1.5)
    R    = 8.31441 J/mol/K = 1.987191683e-3 kcal/mol/K
    qrot = 133900.6348736
    sn is the rotational symmetry number. We have assumed 3 here
       if it is different for your molecule then you should correct
       the printed rotational entropy by manually evaluating the equation
       as given above

For convenience we print out the resulting values for sn=1 - 12:
 sn= 1  qrot/sn=  133900.6349 T*S(rot)=     7.88 kcal/mol T*S(tot)=    23.63 kcal/mol
 sn= 2  qrot/sn=   66950.3174 T*S(rot)=     7.47 kcal/mol T*S(tot)=    23.22 kcal/mol
 sn= 3  qrot/sn=   44633.5450 T*S(rot)=     7.23 kcal/mol T*S(tot)=    22.98 kcal/mol
 sn= 4  qrot/sn=   33475.1587 T*S(rot)=     7.06 kcal/mol T*S(tot)=    22.80 kcal/mol
 sn= 5  qrot/sn=   26780.1270 T*S(rot)=     6.93 kcal/mol T*S(tot)=    22.67 kcal/mol
 sn= 6  qrot/sn=   22316.7725 T*S(rot)=     6.82 kcal/mol T*S(tot)=    22.56 kcal/mol
 sn= 7  qrot/sn=   19128.6621 T*S(rot)=     6.73 kcal/mol T*S(tot)=    22.47 kcal/mol
 sn= 8  qrot/sn=   16737.5794 T*S(rot)=     6.65 kcal/mol T*S(tot)=    22.39 kcal/mol
 sn= 9  qrot/sn=   14877.8483 T*S(rot)=     6.58 kcal/mol T*S(tot)=    22.32 kcal/mol
 sn=10  qrot/sn=   13390.0635 T*S(rot)=     6.52 kcal/mol T*S(tot)=    22.26 kcal/mol
 sn=11  qrot/sn=   12172.7850 T*S(rot)=     6.46 kcal/mol T*S(tot)=    22.21 kcal/mol
 sn=12  qrot/sn=   11158.3862 T*S(rot)=     6.41 kcal/mol T*S(tot)=    22.15 kcal/mol

-------------------
GIBBS FREE ENTHALPY
-------------------

The Gibbs free enthalpy is G = H - T*S

Total enthalpy                    ...   -251.88652034 Eh
Total entropy correction          ...     -0.03661316 Eh    -22.98 kcal/mol
-----------------------------------------------------------------------
Final Gibbs free enthalpy         ...   -251.92313350 Eh

For completeness - the Gibbs free enthalpy minus the electronic energy
G-E(el)                           ...      0.14369781 Eh     90.17 kcal/mol

                             ****ORCA TERMINATED NORMALLY****
TOTAL RUN TIME: 0 days 0 hours 27 minutes 16 seconds 18 msec
