                         Program Version 3.0.3 - RELEASE   -
|  1> ! NORI PBE0 def2-TZVP UseSym TightOPT Freq TightSCF Grid3 FinalGrid5 XYZFile
|  2> % pal
|  3>     nprocs 8
|  4> end
|  5> %method
|  6>     SymThresh 5.0e-2
|  7> end
|  8> % geom
|  9>     MaxIter 10
| 10> end
| 11> % maxcore 2000
| 12> % output
| 13>     printlevel mini
| 14>     print[ P_Basis ] 0
| 15>     print[ P_SCFInfo ] 1
| 16>     print[ P_SCFIterInfo ] 1
| 17>     print[ P_OrbEn ] 0
| 18>     print[ P_Cartesian ] 0
| 19> end
| 20> % elprop
| 21>     Dipole false
| 22> end
| 23> *xyz 1 1
| 24>  C        1.1817357519    -0.2305582715     0.4810119859
| 25>  C        2.5672794320     0.0986182693    -0.0191716026
| 26>  C        2.6341328578     0.3203525240    -1.5061195143
| 27>  C        3.3479068881     1.0854023510     0.8793784380
| 28>  C        4.0848079345    -0.0974714824     1.5082027774
| 29>  N        3.5490014176    -1.0209079036     0.4369303349
| 30>  H        0.7615294287    -1.0915548965    -0.0443995718
| 31>  H        0.5285422891     0.6234294757     0.2924652815
| 32>  H        1.1654836358    -0.4238662310     1.5566835976
| 33>  H        2.2172407041    -0.5254251227    -2.0584695158
| 34>  H        3.6554757287     0.5056797432    -1.8480019815
| 35>  H        2.0421015796     1.2027582066    -1.7574156059
| 36>  H        2.7395525924     1.6796745439     1.5575832490
| 37>  H        4.0030244722     1.7472135679     0.3135557518
| 38>  H        5.1721204266    -0.0794225332     1.5277678688
| 39>  H        3.7047916256    -0.4118822656     2.4771443750
| 40>  H        4.2382529987    -1.2484474259    -0.2780352819
| 41>  H        3.1199702366    -1.8877225493     0.7575594138
| 42> *
| 43>
| 44>                          ****END OF INPUT****
 Total Charge           Charge          ....    1
 Multiplicity           Mult            ....    1
 Number of Electrons    NEL             ....   48
FINAL SINGLE POINT ENERGY      -252.042188112927
FINAL SINGLE POINT ENERGY      -252.042189224955

CARTESIAN COORDINATES (ANGSTROEM)
---------------------------------
  C      1.589177    0.000087   -0.703169
  C      0.168910    0.307342   -0.295247
  C     -0.263041    1.710493   -0.626261
  C     -0.835899   -0.829998   -0.590532
  C     -0.736371   -1.273607    0.868847
  N     -0.000676    0.000011    1.222230
  H      2.291993    0.720396   -0.277438
  H      1.663967    0.067075   -1.789824
  H      1.892892   -1.009918   -0.416626
  H      0.425571    2.451422   -0.213247
  H     -1.275107    1.922260   -0.271864
  H     -0.266481    1.830812   -1.711531
  H     -0.510401   -1.557949   -1.330191
  H     -1.825264   -0.462513   -0.861145
  H     -1.655012   -1.387084    1.439001
  H     -0.085563   -2.126795    1.046566
  H     -0.588402    0.685144    1.694910
  H      0.861628   -0.106805    1.754457

FINAL SINGLE POINT ENERGY      -252.042189732664
                    ***********************HURRAY********************
 Multiplicity           Mult            ....    1
 Number of Electrons    NEL             ....   48
 Basis Dimension        Dim             ....  258
FINAL SINGLE POINT ENERGY      -252.042189892049

VIBRATIONAL FREQUENCIES
-----------------------

   0:         0.00 cm**-1
   1:         0.00 cm**-1
   2:         0.00 cm**-1
   3:         0.00 cm**-1
   4:         0.00 cm**-1
   5:         0.00 cm**-1
   6:        91.94 cm**-1
   7:       232.34 cm**-1
   8:       277.13 cm**-1
   9:       305.42 cm**-1
  10:       342.39 cm**-1
  11:       392.00 cm**-1
  12:       397.32 cm**-1
  13:       627.29 cm**-1
  14:       726.16 cm**-1
  15:       785.01 cm**-1
  16:       839.58 cm**-1
  17:       891.43 cm**-1
  18:       927.21 cm**-1
  19:       948.69 cm**-1
  20:       967.11 cm**-1
  21:      1000.09 cm**-1
  22:      1002.79 cm**-1
  23:      1018.02 cm**-1
  24:      1103.45 cm**-1
  25:      1159.31 cm**-1
  26:      1224.54 cm**-1
  27:      1234.86 cm**-1
  28:      1266.04 cm**-1
  29:      1292.21 cm**-1
  30:      1314.79 cm**-1
  31:      1343.79 cm**-1
  32:      1356.81 cm**-1
  33:      1416.07 cm**-1
  34:      1425.19 cm**-1
  35:      1467.70 cm**-1
  36:      1474.45 cm**-1
  37:      1487.00 cm**-1
  38:      1495.59 cm**-1
  39:      1497.14 cm**-1
  40:      1504.40 cm**-1
  41:      1636.60 cm**-1
  42:      3052.72 cm**-1
  43:      3056.39 cm**-1
  44:      3115.09 cm**-1
  45:      3130.27 cm**-1
  46:      3132.51 cm**-1
  47:      3134.85 cm**-1
  48:      3142.31 cm**-1
  49:      3148.59 cm**-1
  50:      3174.97 cm**-1
  51:      3197.80 cm**-1
  52:      3465.84 cm**-1
  53:      3540.66 cm**-1

IR SPECTRUM
-----------

 Mode    freq (cm**-1)   T**2         TX         TY         TZ
-------------------------------------------------------------------
   6:        91.94    0.725564  (  0.751859  -0.339886   0.211541)
   7:       232.34    0.085627  ( -0.007028  -0.282638  -0.075457)
   8:       277.13    0.470721  ( -0.327848  -0.592305  -0.111406)
   9:       305.42    2.018516  (  1.160658  -0.819096   0.021685)
  10:       342.39    0.770332  (  0.637487   0.405578  -0.446597)
  11:       392.00    1.133101  ( -0.458274   0.705524  -0.652167)
  12:       397.32    1.158322  (  0.577050   0.354805  -0.836331)
  13:       627.29    0.916831  (  0.832717  -0.329750   0.338642)
  14:       726.16    8.906600  ( -2.248756  -0.477665   1.903033)
  15:       785.01    3.772656  (  0.054964  -0.935395   1.701373)
  16:       839.58    5.745755  (  1.305930  -1.694540   1.081126)
  17:       891.43    1.527064  ( -1.079255  -0.226017   0.557843)
  18:       927.21    4.856007  ( -1.008602  -1.958297  -0.061650)
  19:       948.69    1.453959  ( -1.162980  -0.173138  -0.267317)
  20:       967.11    3.556582  (  1.036015   1.395936   0.731176)
  21:      1000.09    0.471947  ( -0.345712  -0.375443  -0.459862)
  22:      1002.79    2.038283  ( -0.689938  -1.128015  -0.538378)
  23:      1018.02    0.516551  (  0.075099   0.009005  -0.714723)
  24:      1103.45    1.155422  (  0.521271  -0.413375  -0.844287)
  25:      1159.31   34.138534  (  0.329473   1.335757  -5.678533)
  26:      1224.54    0.657740  (  0.671332  -0.384656   0.243089)
  27:      1234.86   25.546708  (  1.302268   3.345837  -3.557552)
  28:      1266.04    3.997629  ( -0.243097   1.708992  -1.008900)
  29:      1292.21   20.072043  (  2.995646   1.626069  -2.907585)
  30:      1314.79   62.286780  (  3.657500   5.632160  -4.145872)
  31:      1343.79    0.769781  ( -0.074240  -0.633111   0.602859)
  32:      1356.81    6.343377  ( -0.055636  -2.171175   1.275256)
  33:      1416.07   28.298792  ( -3.608341   3.905519  -0.159984)
  34:      1425.19    7.538418  ( -1.704179  -1.268208   1.739494)
  35:      1467.70    0.327852  ( -0.480186   0.311215  -0.020475)
  36:      1474.45    3.832457  ( -1.049691   0.855771   1.413598)
  37:      1487.00   27.097013  (  2.618856   0.389563   4.481835)
  38:      1495.59    6.847012  (  0.415320   2.030779   1.597015)
  39:      1497.14    7.914485  ( -1.593598  -2.318387  -0.003608)
  40:      1504.40    6.842022  (  0.958947   2.294695  -0.810443)
  41:      1636.60   54.833157  (  0.792092   2.638616   6.873387)
  42:      3052.72    2.111701  ( -1.097081   0.850493   0.429855)
  43:      3056.39    2.743008  (  0.377001  -0.226705   1.596710)
  44:      3115.09    1.190349  ( -0.810644   0.150145  -0.714606)
  45:      3130.27    0.776084  ( -0.241206  -0.177250   0.828545)
  46:      3132.51    4.491213  ( -1.590649   1.399281  -0.055346)
  47:      3134.85    7.478121  (  1.780205   2.039138  -0.388466)
  48:      3142.31    1.727933  (  0.392452  -1.251977  -0.080421)
  49:      3148.59    1.172082  ( -0.966572  -0.321406  -0.366768)
  50:      3174.97    0.420148  ( -0.450515   0.444901   0.138736)
  51:      3197.80    0.135326  ( -0.170272  -0.289603   0.149878)
  52:      3465.84   49.846239  ( -1.634335  -2.842412  -6.252670)
  53:      3540.66   68.059952  (  7.084392  -4.225166   0.138985)

--------------------------
THERMOCHEMISTRY AT 298.15K
--------------------------

Temperature         ... 298.15 K
Pressure            ... 1.00 atm
Total Mass          ... 86.16 AMU

Throughout the following assumptions are being made:
  (1) The electronic state is orbitally nondegenerate
  (2) There are no thermally accessible electronically excited states
  (3) Hindered rotations indicated by low frequency modes) are not
      treated as such but are treated as vibrations and this may
      case some error
  (4) All equations used are the standard statistical mechanics
      equations for an ideal gas
  (5) All vibrations are strinctly harmonic

------------
INNER ENERGY
------------

The inner energy is: U= E(el) + E(ZPE) + E(vib) + E(rot) + E(trans)
    E(el)   - is the total energy from the electronic structure calculation
              = E(kin-el) + E(nuc-el) + E(el-el) + E(nuc-nuc)
    E(ZPE)  - the the zero temperature vibrational energy from the frequency calculation
    E(vib)  - the the finite temperature correction to E(ZPE) due to population
              of excietd vibrational states
    E(rot)  - is the rotational thermal energy
    E(trans)- is the translational thermal energy

Summary of contributions to the inner energy U:
Electronic energy                ...   -252.04218989 Eh
Zero point energy                ...      0.17032467 Eh     106.88 kcal/mol
Thermal vibrational correction   ...      0.00399637 Eh       2.51 kcal/mol
Thermal rotational correction    ...      0.00141627 Eh       0.89 kcal/mol
Thermal translational correction ...      0.00141627 Eh       0.89 kcal/mol
-----------------------------------------------------------------------
Total thermal energy                   -251.86503631 Eh

Summary of corrections to the electronic energy:
(perhaps to be used in another calculation)
Total thermal correction                  0.00682891 Eh       4.29 kcal/mol
Non-thermal (ZPE) correction              0.17032467 Eh     106.88 kcal/mol
-----------------------------------------------------------------------
Total correction                          0.17715358 Eh     111.17 kcal/mol

--------
ENTHALPY
--------

The enthalpy is H = U + kB*T
                kB is Boltzmann's constant
Total free energy                 ...   -251.86503631 Eh
Thermal Enthalpy correction       ...      0.00094421 Eh       0.59 kcal/mol
-----------------------------------------------------------------------
Total Enthalpy                    ...   -251.86409210 Eh

-------
ENTROPY
-------

The entropy contributions are T*S = T*(S(el)+S(vib)+S(rot)+S(trans)
     S(el)   - electronic entropy
     S(vib)  - vibrational entropy
     S(rot)  - rotational entropy
     S(trans)- translational entropy
The entropies will be listed as mutliplied by the temperature to get
units of energy

Electronic entropy                ...      0.00000000 Eh      0.00 kcal/mol
Vibrational entropy               ...      0.00658273 Eh      4.13 kcal/mol
Rotational entropy                ...      0.01150244 Eh      7.22 kcal/mol
Translational entropy             ...      0.01866024 Eh     11.71 kcal/mol
-----------------------------------------------------------------------
Final entropy term                ...      0.03674541 Eh     23.06 kcal/mol

CAUTION: The rotational entropy is not quite correctly treated here
         because it includes a symmetry number that is not yet correctly
         implemented in ORCA!
For a nonlinear molecule the correct rotational entropy is:
    S(rot) = R*(ln(qrot/sn)+1.5)
    R    = 8.31441 J/mol/K = 1.987191683e-3 kcal/mol/K
    qrot = 130752.9182530
    sn is the rotational symmetry number. We have assumed 3 here
       if it is different for your molecule then you should correct
       the printed rotational entropy by manually evaluating the equation
       as given above

For convenience we print out the resulting values for sn=1 - 12:
 sn= 1  qrot/sn=  130752.9183 T*S(rot)=     7.87 kcal/mol T*S(tot)=    23.71 kcal/mol
 sn= 2  qrot/sn=   65376.4591 T*S(rot)=     7.46 kcal/mol T*S(tot)=    23.30 kcal/mol
 sn= 3  qrot/sn=   43584.3061 T*S(rot)=     7.22 kcal/mol T*S(tot)=    23.06 kcal/mol
 sn= 4  qrot/sn=   32688.2296 T*S(rot)=     7.05 kcal/mol T*S(tot)=    22.89 kcal/mol
 sn= 5  qrot/sn=   26150.5837 T*S(rot)=     6.92 kcal/mol T*S(tot)=    22.76 kcal/mol
 sn= 6  qrot/sn=   21792.1530 T*S(rot)=     6.81 kcal/mol T*S(tot)=    22.65 kcal/mol
 sn= 7  qrot/sn=   18678.9883 T*S(rot)=     6.72 kcal/mol T*S(tot)=    22.56 kcal/mol
 sn= 8  qrot/sn=   16344.1148 T*S(rot)=     6.64 kcal/mol T*S(tot)=    22.48 kcal/mol
 sn= 9  qrot/sn=   14528.1020 T*S(rot)=     6.57 kcal/mol T*S(tot)=    22.41 kcal/mol
 sn=10  qrot/sn=   13075.2918 T*S(rot)=     6.50 kcal/mol T*S(tot)=    22.34 kcal/mol
 sn=11  qrot/sn=   11886.6289 T*S(rot)=     6.45 kcal/mol T*S(tot)=    22.29 kcal/mol
 sn=12  qrot/sn=   10896.0765 T*S(rot)=     6.40 kcal/mol T*S(tot)=    22.24 kcal/mol

-------------------
GIBBS FREE ENTHALPY
-------------------

The Gibbs free enthalpy is G = H - T*S

Total enthalpy                    ...   -251.86409210 Eh
Total entropy correction          ...     -0.03674541 Eh    -23.06 kcal/mol
-----------------------------------------------------------------------
Final Gibbs free enthalpy         ...   -251.90083751 Eh

For completeness - the Gibbs free enthalpy minus the electronic energy
G-E(el)                           ...      0.14135238 Eh     88.70 kcal/mol

                             ****ORCA TERMINATED NORMALLY****
TOTAL RUN TIME: 0 days 0 hours 29 minutes 0 seconds 734 msec
