                         Program Version 3.0.3 - RELEASE   -
|  1> ! NORI PBE0 def2-TZVP UseSym TightOPT Freq TightSCF Grid3 FinalGrid5 XYZFile
|  2> % pal
|  3>     nprocs 8
|  4> end
|  5> %method
|  6>     SymThresh 5.0e-2
|  7> end
|  8> % geom
|  9>     MaxIter 10
| 10> end
| 11> % maxcore 2000
| 12> % output
| 13>     printlevel mini
| 14>     print[ P_Basis ] 0
| 15>     print[ P_SCFInfo ] 1
| 16>     print[ P_SCFIterInfo ] 1
| 17>     print[ P_OrbEn ] 0
| 18>     print[ P_Cartesian ] 0
| 19> end
| 20> % elprop
| 21>     Dipole false
| 22> end
| 23> *xyz 1 1
| 24>  C        1.0510445882    -0.1184619300     0.4374582105
| 25>  C        2.3745407361     0.1697070810    -0.2138140855
| 26>  C        3.2394676130     1.2721151225     0.4179183295
| 27>  C        4.1373341779     0.1922595751     1.0392399491
| 28>  C        5.6239385721     0.2571271171     0.8540872714
| 29>  N        3.4402454887    -0.8646038356     0.1744973657
| 30>  H        0.6056840635    -1.0403788376     0.0567974471
| 31>  H        0.3635883919     0.6980725317     0.2074183675
| 32>  H        1.1356011004    -0.1814150951     1.5257173684
| 33>  H        2.2857721101     0.2047732956    -1.2993214446
| 34>  H        2.7229287005     1.9209540215     1.1224117737
| 35>  H        3.7642614164     1.8851328771    -0.3149030467
| 36>  H        3.8721374618    -0.0247854829     2.0742639021
| 37>  H        5.8937552382     0.4339062137    -0.1904661023
| 38>  H        6.1181544576    -0.6513367773     1.2057862525
| 39>  H        6.0151514769     1.0913003556     1.4402023946
| 40>  H        4.0165911811    -1.1653822586    -0.6105774115
| 41>  H        3.0966232258    -1.6934139737     0.6577434584
| 42> *
| 43>
| 44>                          ****END OF INPUT****
 Total Charge           Charge          ....    1
 Multiplicity           Mult            ....    1
 Number of Electrons    NEL             ....   48
FINAL SINGLE POINT ENERGY      -252.043220118538
FINAL SINGLE POINT ENERGY      -252.043221253067
FINAL SINGLE POINT ENERGY      -252.043222203584

CARTESIAN COORDINATES (ANGSTROEM)
---------------------------------
  C      2.275489   -0.003866   -0.037409
  C      0.936098    0.675896    0.021135
  C     -0.064666    0.343864   -1.097112
  C     -0.827403   -0.566528   -0.123824
  C     -2.309863   -0.410606    0.041218
  N     -0.000519    0.004246    1.034716
  H      2.837683    0.129773    0.889440
  H      2.858875    0.443442   -0.844144
  H      2.182598   -1.071844   -0.251886
  H      1.034530    1.732632    0.266641
  H      0.360143   -0.147854   -1.969802
  H     -0.653536    1.202052   -1.421039
  H     -0.542707   -1.614257   -0.225362
  H     -2.591459    0.636286    0.182842
  H     -2.691109   -1.003121    0.875607
  H     -2.803343   -0.763569   -0.866690
  H     -0.529770    0.668104    1.598793
  H      0.435473   -0.673146    1.658990

FINAL SINGLE POINT ENERGY      -252.043222542799
                    ***********************HURRAY********************
 Multiplicity           Mult            ....    1
 Number of Electrons    NEL             ....   48
 Basis Dimension        Dim             ....  258
FINAL SINGLE POINT ENERGY      -252.043222859872

VIBRATIONAL FREQUENCIES
-----------------------

   0:         0.00 cm**-1
   1:         0.00 cm**-1
   2:         0.00 cm**-1
   3:         0.00 cm**-1
   4:         0.00 cm**-1
   5:         0.00 cm**-1
   6:        60.39 cm**-1
   7:       245.07 cm**-1
   8:       259.07 cm**-1
   9:       267.39 cm**-1
  10:       326.60 cm**-1
  11:       386.37 cm**-1
  12:       442.06 cm**-1
  13:       667.91 cm**-1
  14:       786.53 cm**-1
  15:       825.47 cm**-1
  16:       857.56 cm**-1
  17:       884.38 cm**-1
  18:       911.57 cm**-1
  19:       952.74 cm**-1
  20:       970.05 cm**-1
  21:      1026.80 cm**-1
  22:      1037.10 cm**-1
  23:      1112.89 cm**-1
  24:      1130.20 cm**-1
  25:      1171.79 cm**-1
  26:      1218.51 cm**-1
  27:      1257.35 cm**-1
  28:      1271.19 cm**-1
  29:      1288.28 cm**-1
  30:      1322.71 cm**-1
  31:      1337.31 cm**-1
  32:      1374.86 cm**-1
  33:      1397.89 cm**-1
  34:      1420.71 cm**-1
  35:      1422.12 cm**-1
  36:      1479.57 cm**-1
  37:      1480.79 cm**-1
  38:      1483.02 cm**-1
  39:      1486.52 cm**-1
  40:      1494.01 cm**-1
  41:      1633.49 cm**-1
  42:      3054.68 cm**-1
  43:      3055.50 cm**-1
  44:      3109.29 cm**-1
  45:      3118.61 cm**-1
  46:      3125.24 cm**-1
  47:      3140.36 cm**-1
  48:      3143.36 cm**-1
  49:      3144.52 cm**-1
  50:      3147.23 cm**-1
  51:      3173.53 cm**-1
  52:      3461.82 cm**-1
  53:      3537.13 cm**-1

IR SPECTRUM
-----------

 Mode    freq (cm**-1)   T**2         TX         TY         TZ
-------------------------------------------------------------------
   6:        60.39    1.926772  (  0.180455  -1.376204   0.016478)
   7:       245.07    0.124639  (  0.037714   0.345689   0.060960)
   8:       259.07    0.523726  ( -0.022741  -0.391081   0.608494)
   9:       267.39    0.678772  ( -0.074444  -0.667744  -0.476810)
  10:       326.60    0.248393  (  0.190574   0.427450   0.171351)
  11:       386.37    2.258824  ( -1.488535   0.151065   0.142365)
  12:       442.06    2.518471  (  1.152095  -1.031429   0.356795)
  13:       667.91    2.210283  (  1.420880  -0.310207   0.308473)
  14:       786.53    8.133011  (  2.834547  -0.311193  -0.038891)
  15:       825.47    2.752604  (  0.942510  -0.742826  -1.145640)
  16:       857.56    2.926992  ( -0.759787   0.636113  -1.394659)
  17:       884.38    3.212792  ( -1.271619  -1.195785   0.407279)
  18:       911.57    9.751809  ( -2.940496  -0.941348  -0.468141)
  19:       952.74    2.425205  ( -1.449011  -0.136619  -0.553993)
  20:       970.05    1.296430  ( -0.513167  -0.985088  -0.250382)
  21:      1026.80   11.551932  (  0.715470   0.610058  -3.266170)
  22:      1037.10    8.211170  ( -2.450223  -1.170066  -0.915710)
  23:      1112.89    5.399346  (  1.295939   0.922036   1.694030)
  24:      1130.20    3.882680  (  1.362361   1.209388  -0.751023)
  25:      1171.79    1.850724  (  0.535638  -0.127778   1.243981)
  26:      1218.51    4.691810  (  0.057985   2.152614   0.233880)
  27:      1257.35   50.515999  ( -6.357064  -3.171294   0.215938)
  28:      1271.19    3.350526  (  1.740471   0.340354   0.453261)
  29:      1288.28   27.735812  (  4.337161   2.975863   0.262839)
  30:      1322.71   23.631549  ( -3.280573  -3.236591  -1.547212)
  31:      1337.31    7.486593  ( -1.190846  -1.776857   1.706241)
  32:      1374.86   14.229126  ( -3.607045  -1.083935  -0.208408)
  33:      1397.89    1.358396  (  0.750729   0.064262   0.889197)
  34:      1420.71   21.741722  (  4.526208  -1.105186   0.183657)
  35:      1422.12    7.023254  ( -1.586801   1.685335   1.290333)
  36:      1479.57    4.705835  (  0.016606   0.021285  -2.169126)
  37:      1480.79   19.392244  (  0.246523  -0.723715   4.336785)
  38:      1483.02   12.314120  (  0.005071  -3.473718  -0.497369)
  39:      1486.52   11.324440  ( -1.011477  -3.204563  -0.179246)
  40:      1494.01    5.374284  ( -0.085201   1.557292  -1.715187)
  41:      1633.49   53.494957  ( -0.684106   0.399308   7.271005)
  42:      3054.68    2.310459  ( -0.027234   1.121565   1.025577)
  43:      3055.50    2.246724  (  0.199559   1.227950  -0.836085)
  44:      3109.29    0.801954  (  0.316763  -0.427050   0.720586)
  45:      3118.61    0.684804  (  0.795114   0.014636   0.228875)
  46:      3125.24    0.382354  (  0.259387  -0.123195   0.547627)
  47:      3140.36    4.140376  (  0.400320  -1.938714   0.470645)
  48:      3143.36    5.445534  (  1.035674   1.756747   1.134351)
  49:      3144.52    1.405244  ( -0.953375  -0.484600   0.511353)
  50:      3147.23    1.290848  (  0.685551  -0.897245   0.125771)
  51:      3173.53    0.804779  ( -0.632372   0.602215   0.205482)
  52:      3461.82   48.335658  (  0.396666   0.118628  -6.940046)
  53:      3537.13   68.720628  (  4.995201  -6.614866   0.110169)

--------------------------
THERMOCHEMISTRY AT 298.15K
--------------------------

Temperature         ... 298.15 K
Pressure            ... 1.00 atm
Total Mass          ... 86.16 AMU

Throughout the following assumptions are being made:
  (1) The electronic state is orbitally nondegenerate
  (2) There are no thermally accessible electronically excited states
  (3) Hindered rotations indicated by low frequency modes) are not
      treated as such but are treated as vibrations and this may
      case some error
  (4) All equations used are the standard statistical mechanics
      equations for an ideal gas
  (5) All vibrations are strinctly harmonic

------------
INNER ENERGY
------------

The inner energy is: U= E(el) + E(ZPE) + E(vib) + E(rot) + E(trans)
    E(el)   - is the total energy from the electronic structure calculation
              = E(kin-el) + E(nuc-el) + E(el-el) + E(nuc-nuc)
    E(ZPE)  - the the zero temperature vibrational energy from the frequency calculation
    E(vib)  - the the finite temperature correction to E(ZPE) due to population
              of excietd vibrational states
    E(rot)  - is the rotational thermal energy
    E(trans)- is the translational thermal energy

Summary of contributions to the inner energy U:
Electronic energy                ...   -252.04322286 Eh
Zero point energy                ...      0.17063831 Eh     107.08 kcal/mol
Thermal vibrational correction   ...      0.00402366 Eh       2.52 kcal/mol
Thermal rotational correction    ...      0.00141627 Eh       0.89 kcal/mol
Thermal translational correction ...      0.00141627 Eh       0.89 kcal/mol
-----------------------------------------------------------------------
Total thermal energy                   -251.86572834 Eh

Summary of corrections to the electronic energy:
(perhaps to be used in another calculation)
Total thermal correction                  0.00685621 Eh       4.30 kcal/mol
Non-thermal (ZPE) correction              0.17063831 Eh     107.08 kcal/mol
-----------------------------------------------------------------------
Total correction                          0.17749452 Eh     111.38 kcal/mol

--------
ENTHALPY
--------

The enthalpy is H = U + kB*T
                kB is Boltzmann's constant
Total free energy                 ...   -251.86572834 Eh
Thermal Enthalpy correction       ...      0.00094421 Eh       0.59 kcal/mol
-----------------------------------------------------------------------
Total Enthalpy                    ...   -251.86478413 Eh

-------
ENTROPY
-------

The entropy contributions are T*S = T*(S(el)+S(vib)+S(rot)+S(trans)
     S(el)   - electronic entropy
     S(vib)  - vibrational entropy
     S(rot)  - rotational entropy
     S(trans)- translational entropy
The entropies will be listed as mutliplied by the temperature to get
units of energy

Electronic entropy                ...      0.00000000 Eh      0.00 kcal/mol
Vibrational entropy               ...      0.00696802 Eh      4.37 kcal/mol
Rotational entropy                ...      0.01155650 Eh      7.25 kcal/mol
Translational entropy             ...      0.01866024 Eh     11.71 kcal/mol
-----------------------------------------------------------------------
Final entropy term                ...      0.03718475 Eh     23.33 kcal/mol

CAUTION: The rotational entropy is not quite correctly treated here
         because it includes a symmetry number that is not yet correctly
         implemented in ORCA!
For a nonlinear molecule the correct rotational entropy is:
    S(rot) = R*(ln(qrot/sn)+1.5)
    R    = 8.31441 J/mol/K = 1.987191683e-3 kcal/mol/K
    qrot = 138457.4008362
    sn is the rotational symmetry number. We have assumed 3 here
       if it is different for your molecule then you should correct
       the printed rotational entropy by manually evaluating the equation
       as given above

For convenience we print out the resulting values for sn=1 - 12:
 sn= 1  qrot/sn=  138457.4008 T*S(rot)=     7.90 kcal/mol T*S(tot)=    23.98 kcal/mol
 sn= 2  qrot/sn=   69228.7004 T*S(rot)=     7.49 kcal/mol T*S(tot)=    23.57 kcal/mol
 sn= 3  qrot/sn=   46152.4669 T*S(rot)=     7.25 kcal/mol T*S(tot)=    23.33 kcal/mol
 sn= 4  qrot/sn=   34614.3502 T*S(rot)=     7.08 kcal/mol T*S(tot)=    23.16 kcal/mol
 sn= 5  qrot/sn=   27691.4802 T*S(rot)=     6.95 kcal/mol T*S(tot)=    23.03 kcal/mol
 sn= 6  qrot/sn=   23076.2335 T*S(rot)=     6.84 kcal/mol T*S(tot)=    22.92 kcal/mol
 sn= 7  qrot/sn=   19779.6287 T*S(rot)=     6.75 kcal/mol T*S(tot)=    22.83 kcal/mol
 sn= 8  qrot/sn=   17307.1751 T*S(rot)=     6.67 kcal/mol T*S(tot)=    22.75 kcal/mol
 sn= 9  qrot/sn=   15384.1556 T*S(rot)=     6.60 kcal/mol T*S(tot)=    22.68 kcal/mol
 sn=10  qrot/sn=   13845.7401 T*S(rot)=     6.54 kcal/mol T*S(tot)=    22.62 kcal/mol
 sn=11  qrot/sn=   12587.0364 T*S(rot)=     6.48 kcal/mol T*S(tot)=    22.56 kcal/mol
 sn=12  qrot/sn=   11538.1167 T*S(rot)=     6.43 kcal/mol T*S(tot)=    22.51 kcal/mol

-------------------
GIBBS FREE ENTHALPY
-------------------

The Gibbs free enthalpy is G = H - T*S

Total enthalpy                    ...   -251.86478413 Eh
Total entropy correction          ...     -0.03718475 Eh    -23.33 kcal/mol
-----------------------------------------------------------------------
Final Gibbs free enthalpy         ...   -251.90196888 Eh

For completeness - the Gibbs free enthalpy minus the electronic energy
G-E(el)                           ...      0.14125398 Eh     88.64 kcal/mol

                             ****ORCA TERMINATED NORMALLY****
TOTAL RUN TIME: 0 days 0 hours 28 minutes 6 seconds 844 msec
