                         Program Version 3.0.3 - RELEASE   -
|  1> ! NORI PBE0 def2-TZVP UseSym TightOPT Freq TightSCF Grid3 FinalGrid5 XYZFile
|  2> % pal
|  3>     nprocs 8
|  4> end
|  5> %method
|  6>     SymThresh 5.0e-2
|  7> end
|  8> % geom
|  9>     MaxIter 10
| 10> end
| 11> % maxcore 2000
| 12> % output
| 13>     printlevel mini
| 14>     print[ P_Basis ] 0
| 15>     print[ P_SCFInfo ] 1
| 16>     print[ P_SCFIterInfo ] 1
| 17>     print[ P_OrbEn ] 0
| 18>     print[ P_Cartesian ] 0
| 19> end
| 20> % elprop
| 21>     Dipole false
| 22> end
| 23> *xyz 1 1
| 24>  C        1.0301160581    -0.0926587911     0.0192063924
| 25>  C        2.5251893055     0.0097240302     0.0126365100
| 26>  C        3.2448338825     1.0611856211     0.8702607075
| 27>  C        4.2182046805    -0.0358876534     1.3055575232
| 28>  N        3.2564092487    -1.0875912019     0.7963880524
| 29>  C        3.7802968128    -2.2676280862     0.0893212972
| 30>  H        0.6780532981    -0.9856363171    -0.5021611327
| 31>  H        0.6140082799     0.7731066163    -0.5005712883
| 32>  H        0.6296980006    -0.0880804386     1.0366069429
| 33>  H        2.9333221663    -0.0286562406    -0.9994615279
| 34>  H        2.6234943157     1.4258916617     1.6887772159
| 35>  H        3.6733745720     1.9078134443     0.3400704038
| 36>  H        5.1267898478    -0.0842890796     0.7076066201
| 37>  H        4.4575854114    -0.1527706010     2.3605132197
| 38>  H        2.6530086472    -1.3935397013     1.5606227222
| 39>  H        4.4270643542    -1.9329828379    -0.7202296686
| 40>  H        2.9482154959    -2.8446170614    -0.3136382389
| 41>  H        4.3505656227    -2.8815533635     0.7866242492
| 42> *
| 43>
| 44>                          ****END OF INPUT****
 Total Charge           Charge          ....    1
 Multiplicity           Mult            ....    1
 Number of Electrons    NEL             ....   48
FINAL SINGLE POINT ENERGY      -252.035902745533
FINAL SINGLE POINT ENERGY      -252.035904394963
FINAL SINGLE POINT ENERGY      -252.035905948326
FINAL SINGLE POINT ENERGY      -252.035906596690

CARTESIAN COORDINATES (ANGSTROEM)
---------------------------------
  C      1.716627    0.005722   -1.143858
  C      0.292792    0.230203   -0.732972
  C     -0.798422   -0.794384   -1.076821
  C     -1.309270   -0.652894    0.357827
  N     -0.002477   -0.001628    0.755057
  C     -0.009989    1.137660    1.687204
  H      2.393171    0.729871   -0.684844
  H      1.794640    0.126968   -2.226372
  H      2.051742   -1.006231   -0.901414
  H     -0.037094    1.249888   -0.942925
  H     -0.387328   -1.783125   -1.284309
  H     -1.490102   -0.519074   -1.868557
  H     -2.105745    0.081100    0.472899
  H     -1.534769   -1.545224    0.937898
  H      0.639168   -0.715433    1.101837
  H     -0.694197    1.895340    1.309147
  H      0.996383    1.549343    1.758894
  H     -0.339946    0.797931    2.668731

FINAL SINGLE POINT ENERGY      -252.035907058474
                    ***********************HURRAY********************
 Multiplicity           Mult            ....    1
 Number of Electrons    NEL             ....   48
 Basis Dimension        Dim             ....  258
FINAL SINGLE POINT ENERGY      -252.035907269270

VIBRATIONAL FREQUENCIES
-----------------------

   0:         0.00 cm**-1
   1:         0.00 cm**-1
   2:         0.00 cm**-1
   3:         0.00 cm**-1
   4:         0.00 cm**-1
   5:         0.00 cm**-1
   6:       111.93 cm**-1
   7:       204.59 cm**-1
   8:       227.56 cm**-1
   9:       259.98 cm**-1
  10:       313.80 cm**-1
  11:       378.09 cm**-1
  12:       484.93 cm**-1
  13:       620.61 cm**-1
  14:       766.37 cm**-1
  15:       795.15 cm**-1
  16:       894.48 cm**-1
  17:       922.20 cm**-1
  18:       940.06 cm**-1
  19:       991.71 cm**-1
  20:      1033.60 cm**-1
  21:      1055.75 cm**-1
  22:      1121.45 cm**-1
  23:      1126.53 cm**-1
  24:      1158.28 cm**-1
  25:      1205.77 cm**-1
  26:      1230.67 cm**-1
  27:      1249.84 cm**-1
  28:      1284.37 cm**-1
  29:      1309.74 cm**-1
  30:      1325.88 cm**-1
  31:      1343.06 cm**-1
  32:      1390.43 cm**-1
  33:      1418.18 cm**-1
  34:      1437.12 cm**-1
  35:      1455.18 cm**-1
  36:      1479.70 cm**-1
  37:      1482.35 cm**-1
  38:      1487.37 cm**-1
  39:      1488.28 cm**-1
  40:      1497.84 cm**-1
  41:      1508.70 cm**-1
  42:      3054.75 cm**-1
  43:      3080.91 cm**-1
  44:      3102.59 cm**-1
  45:      3111.16 cm**-1
  46:      3117.94 cm**-1
  47:      3137.72 cm**-1
  48:      3142.64 cm**-1
  49:      3176.00 cm**-1
  50:      3179.70 cm**-1
  51:      3183.49 cm**-1
  52:      3190.58 cm**-1
  53:      3469.75 cm**-1

IR SPECTRUM
-----------

 Mode    freq (cm**-1)   T**2         TX         TY         TZ
-------------------------------------------------------------------
   6:       111.93    0.459656  (  0.506778   0.259849   0.367845)
   7:       204.59    0.040825  (  0.034861   0.060502   0.189603)
   8:       227.56    0.100342  ( -0.025124  -0.102596  -0.298639)
   9:       259.98    0.150141  ( -0.100943   0.330492   0.175289)
  10:       313.80    1.017568  ( -0.427486  -0.625175   0.666318)
  11:       378.09    0.134380  (  0.363721   0.043547  -0.013819)
  12:       484.93    0.502711  (  0.282312  -0.320198  -0.566113)
  13:       620.61    2.348412  ( -0.404300   1.460184   0.229821)
  14:       766.37    3.086886  (  0.897532  -0.129853  -1.504813)
  15:       795.15    3.069713  (  0.922720   0.992723  -1.110316)
  16:       894.48   14.676297  ( -3.108614  -0.978739   2.013675)
  17:       922.20    3.020816  (  1.706558   0.237991   0.227676)
  18:       940.06    3.148547  (  1.039258   1.438098  -0.019049)
  19:       991.71    3.676515  (  0.933047   1.247718   1.117648)
  20:      1033.60   23.688576  (  0.803524   0.517930  -4.772282)
  21:      1055.75    3.815430  ( -1.840659  -0.619617  -0.208518)
  22:      1121.45   20.347255  (  0.744938   2.124331   3.908906)
  23:      1126.53    1.307887  ( -0.311041  -1.020413  -0.412186)
  24:      1158.28    1.484130  ( -1.137912  -0.422364  -0.104376)
  25:      1205.77    1.286777  (  0.287639   0.505839   0.973739)
  26:      1230.67    4.282452  (  1.757597   0.358062  -1.032034)
  27:      1249.84    2.839669  ( -0.811129  -1.053530   1.035284)
  28:      1284.37    6.162874  (  2.146732   0.904023  -0.858579)
  29:      1309.74    4.221774  ( -0.835722   0.069262   1.875778)
  30:      1325.88   14.864148  ( -2.151784  -2.520810   1.969641)
  31:      1343.06    1.424941  ( -0.968429   0.677702   0.166751)
  32:      1390.43   10.739872  (  2.314560   1.494462  -1.774618)
  33:      1418.18   16.295108  ( -3.795420  -0.344832   1.330784)
  34:      1437.12   18.998883  ( -0.658724   2.652657   3.395346)
  35:      1455.18    7.650824  (  0.139199   2.242868   1.612759)
  36:      1479.70    8.078882  (  0.597195   0.183572   2.772822)
  37:      1482.35    9.645025  (  0.714078   2.546388  -1.628197)
  38:      1487.37   17.028768  ( -0.555758  -1.869515  -3.636594)
  39:      1488.28   18.718984  (  3.229651   2.150161  -1.914457)
  40:      1497.84   27.845879  ( -3.767702   2.779041  -2.434591)
  41:      1508.70    7.100446  (  2.293188   0.299381  -1.323672)
  42:      3054.75    2.272388  (  0.530135  -0.670041   1.241930)
  43:      3080.91    0.158360  ( -0.063606  -0.349997  -0.178370)
  44:      3102.59    0.163392  ( -0.382830  -0.098982  -0.083880)
  45:      3111.16    1.650647  ( -0.632372   1.034004   0.426133)
  46:      3117.94    2.323349  (  1.038802  -0.274773  -1.081083)
  47:      3137.72    5.028812  ( -0.276075   2.213262   0.232520)
  48:      3142.64    1.289413  (  1.012741   0.508919   0.069069)
  49:      3176.00    0.009565  ( -0.014513  -0.027447   0.092742)
  50:      3179.70    0.312900  (  0.544994   0.068036  -0.106083)
  51:      3183.49    0.101913  (  0.211984   0.043960   0.234612)
  52:      3190.58    0.267249  ( -0.301863  -0.359204   0.217025)
  53:      3469.75   44.830779  (  4.289858  -4.104399   3.095450)

--------------------------
THERMOCHEMISTRY AT 298.15K
--------------------------

Temperature         ... 298.15 K
Pressure            ... 1.00 atm
Total Mass          ... 86.16 AMU

Throughout the following assumptions are being made:
  (1) The electronic state is orbitally nondegenerate
  (2) There are no thermally accessible electronically excited states
  (3) Hindered rotations indicated by low frequency modes) are not
      treated as such but are treated as vibrations and this may
      case some error
  (4) All equations used are the standard statistical mechanics
      equations for an ideal gas
  (5) All vibrations are strinctly harmonic

------------
INNER ENERGY
------------

The inner energy is: U= E(el) + E(ZPE) + E(vib) + E(rot) + E(trans)
    E(el)   - is the total energy from the electronic structure calculation
              = E(kin-el) + E(nuc-el) + E(el-el) + E(nuc-nuc)
    E(ZPE)  - the the zero temperature vibrational energy from the frequency calculation
    E(vib)  - the the finite temperature correction to E(ZPE) due to population
              of excietd vibrational states
    E(rot)  - is the rotational thermal energy
    E(trans)- is the translational thermal energy

Summary of contributions to the inner energy U:
Electronic energy                ...   -252.03590727 Eh
Zero point energy                ...      0.17074586 Eh     107.14 kcal/mol
Thermal vibrational correction   ...      0.00400571 Eh       2.51 kcal/mol
Thermal rotational correction    ...      0.00141627 Eh       0.89 kcal/mol
Thermal translational correction ...      0.00141627 Eh       0.89 kcal/mol
-----------------------------------------------------------------------
Total thermal energy                   -251.85832315 Eh

Summary of corrections to the electronic energy:
(perhaps to be used in another calculation)
Total thermal correction                  0.00683826 Eh       4.29 kcal/mol
Non-thermal (ZPE) correction              0.17074586 Eh     107.14 kcal/mol
-----------------------------------------------------------------------
Total correction                          0.17758412 Eh     111.44 kcal/mol

--------
ENTHALPY
--------

The enthalpy is H = U + kB*T
                kB is Boltzmann's constant
Total free energy                 ...   -251.85832315 Eh
Thermal Enthalpy correction       ...      0.00094421 Eh       0.59 kcal/mol
-----------------------------------------------------------------------
Total Enthalpy                    ...   -251.85737894 Eh

-------
ENTROPY
-------

The entropy contributions are T*S = T*(S(el)+S(vib)+S(rot)+S(trans)
     S(el)   - electronic entropy
     S(vib)  - vibrational entropy
     S(rot)  - rotational entropy
     S(trans)- translational entropy
The entropies will be listed as mutliplied by the temperature to get
units of energy

Electronic entropy                ...      0.00000000 Eh      0.00 kcal/mol
Vibrational entropy               ...      0.00664839 Eh      4.17 kcal/mol
Rotational entropy                ...      0.01160251 Eh      7.28 kcal/mol
Translational entropy             ...      0.01866024 Eh     11.71 kcal/mol
-----------------------------------------------------------------------
Final entropy term                ...      0.03691114 Eh     23.16 kcal/mol

CAUTION: The rotational entropy is not quite correctly treated here
         because it includes a symmetry number that is not yet correctly
         implemented in ORCA!
For a nonlinear molecule the correct rotational entropy is:
    S(rot) = R*(ln(qrot/sn)+1.5)
    R    = 8.31441 J/mol/K = 1.987191683e-3 kcal/mol/K
    qrot = 145372.5061481
    sn is the rotational symmetry number. We have assumed 3 here
       if it is different for your molecule then you should correct
       the printed rotational entropy by manually evaluating the equation
       as given above

For convenience we print out the resulting values for sn=1 - 12:
 sn= 1  qrot/sn=  145372.5061 T*S(rot)=     7.93 kcal/mol T*S(tot)=    23.81 kcal/mol
 sn= 2  qrot/sn=   72686.2531 T*S(rot)=     7.52 kcal/mol T*S(tot)=    23.40 kcal/mol
 sn= 3  qrot/sn=   48457.5020 T*S(rot)=     7.28 kcal/mol T*S(tot)=    23.16 kcal/mol
 sn= 4  qrot/sn=   36343.1265 T*S(rot)=     7.11 kcal/mol T*S(tot)=    22.99 kcal/mol
 sn= 5  qrot/sn=   29074.5012 T*S(rot)=     6.98 kcal/mol T*S(tot)=    22.86 kcal/mol
 sn= 6  qrot/sn=   24228.7510 T*S(rot)=     6.87 kcal/mol T*S(tot)=    22.75 kcal/mol
 sn= 7  qrot/sn=   20767.5009 T*S(rot)=     6.78 kcal/mol T*S(tot)=    22.66 kcal/mol
 sn= 8  qrot/sn=   18171.5633 T*S(rot)=     6.70 kcal/mol T*S(tot)=    22.58 kcal/mol
 sn= 9  qrot/sn=   16152.5007 T*S(rot)=     6.63 kcal/mol T*S(tot)=    22.51 kcal/mol
 sn=10  qrot/sn=   14537.2506 T*S(rot)=     6.57 kcal/mol T*S(tot)=    22.45 kcal/mol
 sn=11  qrot/sn=   13215.6824 T*S(rot)=     6.51 kcal/mol T*S(tot)=    22.39 kcal/mol
 sn=12  qrot/sn=   12114.3755 T*S(rot)=     6.46 kcal/mol T*S(tot)=    22.34 kcal/mol

-------------------
GIBBS FREE ENTHALPY
-------------------

The Gibbs free enthalpy is G = H - T*S

Total enthalpy                    ...   -251.85737894 Eh
Total entropy correction          ...     -0.03691114 Eh    -23.16 kcal/mol
-----------------------------------------------------------------------
Final Gibbs free enthalpy         ...   -251.89429008 Eh

For completeness - the Gibbs free enthalpy minus the electronic energy
G-E(el)                           ...      0.14161719 Eh     88.87 kcal/mol

                             ****ORCA TERMINATED NORMALLY****
TOTAL RUN TIME: 0 days 0 hours 29 minutes 39 seconds 550 msec
