                         Program Version 3.0.3 - RELEASE   -
|  1> ! NORI PBE0 def2-TZVP UseSym TightOPT Freq TightSCF Grid3 FinalGrid5 XYZFile
|  2> % pal
|  3>     nprocs 8
|  4> end
|  5> %method
|  6>     SymThresh 5.0e-2
|  7> end
|  8> % geom
|  9>     MaxIter 10
| 10> end
| 11> % maxcore 2000
| 12> % output
| 13>     printlevel mini
| 14>     print[ P_Basis ] 0
| 15>     print[ P_SCFInfo ] 1
| 16>     print[ P_SCFIterInfo ] 1
| 17>     print[ P_OrbEn ] 0
| 18>     print[ P_Cartesian ] 0
| 19> end
| 20> % elprop
| 21>     Dipole false
| 22> end
| 23> *xyz 1 1
| 24>  C        0.8835110793     0.1418054934    -0.1795704623
| 25>  C        2.3642556830    -0.0524561980    -0.1400749432
| 26>  C        3.1360662355    -0.8616217588    -1.1117513097
| 27>  C        2.5413606254    -1.5963105818    -2.2690143493
| 28>  N        3.1981975985     0.6293582572    -1.1739219863
| 29>  C        4.4089221398     1.3850689437    -0.8384068978
| 30>  H        0.6079521010     1.1028233851     0.2576891583
| 31>  H        0.4109480411    -0.6411590139     0.4168415314
| 32>  H        0.4733790190     0.0846163017    -1.1882954144
| 33>  H        2.8201730207     0.0520866337     0.8395948450
| 34>  H        4.0735716963    -1.2621480669    -0.7392036462
| 35>  H        1.6258451140    -1.1345564588    -2.6394805425
| 36>  H        2.2959666981    -2.6111808834    -1.9504272020
| 37>  H        3.2573103115    -1.6709466271    -3.0893849751
| 38>  H        2.6560448095     1.0263846604    -1.9358217429
| 39>  H        4.9226184921     0.8831452494    -0.0204681347
| 40>  H        4.1294447073     2.3923268996    -0.5317754962
| 41>  H        5.0604526280     1.4246737646    -1.7110384321
| 42> *
| 43>
| 44>                          ****END OF INPUT****
 Total Charge           Charge          ....    1
 Multiplicity           Mult            ....    1
 Number of Electrons    NEL             ....   48
FINAL SINGLE POINT ENERGY      -252.030914747122

CARTESIAN COORDINATES (ANGSTROEM)
---------------------------------
  C     -1.049393    0.727871    1.592303
  C     -0.426771   -0.330046    0.740662
  C     -0.426771   -0.330046   -0.740662
  C     -1.049393    0.727871   -1.592303
  N      0.827058    0.000593    0.000000
  C      1.999652   -0.879693   -0.000000
  H     -0.526370    0.813532    2.546096
  H     -2.081938    0.443744    1.805134
  H     -1.066571    1.705793    1.110684
  H     -0.343422   -1.308667    1.202882
  H     -0.343422   -1.308667   -1.202882
  H     -1.066571    1.705793   -1.110684
  H     -2.081938    0.443744   -1.805134
  H     -0.526370    0.813532   -2.546096
  H      1.049205    0.991704   -0.000000
  H      1.663288   -1.914960    0.000000
  H      2.592621   -0.687394    0.893544
  H      2.592621   -0.687394   -0.893544

FINAL SINGLE POINT ENERGY      -252.030915670046
                    ***********************HURRAY********************
 Multiplicity           Mult            ....    1
 Number of Electrons    NEL             ....   48
 Basis Dimension        Dim             ....  258
FINAL SINGLE POINT ENERGY      -252.030916335420

VIBRATIONAL FREQUENCIES
-----------------------

   0:         0.00 cm**-1
   1:         0.00 cm**-1
   2:         0.00 cm**-1
   3:         0.00 cm**-1
   4:         0.00 cm**-1
   5:         0.00 cm**-1
   6:       174.42 cm**-1
   7:       179.82 cm**-1
   8:       182.04 cm**-1
   9:       232.28 cm**-1
  10:       233.41 cm**-1
  11:       283.50 cm**-1
  12:       340.00 cm**-1
  13:       452.33 cm**-1
  14:       527.75 cm**-1
  15:       764.04 cm**-1
  16:       777.49 cm**-1
  17:       839.07 cm**-1
  18:       954.46 cm**-1
  19:       984.40 cm**-1
  20:      1025.38 cm**-1
  21:      1059.63 cm**-1
  22:      1086.43 cm**-1
  23:      1101.29 cm**-1
  24:      1148.23 cm**-1
  25:      1162.99 cm**-1
  26:      1192.59 cm**-1
  27:      1228.49 cm**-1
  28:      1240.95 cm**-1
  29:      1299.76 cm**-1
  30:      1390.16 cm**-1
  31:      1397.97 cm**-1
  32:      1425.55 cm**-1
  33:      1431.71 cm**-1
  34:      1455.75 cm**-1
  35:      1470.77 cm**-1
  36:      1478.97 cm**-1
  37:      1479.84 cm**-1
  38:      1483.64 cm**-1
  39:      1486.79 cm**-1
  40:      1500.44 cm**-1
  41:      1520.72 cm**-1
  42:      3069.58 cm**-1
  43:      3073.55 cm**-1
  44:      3082.79 cm**-1
  45:      3147.26 cm**-1
  46:      3148.67 cm**-1
  47:      3152.46 cm**-1
  48:      3160.34 cm**-1
  49:      3178.08 cm**-1
  50:      3180.82 cm**-1
  51:      3183.71 cm**-1
  52:      3189.51 cm**-1
  53:      3534.81 cm**-1

IR SPECTRUM
-----------

 Mode    freq (cm**-1)   T**2         TX         TY         TZ
-------------------------------------------------------------------
   6:       174.42    0.003962  (  0.000069  -0.000042  -0.062941)
   7:       179.82    0.000278  ( -0.000112   0.000051   0.016661)
   8:       182.04    0.008348  ( -0.085655   0.031805  -0.000105)
   9:       232.28    0.256782  ( -0.502109   0.068327   0.000174)
  10:       233.41    0.068731  (  0.000352  -0.000044   0.262166)
  11:       283.50    0.335737  ( -0.202190  -0.543006  -0.000001)
  12:       340.00    1.374866  ( -0.000007   0.000003   1.172547)
  13:       452.33    0.766914  ( -0.036067  -0.874994   0.000006)
  14:       527.75    0.726183  ( -0.000005  -0.000002   0.852164)
  15:       764.04    2.960560  ( -0.000023  -0.000006  -1.720628)
  16:       777.49   12.062314  (  3.292800   1.104436  -0.000013)
  17:       839.07    1.457577  ( -0.986075  -0.696587  -0.000017)
  18:       954.46   24.215242  (  0.000013   0.000002  -4.920898)
  19:       984.40   10.279558  ( -3.157237  -0.558045  -0.000024)
  20:      1025.38    8.504533  (  0.000039   0.000013   2.916253)
  21:      1059.63   12.279053  ( -3.161477  -1.511328  -0.000017)
  22:      1086.43   13.886106  (  0.000148   0.000020  -3.726407)
  23:      1101.29   34.209158  ( -5.766488   0.978149  -0.000052)
  24:      1148.23   21.829235  (  4.454645  -1.409034   0.000012)
  25:      1162.99    5.856122  (  0.000000  -0.000013  -2.419943)
  26:      1192.59    0.511583  ( -0.000025   0.000015  -0.715250)
  27:      1228.49    1.585834  ( -0.000013   0.000069   1.259299)
  28:      1240.95    2.725194  (  0.378027  -1.606950   0.000038)
  29:      1299.76    3.481432  (  0.642700   1.751676   0.000020)
  30:      1390.16    0.416404  (  0.000019  -0.000025  -0.645293)
  31:      1397.97    5.205160  (  1.872450  -1.303492   0.000027)
  32:      1425.55   10.984212  ( -1.794218   2.786574   0.000234)
  33:      1431.71    9.444730  ( -0.000017   0.000137  -3.073228)
  34:      1455.75    3.283942  ( -1.757429  -0.442024  -0.000024)
  35:      1470.77   13.370081  (  0.000066  -0.000026   3.656512)
  36:      1478.97    9.957945  ( -0.000527   0.000349   3.155621)
  37:      1479.84    2.183002  (  0.825857  -1.225137   0.001535)
  38:      1483.64    8.592844  ( -0.000038  -0.000112  -2.931355)
  39:      1486.79   11.719717  ( -3.419846  -0.156101  -0.000105)
  40:      1500.44   50.913267  (  4.235796   5.742064   0.000029)
  41:      1520.72   30.933529  (  4.934692  -2.565607  -0.000050)
  42:      3069.58    0.187698  ( -0.000047  -0.000064   0.433241)
  43:      3073.55    1.814664  (  0.741006   1.124977   0.000027)
  44:      3082.79    0.997038  ( -0.858489   0.509935   0.000001)
  45:      3147.26    0.081287  ( -0.000077   0.000134   0.285109)
  46:      3148.67    0.318990  (  0.307522  -0.473730   0.000073)
  47:      3152.46    3.698884  ( -0.000004   0.000014  -1.923248)
  48:      3160.34    2.646965  (  0.023228   1.626784   0.000010)
  49:      3178.08    0.008628  ( -0.000024   0.000011  -0.092886)
  50:      3180.82    0.248865  ( -0.000013   0.000006   0.498864)
  51:      3183.71    0.623675  (  0.715793  -0.333638   0.000002)
  52:      3189.51    0.273308  (  0.431848  -0.294644   0.000008)
  53:      3534.81   60.133276  ( -3.466158  -6.936788   0.000000)

--------------------------
THERMOCHEMISTRY AT 298.15K
--------------------------

Temperature         ... 298.15 K
Pressure            ... 1.00 atm
Total Mass          ... 86.16 AMU

Throughout the following assumptions are being made:
  (1) The electronic state is orbitally nondegenerate
  (2) There are no thermally accessible electronically excited states
  (3) Hindered rotations indicated by low frequency modes) are not
      treated as such but are treated as vibrations and this may
      case some error
  (4) All equations used are the standard statistical mechanics
      equations for an ideal gas
  (5) All vibrations are strinctly harmonic

------------
INNER ENERGY
------------

The inner energy is: U= E(el) + E(ZPE) + E(vib) + E(rot) + E(trans)
    E(el)   - is the total energy from the electronic structure calculation
              = E(kin-el) + E(nuc-el) + E(el-el) + E(nuc-nuc)
    E(ZPE)  - the the zero temperature vibrational energy from the frequency calculation
    E(vib)  - the the finite temperature correction to E(ZPE) due to population
              of excietd vibrational states
    E(rot)  - is the rotational thermal energy
    E(trans)- is the translational thermal energy

Summary of contributions to the inner energy U:
Electronic energy                ...   -252.03091634 Eh
Zero point energy                ...      0.16879993 Eh     105.92 kcal/mol
Thermal vibrational correction   ...      0.00469396 Eh       2.95 kcal/mol
Thermal rotational correction    ...      0.00141627 Eh       0.89 kcal/mol
Thermal translational correction ...      0.00141627 Eh       0.89 kcal/mol
-----------------------------------------------------------------------
Total thermal energy                   -251.85458989 Eh

Summary of corrections to the electronic energy:
(perhaps to be used in another calculation)
Total thermal correction                  0.00752651 Eh       4.72 kcal/mol
Non-thermal (ZPE) correction              0.16879993 Eh     105.92 kcal/mol
-----------------------------------------------------------------------
Total correction                          0.17632644 Eh     110.65 kcal/mol

--------
ENTHALPY
--------

The enthalpy is H = U + kB*T
                kB is Boltzmann's constant
Total free energy                 ...   -251.85458989 Eh
Thermal Enthalpy correction       ...      0.00094421 Eh       0.59 kcal/mol
-----------------------------------------------------------------------
Total Enthalpy                    ...   -251.85364568 Eh

-------
ENTROPY
-------

The entropy contributions are T*S = T*(S(el)+S(vib)+S(rot)+S(trans)
     S(el)   - electronic entropy
     S(vib)  - vibrational entropy
     S(rot)  - rotational entropy
     S(trans)- translational entropy
The entropies will be listed as mutliplied by the temperature to get
units of energy

Electronic entropy                ...      0.00000000 Eh      0.00 kcal/mol
Vibrational entropy               ...      0.00779029 Eh      4.89 kcal/mol
Rotational entropy                ...      0.01171356 Eh      7.35 kcal/mol
Translational entropy             ...      0.01866024 Eh     11.71 kcal/mol
-----------------------------------------------------------------------
Final entropy term                ...      0.03816409 Eh     23.95 kcal/mol

CAUTION: The rotational entropy is not quite correctly treated here
         because it includes a symmetry number that is not yet correctly
         implemented in ORCA!
For a nonlinear molecule the correct rotational entropy is:
    S(rot) = R*(ln(qrot/sn)+1.5)
    R    = 8.31441 J/mol/K = 1.987191683e-3 kcal/mol/K
    qrot = 163516.8608928
    sn is the rotational symmetry number. We have assumed 3 here
       if it is different for your molecule then you should correct
       the printed rotational entropy by manually evaluating the equation
       as given above

For convenience we print out the resulting values for sn=1 - 12:
 sn= 1  qrot/sn=  163516.8609 T*S(rot)=     8.00 kcal/mol T*S(tot)=    24.60 kcal/mol
 sn= 2  qrot/sn=   81758.4304 T*S(rot)=     7.59 kcal/mol T*S(tot)=    24.19 kcal/mol
 sn= 3  qrot/sn=   54505.6203 T*S(rot)=     7.35 kcal/mol T*S(tot)=    23.95 kcal/mol
 sn= 4  qrot/sn=   40879.2152 T*S(rot)=     7.18 kcal/mol T*S(tot)=    23.78 kcal/mol
 sn= 5  qrot/sn=   32703.3722 T*S(rot)=     7.05 kcal/mol T*S(tot)=    23.65 kcal/mol
 sn= 6  qrot/sn=   27252.8101 T*S(rot)=     6.94 kcal/mol T*S(tot)=    23.54 kcal/mol
 sn= 7  qrot/sn=   23359.5516 T*S(rot)=     6.85 kcal/mol T*S(tot)=    23.45 kcal/mol
 sn= 8  qrot/sn=   20439.6076 T*S(rot)=     6.77 kcal/mol T*S(tot)=    23.37 kcal/mol
 sn= 9  qrot/sn=   18168.5401 T*S(rot)=     6.70 kcal/mol T*S(tot)=    23.30 kcal/mol
 sn=10  qrot/sn=   16351.6861 T*S(rot)=     6.64 kcal/mol T*S(tot)=    23.23 kcal/mol
 sn=11  qrot/sn=   14865.1692 T*S(rot)=     6.58 kcal/mol T*S(tot)=    23.18 kcal/mol
 sn=12  qrot/sn=   13626.4051 T*S(rot)=     6.53 kcal/mol T*S(tot)=    23.13 kcal/mol

-------------------
GIBBS FREE ENTHALPY
-------------------

The Gibbs free enthalpy is G = H - T*S

Total enthalpy                    ...   -251.85364568 Eh
Total entropy correction          ...     -0.03816409 Eh    -23.95 kcal/mol
-----------------------------------------------------------------------
Final Gibbs free enthalpy         ...   -251.89180978 Eh

For completeness - the Gibbs free enthalpy minus the electronic energy
G-E(el)                           ...      0.13910656 Eh     87.29 kcal/mol

                             ****ORCA TERMINATED NORMALLY****
TOTAL RUN TIME: 0 days 0 hours 26 minutes 8 seconds 400 msec
