                         Program Version 3.0.3 - RELEASE   -
|  1> ! NORI PBE0 def2-TZVP UseSym TightOPT Freq TightSCF Grid3 FinalGrid5 XYZFile
|  2> % pal
|  3>     nprocs 8
|  4> end
|  5> %method
|  6>     SymThresh 5.0e-2
|  7> end
|  8> % geom
|  9>     MaxIter 10
| 10> end
| 11> % maxcore 2000
| 12> % output
| 13>     printlevel mini
| 14>     print[ P_Basis ] 0
| 15>     print[ P_SCFInfo ] 1
| 16>     print[ P_SCFIterInfo ] 1
| 17>     print[ P_OrbEn ] 0
| 18>     print[ P_Cartesian ] 0
| 19> end
| 20> % elprop
| 21>     Dipole false
| 22> end
| 23> *xyz 1 1
| 24>  C        0.9611966137     0.0213581020     0.0050836186
| 25>  C        2.4711149240     0.0576771970     0.1357622496
| 26>  C        3.0139875984     1.1615827791     1.0408052838
| 27>  C        4.4486165119     0.7505490580     1.3097242392
| 28>  N        4.4196024732    -0.7735556115     1.2542616100
| 29>  C        3.0413761142    -1.1914442024     0.7868354006
| 30>  H        0.5962143295     0.9406469521    -0.4547939294
| 31>  H        0.4829188702    -0.0773700537     0.9830541840
| 32>  H        0.6346317713    -0.8110323501    -0.6210365202
| 33>  H        2.9172212771     0.1674628583    -0.8606624656
| 34>  H        2.4394844520     1.2015998044     1.9703026897
| 35>  H        2.9683251862     2.1480452990     0.5795957566
| 36>  H        4.8453847438     1.0587628574     2.2752101621
| 37>  H        5.1287180962     1.0843564253     0.5268744698
| 38>  H        5.1340470180    -1.1140471743     0.6133583552
| 39>  H        4.6339512635    -1.1800036681     2.1632850543
| 40>  H        3.1322451986    -2.0600908933     0.1362528953
| 41>  H        2.4700235583    -1.4680373790     1.6745669465
| 42> *
| 43>
| 44>                          ****END OF INPUT****
 Total Charge           Charge          ....    1
 Multiplicity           Mult            ....    1
 Number of Electrons    NEL             ....   48
FINAL SINGLE POINT ENERGY      -252.062662701624

CARTESIAN COORDINATES (ANGSTROEM)
---------------------------------
  C      1.019794    0.000063   -2.002604
  C      0.299434    0.388204   -0.726391
  C     -1.055500   -0.285752   -0.519246
  C     -1.368127   -0.050598    0.945979
  N     -0.000026   -0.000335    1.618752
  C      1.050547   -0.024371    0.528505
  H      0.439699    0.303400   -2.874994
  H      1.168883   -1.081514   -2.057625
  H      1.995778    0.483544   -2.072710
  H      0.158702    1.476135   -0.707735
  H     -0.979940   -1.355483   -0.734841
  H     -1.836021    0.127018   -1.158234
  H     -1.964861   -0.826021    1.422517
  H     -1.842750    0.914495    1.118233
  H      0.083762    0.846340    2.178698
  H      0.124431   -0.781157    2.260968
  H      1.877922    0.623475    0.814359
  H      1.411066   -1.051348    0.450670

FINAL SINGLE POINT ENERGY      -252.062663533974
                    ***********************HURRAY********************
 Multiplicity           Mult            ....    1
 Number of Electrons    NEL             ....   48
 Basis Dimension        Dim             ....  258
FINAL SINGLE POINT ENERGY      -252.062663903938

VIBRATIONAL FREQUENCIES
-----------------------

   0:         0.00 cm**-1
   1:         0.00 cm**-1
   2:         0.00 cm**-1
   3:         0.00 cm**-1
   4:         0.00 cm**-1
   5:         0.00 cm**-1
   6:        65.51 cm**-1
   7:       179.34 cm**-1
   8:       232.58 cm**-1
   9:       298.55 cm**-1
  10:       423.08 cm**-1
  11:       538.84 cm**-1
  12:       643.81 cm**-1
  13:       794.12 cm**-1
  14:       826.91 cm**-1
  15:       856.80 cm**-1
  16:       892.22 cm**-1
  17:       916.07 cm**-1
  18:       944.90 cm**-1
  19:       977.69 cm**-1
  20:       985.50 cm**-1
  21:      1027.71 cm**-1
  22:      1083.31 cm**-1
  23:      1126.71 cm**-1
  24:      1177.73 cm**-1
  25:      1235.86 cm**-1
  26:      1249.47 cm**-1
  27:      1260.97 cm**-1
  28:      1305.97 cm**-1
  29:      1329.43 cm**-1
  30:      1355.35 cm**-1
  31:      1359.50 cm**-1
  32:      1370.35 cm**-1
  33:      1389.58 cm**-1
  34:      1406.62 cm**-1
  35:      1421.88 cm**-1
  36:      1484.38 cm**-1
  37:      1489.37 cm**-1
  38:      1493.10 cm**-1
  39:      1499.39 cm**-1
  40:      1506.58 cm**-1
  41:      1657.14 cm**-1
  42:      3039.87 cm**-1
  43:      3059.18 cm**-1
  44:      3075.53 cm**-1
  45:      3101.11 cm**-1
  46:      3116.30 cm**-1
  47:      3135.35 cm**-1
  48:      3146.98 cm**-1
  49:      3149.57 cm**-1
  50:      3168.68 cm**-1
  51:      3178.08 cm**-1
  52:      3481.94 cm**-1
  53:      3535.44 cm**-1

IR SPECTRUM
-----------

 Mode    freq (cm**-1)   T**2         TX         TY         TZ
-------------------------------------------------------------------
   6:        65.51    3.814592  (  0.212135   1.940838  -0.052331)
   7:       179.34    0.489226  ( -0.132846   0.634866  -0.261767)
   8:       232.58    0.033344  (  0.095041   0.153869  -0.025215)
   9:       298.55    0.615797  ( -0.746845  -0.035025   0.238314)
  10:       423.08    1.163156  ( -0.046499   0.778037   0.745421)
  11:       538.84    1.441336  (  0.021064   1.124189  -0.420823)
  12:       643.81    0.606374  ( -0.191499   0.213786   0.723877)
  13:       794.12    5.407757  ( -0.328062  -2.288362   0.252058)
  14:       826.91    0.670203  (  0.162959   0.726078   0.341260)
  15:       856.80    4.315075  (  1.187323   0.757199   1.527085)
  16:       892.22    8.663040  ( -0.198302  -1.618589   2.450283)
  17:       916.07    3.552269  ( -1.658732   0.632305   0.633300)
  18:       944.90    0.888765  ( -0.906523   0.249531  -0.068667)
  19:       977.69    2.101384  ( -1.440240  -0.120328   0.112306)
  20:       985.50    1.511244  ( -0.553585  -0.161341   1.085706)
  21:      1027.71    8.002267  ( -2.578297  -0.626063  -0.981171)
  22:      1083.31    1.964603  (  0.930438  -0.711710   0.769648)
  23:      1126.71    1.749471  (  0.804120   0.123137  -1.042928)
  24:      1177.73    3.569313  ( -1.692802  -0.398300   0.738303)
  25:      1235.86    0.696759  (  0.002368   0.284170  -0.784857)
  26:      1249.47    4.497591  ( -1.611479   1.198114   0.682093)
  27:      1260.97    8.778627  ( -2.563419   1.466715  -0.237188)
  28:      1305.97    5.234757  ( -2.069095  -0.612043   0.760923)
  29:      1329.43    0.428427  ( -0.220466   0.303572   0.536345)
  30:      1355.35    2.336107  (  1.444406   0.450047  -0.217388)
  31:      1359.50   34.468952  (  5.724449   0.927323  -0.916354)
  32:      1370.35    1.378365  ( -1.106322  -0.369698  -0.133193)
  33:      1389.58    7.089638  (  2.560720   0.090219  -0.724024)
  34:      1406.62    4.178488  (  1.633206   0.376830  -1.170096)
  35:      1421.88    2.979183  ( -0.253922   1.237003   1.176661)
  36:      1484.38    3.240449  (  0.070714   0.891986   1.561989)
  37:      1489.37   13.942666  (  2.472315   0.618469   2.729070)
  38:      1493.10    8.722702  ( -2.072224  -2.045289   0.495362)
  39:      1499.39   19.070396  ( -2.658109   3.464802  -0.001318)
  40:      1506.58    5.604705  (  0.992705   1.813773  -1.153025)
  41:      1657.14   62.424521  (  1.107767   0.451158   7.809855)
  42:      3039.87    3.880693  (  0.356637  -1.828533  -0.640288)
  43:      3059.18    6.192643  (  1.380883  -1.464044  -1.463687)
  44:      3075.53    6.255475  (  0.009822  -2.359929  -0.828319)
  45:      3101.11    3.106764  ( -1.083130   1.379219  -0.177051)
  46:      3116.30    2.004522  ( -0.823425   0.551749   1.010974)
  47:      3135.35    8.934762  (  0.842696   2.768638  -0.747840)
  48:      3146.98    0.901741  ( -0.132769   0.844936   0.412549)
  49:      3149.57    4.131796  ( -1.789841   0.404790  -0.874306)
  50:      3168.68    0.797461  ( -0.277530  -0.809549  -0.255088)
  51:      3178.08    0.428792  (  0.151132   0.619758  -0.147823)
  52:      3481.94   69.589535  (  1.285405   0.285387   8.237465)
  53:      3535.44   82.315935  ( -0.229908   9.060735  -0.407617)

--------------------------
THERMOCHEMISTRY AT 298.15K
--------------------------

Temperature         ... 298.15 K
Pressure            ... 1.00 atm
Total Mass          ... 86.16 AMU

Throughout the following assumptions are being made:
  (1) The electronic state is orbitally nondegenerate
  (2) There are no thermally accessible electronically excited states
  (3) Hindered rotations indicated by low frequency modes) are not
      treated as such but are treated as vibrations and this may
      case some error
  (4) All equations used are the standard statistical mechanics
      equations for an ideal gas
  (5) All vibrations are strinctly harmonic

------------
INNER ENERGY
------------

The inner energy is: U= E(el) + E(ZPE) + E(vib) + E(rot) + E(trans)
    E(el)   - is the total energy from the electronic structure calculation
              = E(kin-el) + E(nuc-el) + E(el-el) + E(nuc-nuc)
    E(ZPE)  - the the zero temperature vibrational energy from the frequency calculation
    E(vib)  - the the finite temperature correction to E(ZPE) due to population
              of excietd vibrational states
    E(rot)  - is the rotational thermal energy
    E(trans)- is the translational thermal energy

Summary of contributions to the inner energy U:
Electronic energy                ...   -252.06266390 Eh
Zero point energy                ...      0.17312788 Eh     108.64 kcal/mol
Thermal vibrational correction   ...      0.00363608 Eh       2.28 kcal/mol
Thermal rotational correction    ...      0.00141627 Eh       0.89 kcal/mol
Thermal translational correction ...      0.00141627 Eh       0.89 kcal/mol
-----------------------------------------------------------------------
Total thermal energy                   -251.88306740 Eh

Summary of corrections to the electronic energy:
(perhaps to be used in another calculation)
Total thermal correction                  0.00646862 Eh       4.06 kcal/mol
Non-thermal (ZPE) correction              0.17312788 Eh     108.64 kcal/mol
-----------------------------------------------------------------------
Total correction                          0.17959650 Eh     112.70 kcal/mol

--------
ENTHALPY
--------

The enthalpy is H = U + kB*T
                kB is Boltzmann's constant
Total free energy                 ...   -251.88306740 Eh
Thermal Enthalpy correction       ...      0.00094421 Eh       0.59 kcal/mol
-----------------------------------------------------------------------
Total Enthalpy                    ...   -251.88212319 Eh

-------
ENTROPY
-------

The entropy contributions are T*S = T*(S(el)+S(vib)+S(rot)+S(trans)
     S(el)   - electronic entropy
     S(vib)  - vibrational entropy
     S(rot)  - rotational entropy
     S(trans)- translational entropy
The entropies will be listed as mutliplied by the temperature to get
units of energy

Electronic entropy                ...      0.00000000 Eh      0.00 kcal/mol
Vibrational entropy               ...      0.00640326 Eh      4.02 kcal/mol
Rotational entropy                ...      0.01153664 Eh      7.24 kcal/mol
Translational entropy             ...      0.01866024 Eh     11.71 kcal/mol
-----------------------------------------------------------------------
Final entropy term                ...      0.03660014 Eh     22.97 kcal/mol

CAUTION: The rotational entropy is not quite correctly treated here
         because it includes a symmetry number that is not yet correctly
         implemented in ORCA!
For a nonlinear molecule the correct rotational entropy is:
    S(rot) = R*(ln(qrot/sn)+1.5)
    R    = 8.31441 J/mol/K = 1.987191683e-3 kcal/mol/K
    qrot = 135575.8676395
    sn is the rotational symmetry number. We have assumed 3 here
       if it is different for your molecule then you should correct
       the printed rotational entropy by manually evaluating the equation
       as given above

For convenience we print out the resulting values for sn=1 - 12:
 sn= 1  qrot/sn=  135575.8676 T*S(rot)=     7.89 kcal/mol T*S(tot)=    23.62 kcal/mol
 sn= 2  qrot/sn=   67787.9338 T*S(rot)=     7.48 kcal/mol T*S(tot)=    23.21 kcal/mol
 sn= 3  qrot/sn=   45191.9559 T*S(rot)=     7.24 kcal/mol T*S(tot)=    22.97 kcal/mol
 sn= 4  qrot/sn=   33893.9669 T*S(rot)=     7.07 kcal/mol T*S(tot)=    22.80 kcal/mol
 sn= 5  qrot/sn=   27115.1735 T*S(rot)=     6.94 kcal/mol T*S(tot)=    22.66 kcal/mol
 sn= 6  qrot/sn=   22595.9779 T*S(rot)=     6.83 kcal/mol T*S(tot)=    22.56 kcal/mol
 sn= 7  qrot/sn=   19367.9811 T*S(rot)=     6.74 kcal/mol T*S(tot)=    22.46 kcal/mol
 sn= 8  qrot/sn=   16946.9835 T*S(rot)=     6.66 kcal/mol T*S(tot)=    22.39 kcal/mol
 sn= 9  qrot/sn=   15063.9853 T*S(rot)=     6.59 kcal/mol T*S(tot)=    22.32 kcal/mol
 sn=10  qrot/sn=   13557.5868 T*S(rot)=     6.53 kcal/mol T*S(tot)=    22.25 kcal/mol
 sn=11  qrot/sn=   12325.0789 T*S(rot)=     6.47 kcal/mol T*S(tot)=    22.20 kcal/mol
 sn=12  qrot/sn=   11297.9890 T*S(rot)=     6.42 kcal/mol T*S(tot)=    22.15 kcal/mol

-------------------
GIBBS FREE ENTHALPY
-------------------

The Gibbs free enthalpy is G = H - T*S

Total enthalpy                    ...   -251.88212319 Eh
Total entropy correction          ...     -0.03660014 Eh    -22.97 kcal/mol
-----------------------------------------------------------------------
Final Gibbs free enthalpy         ...   -251.91872333 Eh

For completeness - the Gibbs free enthalpy minus the electronic energy
G-E(el)                           ...      0.14394058 Eh     90.32 kcal/mol

                             ****ORCA TERMINATED NORMALLY****
TOTAL RUN TIME: 0 days 0 hours 27 minutes 12 seconds 712 msec
