                         Program Version 3.0.3 - RELEASE   -
|  1> ! NORI PBE0 def2-TZVP UseSym TightOPT Freq TightSCF Grid3 FinalGrid5 XYZFile
|  2> % pal
|  3>     nprocs 8
|  4> end
|  5> %method
|  6>     SymThresh 5.0e-2
|  7> end
|  8> % geom
|  9>     MaxIter 10
| 10> end
| 11> % maxcore 2000
| 12> % output
| 13>     printlevel mini
| 14>     print[ P_Basis ] 0
| 15>     print[ P_SCFInfo ] 1
| 16>     print[ P_SCFIterInfo ] 1
| 17>     print[ P_OrbEn ] 0
| 18>     print[ P_Cartesian ] 0
| 19> end
| 20> % elprop
| 21>     Dipole false
| 22> end
| 23> *xyz 1 1
| 24>  C        1.2070936289    -0.1215446163     0.4739529454
| 25>  C        2.4466346266    -0.0478879650     0.0203027601
| 26>  C        3.2780695699     1.2042398085    -0.1651726264
| 27>  C        4.5986551648     0.7161681423    -0.7442319316
| 28>  N        4.6789025773    -0.7147384735    -0.2778385364
| 29>  C        3.2743615076    -1.2373402377    -0.3789395294
| 30>  H        0.7008771111    -1.0714763508     0.6011410656
| 31>  H        0.6463124166     0.7703451554     0.7274395919
| 32>  H        2.8053119322     1.9217081633    -0.8375237880
| 33>  H        3.4317238887     1.7109153320     0.7909671732
| 34>  H        4.5865061513     0.6831396131    -1.8339014210
| 35>  H        5.4837350246     1.2554055881    -0.4111729553
| 36>  H        4.9864252851    -0.7433473535     0.6956848564
| 37>  H        5.3441945626    -1.2638264898    -0.8219107628
| 38>  H        3.1564245526    -2.1166054734     0.2523069125
| 39>  H        3.1214620001    -1.5211348429    -1.4236837543
| 40> *
| 41>
| 42>                          ****END OF INPUT****
 Total Charge           Charge          ....    1
 Multiplicity           Mult            ....    1
 Number of Electrons    NEL             ....   46
FINAL SINGLE POINT ENERGY      -250.827878472272

CARTESIAN COORDINATES (ANGSTROEM)
---------------------------------
  C      1.119206    0.000583   -1.892516
  C      0.401530    0.041614   -0.782941
  C     -0.980818   -0.538488   -0.567703
  C     -1.341466   -0.172383    0.865318
  N     -0.000245   -0.000308    1.531060
  C      0.862801    0.671741    0.501495
  H      2.117132    0.420297   -1.943156
  H      0.729750   -0.447959   -2.798681
  H     -1.715281   -0.132570   -1.264447
  H     -0.970246   -1.622683   -0.705272
  H     -1.843640    0.792933    0.932908
  H     -1.921422   -0.917346    1.407159
  H      0.390518   -0.915367    1.761748
  H     -0.063007    0.530022    2.400017
  H      1.914841    0.521403    0.739659
  H      0.631876    1.739337    0.549890

FINAL SINGLE POINT ENERGY      -250.827879354822
                    ***********************HURRAY********************
 Multiplicity           Mult            ....    1
 Number of Electrons    NEL             ....   46
 Basis Dimension        Dim             ....  246
FINAL SINGLE POINT ENERGY      -250.827880336382

VIBRATIONAL FREQUENCIES
-----------------------

   0:         0.00 cm**-1
   1:         0.00 cm**-1
   2:         0.00 cm**-1
   3:         0.00 cm**-1
   4:         0.00 cm**-1
   5:         0.00 cm**-1
   6:        46.82 cm**-1
   7:       241.52 cm**-1
   8:       362.47 cm**-1
   9:       422.81 cm**-1
  10:       587.38 cm**-1
  11:       597.83 cm**-1
  12:       694.26 cm**-1
  13:       806.34 cm**-1
  14:       860.94 cm**-1
  15:       889.55 cm**-1
  16:       898.40 cm**-1
  17:       922.45 cm**-1
  18:       969.53 cm**-1
  19:       990.57 cm**-1
  20:      1013.60 cm**-1
  21:      1031.41 cm**-1
  22:      1061.40 cm**-1
  23:      1164.58 cm**-1
  24:      1210.36 cm**-1
  25:      1264.50 cm**-1
  26:      1275.41 cm**-1
  27:      1299.11 cm**-1
  28:      1330.01 cm**-1
  29:      1374.24 cm**-1
  30:      1390.89 cm**-1
  31:      1401.26 cm**-1
  32:      1456.81 cm**-1
  33:      1478.08 cm**-1
  34:      1483.64 cm**-1
  35:      1506.99 cm**-1
  36:      1652.18 cm**-1
  37:      1755.63 cm**-1
  38:      3080.72 cm**-1
  39:      3082.05 cm**-1
  40:      3110.91 cm**-1
  41:      3135.26 cm**-1
  42:      3158.08 cm**-1
  43:      3170.95 cm**-1
  44:      3176.92 cm**-1
  45:      3259.84 cm**-1
  46:      3454.12 cm**-1
  47:      3517.01 cm**-1

IR SPECTRUM
-----------

 Mode    freq (cm**-1)   T**2         TX         TY         TZ
-------------------------------------------------------------------
   6:        46.82    1.196192  ( -0.734525   0.513391   0.626973)
   7:       241.52    5.485037  (  0.616421  -1.849978  -1.297167)
   8:       362.47    0.669859  (  0.048392  -0.796528   0.181825)
   9:       422.81   13.461797  (  1.479655  -3.277909   0.726453)
  10:       587.38    3.800698  ( -0.615587  -0.906406   1.612507)
  11:       597.83    3.585541  ( -0.071840  -0.832480  -1.699222)
  12:       694.26    0.367638  (  0.586765   0.108596   0.107479)
  13:       806.34    2.403121  ( -1.200165  -0.036893   0.980492)
  14:       860.94    1.670657  (  0.604860   0.844101   0.769607)
  15:       889.55    3.580739  ( -0.659405   1.717745  -0.441901)
  16:       898.40    5.849559  ( -0.120055  -0.461384  -2.371133)
  17:       922.45    2.268845  (  0.186855  -1.343444   0.655047)
  18:       969.53   17.504683  ( -0.102714  -3.772367   1.806483)
  19:       990.57   24.860047  ( -2.688184   4.163756  -0.544836)
  20:      1013.60    0.517962  ( -0.388063  -0.079646  -0.600854)
  21:      1031.41    5.531844  ( -1.750723  -0.381340  -1.523612)
  22:      1061.40    1.687140  (  0.538228   1.106042   0.417279)
  23:      1164.58    1.330465  (  0.531725   0.067988   1.021328)
  24:      1210.36   11.110668  (  2.924713   1.506788  -0.535081)
  25:      1264.50   22.089901  ( -4.294997  -1.106961   1.554843)
  26:      1275.41    0.276311  (  0.328964  -0.388854  -0.129946)
  27:      1299.11    1.711944  ( -0.498042   1.203110   0.128160)
  28:      1330.01    3.128971  ( -1.166474   1.046418   0.820560)
  29:      1374.24    1.730519  ( -0.397420  -0.883794  -0.889654)
  30:      1390.89   37.434420  ( -5.610500  -2.221283   1.011242)
  31:      1401.26    2.056476  ( -1.321511  -0.349544   0.433478)
  32:      1456.81   12.335118  ( -1.570721   0.191802   3.135469)
  33:      1478.08   11.057976  ( -1.114489  -1.977852  -2.429813)
  34:      1483.64   13.016425  (  2.577910   2.306473   1.025177)
  35:      1506.99   10.587999  ( -2.025508   1.814459   1.786912)
  36:      1652.18   70.191581  (  1.999277  -2.777784   7.647117)
  37:      1755.63    2.942822  ( -1.046252  -0.025488   1.359239)
  38:      3080.72    1.330716  (  0.062962  -0.875517  -0.748480)
  39:      3082.05    0.478306  (  0.180706   0.289335  -0.601611)
  40:      3110.91    1.401982  (  0.558983  -0.719212  -0.756475)
  41:      3135.26    0.407384  ( -0.136129   0.074010  -0.619173)
  42:      3158.08    0.203407  (  0.197070  -0.376391   0.151327)
  43:      3170.95    0.720121  (  0.268305  -0.128815  -0.794695)
  44:      3176.92    0.085045  ( -0.284974  -0.054372   0.029640)
  45:      3259.84    0.085453  (  0.003880  -0.123761  -0.264804)
  46:      3454.12   64.794738  (  2.015035  -3.120460   7.141226)
  47:      3517.01   81.487080  (  2.094190  -7.347051  -4.808565)

--------------------------
THERMOCHEMISTRY AT 298.15K
--------------------------

Temperature         ... 298.15 K
Pressure            ... 1.00 atm
Total Mass          ... 84.14 AMU

Throughout the following assumptions are being made:
  (1) The electronic state is orbitally nondegenerate
  (2) There are no thermally accessible electronically excited states
  (3) Hindered rotations indicated by low frequency modes) are not
      treated as such but are treated as vibrations and this may
      case some error
  (4) All equations used are the standard statistical mechanics
      equations for an ideal gas
  (5) All vibrations are strinctly harmonic

------------
INNER ENERGY
------------

The inner energy is: U= E(el) + E(ZPE) + E(vib) + E(rot) + E(trans)
    E(el)   - is the total energy from the electronic structure calculation
              = E(kin-el) + E(nuc-el) + E(el-el) + E(nuc-nuc)
    E(ZPE)  - the the zero temperature vibrational energy from the frequency calculation
    E(vib)  - the the finite temperature correction to E(ZPE) due to population
              of excietd vibrational states
    E(rot)  - is the rotational thermal energy
    E(trans)- is the translational thermal energy

Summary of contributions to the inner energy U:
Electronic energy                ...   -250.82788034 Eh
Zero point energy                ...      0.14941779 Eh      93.76 kcal/mol
Thermal vibrational correction   ...      0.00302514 Eh       1.90 kcal/mol
Thermal rotational correction    ...      0.00141627 Eh       0.89 kcal/mol
Thermal translational correction ...      0.00141627 Eh       0.89 kcal/mol
-----------------------------------------------------------------------
Total thermal energy                   -250.67260487 Eh

Summary of corrections to the electronic energy:
(perhaps to be used in another calculation)
Total thermal correction                  0.00585768 Eh       3.68 kcal/mol
Non-thermal (ZPE) correction              0.14941779 Eh      93.76 kcal/mol
-----------------------------------------------------------------------
Total correction                          0.15527547 Eh      97.44 kcal/mol

--------
ENTHALPY
--------

The enthalpy is H = U + kB*T
                kB is Boltzmann's constant
Total free energy                 ...   -250.67260487 Eh
Thermal Enthalpy correction       ...      0.00094421 Eh       0.59 kcal/mol
-----------------------------------------------------------------------
Total Enthalpy                    ...   -250.67166066 Eh

-------
ENTROPY
-------

The entropy contributions are T*S = T*(S(el)+S(vib)+S(rot)+S(trans)
     S(el)   - electronic entropy
     S(vib)  - vibrational entropy
     S(rot)  - rotational entropy
     S(trans)- translational entropy
The entropies will be listed as mutliplied by the temperature to get
units of energy

Electronic entropy                ...      0.00000000 Eh      0.00 kcal/mol
Vibrational entropy               ...      0.00547162 Eh      3.43 kcal/mol
Rotational entropy                ...      0.01144009 Eh      7.18 kcal/mol
Translational entropy             ...      0.01862670 Eh     11.69 kcal/mol
-----------------------------------------------------------------------
Final entropy term                ...      0.03553842 Eh     22.30 kcal/mol

CAUTION: The rotational entropy is not quite correctly treated here
         because it includes a symmetry number that is not yet correctly
         implemented in ORCA!
For a nonlinear molecule the correct rotational entropy is:
    S(rot) = R*(ln(qrot/sn)+1.5)
    R    = 8.31441 J/mol/K = 1.987191683e-3 kcal/mol/K
    qrot = 122397.7476453
    sn is the rotational symmetry number. We have assumed 3 here
       if it is different for your molecule then you should correct
       the printed rotational entropy by manually evaluating the equation
       as given above

For convenience we print out the resulting values for sn=1 - 12:
 sn= 1  qrot/sn=  122397.7476 T*S(rot)=     7.83 kcal/mol T*S(tot)=    22.95 kcal/mol
 sn= 2  qrot/sn=   61198.8738 T*S(rot)=     7.42 kcal/mol T*S(tot)=    22.54 kcal/mol
 sn= 3  qrot/sn=   40799.2492 T*S(rot)=     7.18 kcal/mol T*S(tot)=    22.30 kcal/mol
 sn= 4  qrot/sn=   30599.4369 T*S(rot)=     7.01 kcal/mol T*S(tot)=    22.13 kcal/mol
 sn= 5  qrot/sn=   24479.5495 T*S(rot)=     6.88 kcal/mol T*S(tot)=    22.00 kcal/mol
 sn= 6  qrot/sn=   20399.6246 T*S(rot)=     6.77 kcal/mol T*S(tot)=    21.89 kcal/mol
 sn= 7  qrot/sn=   17485.3925 T*S(rot)=     6.68 kcal/mol T*S(tot)=    21.80 kcal/mol
 sn= 8  qrot/sn=   15299.7185 T*S(rot)=     6.60 kcal/mol T*S(tot)=    21.72 kcal/mol
 sn= 9  qrot/sn=   13599.7497 T*S(rot)=     6.53 kcal/mol T*S(tot)=    21.65 kcal/mol
 sn=10  qrot/sn=   12239.7748 T*S(rot)=     6.47 kcal/mol T*S(tot)=    21.59 kcal/mol
 sn=11  qrot/sn=   11127.0680 T*S(rot)=     6.41 kcal/mol T*S(tot)=    21.53 kcal/mol
 sn=12  qrot/sn=   10199.8123 T*S(rot)=     6.36 kcal/mol T*S(tot)=    21.48 kcal/mol

-------------------
GIBBS FREE ENTHALPY
-------------------

The Gibbs free enthalpy is G = H - T*S

Total enthalpy                    ...   -250.67166066 Eh
Total entropy correction          ...     -0.03553842 Eh    -22.30 kcal/mol
-----------------------------------------------------------------------
Final Gibbs free enthalpy         ...   -250.70719908 Eh

For completeness - the Gibbs free enthalpy minus the electronic energy
G-E(el)                           ...      0.12068126 Eh     75.73 kcal/mol

                             ****ORCA TERMINATED NORMALLY****
TOTAL RUN TIME: 0 days 0 hours 20 minutes 57 seconds 335 msec
