                         Program Version 3.0.3 - RELEASE   -
|  1> ! NORI PBE0 def2-TZVP UseSym TightOPT Freq TightSCF Grid3 FinalGrid5 XYZFile
|  2> % pal
|  3>     nprocs 8
|  4> end
|  5> %method
|  6>     SymThresh 5.0e-2
|  7> end
|  8> % geom
|  9>     MaxIter 10
| 10> end
| 11> % maxcore 2000
| 12> % output
| 13>     printlevel mini
| 14>     print[ P_Basis ] 0
| 15>     print[ P_SCFInfo ] 1
| 16>     print[ P_SCFIterInfo ] 1
| 17>     print[ P_OrbEn ] 0
| 18>     print[ P_Cartesian ] 0
| 19> end
| 20> % elprop
| 21>     Dipole false
| 22> end
| 23> *xyz 1 1
| 24>  C        0.8693687792    -0.0448061918     0.2309006044
| 25>  C        2.3744773600    -0.0014633769     0.0906434636
| 26>  C        2.8143095668    -0.0083952320    -1.3642389256
| 27>  C        3.0923761935     1.0961540642     0.9111083659
| 28>  N        4.0903063468     0.0693216361     1.4109884065
| 29>  C        3.1566370504    -1.0299316352     0.9416111735
| 30>  H        0.4123236672     0.8155486490    -0.2629407396
| 31>  H        0.5580443214    -0.0406537214     1.2782081172
| 32>  H        0.4649415186    -0.9434331098    -0.2401550039
| 33>  H        2.4018910458     0.8548022619    -1.8905547680
| 34>  H        2.4546907288    -0.9086680174    -1.8666943761
| 35>  H        3.9029056702     0.0227643900    -1.4775432770
| 36>  H        2.5182410552     1.4647279498     1.7598918509
| 37>  H        3.5675962948     1.9215738961     0.3836679864
| 38>  H        4.3134346229     0.0903565887     2.4046825228
| 39>  H        4.9650226111     0.0883365226     0.8900434942
| 40>  H        3.6814171814    -1.8401299450     0.4380668286
| 41>  H        2.6045759858    -1.4074747290     1.8010342760
| 42> *
| 43>
| 44>                          ****END OF INPUT****
 Total Charge           Charge          ....    1
 Multiplicity           Mult            ....    1
 Number of Electrons    NEL             ....   48
FINAL SINGLE POINT ENERGY      -252.033468187395
FINAL SINGLE POINT ENERGY      -252.033469551653

CARTESIAN COORDINATES (ANGSTROEM)
---------------------------------
  C     -1.585905   -1.032723    0.000000
  C     -0.477194   -0.004171    0.000000
  C     -1.015223    1.417714    0.000000
  C      0.628053   -0.207497    1.063323
  N      1.688268    0.003621   -0.000000
  C      0.628053   -0.207497   -1.063323
  H     -2.221147   -0.911645    0.880141
  H     -1.196162   -2.053396    0.000000
  H     -2.221147   -0.911645   -0.880141
  H     -1.633993    1.591109    0.882386
  H     -1.633993    1.591109   -0.882386
  H     -0.220185    2.170519    0.000000
  H      0.706405   -1.228508    1.434537
  H      0.707857    0.504258    1.882830
  H      2.474672   -0.643751   -0.000000
  H      2.059235    0.952307   -0.000000
  H      0.707857    0.504258   -1.882830
  H      0.706405   -1.228508   -1.434537

FINAL SINGLE POINT ENERGY      -252.033470438336
                    ***********************HURRAY********************
 Multiplicity           Mult            ....    1
 Number of Electrons    NEL             ....   48
 Basis Dimension        Dim             ....  258
FINAL SINGLE POINT ENERGY      -252.033470691994

VIBRATIONAL FREQUENCIES
-----------------------

   0:         0.00 cm**-1
   1:         0.00 cm**-1
   2:         0.00 cm**-1
   3:         0.00 cm**-1
   4:         0.00 cm**-1
   5:         0.00 cm**-1
   6:       116.38 cm**-1
   7:       217.31 cm**-1
   8:       266.26 cm**-1
   9:       295.14 cm**-1
  10:       343.41 cm**-1
  11:       387.61 cm**-1
  12:       389.46 cm**-1
  13:       633.76 cm**-1
  14:       747.88 cm**-1
  15:       831.90 cm**-1
  16:       881.25 cm**-1
  17:       896.49 cm**-1
  18:       916.56 cm**-1
  19:       919.91 cm**-1
  20:       962.69 cm**-1
  21:       981.02 cm**-1
  22:      1011.12 cm**-1
  23:      1016.51 cm**-1
  24:      1095.61 cm**-1
  25:      1211.46 cm**-1
  26:      1246.89 cm**-1
  27:      1248.59 cm**-1
  28:      1276.73 cm**-1
  29:      1316.45 cm**-1
  30:      1321.78 cm**-1
  31:      1323.06 cm**-1
  32:      1366.03 cm**-1
  33:      1412.34 cm**-1
  34:      1429.42 cm**-1
  35:      1467.76 cm**-1
  36:      1479.34 cm**-1
  37:      1480.95 cm**-1
  38:      1496.51 cm**-1
  39:      1500.18 cm**-1
  40:      1504.36 cm**-1
  41:      1645.98 cm**-1
  42:      3045.23 cm**-1
  43:      3055.63 cm**-1
  44:      3112.71 cm**-1
  45:      3115.77 cm**-1
  46:      3119.97 cm**-1
  47:      3134.13 cm**-1
  48:      3137.87 cm**-1
  49:      3146.30 cm**-1
  50:      3187.02 cm**-1
  51:      3187.05 cm**-1
  52:      3476.14 cm**-1
  53:      3542.83 cm**-1

IR SPECTRUM
-----------

 Mode    freq (cm**-1)   T**2         TX         TY         TZ
-------------------------------------------------------------------
   6:       116.38    5.308834  (  1.209902  -1.960860   0.000005)
   7:       217.31    0.174401  ( -0.000079   0.000073   0.417614)
   8:       266.26    0.491867  (  0.000024   0.000048  -0.701332)
   9:       295.14    0.034718  ( -0.000006   0.000028  -0.186329)
  10:       343.41    1.540261  ( -1.227373   0.183892  -0.000063)
  11:       387.61    0.452183  (  0.649833   0.172917   0.000072)
  12:       389.46    0.134524  (  0.000150   0.000023  -0.366775)
  13:       633.76    3.233414  (  1.249334  -1.293282  -0.000008)
  14:       747.88    4.893357  ( -0.287214   2.193368  -0.000002)
  15:       831.90    1.696499  (  0.000023  -0.000007  -1.302497)
  16:       881.25    6.802722  (  2.113649  -1.528139   0.000039)
  17:       896.49    0.186648  ( -0.000061   0.000058   0.432028)
  18:       916.56    0.854371  ( -0.810545  -0.444283  -0.000090)
  19:       919.91    2.225624  ( -0.000062  -0.000017   1.491853)
  20:       962.69    2.399473  (  1.146950   1.041142   0.000002)
  21:       981.02    4.146256  (  2.032313  -0.126337  -0.000014)
  22:      1011.12    0.021630  (  0.000039   0.000020   0.147072)
  23:      1016.51    0.308654  ( -0.504999   0.231582   0.000027)
  24:      1095.61    0.117496  (  0.000002  -0.000008   0.342777)
  25:      1211.46   16.332848  (  0.000051   0.000005   4.041392)
  26:      1246.89    1.294129  ( -0.909519  -0.683305  -0.000001)
  27:      1248.59   28.670603  ( -0.000033   0.000002   5.354494)
  28:      1276.73    0.830825  (  0.747263  -0.521941   0.000044)
  29:      1316.45   27.413725  (  0.000016  -0.000061   5.235812)
  30:      1321.78    6.678869  (  0.000062  -0.000198   2.584351)
  31:      1323.06    4.495743  ( -0.702280   2.000637   0.000420)
  32:      1366.03    5.660176  ( -2.365114   0.257708   0.000021)
  33:      1412.34   14.640691  (  1.202559   3.632429  -0.000019)
  34:      1429.42    5.504896  ( -2.219077   0.761967  -0.000023)
  35:      1467.76    2.266960  (  0.000018  -0.000037  -1.505643)
  36:      1479.34   24.643386  ( -0.000008  -0.000006  -4.964211)
  37:      1480.95    3.481839  ( -0.116805  -1.862309   0.000045)
  38:      1496.51   10.446500  ( -0.000022  -0.000009   3.232105)
  39:      1500.18    4.573431  (  0.482815  -2.083344  -0.000181)
  40:      1504.36   11.397523  (  3.182390  -1.126906   0.000080)
  41:      1645.98   71.491800  ( -8.178800  -2.144536   0.000007)
  42:      3045.23   11.763508  (  1.689790   2.984647   0.000029)
  43:      3055.63    2.394968  ( -0.372927  -1.501963  -0.000005)
  44:      3112.71    1.921275  ( -0.000010   0.000014  -1.386101)
  45:      3115.77    0.548686  (  0.401598  -0.622419  -0.000020)
  46:      3119.97   11.987547  (  3.116173   1.508976   0.000057)
  47:      3134.13    9.908480  (  2.020862  -2.413421  -0.000013)
  48:      3137.87    1.845814  (  0.000068  -0.000021   1.358607)
  49:      3146.30    4.206992  (  0.000131   0.000059  -2.051095)
  50:      3187.02    0.355437  ( -0.000534   0.001087   0.596184)
  51:      3187.05    0.238310  ( -0.215025   0.438261  -0.001470)
  52:      3476.14   67.950145  ( -8.148397  -1.246506  -0.000001)
  53:      3542.83   83.197072  ( -2.019059   8.894969   0.000001)

--------------------------
THERMOCHEMISTRY AT 298.15K
--------------------------

Temperature         ... 298.15 K
Pressure            ... 1.00 atm
Total Mass          ... 86.16 AMU

Throughout the following assumptions are being made:
  (1) The electronic state is orbitally nondegenerate
  (2) There are no thermally accessible electronically excited states
  (3) Hindered rotations indicated by low frequency modes) are not
      treated as such but are treated as vibrations and this may
      case some error
  (4) All equations used are the standard statistical mechanics
      equations for an ideal gas
  (5) All vibrations are strinctly harmonic

------------
INNER ENERGY
------------

The inner energy is: U= E(el) + E(ZPE) + E(vib) + E(rot) + E(trans)
    E(el)   - is the total energy from the electronic structure calculation
              = E(kin-el) + E(nuc-el) + E(el-el) + E(nuc-nuc)
    E(ZPE)  - the the zero temperature vibrational energy from the frequency calculation
    E(vib)  - the the finite temperature correction to E(ZPE) due to population
              of excietd vibrational states
    E(rot)  - is the rotational thermal energy
    E(trans)- is the translational thermal energy

Summary of contributions to the inner energy U:
Electronic energy                ...   -252.03347069 Eh
Zero point energy                ...      0.17063193 Eh     107.07 kcal/mol
Thermal vibrational correction   ...      0.00397883 Eh       2.50 kcal/mol
Thermal rotational correction    ...      0.00141627 Eh       0.89 kcal/mol
Thermal translational correction ...      0.00141627 Eh       0.89 kcal/mol
-----------------------------------------------------------------------
Total thermal energy                   -251.85602739 Eh

Summary of corrections to the electronic energy:
(perhaps to be used in another calculation)
Total thermal correction                  0.00681138 Eh       4.27 kcal/mol
Non-thermal (ZPE) correction              0.17063193 Eh     107.07 kcal/mol
-----------------------------------------------------------------------
Total correction                          0.17744330 Eh     111.35 kcal/mol

--------
ENTHALPY
--------

The enthalpy is H = U + kB*T
                kB is Boltzmann's constant
Total free energy                 ...   -251.85602739 Eh
Thermal Enthalpy correction       ...      0.00094421 Eh       0.59 kcal/mol
-----------------------------------------------------------------------
Total Enthalpy                    ...   -251.85508318 Eh

-------
ENTROPY
-------

The entropy contributions are T*S = T*(S(el)+S(vib)+S(rot)+S(trans)
     S(el)   - electronic entropy
     S(vib)  - vibrational entropy
     S(rot)  - rotational entropy
     S(trans)- translational entropy
The entropies will be listed as mutliplied by the temperature to get
units of energy

Electronic entropy                ...      0.00000000 Eh      0.00 kcal/mol
Vibrational entropy               ...      0.00645936 Eh      4.05 kcal/mol
Rotational entropy                ...      0.01151849 Eh      7.23 kcal/mol
Translational entropy             ...      0.01866024 Eh     11.71 kcal/mol
-----------------------------------------------------------------------
Final entropy term                ...      0.03663808 Eh     22.99 kcal/mol

CAUTION: The rotational entropy is not quite correctly treated here
         because it includes a symmetry number that is not yet correctly
         implemented in ORCA!
For a nonlinear molecule the correct rotational entropy is:
    S(rot) = R*(ln(qrot/sn)+1.5)
    R    = 8.31441 J/mol/K = 1.987191683e-3 kcal/mol/K
    qrot = 132994.8712163
    sn is the rotational symmetry number. We have assumed 3 here
       if it is different for your molecule then you should correct
       the printed rotational entropy by manually evaluating the equation
       as given above

For convenience we print out the resulting values for sn=1 - 12:
 sn= 1  qrot/sn=  132994.8712 T*S(rot)=     7.88 kcal/mol T*S(tot)=    23.64 kcal/mol
 sn= 2  qrot/sn=   66497.4356 T*S(rot)=     7.47 kcal/mol T*S(tot)=    23.23 kcal/mol
 sn= 3  qrot/sn=   44331.6237 T*S(rot)=     7.23 kcal/mol T*S(tot)=    22.99 kcal/mol
 sn= 4  qrot/sn=   33248.7178 T*S(rot)=     7.06 kcal/mol T*S(tot)=    22.82 kcal/mol
 sn= 5  qrot/sn=   26598.9742 T*S(rot)=     6.93 kcal/mol T*S(tot)=    22.69 kcal/mol
 sn= 6  qrot/sn=   22165.8119 T*S(rot)=     6.82 kcal/mol T*S(tot)=    22.58 kcal/mol
 sn= 7  qrot/sn=   18999.2673 T*S(rot)=     6.73 kcal/mol T*S(tot)=    22.49 kcal/mol
 sn= 8  qrot/sn=   16624.3589 T*S(rot)=     6.65 kcal/mol T*S(tot)=    22.41 kcal/mol
 sn= 9  qrot/sn=   14777.2079 T*S(rot)=     6.58 kcal/mol T*S(tot)=    22.34 kcal/mol
 sn=10  qrot/sn=   13299.4871 T*S(rot)=     6.51 kcal/mol T*S(tot)=    22.28 kcal/mol
 sn=11  qrot/sn=   12090.4428 T*S(rot)=     6.46 kcal/mol T*S(tot)=    22.22 kcal/mol
 sn=12  qrot/sn=   11082.9059 T*S(rot)=     6.41 kcal/mol T*S(tot)=    22.17 kcal/mol

-------------------
GIBBS FREE ENTHALPY
-------------------

The Gibbs free enthalpy is G = H - T*S

Total enthalpy                    ...   -251.85508318 Eh
Total entropy correction          ...     -0.03663808 Eh    -22.99 kcal/mol
-----------------------------------------------------------------------
Final Gibbs free enthalpy         ...   -251.89172126 Eh

For completeness - the Gibbs free enthalpy minus the electronic energy
G-E(el)                           ...      0.14174943 Eh     88.95 kcal/mol

                             ****ORCA TERMINATED NORMALLY****
TOTAL RUN TIME: 0 days 0 hours 29 minutes 25 seconds 579 msec
