                         Program Version 3.0.3 - RELEASE   -
|  1> ! NORI PBE0 def2-TZVP UseSym TightOPT Freq TightSCF Grid3 FinalGrid5 XYZFile
|  2> % pal
|  3>     nprocs 8
|  4> end
|  5> %method
|  6>     SymThresh 5.0e-2
|  7> end
|  8> % geom
|  9>     MaxIter 10
| 10> end
| 11> % maxcore 2000
| 12> % output
| 13>     printlevel mini
| 14>     print[ P_Basis ] 0
| 15>     print[ P_SCFInfo ] 1
| 16>     print[ P_SCFIterInfo ] 1
| 17>     print[ P_OrbEn ] 0
| 18>     print[ P_Cartesian ] 0
| 19> end
| 20> % elprop
| 21>     Dipole false
| 22> end
| 23> *xyz 1 1
| 24>  C        1.0157684050    -0.0689358880     0.0199251006
| 25>  C        2.5227450173    -0.0588005114     0.0029395154
| 26>  C        3.2675339867     1.0260052567     0.8205253364
| 27>  C        4.2735009150    -0.0386206418     1.2697503615
| 28>  N        5.4922935010    -0.0359098690     0.3786585432
| 29>  C        3.2824976467    -1.1227599879     0.8341098243
| 30>  H        0.6113456855     0.8078244630    -0.4904078130
| 31>  H        0.6379249930    -0.0668651572     1.0457522852
| 32>  H        0.6229443451    -0.9554485627    -0.4825328049
| 33>  H        2.8750007906    -0.0628598355    -1.0359498166
| 34>  H        2.6781854761     1.3581710921     1.6766123466
| 35>  H        3.6494123447     1.9129491333     0.3084750059
| 36>  H        4.6503265339    -0.0295419743     2.2923898616
| 37>  H        5.2145889358    -0.0440875341    -0.6056913762
| 38>  H        6.0762919850    -0.8585557394     0.5446526286
| 39>  H        6.0651298267     0.7966021010     0.5340755649
| 40>  H        3.6765996091    -2.0108419992     0.3333819869
| 41>  H        2.6976800028    -1.4522143455     1.6943534496
| 42> *
| 43>
| 44>                          ****END OF INPUT****
 Total Charge           Charge          ....    1
 Multiplicity           Mult            ....    1
 Number of Electrons    NEL             ....   48
FINAL SINGLE POINT ENERGY      -252.031719581718
FINAL SINGLE POINT ENERGY      -252.031721063596

CARTESIAN COORDINATES (ANGSTROEM)
---------------------------------
  C     -2.296837    0.694109    0.000000
  C     -0.792442    0.599743   -0.000000
  C     -0.102633   -0.277470    1.074424
  C      0.859012   -0.795258   -0.000000
  N      2.144103   -0.002229    0.000000
  C     -0.102633   -0.277470   -1.074424
  H     -2.656360    1.228750    0.881698
  H     -2.749731   -0.300806    0.000000
  H     -2.656360    1.228750   -0.881697
  H     -0.365924    1.609825   -0.000000
  H     -0.752350   -1.089077    1.406056
  H      0.322389    0.199029    1.961468
  H      1.155171   -1.843764   -0.000000
  H      1.945228    1.000938    0.000000
  H      2.708244   -0.207776   -0.827350
  H      2.708244   -0.207776    0.827350
  H      0.322389    0.199029   -1.961468
  H     -0.752350   -1.089077   -1.406056

FINAL SINGLE POINT ENERGY      -252.031721703974
                    ***********************HURRAY********************
 Multiplicity           Mult            ....    1
 Number of Electrons    NEL             ....   48
 Basis Dimension        Dim             ....  258
FINAL SINGLE POINT ENERGY      -252.031721846250

VIBRATIONAL FREQUENCIES
-----------------------

   0:         0.00 cm**-1
   1:         0.00 cm**-1
   2:         0.00 cm**-1
   3:         0.00 cm**-1
   4:         0.00 cm**-1
   5:         0.00 cm**-1
   6:        98.16 cm**-1
   7:       231.11 cm**-1
   8:       242.64 cm**-1
   9:       264.20 cm**-1
  10:       323.34 cm**-1
  11:       380.74 cm**-1
  12:       433.48 cm**-1
  13:       660.80 cm**-1
  14:       783.28 cm**-1
  15:       790.81 cm**-1
  16:       854.57 cm**-1
  17:       900.15 cm**-1
  18:       917.80 cm**-1
  19:       943.48 cm**-1
  20:       958.88 cm**-1
  21:       994.73 cm**-1
  22:      1050.92 cm**-1
  23:      1131.17 cm**-1
  24:      1136.03 cm**-1
  25:      1146.47 cm**-1
  26:      1197.57 cm**-1
  27:      1250.00 cm**-1
  28:      1257.98 cm**-1
  29:      1273.08 cm**-1
  30:      1293.54 cm**-1
  31:      1304.80 cm**-1
  32:      1383.80 cm**-1
  33:      1406.01 cm**-1
  34:      1416.69 cm**-1
  35:      1458.27 cm**-1
  36:      1479.13 cm**-1
  37:      1484.07 cm**-1
  38:      1489.41 cm**-1
  39:      1500.19 cm**-1
  40:      1656.41 cm**-1
  41:      1657.65 cm**-1
  42:      3037.87 cm**-1
  43:      3053.53 cm**-1
  44:      3076.74 cm**-1
  45:      3079.27 cm**-1
  46:      3129.86 cm**-1
  47:      3132.62 cm**-1
  48:      3136.85 cm**-1
  49:      3138.14 cm**-1
  50:      3141.50 cm**-1
  51:      3416.19 cm**-1
  52:      3500.65 cm**-1
  53:      3505.65 cm**-1

IR SPECTRUM
-----------

 Mode    freq (cm**-1)   T**2         TX         TY         TZ
-------------------------------------------------------------------
   6:        98.16    8.132060  ( -1.968587   2.063184   0.000002)
   7:       231.11    0.091746  ( -0.000031   0.000007  -0.302896)
   8:       242.64    0.130611  ( -0.000010   0.000006   0.361401)
   9:       264.20    5.608310  (  0.000032  -0.000005   2.368187)
  10:       323.34   15.275276  ( -3.873576   0.520275   0.000020)
  11:       380.74    2.585988  (  0.000017   0.000020   1.608101)
  12:       433.48    1.836288  ( -1.141657   0.730006  -0.000036)
  13:       660.80    5.492909  ( -2.320301  -0.330325  -0.000000)
  14:       783.28    0.008860  ( -0.000066   0.000035   0.094128)
  15:       790.81    3.607248  ( -1.541819   1.109073   0.000008)
  16:       854.57    1.929841  ( -0.035404   1.388736   0.000010)
  17:       900.15    0.036356  (  0.000005  -0.000013  -0.190674)
  18:       917.80    1.796940  (  0.000006  -0.000005  -1.340500)
  19:       943.48    3.546909  ( -1.729815   0.744747  -0.000018)
  20:       958.88    6.254077  (  1.878587  -1.650754   0.000018)
  21:       994.73   14.512665  (  0.000007  -0.000009  -3.809549)
  22:      1050.92    5.748581  ( -2.389878  -0.192516  -0.000001)
  23:      1131.17    4.271414  (  1.142294   1.722376  -0.000004)
  24:      1136.03    0.162941  (  0.000005   0.000002  -0.403659)
  25:      1146.47    6.721879  (  0.000000   0.000007   2.592659)
  26:      1197.57    3.727725  (  0.332037   1.901966   0.000011)
  27:      1250.00    0.499754  ( -0.000000  -0.000019   0.706932)
  28:      1257.98    2.375608  (  0.413570   1.484779   0.000005)
  29:      1273.08    0.000001  ( -0.000008   0.000006  -0.000962)
  30:      1293.54    9.123981  (  1.701595  -2.495707   0.000004)
  31:      1304.80    1.474261  ( -0.000005   0.000013   1.214192)
  32:      1383.80   10.428295  ( -2.841241   1.534811  -0.000004)
  33:      1406.01   23.510656  ( -4.463142   1.894999   0.000001)
  34:      1416.69    2.874680  ( -1.666179  -0.313893  -0.000000)
  35:      1458.27   19.585538  (  0.000017  -0.000002  -4.425555)
  36:      1479.13   41.267886  ( -5.800015  -2.761832  -0.000005)
  37:      1484.07    6.440984  ( -0.000023  -0.000013  -2.537909)
  38:      1489.41   33.107275  (  2.734338   5.062674   0.000004)
  39:      1500.19  102.508981  (  8.756551   5.082499   0.000003)
  40:      1656.41   28.380938  (  0.000003   0.000018  -5.327376)
  41:      1657.65   43.387974  ( -3.159422   5.779795   0.000006)
  42:      3037.87   15.433558  ( -2.404670  -3.106625  -0.000004)
  43:      3053.53    8.422001  ( -2.789784  -0.799442  -0.000001)
  44:      3076.74   14.556106  (  0.000045   0.000005   3.815246)
  45:      3079.27    4.384072  ( -2.072763  -0.296188   0.000090)
  46:      3129.86   11.674151  (  0.758111  -3.331579  -0.000004)
  47:      3132.62    6.011556  (  2.449173   0.114497  -0.000000)
  48:      3136.85    9.959247  ( -0.000003  -0.000004  -3.155828)
  49:      3138.14    0.009518  (  0.000011   0.000006  -0.097561)
  50:      3141.50    5.347124  ( -0.426028  -2.272801   0.000020)
  51:      3416.19   34.551466  ( -5.477102  -2.133734  -0.000008)
  52:      3500.65   88.237578  ( -5.860045   7.341489  -0.000008)
  53:      3505.65   88.090826  ( -0.000002  -0.000019  -9.385671)

--------------------------
THERMOCHEMISTRY AT 298.15K
--------------------------

Temperature         ... 298.15 K
Pressure            ... 1.00 atm
Total Mass          ... 86.16 AMU

Throughout the following assumptions are being made:
  (1) The electronic state is orbitally nondegenerate
  (2) There are no thermally accessible electronically excited states
  (3) Hindered rotations indicated by low frequency modes) are not
      treated as such but are treated as vibrations and this may
      case some error
  (4) All equations used are the standard statistical mechanics
      equations for an ideal gas
  (5) All vibrations are strinctly harmonic

------------
INNER ENERGY
------------

The inner energy is: U= E(el) + E(ZPE) + E(vib) + E(rot) + E(trans)
    E(el)   - is the total energy from the electronic structure calculation
              = E(kin-el) + E(nuc-el) + E(el-el) + E(nuc-nuc)
    E(ZPE)  - the the zero temperature vibrational energy from the frequency calculation
    E(vib)  - the the finite temperature correction to E(ZPE) due to population
              of excietd vibrational states
    E(rot)  - is the rotational thermal energy
    E(trans)- is the translational thermal energy

Summary of contributions to the inner energy U:
Electronic energy                ...   -252.03172185 Eh
Zero point energy                ...      0.17109094 Eh     107.36 kcal/mol
Thermal vibrational correction   ...      0.00403043 Eh       2.53 kcal/mol
Thermal rotational correction    ...      0.00141627 Eh       0.89 kcal/mol
Thermal translational correction ...      0.00141627 Eh       0.89 kcal/mol
-----------------------------------------------------------------------
Total thermal energy                   -251.85376794 Eh

Summary of corrections to the electronic energy:
(perhaps to be used in another calculation)
Total thermal correction                  0.00686297 Eh       4.31 kcal/mol
Non-thermal (ZPE) correction              0.17109094 Eh     107.36 kcal/mol
-----------------------------------------------------------------------
Total correction                          0.17795391 Eh     111.67 kcal/mol

--------
ENTHALPY
--------

The enthalpy is H = U + kB*T
                kB is Boltzmann's constant
Total free energy                 ...   -251.85376794 Eh
Thermal Enthalpy correction       ...      0.00094421 Eh       0.59 kcal/mol
-----------------------------------------------------------------------
Total Enthalpy                    ...   -251.85282373 Eh

-------
ENTROPY
-------

The entropy contributions are T*S = T*(S(el)+S(vib)+S(rot)+S(trans)
     S(el)   - electronic entropy
     S(vib)  - vibrational entropy
     S(rot)  - rotational entropy
     S(trans)- translational entropy
The entropies will be listed as mutliplied by the temperature to get
units of energy

Electronic entropy                ...      0.00000000 Eh      0.00 kcal/mol
Vibrational entropy               ...      0.00668353 Eh      4.19 kcal/mol
Rotational entropy                ...      0.01158092 Eh      7.27 kcal/mol
Translational entropy             ...      0.01866024 Eh     11.71 kcal/mol
-----------------------------------------------------------------------
Final entropy term                ...      0.03692468 Eh     23.17 kcal/mol

CAUTION: The rotational entropy is not quite correctly treated here
         because it includes a symmetry number that is not yet correctly
         implemented in ORCA!
For a nonlinear molecule the correct rotational entropy is:
    S(rot) = R*(ln(qrot/sn)+1.5)
    R    = 8.31441 J/mol/K = 1.987191683e-3 kcal/mol/K
    qrot = 142085.8206532
    sn is the rotational symmetry number. We have assumed 3 here
       if it is different for your molecule then you should correct
       the printed rotational entropy by manually evaluating the equation
       as given above

For convenience we print out the resulting values for sn=1 - 12:
 sn= 1  qrot/sn=  142085.8207 T*S(rot)=     7.92 kcal/mol T*S(tot)=    23.82 kcal/mol
 sn= 2  qrot/sn=   71042.9103 T*S(rot)=     7.51 kcal/mol T*S(tot)=    23.41 kcal/mol
 sn= 3  qrot/sn=   47361.9402 T*S(rot)=     7.27 kcal/mol T*S(tot)=    23.17 kcal/mol
 sn= 4  qrot/sn=   35521.4552 T*S(rot)=     7.10 kcal/mol T*S(tot)=    23.00 kcal/mol
 sn= 5  qrot/sn=   28417.1641 T*S(rot)=     6.96 kcal/mol T*S(tot)=    22.87 kcal/mol
 sn= 6  qrot/sn=   23680.9701 T*S(rot)=     6.86 kcal/mol T*S(tot)=    22.76 kcal/mol
 sn= 7  qrot/sn=   20297.9744 T*S(rot)=     6.77 kcal/mol T*S(tot)=    22.67 kcal/mol
 sn= 8  qrot/sn=   17760.7276 T*S(rot)=     6.69 kcal/mol T*S(tot)=    22.59 kcal/mol
 sn= 9  qrot/sn=   15787.3134 T*S(rot)=     6.62 kcal/mol T*S(tot)=    22.52 kcal/mol
 sn=10  qrot/sn=   14208.5821 T*S(rot)=     6.55 kcal/mol T*S(tot)=    22.46 kcal/mol
 sn=11  qrot/sn=   12916.8928 T*S(rot)=     6.50 kcal/mol T*S(tot)=    22.40 kcal/mol
 sn=12  qrot/sn=   11840.4851 T*S(rot)=     6.45 kcal/mol T*S(tot)=    22.35 kcal/mol

-------------------
GIBBS FREE ENTHALPY
-------------------

The Gibbs free enthalpy is G = H - T*S

Total enthalpy                    ...   -251.85282373 Eh
Total entropy correction          ...     -0.03692468 Eh    -23.17 kcal/mol
-----------------------------------------------------------------------
Final Gibbs free enthalpy         ...   -251.88974841 Eh

For completeness - the Gibbs free enthalpy minus the electronic energy
G-E(el)                           ...      0.14197343 Eh     89.09 kcal/mol

                             ****ORCA TERMINATED NORMALLY****
TOTAL RUN TIME: 0 days 0 hours 28 minutes 5 seconds 505 msec
