                         Program Version 3.0.3 - RELEASE   -
|  1> ! NORI PBE0 def2-TZVP UseSym TightOPT Freq TightSCF Grid3 FinalGrid5 XYZFile
|  2> % pal
|  3>     nprocs 8
|  4> end
|  5> %method
|  6>     SymThresh 5.0e-2
|  7> end
|  8> % geom
|  9>     MaxIter 10
| 10> end
| 11> % maxcore 2000
| 12> % output
| 13>     printlevel mini
| 14>     print[ P_Basis ] 0
| 15>     print[ P_SCFInfo ] 1
| 16>     print[ P_SCFIterInfo ] 1
| 17>     print[ P_OrbEn ] 0
| 18>     print[ P_Cartesian ] 0
| 19> end
| 20> % elprop
| 21>     Dipole false
| 22> end
| 23> *xyz 1 1
| 24>  C        0.9876190389    -0.0036294745     0.1113315690
| 25>  C        2.4943639143    -0.0000235491     0.0755616456
| 26>  C        3.2419931094     1.0418268527     0.9202160077
| 27>  N        4.2363824569    -0.0196162819     1.3406652138
| 28>  C        3.2488379218    -1.0925633610     0.8610061264
| 29>  C        3.8716964579    -2.2618077689     0.1614149599
| 30>  H        0.5874336566    -0.8712428929    -0.4167992958
| 31>  H        0.5852594960     0.8867909813    -0.3754069395
| 32>  H        0.6140702133    -0.0272230498     1.1382741635
| 33>  H        2.8577767574     0.0230309059    -0.9564062911
| 34>  H        2.6876615942     1.3663625267     1.8001310225
| 35>  H        3.7115677563     1.8942092823     0.4341349816
| 36>  H        5.0820411915    -0.0077565087     0.7713534696
| 37>  H        4.5111823795    -0.0402431165     2.3214532955
| 38>  H        2.6832891758    -1.3959130052     1.7453431253
| 39>  H        4.4737701879    -1.9471596804    -0.6950911899
| 40>  H        3.0769679768    -2.9103114503    -0.2139948356
| 41>  H        4.4894967155    -2.8596604100     0.8353529714
| 42> *
| 43>
| 44>                          ****END OF INPUT****
 Total Charge           Charge          ....    1
 Multiplicity           Mult            ....    1
 Number of Electrons    NEL             ....   48
FINAL SINGLE POINT ENERGY      -252.040155921063
FINAL SINGLE POINT ENERGY      -252.040157323455
FINAL SINGLE POINT ENERGY      -252.040158845626

CARTESIAN COORDINATES (ANGSTROEM)
---------------------------------
  C      1.113443   -0.001952   -1.823894
  C      0.361477   -0.463374   -0.601607
  C      1.137572   -0.649968    0.710040
  N     -0.001330   -0.003438    1.469282
  C     -0.531968    0.552167    0.140255
  C     -2.022184    0.530833   -0.009760
  H      0.425251    0.219811   -2.641715
  H      1.795898   -0.778241   -2.174629
  H      1.698863    0.897418   -1.617078
  H     -0.219145   -1.364258   -0.823031
  H      2.015177   -0.009293    0.790070
  H      1.368157   -1.652515    1.063163
  H     -0.640637   -0.689448    1.870163
  H      0.242403    0.669481    2.194268
  H     -0.124449    1.562337    0.055123
  H     -2.426930   -0.476230    0.119768
  H     -2.278196    0.861091   -1.018848
  H     -2.513447    1.209752    0.690485

FINAL SINGLE POINT ENERGY      -252.040159169561
                    ***********************HURRAY********************
 Multiplicity           Mult            ....    1
 Number of Electrons    NEL             ....   48
 Basis Dimension        Dim             ....  258
FINAL SINGLE POINT ENERGY      -252.040159528984

VIBRATIONAL FREQUENCIES
-----------------------

   0:         0.00 cm**-1
   1:         0.00 cm**-1
   2:         0.00 cm**-1
   3:         0.00 cm**-1
   4:         0.00 cm**-1
   5:         0.00 cm**-1
   6:       115.59 cm**-1
   7:       207.20 cm**-1
   8:       228.03 cm**-1
   9:       258.04 cm**-1
  10:       298.01 cm**-1
  11:       373.62 cm**-1
  12:       481.27 cm**-1
  13:       625.15 cm**-1
  14:       778.23 cm**-1
  15:       803.28 cm**-1
  16:       862.70 cm**-1
  17:       907.36 cm**-1
  18:       914.86 cm**-1
  19:       937.76 cm**-1
  20:       979.82 cm**-1
  21:      1019.60 cm**-1
  22:      1099.27 cm**-1
  23:      1141.37 cm**-1
  24:      1153.83 cm**-1
  25:      1181.05 cm**-1
  26:      1210.49 cm**-1
  27:      1259.49 cm**-1
  28:      1289.16 cm**-1
  29:      1297.91 cm**-1
  30:      1324.31 cm**-1
  31:      1328.96 cm**-1
  32:      1384.02 cm**-1
  33:      1409.08 cm**-1
  34:      1417.94 cm**-1
  35:      1424.81 cm**-1
  36:      1479.43 cm**-1
  37:      1482.27 cm**-1
  38:      1485.31 cm**-1
  39:      1490.98 cm**-1
  40:      1497.50 cm**-1
  41:      1643.53 cm**-1
  42:      3055.20 cm**-1
  43:      3057.69 cm**-1
  44:      3072.68 cm**-1
  45:      3102.36 cm**-1
  46:      3116.89 cm**-1
  47:      3136.65 cm**-1
  48:      3138.34 cm**-1
  49:      3142.18 cm**-1
  50:      3143.50 cm**-1
  51:      3189.41 cm**-1
  52:      3464.22 cm**-1
  53:      3536.83 cm**-1

IR SPECTRUM
-----------

 Mode    freq (cm**-1)   T**2         TX         TY         TZ
-------------------------------------------------------------------
   6:       115.59    2.021049  (  0.423542   1.357078  -0.000214)
   7:       207.20    0.093163  ( -0.184626  -0.010567  -0.242826)
   8:       228.03    0.374444  ( -0.398198   0.463693   0.029520)
   9:       258.04    1.200532  (  0.616390   0.615665   0.664494)
  10:       298.01    0.476117  (  0.157251   0.648666  -0.174988)
  11:       373.62    2.018135  ( -1.410389   0.086518  -0.146464)
  12:       481.27    1.103543  (  0.437501   0.030456   0.954572)
  13:       625.15    3.688654  (  0.846996   1.593354   0.657627)
  14:       778.23    3.215311  ( -1.355142   0.788776  -0.869904)
  15:       803.28    3.552934  (  1.140986  -1.153750   0.959139)
  16:       862.70    4.683953  ( -1.147537  -1.274205  -1.320421)
  17:       907.36    5.119408  ( -1.900844   1.222339   0.109937)
  18:       914.86    4.675504  ( -1.476138  -0.464229  -1.510302)
  19:       937.76    4.269267  (  0.988079  -0.861274  -1.597239)
  20:       979.82    5.398460  ( -0.703777   2.213670   0.053123)
  21:      1019.60    5.017669  (  0.597639  -0.394485  -2.122470)
  22:      1099.27   13.409606  (  1.585564  -1.211129   3.070629)
  23:      1141.37    1.474978  ( -0.649473   0.709686  -0.741288)
  24:      1153.83    3.398809  ( -1.389422   0.895387  -0.816454)
  25:      1181.05    2.060019  ( -0.446958   0.471064  -1.279979)
  26:      1210.49    1.004681  (  0.636428   0.771419  -0.067480)
  27:      1259.49   52.138754  (  6.021176  -3.308523   2.222132)
  28:      1289.16    9.470195  ( -2.016826   1.849701  -1.407557)
  29:      1297.91   10.717545  ( -1.866608   2.377679  -1.256966)
  30:      1324.31    5.995904  (  1.475934  -1.945502  -0.180395)
  31:      1328.96    7.046317  (  1.613156  -2.040059   0.531230)
  32:      1384.02    5.672009  ( -1.935791   0.837838  -1.105780)
  33:      1409.08    0.283165  ( -0.287116  -0.445430   0.048186)
  34:      1417.94   12.808471  ( -3.535435  -0.455612   0.318727)
  35:      1424.81   11.172127  (  2.019238  -0.917053   2.500763)
  36:      1479.43   12.729531  ( -0.960116   2.831498   1.946876)
  37:      1482.27   13.662348  ( -0.290647   3.151425  -1.909554)
  38:      1485.31    8.823925  (  2.508603  -1.123492   1.126323)
  39:      1490.98    7.707762  ( -0.371750  -2.239937  -1.597575)
  40:      1497.50   19.294705  (  3.378623   1.845173   2.115407)
  41:      1643.53   56.605940  (  2.108504   0.953268  -7.159010)
  42:      3055.20    2.300096  (  0.341370   0.973546  -1.111652)
  43:      3057.69    2.265959  (  0.929674   1.008721  -0.619796)
  44:      3072.68    3.507258  ( -1.205149  -1.208188   0.771463)
  45:      3102.36    1.835672  (  1.158228   0.675948  -0.193064)
  46:      3116.89    1.712497  ( -1.227300   0.023248  -0.453531)
  47:      3136.65    4.262105  (  1.172140   1.312795   1.079242)
  48:      3138.34    7.797530  (  1.298191   2.378839   0.673314)
  49:      3142.18    2.616391  (  1.125746  -1.095673  -0.385471)
  50:      3143.50    1.967097  (  0.932227  -0.946346   0.449977)
  51:      3189.41    0.358989  (  0.394722  -0.411081   0.184924)
  52:      3464.22   56.037046  (  2.021517   0.176550  -7.205508)
  53:      3536.83   75.759718  (  4.682431   7.015344   2.149305)

--------------------------
THERMOCHEMISTRY AT 298.15K
--------------------------

Temperature         ... 298.15 K
Pressure            ... 1.00 atm
Total Mass          ... 86.16 AMU

Throughout the following assumptions are being made:
  (1) The electronic state is orbitally nondegenerate
  (2) There are no thermally accessible electronically excited states
  (3) Hindered rotations indicated by low frequency modes) are not
      treated as such but are treated as vibrations and this may
      case some error
  (4) All equations used are the standard statistical mechanics
      equations for an ideal gas
  (5) All vibrations are strinctly harmonic

------------
INNER ENERGY
------------

The inner energy is: U= E(el) + E(ZPE) + E(vib) + E(rot) + E(trans)
    E(el)   - is the total energy from the electronic structure calculation
              = E(kin-el) + E(nuc-el) + E(el-el) + E(nuc-nuc)
    E(ZPE)  - the the zero temperature vibrational energy from the frequency calculation
    E(vib)  - the the finite temperature correction to E(ZPE) due to population
              of excietd vibrational states
    E(rot)  - is the rotational thermal energy
    E(trans)- is the translational thermal energy

Summary of contributions to the inner energy U:
Electronic energy                ...   -252.04015953 Eh
Zero point energy                ...      0.17074225 Eh     107.14 kcal/mol
Thermal vibrational correction   ...      0.00405482 Eh       2.54 kcal/mol
Thermal rotational correction    ...      0.00141627 Eh       0.89 kcal/mol
Thermal translational correction ...      0.00141627 Eh       0.89 kcal/mol
-----------------------------------------------------------------------
Total thermal energy                   -251.86252992 Eh

Summary of corrections to the electronic energy:
(perhaps to be used in another calculation)
Total thermal correction                  0.00688736 Eh       4.32 kcal/mol
Non-thermal (ZPE) correction              0.17074225 Eh     107.14 kcal/mol
-----------------------------------------------------------------------
Total correction                          0.17762961 Eh     111.46 kcal/mol

--------
ENTHALPY
--------

The enthalpy is H = U + kB*T
                kB is Boltzmann's constant
Total free energy                 ...   -251.86252992 Eh
Thermal Enthalpy correction       ...      0.00094421 Eh       0.59 kcal/mol
-----------------------------------------------------------------------
Total Enthalpy                    ...   -251.86158571 Eh

-------
ENTROPY
-------

The entropy contributions are T*S = T*(S(el)+S(vib)+S(rot)+S(trans)
     S(el)   - electronic entropy
     S(vib)  - vibrational entropy
     S(rot)  - rotational entropy
     S(trans)- translational entropy
The entropies will be listed as mutliplied by the temperature to get
units of energy

Electronic entropy                ...      0.00000000 Eh      0.00 kcal/mol
Vibrational entropy               ...      0.00670461 Eh      4.21 kcal/mol
Rotational entropy                ...      0.01164545 Eh      7.31 kcal/mol
Translational entropy             ...      0.01866024 Eh     11.71 kcal/mol
-----------------------------------------------------------------------
Final entropy term                ...      0.03701030 Eh     23.22 kcal/mol

CAUTION: The rotational entropy is not quite correctly treated here
         because it includes a symmetry number that is not yet correctly
         implemented in ORCA!
For a nonlinear molecule the correct rotational entropy is:
    S(rot) = R*(ln(qrot/sn)+1.5)
    R    = 8.31441 J/mol/K = 1.987191683e-3 kcal/mol/K
    qrot = 152136.1345302
    sn is the rotational symmetry number. We have assumed 3 here
       if it is different for your molecule then you should correct
       the printed rotational entropy by manually evaluating the equation
       as given above

For convenience we print out the resulting values for sn=1 - 12:
 sn= 1  qrot/sn=  152136.1345 T*S(rot)=     7.96 kcal/mol T*S(tot)=    23.88 kcal/mol
 sn= 2  qrot/sn=   76068.0673 T*S(rot)=     7.55 kcal/mol T*S(tot)=    23.46 kcal/mol
 sn= 3  qrot/sn=   50712.0448 T*S(rot)=     7.31 kcal/mol T*S(tot)=    23.22 kcal/mol
 sn= 4  qrot/sn=   38034.0336 T*S(rot)=     7.14 kcal/mol T*S(tot)=    23.05 kcal/mol
 sn= 5  qrot/sn=   30427.2269 T*S(rot)=     7.00 kcal/mol T*S(tot)=    22.92 kcal/mol
 sn= 6  qrot/sn=   25356.0224 T*S(rot)=     6.90 kcal/mol T*S(tot)=    22.81 kcal/mol
 sn= 7  qrot/sn=   21733.7335 T*S(rot)=     6.81 kcal/mol T*S(tot)=    22.72 kcal/mol
 sn= 8  qrot/sn=   19017.0168 T*S(rot)=     6.73 kcal/mol T*S(tot)=    22.64 kcal/mol
 sn= 9  qrot/sn=   16904.0149 T*S(rot)=     6.66 kcal/mol T*S(tot)=    22.57 kcal/mol
 sn=10  qrot/sn=   15213.6135 T*S(rot)=     6.59 kcal/mol T*S(tot)=    22.51 kcal/mol
 sn=11  qrot/sn=   13830.5577 T*S(rot)=     6.54 kcal/mol T*S(tot)=    22.45 kcal/mol
 sn=12  qrot/sn=   12678.0112 T*S(rot)=     6.49 kcal/mol T*S(tot)=    22.40 kcal/mol

-------------------
GIBBS FREE ENTHALPY
-------------------

The Gibbs free enthalpy is G = H - T*S

Total enthalpy                    ...   -251.86158571 Eh
Total entropy correction          ...     -0.03701030 Eh    -23.22 kcal/mol
-----------------------------------------------------------------------
Final Gibbs free enthalpy         ...   -251.89859601 Eh

For completeness - the Gibbs free enthalpy minus the electronic energy
G-E(el)                           ...      0.14156352 Eh     88.83 kcal/mol

                             ****ORCA TERMINATED NORMALLY****
TOTAL RUN TIME: 0 days 0 hours 28 minutes 33 seconds 759 msec
