                         Program Version 3.0.3 - RELEASE   -
|  1> ! NORI PBE0 def2-TZVP UseSym TightOPT Freq TightSCF Grid3 FinalGrid5 XYZFile
|  2> % pal
|  3>     nprocs 8
|  4> end
|  5> %method
|  6>     SymThresh 5.0e-2
|  7> end
|  8> % geom
|  9>     MaxIter 10
| 10> end
| 11> % maxcore 2000
| 12> % output
| 13>     printlevel mini
| 14>     print[ P_Basis ] 0
| 15>     print[ P_SCFInfo ] 1
| 16>     print[ P_SCFIterInfo ] 1
| 17>     print[ P_OrbEn ] 0
| 18>     print[ P_Cartesian ] 0
| 19> end
| 20> % elprop
| 21>     Dipole false
| 22> end
| 23> *xyz 1 1
| 24>  C        0.8470875628    -0.1151787176    -0.2415923681
| 25>  C        2.3441159691    -0.1182771630    -0.0548878381
| 26>  C        2.6947319300    -0.0833589279     1.4083283408
| 27>  N        4.1756413695    -0.0968795328     1.6566757216
| 28>  C        3.1779276654    -0.8972745219    -1.0280910851
| 29>  C        3.1845133541     0.6040278952    -1.0649544661
| 30>  H        0.5986824388    -0.1414486812    -1.3030207861
| 31>  H        0.3941424995     0.7850103729     0.1825730772
| 32>  H        0.3845076720    -0.9869375162     0.2289003108
| 33>  H        2.2881801412    -0.9510133995     1.9331085912
| 34>  H        2.3120253665     0.8218708137     1.8855468784
| 35>  H        4.5980466316    -0.9466317686     1.2768766810
| 36>  H        4.3880654347    -0.0552365989     2.6545409336
| 37>  H        4.6247445015     0.7013482131     1.2025861041
| 38>  H        4.0872919403    -1.4028134605    -0.7156070100
| 39>  H        2.6539644236    -1.4334565921    -1.8089849012
| 40>  H        2.6649266359     1.1059830526    -1.8710903345
| 41>  H        4.0979444637     1.1174365327    -0.7775478495
| 42> *
| 43>
| 44>                          ****END OF INPUT****
 Total Charge           Charge          ....    1
 Multiplicity           Mult            ....    1
 Number of Electrons    NEL             ....   48
FINAL SINGLE POINT ENERGY      -252.023587531633
FINAL SINGLE POINT ENERGY      -252.023588846776
FINAL SINGLE POINT ENERGY      -252.023589739824
FINAL SINGLE POINT ENERGY      -252.023590465674

CARTESIAN COORDINATES (ANGSTROEM)
---------------------------------
  C      1.123823   -0.001723   -1.617330
  C      0.160307    0.000404   -0.456002
  C      0.908089   -0.009712    0.850466
  N      0.000500   -0.004757    2.047845
  C     -1.124097    0.760042   -0.603353
  C     -1.133697   -0.741666   -0.608433
  H      0.578035    0.004064   -2.561123
  H      1.758318   -0.891920   -1.606571
  H      1.768230    0.881253   -1.601393
  H      1.546811    0.871102    0.948136
  H      1.530619   -0.902541    0.943339
  H     -0.593473    0.827301    2.048362
  H      0.532683   -0.015302    2.919333
  H     -0.612496   -0.822936    2.040107
  H     -1.578665    1.269897    0.241630
  H     -1.283578    1.284225   -1.536755
  H     -1.300095   -1.257493   -1.545283
  H     -1.594795   -1.251426    0.233114

FINAL SINGLE POINT ENERGY      -252.023590873571
                    ***********************HURRAY********************
 Multiplicity           Mult            ....    1
 Number of Electrons    NEL             ....   48
 Basis Dimension        Dim             ....  258
FINAL SINGLE POINT ENERGY      -252.023591125682

VIBRATIONAL FREQUENCIES
-----------------------

   0:         0.00 cm**-1
   1:         0.00 cm**-1
   2:         0.00 cm**-1
   3:         0.00 cm**-1
   4:         0.00 cm**-1
   5:         0.00 cm**-1
   6:        78.62 cm**-1
   7:       195.52 cm**-1
   8:       219.06 cm**-1
   9:       241.37 cm**-1
  10:       338.25 cm**-1
  11:       343.16 cm**-1
  12:       395.33 cm**-1
  13:       450.05 cm**-1
  14:       682.32 cm**-1
  15:       769.79 cm**-1
  16:       818.09 cm**-1
  17:       897.21 cm**-1
  18:       898.56 cm**-1
  19:       927.44 cm**-1
  20:       957.22 cm**-1
  21:       996.43 cm**-1
  22:      1028.44 cm**-1
  23:      1049.59 cm**-1
  24:      1079.62 cm**-1
  25:      1092.28 cm**-1
  26:      1106.76 cm**-1
  27:      1164.35 cm**-1
  28:      1184.81 cm**-1
  29:      1285.70 cm**-1
  30:      1351.05 cm**-1
  31:      1377.25 cm**-1
  32:      1417.62 cm**-1
  33:      1426.99 cm**-1
  34:      1471.30 cm**-1
  35:      1485.70 cm**-1
  36:      1486.17 cm**-1
  37:      1494.47 cm**-1
  38:      1499.68 cm**-1
  39:      1527.82 cm**-1
  40:      1648.84 cm**-1
  41:      1662.70 cm**-1
  42:      3052.32 cm**-1
  43:      3080.72 cm**-1
  44:      3122.39 cm**-1
  45:      3128.92 cm**-1
  46:      3135.24 cm**-1
  47:      3136.69 cm**-1
  48:      3148.37 cm**-1
  49:      3223.92 cm**-1
  50:      3234.77 cm**-1
  51:      3423.29 cm**-1
  52:      3499.22 cm**-1
  53:      3515.25 cm**-1

IR SPECTRUM
-----------

 Mode    freq (cm**-1)   T**2         TX         TY         TZ
-------------------------------------------------------------------
   6:        78.62    4.341477  (  0.016672   2.083540   0.007702)
   7:       195.52    0.315997  (  0.008574   0.562025   0.007145)
   8:       219.06    0.038680  (  0.001287  -0.196667   0.000142)
   9:       241.37   18.784555  (  2.420286  -0.029179   3.595263)
  10:       338.25    0.032996  ( -0.001391  -0.181590   0.004383)
  11:       343.16    8.681836  (  0.045364  -0.008308   2.946135)
  12:       395.33    2.475510  ( -0.010087  -1.573343   0.000067)
  13:       450.05    8.367377  ( -0.687719   0.010649  -2.809681)
  14:       682.32    4.350670  (  1.841567  -0.015932   0.979309)
  15:       769.79    0.252062  (  0.365017  -0.002587  -0.344700)
  16:       818.09    1.138210  (  0.010665   1.066811   0.003303)
  17:       897.21    3.582266  (  0.295834  -0.005665  -1.869416)
  18:       898.56    4.442237  (  0.014660   2.107604   0.005171)
  19:       927.44    8.823403  (  0.023020   2.970326   0.006171)
  20:       957.22    7.680192  (  2.181135  -0.009733  -1.709604)
  21:       996.43    7.383510  (  1.194074  -0.014934   2.440794)
  22:      1028.44   11.511690  (  0.335949  -0.012693   3.376191)
  23:      1049.59   26.762109  ( -4.481933   0.040855  -2.583160)
  24:      1079.62    0.137820  ( -0.007475  -0.371150  -0.003431)
  25:      1092.28    4.931629  (  0.020852   2.220600   0.011483)
  26:      1106.76    8.728227  ( -2.001088   0.026302  -2.173288)
  27:      1164.35    0.355705  (  0.003440   0.596393   0.002926)
  28:      1184.81    0.025395  ( -0.002788  -0.159311  -0.002629)
  29:      1285.70    3.128141  ( -1.237206   0.011847  -1.263852)
  30:      1351.05    8.281974  ( -0.022357  -2.877742  -0.008677)
  31:      1377.25    1.476977  (  0.925133  -0.009260   0.788048)
  32:      1417.62    0.942336  (  0.937442  -0.003560  -0.252041)
  33:      1426.99   10.153965  ( -0.307523   0.011986  -3.171632)
  34:      1471.30   11.119793  (  0.013352   3.334562   0.017623)
  35:      1485.70    3.638414  ( -0.011647   1.901803   0.146364)
  36:      1486.17   25.937914  ( -0.857093  -0.063079   5.019893)
  37:      1494.47   87.613461  ( -1.375653  -0.014471   9.258554)
  38:      1499.68   73.732647  ( -7.024027   0.036457   4.939065)
  39:      1527.82    7.675234  (  1.756716  -0.005959  -2.142230)
  40:      1648.84   61.980041  (  0.069880   7.872363   0.032492)
  41:      1662.70   42.616617  ( -3.799403   0.055639  -5.308301)
  42:      3052.32    8.909354  ( -2.787759   0.015466   1.066543)
  43:      3080.72    7.088211  (  2.337268  -0.020473   1.274743)
  44:      3122.39    7.249743  (  0.015413   2.692481   0.007188)
  45:      3128.92    8.560844  (  0.033787   2.925440  -0.038792)
  46:      3135.24    0.603219  ( -0.000904   0.776238   0.025935)
  47:      3136.69   25.349320  (  1.344261  -0.017008  -4.852009)
  48:      3148.37    4.603235  ( -2.050694   0.015190  -0.630600)
  49:      3223.92    0.642766  ( -0.003268  -0.801683  -0.007731)
  50:      3234.77    3.417946  ( -0.875002   0.002456   1.628592)
  51:      3423.29   27.088182  (  3.215815  -0.011064  -4.092260)
  52:      3499.22   75.993448  ( -0.079333  -8.716955  -0.042926)
  53:      3515.25  122.102781  ( -7.347385   0.097159  -8.252834)

--------------------------
THERMOCHEMISTRY AT 298.15K
--------------------------

Temperature         ... 298.15 K
Pressure            ... 1.00 atm
Total Mass          ... 86.16 AMU

Throughout the following assumptions are being made:
  (1) The electronic state is orbitally nondegenerate
  (2) There are no thermally accessible electronically excited states
  (3) Hindered rotations indicated by low frequency modes) are not
      treated as such but are treated as vibrations and this may
      case some error
  (4) All equations used are the standard statistical mechanics
      equations for an ideal gas
  (5) All vibrations are strinctly harmonic

------------
INNER ENERGY
------------

The inner energy is: U= E(el) + E(ZPE) + E(vib) + E(rot) + E(trans)
    E(el)   - is the total energy from the electronic structure calculation
              = E(kin-el) + E(nuc-el) + E(el-el) + E(nuc-nuc)
    E(ZPE)  - the the zero temperature vibrational energy from the frequency calculation
    E(vib)  - the the finite temperature correction to E(ZPE) due to population
              of excietd vibrational states
    E(rot)  - is the rotational thermal energy
    E(trans)- is the translational thermal energy

Summary of contributions to the inner energy U:
Electronic energy                ...   -252.02359113 Eh
Zero point energy                ...      0.17029451 Eh     106.86 kcal/mol
Thermal vibrational correction   ...      0.00447051 Eh       2.81 kcal/mol
Thermal rotational correction    ...      0.00141627 Eh       0.89 kcal/mol
Thermal translational correction ...      0.00141627 Eh       0.89 kcal/mol
-----------------------------------------------------------------------
Total thermal energy                   -251.84599357 Eh

Summary of corrections to the electronic energy:
(perhaps to be used in another calculation)
Total thermal correction                  0.00730305 Eh       4.58 kcal/mol
Non-thermal (ZPE) correction              0.17029451 Eh     106.86 kcal/mol
-----------------------------------------------------------------------
Total correction                          0.17759756 Eh     111.44 kcal/mol

--------
ENTHALPY
--------

The enthalpy is H = U + kB*T
                kB is Boltzmann's constant
Total free energy                 ...   -251.84599357 Eh
Thermal Enthalpy correction       ...      0.00094421 Eh       0.59 kcal/mol
-----------------------------------------------------------------------
Total Enthalpy                    ...   -251.84504936 Eh

-------
ENTROPY
-------

The entropy contributions are T*S = T*(S(el)+S(vib)+S(rot)+S(trans)
     S(el)   - electronic entropy
     S(vib)  - vibrational entropy
     S(rot)  - rotational entropy
     S(trans)- translational entropy
The entropies will be listed as mutliplied by the temperature to get
units of energy

Electronic entropy                ...      0.00000000 Eh      0.00 kcal/mol
Vibrational entropy               ...      0.00762745 Eh      4.79 kcal/mol
Rotational entropy                ...      0.01163004 Eh      7.30 kcal/mol
Translational entropy             ...      0.01866024 Eh     11.71 kcal/mol
-----------------------------------------------------------------------
Final entropy term                ...      0.03791772 Eh     23.79 kcal/mol

CAUTION: The rotational entropy is not quite correctly treated here
         because it includes a symmetry number that is not yet correctly
         implemented in ORCA!
For a nonlinear molecule the correct rotational entropy is:
    S(rot) = R*(ln(qrot/sn)+1.5)
    R    = 8.31441 J/mol/K = 1.987191683e-3 kcal/mol/K
    qrot = 149672.6115035
    sn is the rotational symmetry number. We have assumed 3 here
       if it is different for your molecule then you should correct
       the printed rotational entropy by manually evaluating the equation
       as given above

For convenience we print out the resulting values for sn=1 - 12:
 sn= 1  qrot/sn=  149672.6115 T*S(rot)=     7.95 kcal/mol T*S(tot)=    24.44 kcal/mol
 sn= 2  qrot/sn=   74836.3058 T*S(rot)=     7.54 kcal/mol T*S(tot)=    24.03 kcal/mol
 sn= 3  qrot/sn=   49890.8705 T*S(rot)=     7.30 kcal/mol T*S(tot)=    23.79 kcal/mol
 sn= 4  qrot/sn=   37418.1529 T*S(rot)=     7.13 kcal/mol T*S(tot)=    23.62 kcal/mol
 sn= 5  qrot/sn=   29934.5223 T*S(rot)=     7.00 kcal/mol T*S(tot)=    23.49 kcal/mol
 sn= 6  qrot/sn=   24945.4353 T*S(rot)=     6.89 kcal/mol T*S(tot)=    23.38 kcal/mol
 sn= 7  qrot/sn=   21381.8016 T*S(rot)=     6.80 kcal/mol T*S(tot)=    23.29 kcal/mol
 sn= 8  qrot/sn=   18709.0764 T*S(rot)=     6.72 kcal/mol T*S(tot)=    23.21 kcal/mol
 sn= 9  qrot/sn=   16630.2902 T*S(rot)=     6.65 kcal/mol T*S(tot)=    23.14 kcal/mol
 sn=10  qrot/sn=   14967.2612 T*S(rot)=     6.58 kcal/mol T*S(tot)=    23.08 kcal/mol
 sn=11  qrot/sn=   13606.6010 T*S(rot)=     6.53 kcal/mol T*S(tot)=    23.02 kcal/mol
 sn=12  qrot/sn=   12472.7176 T*S(rot)=     6.48 kcal/mol T*S(tot)=    22.97 kcal/mol

-------------------
GIBBS FREE ENTHALPY
-------------------

The Gibbs free enthalpy is G = H - T*S

Total enthalpy                    ...   -251.84504936 Eh
Total entropy correction          ...     -0.03791772 Eh    -23.79 kcal/mol
-----------------------------------------------------------------------
Final Gibbs free enthalpy         ...   -251.88296708 Eh

For completeness - the Gibbs free enthalpy minus the electronic energy
G-E(el)                           ...      0.14062404 Eh     88.24 kcal/mol

                             ****ORCA TERMINATED NORMALLY****
TOTAL RUN TIME: 0 days 0 hours 29 minutes 35 seconds 877 msec
