                         Program Version 3.0.3 - RELEASE   -
|  1> ! NORI PBE0 def2-TZVP UseSym TightOPT Freq TightSCF Grid3 FinalGrid5 XYZFile
|  2> % pal
|  3>     nprocs 8
|  4> end
|  5> %method
|  6>     SymThresh 5.0e-2
|  7> end
|  8> % geom
|  9>     MaxIter 10
| 10> end
| 11> % maxcore 2000
| 12> % output
| 13>     printlevel mini
| 14>     print[ P_Basis ] 0
| 15>     print[ P_SCFInfo ] 1
| 16>     print[ P_SCFIterInfo ] 1
| 17>     print[ P_OrbEn ] 0
| 18>     print[ P_Cartesian ] 0
| 19> end
| 20> % elprop
| 21>     Dipole false
| 22> end
| 23> *xyz 1 1
| 24>  C        0.8987686494     0.0683912240     0.4684410636
| 25>  C        2.2267149547     0.0740977315    -0.2574727101
| 26>  C        3.2283562503     1.1404757239     0.2211966238
| 27>  N        3.9835471297     0.0854147941     1.0056982621
| 28>  C        5.4565801228     0.0929670981     0.9931396554
| 29>  C        3.2392746197    -0.9801732764     0.2251157260
| 30>  H        0.3086945137     0.9464922893     0.1986821733
| 31>  H        1.0220193729     0.0707582343     1.5563927190
| 32>  H        0.3178722071    -0.8166749638     0.2015313202
| 33>  H        2.0762268402     0.0714321919    -1.3361817500
| 34>  H        2.8657861048     1.9536491480     0.8488683977
| 35>  H        3.8846979017     1.5270562234    -0.5573075118
| 36>  H        3.6598103010     0.0854981827     1.9718895579
| 37>  H        5.7966795280     0.0939527376    -0.0411859604
| 38>  H        5.8240177517    -0.7970900032     1.5035435321
| 39>  H        5.8149750165     0.9874618550     1.5022033749
| 40>  H        3.8994223896    -1.3630849812    -0.5519865286
| 41>  H        2.8849063464    -1.7945642093     0.8558420550
| 42> *
| 43>
| 44>                          ****END OF INPUT****
 Total Charge           Charge          ....    1
 Multiplicity           Mult            ....    1
 Number of Electrons    NEL             ....   48
FINAL SINGLE POINT ENERGY      -252.029907103617

CARTESIAN COORDINATES (ANGSTROEM)
---------------------------------
  C     -1.892695   -1.299262    0.000000
  C     -1.207087    0.050221   -0.000000
  C     -0.104632    0.222537    1.060367
  N      0.956116    0.000057   -0.000000
  C      2.164952    0.842315   -0.000000
  C     -0.104632    0.222537   -1.060367
  H     -2.526983   -1.408529    0.881368
  H     -1.176764   -2.127467    0.000000
  H     -2.526984   -1.408529   -0.881368
  H     -1.940386    0.855220   -0.000000
  H     -0.045091   -0.499001    1.874016
  H     -0.000377    1.236172    1.444940
  H      1.234720   -0.980099   -0.000000
  H      1.861948    1.888119   -0.000000
  H      2.752067    0.626317   -0.892223
  H      2.752067    0.626317    0.892223
  H     -0.000377    1.236172   -1.444940
  H     -0.045091   -0.499001   -1.874016

FINAL SINGLE POINT ENERGY      -252.029907982408
                    ***********************HURRAY********************
 Multiplicity           Mult            ....    1
 Number of Electrons    NEL             ....   48
 Basis Dimension        Dim             ....  258
FINAL SINGLE POINT ENERGY      -252.029908120434

VIBRATIONAL FREQUENCIES
-----------------------

   0:         0.00 cm**-1
   1:         0.00 cm**-1
   2:         0.00 cm**-1
   3:         0.00 cm**-1
   4:         0.00 cm**-1
   5:         0.00 cm**-1
   6:        74.86 cm**-1
   7:       227.17 cm**-1
   8:       245.66 cm**-1
   9:       262.66 cm**-1
  10:       327.99 cm**-1
  11:       379.26 cm**-1
  12:       440.74 cm**-1
  13:       664.93 cm**-1
  14:       824.22 cm**-1
  15:       843.22 cm**-1
  16:       886.68 cm**-1
  17:       920.74 cm**-1
  18:       927.28 cm**-1
  19:       952.36 cm**-1
  20:      1061.02 cm**-1
  21:      1061.97 cm**-1
  22:      1069.70 cm**-1
  23:      1141.70 cm**-1
  24:      1146.27 cm**-1
  25:      1192.76 cm**-1
  26:      1218.51 cm**-1
  27:      1280.42 cm**-1
  28:      1296.21 cm**-1
  29:      1307.87 cm**-1
  30:      1340.05 cm**-1
  31:      1343.55 cm**-1
  32:      1384.15 cm**-1
  33:      1421.16 cm**-1
  34:      1434.29 cm**-1
  35:      1454.44 cm**-1
  36:      1474.73 cm**-1
  37:      1484.83 cm**-1
  38:      1488.68 cm**-1
  39:      1492.94 cm**-1
  40:      1495.70 cm**-1
  41:      1504.67 cm**-1
  42:      3048.28 cm**-1
  43:      3081.05 cm**-1
  44:      3109.87 cm**-1
  45:      3112.60 cm**-1
  46:      3119.70 cm**-1
  47:      3140.22 cm**-1
  48:      3148.13 cm**-1
  49:      3177.89 cm**-1
  50:      3182.12 cm**-1
  51:      3182.27 cm**-1
  52:      3183.75 cm**-1
  53:      3491.26 cm**-1

IR SPECTRUM
-----------

 Mode    freq (cm**-1)   T**2         TX         TY         TZ
-------------------------------------------------------------------
   6:        74.86    1.546762  ( -1.237457   0.124345   0.000005)
   7:       227.17    0.029117  (  0.000000  -0.000000  -0.170637)
   8:       245.66    0.005228  ( -0.000000   0.000000   0.072305)
   9:       262.66    0.393819  (  0.000000  -0.000000   0.627550)
  10:       327.99    1.257692  (  0.555998   0.973939   0.000003)
  11:       379.26    0.106975  (  0.000000  -0.000000   0.327070)
  12:       440.74    0.087489  ( -0.208095   0.210203   0.000008)
  13:       664.93    1.604902  (  0.899938   0.891635   0.000001)
  14:       824.22    3.828221  ( -1.519925   1.232091   0.000002)
  15:       843.22    1.842944  (  0.000000  -0.000000  -1.357551)
  16:       886.68    6.030276  ( -2.393357  -0.549655  -0.000002)
  17:       920.74   10.091315  ( -0.000000   0.000000   3.176683)
  18:       927.28    0.225506  ( -0.000000   0.000000  -0.474875)
  19:       952.36    0.770226  ( -0.666288  -0.571214  -0.000004)
  20:      1061.02   12.321691  ( -3.508043   0.123780  -0.000002)
  21:      1061.97   12.527746  ( -0.000000   0.000000   3.539456)
  22:      1069.70    1.242827  (  0.833414   0.740437  -0.000001)
  23:      1141.70   12.029419  (  3.389746   0.734194  -0.000000)
  24:      1146.27    0.235638  ( -0.000000   0.000000   0.485425)
  25:      1192.76    0.564218  (  0.000000  -0.000000   0.751145)
  26:      1218.51    1.199816  (  1.022514  -0.392785  -0.000003)
  27:      1280.42    2.724052  (  0.000000  -0.000000   1.650470)
  28:      1296.21    2.091588  (  0.206016   1.431484  -0.000001)
  29:      1307.87    0.708611  ( -0.000000   0.000000   0.841790)
  30:      1340.05    1.610867  (  1.025407  -0.747935   0.000001)
  31:      1343.55   14.448967  ( -0.000000   0.000000  -3.801180)
  32:      1384.15    0.607512  (  0.775780   0.075348   0.000000)
  33:      1421.16   11.485108  ( -1.742198  -2.906863  -0.000001)
  34:      1434.29   13.037701  ( -3.525171  -0.781582   0.000002)
  35:      1454.44    2.420459  ( -0.379321  -1.508832   0.000003)
  36:      1474.73   22.613198  ( -0.000000   0.000000  -4.755334)
  37:      1484.83    0.919578  (  0.000000  -0.000000  -0.958946)
  38:      1488.68   18.732693  ( -0.000000   0.000000  -4.328128)
  39:      1492.94   15.053175  ( -3.264166   2.097236  -0.000002)
  40:      1495.70   29.527128  (  5.051211  -2.003098   0.000003)
  41:      1504.67   11.027190  ( -0.845510  -3.211277  -0.000010)
  42:      3048.28    7.648534  ( -1.157075   2.511914   0.000000)
  43:      3081.05    0.105259  ( -0.208842  -0.248281   0.000000)
  44:      3109.87    2.450859  (  0.000000  -0.000000   1.565522)
  45:      3112.60    0.259677  ( -0.386536  -0.332065  -0.000010)
  46:      3119.70    5.107571  (  2.228642  -0.375133   0.000002)
  47:      3140.22    6.289388  (  2.073640  -1.410463  -0.000002)
  48:      3148.13    2.571561  ( -0.000000   0.000000   1.603609)
  49:      3177.89    0.008107  ( -0.000000   0.000000  -0.090040)
  50:      3182.12    0.310436  (  0.418218   0.368145  -0.000008)
  51:      3182.27    0.541207  (  0.000000  -0.000000  -0.735668)
  52:      3183.75    0.073593  (  0.107461  -0.249089   0.000005)
  53:      3491.26   55.496662  ( -3.036529   6.802658   0.000000)

--------------------------
THERMOCHEMISTRY AT 298.15K
--------------------------

Temperature         ... 298.15 K
Pressure            ... 1.00 atm
Total Mass          ... 86.16 AMU

Throughout the following assumptions are being made:
  (1) The electronic state is orbitally nondegenerate
  (2) There are no thermally accessible electronically excited states
  (3) Hindered rotations indicated by low frequency modes) are not
      treated as such but are treated as vibrations and this may
      case some error
  (4) All equations used are the standard statistical mechanics
      equations for an ideal gas
  (5) All vibrations are strinctly harmonic

------------
INNER ENERGY
------------

The inner energy is: U= E(el) + E(ZPE) + E(vib) + E(rot) + E(trans)
    E(el)   - is the total energy from the electronic structure calculation
              = E(kin-el) + E(nuc-el) + E(el-el) + E(nuc-nuc)
    E(ZPE)  - the the zero temperature vibrational energy from the frequency calculation
    E(vib)  - the the finite temperature correction to E(ZPE) due to population
              of excietd vibrational states
    E(rot)  - is the rotational thermal energy
    E(trans)- is the translational thermal energy

Summary of contributions to the inner energy U:
Electronic energy                ...   -252.02990812 Eh
Zero point energy                ...      0.17097770 Eh     107.29 kcal/mol
Thermal vibrational correction   ...      0.00399087 Eh       2.50 kcal/mol
Thermal rotational correction    ...      0.00141627 Eh       0.89 kcal/mol
Thermal translational correction ...      0.00141627 Eh       0.89 kcal/mol
-----------------------------------------------------------------------
Total thermal energy                   -251.85210701 Eh

Summary of corrections to the electronic energy:
(perhaps to be used in another calculation)
Total thermal correction                  0.00682341 Eh       4.28 kcal/mol
Non-thermal (ZPE) correction              0.17097770 Eh     107.29 kcal/mol
-----------------------------------------------------------------------
Total correction                          0.17780111 Eh     111.57 kcal/mol

--------
ENTHALPY
--------

The enthalpy is H = U + kB*T
                kB is Boltzmann's constant
Total free energy                 ...   -251.85210701 Eh
Thermal Enthalpy correction       ...      0.00094421 Eh       0.59 kcal/mol
-----------------------------------------------------------------------
Total Enthalpy                    ...   -251.85116280 Eh

-------
ENTROPY
-------

The entropy contributions are T*S = T*(S(el)+S(vib)+S(rot)+S(trans)
     S(el)   - electronic entropy
     S(vib)  - vibrational entropy
     S(rot)  - rotational entropy
     S(trans)- translational entropy
The entropies will be listed as mutliplied by the temperature to get
units of energy

Electronic entropy                ...      0.00000000 Eh      0.00 kcal/mol
Vibrational entropy               ...      0.00682450 Eh      4.28 kcal/mol
Rotational entropy                ...      0.01154220 Eh      7.24 kcal/mol
Translational entropy             ...      0.01866024 Eh     11.71 kcal/mol
-----------------------------------------------------------------------
Final entropy term                ...      0.03702694 Eh     23.23 kcal/mol

CAUTION: The rotational entropy is not quite correctly treated here
         because it includes a symmetry number that is not yet correctly
         implemented in ORCA!
For a nonlinear molecule the correct rotational entropy is:
    S(rot) = R*(ln(qrot/sn)+1.5)
    R    = 8.31441 J/mol/K = 1.987191683e-3 kcal/mol/K
    qrot = 136376.9883291
    sn is the rotational symmetry number. We have assumed 3 here
       if it is different for your molecule then you should correct
       the printed rotational entropy by manually evaluating the equation
       as given above

For convenience we print out the resulting values for sn=1 - 12:
 sn= 1  qrot/sn=  136376.9883 T*S(rot)=     7.89 kcal/mol T*S(tot)=    23.89 kcal/mol
 sn= 2  qrot/sn=   68188.4942 T*S(rot)=     7.48 kcal/mol T*S(tot)=    23.47 kcal/mol
 sn= 3  qrot/sn=   45458.9961 T*S(rot)=     7.24 kcal/mol T*S(tot)=    23.23 kcal/mol
 sn= 4  qrot/sn=   34094.2471 T*S(rot)=     7.07 kcal/mol T*S(tot)=    23.06 kcal/mol
 sn= 5  qrot/sn=   27275.3977 T*S(rot)=     6.94 kcal/mol T*S(tot)=    22.93 kcal/mol
 sn= 6  qrot/sn=   22729.4981 T*S(rot)=     6.83 kcal/mol T*S(tot)=    22.82 kcal/mol
 sn= 7  qrot/sn=   19482.4269 T*S(rot)=     6.74 kcal/mol T*S(tot)=    22.73 kcal/mol
 sn= 8  qrot/sn=   17047.1235 T*S(rot)=     6.66 kcal/mol T*S(tot)=    22.65 kcal/mol
 sn= 9  qrot/sn=   15152.9987 T*S(rot)=     6.59 kcal/mol T*S(tot)=    22.58 kcal/mol
 sn=10  qrot/sn=   13637.6988 T*S(rot)=     6.53 kcal/mol T*S(tot)=    22.52 kcal/mol
 sn=11  qrot/sn=   12397.9080 T*S(rot)=     6.47 kcal/mol T*S(tot)=    22.46 kcal/mol
 sn=12  qrot/sn=   11364.7490 T*S(rot)=     6.42 kcal/mol T*S(tot)=    22.41 kcal/mol

-------------------
GIBBS FREE ENTHALPY
-------------------

The Gibbs free enthalpy is G = H - T*S

Total enthalpy                    ...   -251.85116280 Eh
Total entropy correction          ...     -0.03702694 Eh    -23.23 kcal/mol
-----------------------------------------------------------------------
Final Gibbs free enthalpy         ...   -251.88818974 Eh

For completeness - the Gibbs free enthalpy minus the electronic energy
G-E(el)                           ...      0.14171838 Eh     88.93 kcal/mol

                             ****ORCA TERMINATED NORMALLY****
TOTAL RUN TIME: 0 days 0 hours 26 minutes 36 seconds 303 msec
