                         Program Version 3.0.3 - RELEASE   -
|  1> ! NORI PBE0 def2-TZVP UseSym TightOPT Freq TightSCF Grid3 FinalGrid5 XYZFile
|  2> % pal
|  3>     nprocs 8
|  4> end
|  5> %method
|  6>     SymThresh 5.0e-2
|  7> end
|  8> % geom
|  9>     MaxIter 10
| 10> end
| 11> % maxcore 2000
| 12> % output
| 13>     printlevel mini
| 14>     print[ P_Basis ] 0
| 15>     print[ P_SCFInfo ] 1
| 16>     print[ P_SCFIterInfo ] 1
| 17>     print[ P_OrbEn ] 0
| 18>     print[ P_Cartesian ] 0
| 19> end
| 20> % elprop
| 21>     Dipole false
| 22> end
| 23> *xyz 1 1
| 24>  C        0.9355911134    -0.1053043656     0.0424216787
| 25>  C        2.4117798375    -0.0205899080     0.0461345267
| 26>  C        3.2555130148     1.0461477771     0.0475188135
| 27>  N        4.5369962044     0.5510953341     0.0511613219
| 28>  C        4.5083081604    -0.7709607067     0.0520581057
| 29>  N        3.2313297306    -1.1311437694     0.0490469464
| 30>  H        0.5062820059     0.8950487181     0.0407491740
| 31>  H        0.5680412763    -0.6303963550     0.9274677799
| 32>  H        0.5725412875    -0.6314248360    -0.8438711636
| 33>  H        3.0466713380     2.1026967628     0.0461965322
| 34>  H        5.3812202873     1.1048058437     0.0529344937
| 35>  H        5.3608905417    -1.4307089249     0.0547412696
| 36>  H        2.9116952022    -2.0892355702     0.0489305214
| 37> *
| 38>
| 39>                          ****END OF INPUT****
 Total Charge           Charge          ....    1
 Multiplicity           Mult            ....    1
 Number of Electrons    NEL             ....   44
FINAL SINGLE POINT ENERGY      -265.709348032987

CARTESIAN COORDINATES (ANGSTROEM)
---------------------------------
  C     -2.013592    0.891270   -0.000000
  C     -0.634320    0.358286   -0.000000
  C      0.575103    0.980754    0.000000
  N      1.537154    0.000096   -0.000000
  C      0.964344   -1.191935   -0.000000
  N     -0.347248   -0.991898    0.000000
  H     -1.990880    1.979731    0.000000
  H     -2.563280    0.563537    0.885560
  H     -2.563280    0.563537   -0.885560
  H      0.821881    2.028858   -0.000000
  H      2.534777    0.155209   -0.000000
  H      1.467737   -2.145203   -0.000000
  H     -1.034444   -1.732104    0.000000

FINAL SINGLE POINT ENERGY      -265.709348259849
                    ***********************HURRAY********************
 Multiplicity           Mult            ....    1
 Number of Electrons    NEL             ....   44
 Basis Dimension        Dim             ....  228
FINAL SINGLE POINT ENERGY      -265.709348305773

VIBRATIONAL FREQUENCIES
-----------------------

   0:         0.00 cm**-1
   1:         0.00 cm**-1
   2:         0.00 cm**-1
   3:         0.00 cm**-1
   4:         0.00 cm**-1
   5:         0.00 cm**-1
   6:       118.72 cm**-1
   7:       265.08 cm**-1
   8:       333.71 cm**-1
   9:       636.17 cm**-1
  10:       653.40 cm**-1
  11:       666.77 cm**-1
  12:       686.25 cm**-1
  13:       733.39 cm**-1
  14:       817.23 cm**-1
  15:       870.51 cm**-1
  16:       947.89 cm**-1
  17:       990.81 cm**-1
  18:      1022.47 cm**-1
  19:      1065.83 cm**-1
  20:      1112.71 cm**-1
  21:      1180.81 cm**-1
  22:      1208.41 cm**-1
  23:      1302.64 cm**-1
  24:      1313.36 cm**-1
  25:      1423.32 cm**-1
  26:      1447.32 cm**-1
  27:      1469.28 cm**-1
  28:      1493.25 cm**-1
  29:      1523.51 cm**-1
  30:      1589.97 cm**-1
  31:      1687.06 cm**-1
  32:      3065.40 cm**-1
  33:      3132.12 cm**-1
  34:      3171.09 cm**-1
  35:      3300.00 cm**-1
  36:      3307.07 cm**-1
  37:      3631.13 cm**-1
  38:      3640.94 cm**-1

IR SPECTRUM
-----------

 Mode    freq (cm**-1)   T**2         TX         TY         TZ
-------------------------------------------------------------------
   6:       118.72    0.031903  (  0.000001  -0.000001  -0.178615)
   7:       265.08    8.448107  ( -0.000004   0.000002   2.906563)
   8:       333.71    1.014362  (  0.875394   0.498044  -0.000000)
   9:       636.17   43.358455  ( -0.000001   0.000005  -6.584714)
  10:       653.40    1.070011  (  0.000006   0.000002  -1.034413)
  11:       666.77    0.038263  (  0.162858   0.108354  -0.000000)
  12:       686.25    0.138749  (  0.000000  -0.000002   0.372491)
  13:       733.39  162.514242  (  0.000000   0.000000 -12.748107)
  14:       817.23   33.855827  ( -0.000001  -0.000000  -5.818576)
  15:       870.51    1.076610  (  0.000000   0.000002   1.037598)
  16:       947.89    2.864215  (  0.696693   1.542347  -0.000000)
  17:       990.81    2.567357  ( -1.036204   1.222145   0.000000)
  18:      1022.47    5.633781  (  2.355128  -0.295213  -0.000000)
  19:      1065.83    3.172619  ( -0.000004   0.000000  -1.781185)
  20:      1112.71   20.690832  ( -3.224822  -3.208014  -0.000000)
  21:      1180.81   19.434069  ( -1.505535   4.143360   0.000000)
  22:      1208.41   13.051574  (  2.321557  -2.768022   0.000000)
  23:      1302.64    4.261300  (  1.079952   1.759262  -0.000000)
  24:      1313.36    3.358279  (  1.276897   1.314463  -0.000000)
  25:      1423.32    4.087982  ( -1.671058   1.138221  -0.000000)
  26:      1447.32    5.159340  ( -0.666113   2.171551   0.000000)
  27:      1469.28   14.345750  ( -0.000001  -0.000000   3.787578)
  28:      1493.25   14.576917  ( -3.099112  -2.229892  -0.000000)
  29:      1523.51    8.735460  ( -0.972133  -2.791132  -0.000000)
  30:      1589.97   10.729582  ( -2.951516  -1.420610  -0.000000)
  31:      1687.06   68.395691  ( -5.737227   5.956502   0.000000)
  32:      3065.40    0.155887  (  0.143571   0.367796   0.000000)
  33:      3132.12    0.031195  ( -0.000000  -0.000000  -0.176621)
  34:      3171.09    0.019216  ( -0.056930   0.126393   0.000000)
  35:      3300.00   52.697658  (  2.736430  -6.723809  -0.000000)
  36:      3307.07   15.115593  (  2.693068   2.804100  -0.000000)
  37:      3631.13  266.842880  ( 13.148144   9.693770   0.000000)
  38:      3640.94   95.334183  (  9.722980  -0.893216  -0.000000)

--------------------------
THERMOCHEMISTRY AT 298.15K
--------------------------

Temperature         ... 298.15 K
Pressure            ... 1.00 atm
Total Mass          ... 83.11 AMU

Throughout the following assumptions are being made:
  (1) The electronic state is orbitally nondegenerate
  (2) There are no thermally accessible electronically excited states
  (3) Hindered rotations indicated by low frequency modes) are not
      treated as such but are treated as vibrations and this may
      case some error
  (4) All equations used are the standard statistical mechanics
      equations for an ideal gas
  (5) All vibrations are strinctly harmonic

------------
INNER ENERGY
------------

The inner energy is: U= E(el) + E(ZPE) + E(vib) + E(rot) + E(trans)
    E(el)   - is the total energy from the electronic structure calculation
              = E(kin-el) + E(nuc-el) + E(el-el) + E(nuc-nuc)
    E(ZPE)  - the the zero temperature vibrational energy from the frequency calculation
    E(vib)  - the the finite temperature correction to E(ZPE) due to population
              of excietd vibrational states
    E(rot)  - is the rotational thermal energy
    E(trans)- is the translational thermal energy

Summary of contributions to the inner energy U:
Electronic energy                ...   -265.70934831 Eh
Zero point energy                ...      0.11347006 Eh      71.20 kcal/mol
Thermal vibrational correction   ...      0.00255652 Eh       1.60 kcal/mol
Thermal rotational correction    ...      0.00141627 Eh       0.89 kcal/mol
Thermal translational correction ...      0.00141627 Eh       0.89 kcal/mol
-----------------------------------------------------------------------
Total thermal energy                   -265.59048918 Eh

Summary of corrections to the electronic energy:
(perhaps to be used in another calculation)
Total thermal correction                  0.00538907 Eh       3.38 kcal/mol
Non-thermal (ZPE) correction              0.11347006 Eh      71.20 kcal/mol
-----------------------------------------------------------------------
Total correction                          0.11885913 Eh      74.59 kcal/mol

--------
ENTHALPY
--------

The enthalpy is H = U + kB*T
                kB is Boltzmann's constant
Total free energy                 ...   -265.59048918 Eh
Thermal Enthalpy correction       ...      0.00094421 Eh       0.59 kcal/mol
-----------------------------------------------------------------------
Total Enthalpy                    ...   -265.58954497 Eh

-------
ENTROPY
-------

The entropy contributions are T*S = T*(S(el)+S(vib)+S(rot)+S(trans)
     S(el)   - electronic entropy
     S(vib)  - vibrational entropy
     S(rot)  - rotational entropy
     S(trans)- translational entropy
The entropies will be listed as mutliplied by the temperature to get
units of energy

Electronic entropy                ...      0.00000000 Eh      0.00 kcal/mol
Vibrational entropy               ...      0.00412724 Eh      2.59 kcal/mol
Rotational entropy                ...      0.01124342 Eh      7.06 kcal/mol
Translational entropy             ...      0.01860929 Eh     11.68 kcal/mol
-----------------------------------------------------------------------
Final entropy term                ...      0.03397995 Eh     21.32 kcal/mol

CAUTION: The rotational entropy is not quite correctly treated here
         because it includes a symmetry number that is not yet correctly
         implemented in ORCA!
For a nonlinear molecule the correct rotational entropy is:
    S(rot) = R*(ln(qrot/sn)+1.5)
    R    = 8.31441 J/mol/K = 1.987191683e-3 kcal/mol/K
    qrot = 99382.6160765
    sn is the rotational symmetry number. We have assumed 3 here
       if it is different for your molecule then you should correct
       the printed rotational entropy by manually evaluating the equation
       as given above

For convenience we print out the resulting values for sn=1 - 12:
 sn= 1  qrot/sn=   99382.6161 T*S(rot)=     7.71 kcal/mol T*S(tot)=    21.97 kcal/mol
 sn= 2  qrot/sn=   49691.3080 T*S(rot)=     7.30 kcal/mol T*S(tot)=    21.56 kcal/mol
 sn= 3  qrot/sn=   33127.5387 T*S(rot)=     7.06 kcal/mol T*S(tot)=    21.32 kcal/mol
 sn= 4  qrot/sn=   24845.6540 T*S(rot)=     6.88 kcal/mol T*S(tot)=    21.15 kcal/mol
 sn= 5  qrot/sn=   19876.5232 T*S(rot)=     6.75 kcal/mol T*S(tot)=    21.02 kcal/mol
 sn= 6  qrot/sn=   16563.7693 T*S(rot)=     6.64 kcal/mol T*S(tot)=    20.91 kcal/mol
 sn= 7  qrot/sn=   14197.5166 T*S(rot)=     6.55 kcal/mol T*S(tot)=    20.82 kcal/mol
 sn= 8  qrot/sn=   12422.8270 T*S(rot)=     6.47 kcal/mol T*S(tot)=    20.74 kcal/mol
 sn= 9  qrot/sn=   11042.5129 T*S(rot)=     6.40 kcal/mol T*S(tot)=    20.67 kcal/mol
 sn=10  qrot/sn=    9938.2616 T*S(rot)=     6.34 kcal/mol T*S(tot)=    20.61 kcal/mol
 sn=11  qrot/sn=    9034.7833 T*S(rot)=     6.29 kcal/mol T*S(tot)=    20.55 kcal/mol
 sn=12  qrot/sn=    8281.8847 T*S(rot)=     6.23 kcal/mol T*S(tot)=    20.50 kcal/mol

-------------------
GIBBS FREE ENTHALPY
-------------------

The Gibbs free enthalpy is G = H - T*S

Total enthalpy                    ...   -265.58954497 Eh
Total entropy correction          ...     -0.03397995 Eh    -21.32 kcal/mol
-----------------------------------------------------------------------
Final Gibbs free enthalpy         ...   -265.62352493 Eh

For completeness - the Gibbs free enthalpy minus the electronic energy
G-E(el)                           ...      0.08582338 Eh     53.85 kcal/mol

                             ****ORCA TERMINATED NORMALLY****
TOTAL RUN TIME: 0 days 0 hours 16 minutes 31 seconds 782 msec
