                         Program Version 3.0.3 - RELEASE   -
|  1> ! NORI PBE0 def2-TZVP UseSym TightOPT Freq TightSCF Grid3 FinalGrid5 XYZFile
|  2> % pal
|  3>     nprocs 8
|  4> end
|  5> %method
|  6>     SymThresh 5.0e-2
|  7> end
|  8> % geom
|  9>     MaxIter 10
| 10> end
| 11> % maxcore 2000
| 12> % output
| 13>     printlevel mini
| 14>     print[ P_Basis ] 0
| 15>     print[ P_SCFInfo ] 1
| 16>     print[ P_SCFIterInfo ] 1
| 17>     print[ P_OrbEn ] 0
| 18>     print[ P_Cartesian ] 0
| 19> end
| 20> % elprop
| 21>     Dipole false
| 22> end
| 23> *xyz 1 1
| 24>  C        0.9736144343    -0.0176642591    -0.1935130301
| 25>  C        2.4546822860     0.1573489465    -0.1171718067
| 26>  N        3.2992490466    -0.5843594275    -1.1092215920
| 27>  C        3.2866298279     0.9295408047    -1.0693905316
| 28>  C        2.6896600340     1.5814503963    -2.2817780108
| 29>  C        4.5700592994     1.5257104848    -0.5678519008
| 30>  H        0.6738225089    -0.9571649747     0.2736323941
| 31>  H        0.5933030136     0.0035672676    -1.2146157707
| 32>  H        0.4968044062     0.7944845022     0.3589652283
| 33>  H        2.8765081700     0.0628484793     0.8791307070
| 34>  H        4.1251930940    -1.0734036032    -0.7832615043
| 35>  H        2.8182185101    -1.0397882940    -1.8771472449
| 36>  H        3.4273743948     1.6397046576    -3.0842814180
| 37>  H        2.3982519414     2.6009076034    -2.0228757676
| 38>  H        1.8037364394     1.0681323655    -2.6549703499
| 39>  H        5.3215658442     1.5608401687    -1.3591545990
| 40>  H        4.9737348608     0.9790468703     0.2870230670
| 41>  H        4.3777818884     2.5501780116    -0.2441378702
| 42> *
| 43>
| 44>                          ****END OF INPUT****
 Total Charge           Charge          ....    1
 Multiplicity           Mult            ....    1
 Number of Electrons    NEL             ....   48
FINAL SINGLE POINT ENERGY      -252.039386680589
FINAL SINGLE POINT ENERGY      -252.039389378931
FINAL SINGLE POINT ENERGY      -252.039391309322

CARTESIAN COORDINATES (ANGSTROEM)
---------------------------------
  C      2.114243    0.000614   -0.193482
  C      0.782398   -0.595519    0.124225
  N      0.000969   -0.002308    1.257620
  C     -0.534177    0.021744   -0.158664
  C     -0.645308    1.389112   -0.764782
  C     -1.713155   -0.883267   -0.367929
  H      2.870994   -0.357877    0.506144
  H      2.109651    1.090472   -0.180021
  H      2.409654   -0.320298   -1.194432
  H      0.769666   -1.679451    0.187524
  H     -0.433036   -0.622258    1.932050
  H      0.342044    0.868633    1.649208
  H     -1.570406    1.872383   -0.446154
  H     -0.680536    1.287089   -1.851231
  H      0.192760    2.041263   -0.520057
  H     -2.635213   -0.409669   -0.026211
  H     -1.595001   -1.843707    0.138525
  H     -1.816432   -1.083879   -1.436063

FINAL SINGLE POINT ENERGY      -252.039391776581
                    ***********************HURRAY********************
 Multiplicity           Mult            ....    1
 Number of Electrons    NEL             ....   48
 Basis Dimension        Dim             ....  258
FINAL SINGLE POINT ENERGY      -252.039392261099

VIBRATIONAL FREQUENCIES
-----------------------

   0:         0.00 cm**-1
   1:         0.00 cm**-1
   2:         0.00 cm**-1
   3:         0.00 cm**-1
   4:         0.00 cm**-1
   5:         0.00 cm**-1
   6:       176.42 cm**-1
   7:       180.95 cm**-1
   8:       208.34 cm**-1
   9:       245.82 cm**-1
  10:       273.08 cm**-1
  11:       361.41 cm**-1
  12:       391.47 cm**-1
  13:       439.70 cm**-1
  14:       478.94 cm**-1
  15:       663.53 cm**-1
  16:       749.24 cm**-1
  17:       866.88 cm**-1
  18:       894.64 cm**-1
  19:       919.23 cm**-1
  20:       965.48 cm**-1
  21:       969.34 cm**-1
  22:       994.21 cm**-1
  23:      1019.57 cm**-1
  24:      1060.22 cm**-1
  25:      1098.56 cm**-1
  26:      1134.54 cm**-1
  27:      1184.53 cm**-1
  28:      1221.07 cm**-1
  29:      1319.65 cm**-1
  30:      1358.13 cm**-1
  31:      1414.98 cm**-1
  32:      1422.62 cm**-1
  33:      1429.62 cm**-1
  34:      1446.47 cm**-1
  35:      1464.89 cm**-1
  36:      1473.05 cm**-1
  37:      1475.76 cm**-1
  38:      1489.04 cm**-1
  39:      1495.07 cm**-1
  40:      1516.25 cm**-1
  41:      1620.19 cm**-1
  42:      3061.73 cm**-1
  43:      3070.39 cm**-1
  44:      3074.22 cm**-1
  45:      3143.37 cm**-1
  46:      3146.88 cm**-1
  47:      3148.56 cm**-1
  48:      3150.85 cm**-1
  49:      3154.65 cm**-1
  50:      3163.43 cm**-1
  51:      3181.74 cm**-1
  52:      3511.78 cm**-1
  53:      3622.98 cm**-1

IR SPECTRUM
-----------

 Mode    freq (cm**-1)   T**2         TX         TY         TZ
-------------------------------------------------------------------
   6:       176.42    0.011941  (  0.021765  -0.105182   0.020104)
   7:       180.95    0.022784  (  0.021544   0.103919   0.107332)
   8:       208.34    0.034827  ( -0.009178  -0.186070   0.010997)
   9:       245.82    1.285027  ( -0.313815   1.089231   0.011071)
  10:       273.08    0.558074  ( -0.606527   0.020861   0.435619)
  11:       361.41    0.679134  (  0.615921  -0.029772   0.546707)
  12:       391.47    0.779310  ( -0.309010   0.815358   0.137890)
  13:       439.70    1.123676  (  0.943752   0.420889  -0.236349)
  14:       478.94    2.373851  (  1.241090  -0.811688   0.417982)
  15:       663.53    3.029584  (  1.680492   0.079412   0.446346)
  16:       749.24    7.027020  ( -0.358510  -0.776269  -2.509163)
  17:       866.88   13.473021  (  0.584211  -0.389274  -3.602802)
  18:       894.64    1.491279  ( -0.442320   1.118409  -0.211647)
  19:       919.23    4.750252  ( -0.679960  -1.163077   1.713230)
  20:       965.48    1.825011  (  0.283078   1.248953  -0.430109)
  21:       969.34   14.714730  (  3.484910  -1.213869   1.047211)
  22:       994.21   65.424664  ( -7.028429   3.433133  -2.058990)
  23:      1019.57    2.062146  (  1.303706  -0.280231   0.532885)
  24:      1060.22    9.684600  ( -2.193459   1.090971  -1.919145)
  25:      1098.56   11.129465  (  2.834253  -1.569744  -0.795223)
  26:      1134.54   25.934008  (  0.710860  -1.141980  -4.911677)
  27:      1184.53   11.431395  ( -3.077379   0.505066  -1.306156)
  28:      1221.07    1.624547  (  0.628502   1.108731  -0.015736)
  29:      1319.65    8.842892  ( -2.739536  -1.081455  -0.410229)
  30:      1358.13    1.217009  ( -0.685861   0.818929  -0.275606)
  31:      1414.98    5.827422  ( -2.299363   0.717954  -0.157775)
  32:      1422.62   26.604233  ( -2.899699  -4.210925   0.681243)
  33:      1429.62    8.914414  ( -0.463280   0.860063  -2.821361)
  34:      1446.47    2.738890  (  0.012918   1.627785   0.298394)
  35:      1464.89    2.211389  (  0.537375  -0.807980   1.126848)
  36:      1473.05    4.293129  ( -2.034591   0.377294   0.105919)
  37:      1475.76    9.399372  (  1.984132  -2.135751   0.949294)
  38:      1489.04   14.319847  (  0.652799  -3.614710   0.909708)
  39:      1495.07   24.127859  ( -1.449909   2.286648   4.098398)
  40:      1516.25    5.807613  (  1.640390   1.522614   0.893521)
  41:      1620.19   74.027259  (  0.227386  -1.838430  -8.402127)
  42:      3061.73    1.409509  (  0.247167   0.771753  -0.867649)
  43:      3070.39    0.144750  ( -0.279482   0.221780  -0.132113)
  44:      3074.22    1.569134  ( -0.098969  -0.885145  -0.880827)
  45:      3143.37    3.964980  ( -0.582460   1.771907  -0.697184)
  46:      3146.88    0.088839  (  0.196759   0.223850   0.004060)
  47:      3148.56    0.543146  ( -0.727575  -0.016602   0.116212)
  48:      3150.85    1.001991  ( -0.881230   0.448618  -0.155455)
  49:      3154.65    3.363984  ( -1.685782   0.649500  -0.316657)
  50:      3163.43    3.558824  (  1.129143   1.493237   0.232600)
  51:      3181.74    0.951189  (  0.675390   0.651490  -0.265703)
  52:      3511.78   87.168833  ( -0.833364   1.457068   9.184296)
  53:      3622.98   95.531954  (  4.529544   8.467357  -1.821823)

--------------------------
THERMOCHEMISTRY AT 298.15K
--------------------------

Temperature         ... 298.15 K
Pressure            ... 1.00 atm
Total Mass          ... 86.16 AMU

Throughout the following assumptions are being made:
  (1) The electronic state is orbitally nondegenerate
  (2) There are no thermally accessible electronically excited states
  (3) Hindered rotations indicated by low frequency modes) are not
      treated as such but are treated as vibrations and this may
      case some error
  (4) All equations used are the standard statistical mechanics
      equations for an ideal gas
  (5) All vibrations are strinctly harmonic

------------
INNER ENERGY
------------

The inner energy is: U= E(el) + E(ZPE) + E(vib) + E(rot) + E(trans)
    E(el)   - is the total energy from the electronic structure calculation
              = E(kin-el) + E(nuc-el) + E(el-el) + E(nuc-nuc)
    E(ZPE)  - the the zero temperature vibrational energy from the frequency calculation
    E(vib)  - the the finite temperature correction to E(ZPE) due to population
              of excietd vibrational states
    E(rot)  - is the rotational thermal energy
    E(trans)- is the translational thermal energy

Summary of contributions to the inner energy U:
Electronic energy                ...   -252.03939226 Eh
Zero point energy                ...      0.16825063 Eh     105.58 kcal/mol
Thermal vibrational correction   ...      0.00459819 Eh       2.89 kcal/mol
Thermal rotational correction    ...      0.00141627 Eh       0.89 kcal/mol
Thermal translational correction ...      0.00141627 Eh       0.89 kcal/mol
-----------------------------------------------------------------------
Total thermal energy                   -251.86371090 Eh

Summary of corrections to the electronic energy:
(perhaps to be used in another calculation)
Total thermal correction                  0.00743074 Eh       4.66 kcal/mol
Non-thermal (ZPE) correction              0.16825063 Eh     105.58 kcal/mol
-----------------------------------------------------------------------
Total correction                          0.17568136 Eh     110.24 kcal/mol

--------
ENTHALPY
--------

The enthalpy is H = U + kB*T
                kB is Boltzmann's constant
Total free energy                 ...   -251.86371090 Eh
Thermal Enthalpy correction       ...      0.00094421 Eh       0.59 kcal/mol
-----------------------------------------------------------------------
Total Enthalpy                    ...   -251.86276669 Eh

-------
ENTROPY
-------

The entropy contributions are T*S = T*(S(el)+S(vib)+S(rot)+S(trans)
     S(el)   - electronic entropy
     S(vib)  - vibrational entropy
     S(rot)  - rotational entropy
     S(trans)- translational entropy
The entropies will be listed as mutliplied by the temperature to get
units of energy

Electronic entropy                ...      0.00000000 Eh      0.00 kcal/mol
Vibrational entropy               ...      0.00742536 Eh      4.66 kcal/mol
Rotational entropy                ...      0.01161255 Eh      7.29 kcal/mol
Translational entropy             ...      0.01866024 Eh     11.71 kcal/mol
-----------------------------------------------------------------------
Final entropy term                ...      0.03769814 Eh     23.66 kcal/mol

CAUTION: The rotational entropy is not quite correctly treated here
         because it includes a symmetry number that is not yet correctly
         implemented in ORCA!
For a nonlinear molecule the correct rotational entropy is:
    S(rot) = R*(ln(qrot/sn)+1.5)
    R    = 8.31441 J/mol/K = 1.987191683e-3 kcal/mol/K
    qrot = 146926.0474730
    sn is the rotational symmetry number. We have assumed 3 here
       if it is different for your molecule then you should correct
       the printed rotational entropy by manually evaluating the equation
       as given above

For convenience we print out the resulting values for sn=1 - 12:
 sn= 1  qrot/sn=  146926.0475 T*S(rot)=     7.94 kcal/mol T*S(tot)=    24.31 kcal/mol
 sn= 2  qrot/sn=   73463.0237 T*S(rot)=     7.53 kcal/mol T*S(tot)=    23.90 kcal/mol
 sn= 3  qrot/sn=   48975.3492 T*S(rot)=     7.29 kcal/mol T*S(tot)=    23.66 kcal/mol
 sn= 4  qrot/sn=   36731.5119 T*S(rot)=     7.12 kcal/mol T*S(tot)=    23.49 kcal/mol
 sn= 5  qrot/sn=   29385.2095 T*S(rot)=     6.98 kcal/mol T*S(tot)=    23.35 kcal/mol
 sn= 6  qrot/sn=   24487.6746 T*S(rot)=     6.88 kcal/mol T*S(tot)=    23.25 kcal/mol
 sn= 7  qrot/sn=   20989.4354 T*S(rot)=     6.78 kcal/mol T*S(tot)=    23.15 kcal/mol
 sn= 8  qrot/sn=   18365.7559 T*S(rot)=     6.71 kcal/mol T*S(tot)=    23.07 kcal/mol
 sn= 9  qrot/sn=   16325.1164 T*S(rot)=     6.64 kcal/mol T*S(tot)=    23.00 kcal/mol
 sn=10  qrot/sn=   14692.6047 T*S(rot)=     6.57 kcal/mol T*S(tot)=    22.94 kcal/mol
 sn=11  qrot/sn=   13356.9134 T*S(rot)=     6.52 kcal/mol T*S(tot)=    22.89 kcal/mol
 sn=12  qrot/sn=   12243.8373 T*S(rot)=     6.47 kcal/mol T*S(tot)=    22.83 kcal/mol

-------------------
GIBBS FREE ENTHALPY
-------------------

The Gibbs free enthalpy is G = H - T*S

Total enthalpy                    ...   -251.86276669 Eh
Total entropy correction          ...     -0.03769814 Eh    -23.66 kcal/mol
-----------------------------------------------------------------------
Final Gibbs free enthalpy         ...   -251.90046483 Eh

For completeness - the Gibbs free enthalpy minus the electronic energy
G-E(el)                           ...      0.13892743 Eh     87.18 kcal/mol

                             ****ORCA TERMINATED NORMALLY****
TOTAL RUN TIME: 0 days 0 hours 24 minutes 58 seconds 163 msec
