                         Program Version 3.0.3 - RELEASE   -
|  1> ! NORI PBE0 def2-TZVP UseSym TightOPT Freq TightSCF Grid3 FinalGrid5 XYZFile
|  2> % pal
|  3>     nprocs 8
|  4> end
|  5> %method
|  6>     SymThresh 5.0e-2
|  7> end
|  8> % geom
|  9>     MaxIter 10
| 10> end
| 11> % maxcore 2000
| 12> % output
| 13>     printlevel mini
| 14>     print[ P_Basis ] 0
| 15>     print[ P_SCFInfo ] 1
| 16>     print[ P_SCFIterInfo ] 1
| 17>     print[ P_OrbEn ] 0
| 18>     print[ P_Cartesian ] 0
| 19> end
| 20> % elprop
| 21>     Dipole false
| 22> end
| 23> *xyz 1 1
| 24>  C        1.0128606921    -0.0635001455    -0.1068859494
| 25>  C        2.4761324112     0.2203612653    -0.1650497639
| 26>  N        3.2572204927    -0.4309156921    -1.2656640752
| 27>  C        3.0952091156     1.0474526546    -1.2233408307
| 28>  C        4.3097159669     1.8551908135    -0.9867280653
| 29>  C        5.5468394543     1.4811991613    -1.2703163018
| 30>  H        0.8185743983    -1.0402043568     0.3390755764
| 31>  H        0.5475219372    -0.0199114388    -1.0942162708
| 32>  H        0.5350782455     0.6912402860     0.5209425433
| 33>  H        3.0270589373     0.1707956698     0.7691407790
| 34>  H        4.1754558282    -0.8001081294    -1.0430085806
| 35>  H        2.7469283466    -0.9564602270    -1.9671844443
| 36>  H        2.4185719897     1.3978255614    -1.9998546630
| 37>  H        4.1095826327     2.8318314506    -0.5554860184
| 38>  H        5.7908072854     0.5318168868    -1.7384166165
| 39>  H        6.3848722661     2.1332862404    -1.0598473186
| 40> *
| 41>
| 42>                          ****END OF INPUT****
 Total Charge           Charge          ....    1
 Multiplicity           Mult            ....    1
 Number of Electrons    NEL             ....   46
FINAL SINGLE POINT ENERGY      -250.794885969140

CARTESIAN COORDINATES (ANGSTROEM)
---------------------------------
  C      2.432154    0.000666    0.373418
  C      1.021003   -0.419300    0.134133
  N      0.000100   -0.001126    1.148285
  C     -0.049425    0.529900   -0.240621
  C     -1.201600    0.133184   -1.076352
  C     -2.390865   -0.227447   -0.621775
  H      2.913256   -0.639338    1.114738
  H      2.499986    1.041568    0.697897
  H      2.988344   -0.094457   -0.561236
  H      0.855655   -1.449618   -0.165192
  H     -0.712888   -0.673657    1.410244
  H      0.294662    0.617836    1.895693
  H      0.245445    1.576225   -0.279076
  H     -1.003187    0.172208   -2.143682
  H     -2.647257   -0.241693    0.433923
  H     -3.182601   -0.509583   -1.303985

FINAL SINGLE POINT ENERGY      -250.794886893435
                    ***********************HURRAY********************
 Multiplicity           Mult            ....    1
 Number of Electrons    NEL             ....   46
 Basis Dimension        Dim             ....  246
FINAL SINGLE POINT ENERGY      -250.794887770307

VIBRATIONAL FREQUENCIES
-----------------------

   0:         0.00 cm**-1
   1:         0.00 cm**-1
   2:         0.00 cm**-1
   3:         0.00 cm**-1
   4:         0.00 cm**-1
   5:         0.00 cm**-1
   6:        82.18 cm**-1
   7:       191.90 cm**-1
   8:       215.60 cm**-1
   9:       260.64 cm**-1
  10:       329.80 cm**-1
  11:       409.23 cm**-1
  12:       547.02 cm**-1
  13:       650.07 cm**-1
  14:       759.57 cm**-1
  15:       844.39 cm**-1
  16:       886.21 cm**-1
  17:       923.61 cm**-1
  18:       962.62 cm**-1
  19:       996.03 cm**-1
  20:      1001.60 cm**-1
  21:      1019.50 cm**-1
  22:      1040.23 cm**-1
  23:      1093.32 cm**-1
  24:      1113.15 cm**-1
  25:      1144.63 cm**-1
  26:      1187.92 cm**-1
  27:      1230.95 cm**-1
  28:      1264.55 cm**-1
  29:      1318.80 cm**-1
  30:      1354.98 cm**-1
  31:      1418.97 cm**-1
  32:      1449.81 cm**-1
  33:      1470.59 cm**-1
  34:      1473.55 cm**-1
  35:      1494.75 cm**-1
  36:      1612.53 cm**-1
  37:      1729.23 cm**-1
  38:      3062.97 cm**-1
  39:      3143.16 cm**-1
  40:      3151.47 cm**-1
  41:      3154.62 cm**-1
  42:      3159.86 cm**-1
  43:      3185.50 cm**-1
  44:      3190.23 cm**-1
  45:      3254.87 cm**-1
  46:      3508.69 cm**-1
  47:      3616.54 cm**-1

IR SPECTRUM
-----------

 Mode    freq (cm**-1)   T**2         TX         TY         TZ
-------------------------------------------------------------------
   6:        82.18    0.875588  (  0.275824   0.891783  -0.065058)
   7:       191.90    2.553888  ( -0.627314  -0.146558  -1.462493)
   8:       215.60    0.802565  ( -0.391886   0.565183  -0.574072)
   9:       260.64    0.547456  (  0.291182   0.679098  -0.038671)
  10:       329.80    3.056118  ( -1.237389  -0.415689  -1.162836)
  11:       409.23    2.343929  (  1.340662  -0.738861   0.025295)
  12:       547.02    1.151784  (  0.409339   0.503289   0.854942)
  13:       650.07   15.194312  ( -0.436067   3.649902  -1.297062)
  14:       759.57    7.258319  (  2.594693  -0.507315   0.518190)
  15:       844.39    5.190368  ( -0.904310   2.063450   0.338772)
  16:       886.21   17.218295  ( -1.532331   0.392662   3.836154)
  17:       923.61    8.797413  (  1.899647  -0.091615  -2.276041)
  18:       962.62    2.136580  ( -1.379139   0.102192  -0.473406)
  19:       996.03   64.056511  (  2.373985  -7.623532   0.549964)
  20:      1001.60   72.531009  (  5.723435  -5.595316   2.909595)
  21:      1019.50    8.945631  (  1.483722  -2.562065   0.424293)
  22:      1040.23   20.467990  (  4.029355  -2.056735  -0.046167)
  23:      1093.32    5.038226  (  1.214899   0.022994   1.887251)
  24:      1113.15   12.144641  ( -0.621359   1.044744  -3.266047)
  25:      1144.63    0.190097  (  0.261321  -0.188387   0.293800)
  26:      1187.92    0.955565  (  0.568871   0.784365  -0.129316)
  27:      1230.95    4.442749  (  2.073289   0.146734   0.350275)
  28:      1264.55    2.958459  (  1.645065  -0.473354   0.167794)
  29:      1318.80    1.491715  ( -1.132359   0.452152  -0.070973)
  30:      1354.98    8.881110  ( -2.806329  -0.485814  -0.877277)
  31:      1418.97    7.522012  ( -2.182109  -1.658029  -0.106539)
  32:      1449.81   15.880811  ( -3.640302  -0.093397   1.618732)
  33:      1470.59   14.944875  ( -1.501818  -3.053502   1.834542)
  34:      1473.55    5.242096  ( -0.329321  -0.243291  -2.252655)
  35:      1494.75   11.983512  (  1.116242  -2.960788  -1.404012)
  36:      1612.53   70.934950  (  2.643271   0.683619  -7.967480)
  37:      1729.23    0.768999  (  0.735233   0.112647  -0.464481)
  38:      3062.97    1.777768  ( -0.565908   0.894475   0.810821)
  39:      3143.16    1.749241  (  0.002540   1.322420   0.020983)
  40:      3151.47    0.939409  (  0.827277  -0.481391  -0.152595)
  41:      3154.62    5.803276  ( -1.041990  -0.369802  -2.140275)
  42:      3159.86    2.763990  ( -1.033442   0.912648  -0.929011)
  43:      3185.50    2.108291  (  0.162315   0.016212  -1.442804)
  44:      3190.23    1.823408  (  0.868427  -1.005833  -0.239881)
  45:      3254.87    1.047824  (  0.943044   0.376728   0.128715)
  46:      3508.69   79.849530  (  3.522310   0.333492  -8.205586)
  47:      3616.54  116.765640  (  6.347274   7.640797   4.253937)

--------------------------
THERMOCHEMISTRY AT 298.15K
--------------------------

Temperature         ... 298.15 K
Pressure            ... 1.00 atm
Total Mass          ... 84.14 AMU

Throughout the following assumptions are being made:
  (1) The electronic state is orbitally nondegenerate
  (2) There are no thermally accessible electronically excited states
  (3) Hindered rotations indicated by low frequency modes) are not
      treated as such but are treated as vibrations and this may
      case some error
  (4) All equations used are the standard statistical mechanics
      equations for an ideal gas
  (5) All vibrations are strinctly harmonic

------------
INNER ENERGY
------------

The inner energy is: U= E(el) + E(ZPE) + E(vib) + E(rot) + E(trans)
    E(el)   - is the total energy from the electronic structure calculation
              = E(kin-el) + E(nuc-el) + E(el-el) + E(nuc-nuc)
    E(ZPE)  - the the zero temperature vibrational energy from the frequency calculation
    E(vib)  - the the finite temperature correction to E(ZPE) due to population
              of excietd vibrational states
    E(rot)  - is the rotational thermal energy
    E(trans)- is the translational thermal energy

Summary of contributions to the inner energy U:
Electronic energy                ...   -250.79488777 Eh
Zero point energy                ...      0.14558815 Eh      91.36 kcal/mol
Thermal vibrational correction   ...      0.00397684 Eh       2.50 kcal/mol
Thermal rotational correction    ...      0.00141627 Eh       0.89 kcal/mol
Thermal translational correction ...      0.00141627 Eh       0.89 kcal/mol
-----------------------------------------------------------------------
Total thermal energy                   -250.64249024 Eh

Summary of corrections to the electronic energy:
(perhaps to be used in another calculation)
Total thermal correction                  0.00680938 Eh       4.27 kcal/mol
Non-thermal (ZPE) correction              0.14558815 Eh      91.36 kcal/mol
-----------------------------------------------------------------------
Total correction                          0.15239753 Eh      95.63 kcal/mol

--------
ENTHALPY
--------

The enthalpy is H = U + kB*T
                kB is Boltzmann's constant
Total free energy                 ...   -250.64249024 Eh
Thermal Enthalpy correction       ...      0.00094421 Eh       0.59 kcal/mol
-----------------------------------------------------------------------
Total Enthalpy                    ...   -250.64154603 Eh

-------
ENTROPY
-------

The entropy contributions are T*S = T*(S(el)+S(vib)+S(rot)+S(trans)
     S(el)   - electronic entropy
     S(vib)  - vibrational entropy
     S(rot)  - rotational entropy
     S(trans)- translational entropy
The entropies will be listed as mutliplied by the temperature to get
units of energy

Electronic entropy                ...      0.00000000 Eh      0.00 kcal/mol
Vibrational entropy               ...      0.00683351 Eh      4.29 kcal/mol
Rotational entropy                ...      0.01156091 Eh      7.25 kcal/mol
Translational entropy             ...      0.01862670 Eh     11.69 kcal/mol
-----------------------------------------------------------------------
Final entropy term                ...      0.03702113 Eh     23.23 kcal/mol

CAUTION: The rotational entropy is not quite correctly treated here
         because it includes a symmetry number that is not yet correctly
         implemented in ORCA!
For a nonlinear molecule the correct rotational entropy is:
    S(rot) = R*(ln(qrot/sn)+1.5)
    R    = 8.31441 J/mol/K = 1.987191683e-3 kcal/mol/K
    qrot = 139106.5920580
    sn is the rotational symmetry number. We have assumed 3 here
       if it is different for your molecule then you should correct
       the printed rotational entropy by manually evaluating the equation
       as given above

For convenience we print out the resulting values for sn=1 - 12:
 sn= 1  qrot/sn=  139106.5921 T*S(rot)=     7.91 kcal/mol T*S(tot)=    23.88 kcal/mol
 sn= 2  qrot/sn=   69553.2960 T*S(rot)=     7.49 kcal/mol T*S(tot)=    23.47 kcal/mol
 sn= 3  qrot/sn=   46368.8640 T*S(rot)=     7.25 kcal/mol T*S(tot)=    23.23 kcal/mol
 sn= 4  qrot/sn=   34776.6480 T*S(rot)=     7.08 kcal/mol T*S(tot)=    23.06 kcal/mol
 sn= 5  qrot/sn=   27821.3184 T*S(rot)=     6.95 kcal/mol T*S(tot)=    22.93 kcal/mol
 sn= 6  qrot/sn=   23184.4320 T*S(rot)=     6.84 kcal/mol T*S(tot)=    22.82 kcal/mol
 sn= 7  qrot/sn=   19872.3703 T*S(rot)=     6.75 kcal/mol T*S(tot)=    22.73 kcal/mol
 sn= 8  qrot/sn=   17388.3240 T*S(rot)=     6.67 kcal/mol T*S(tot)=    22.65 kcal/mol
 sn= 9  qrot/sn=   15456.2880 T*S(rot)=     6.60 kcal/mol T*S(tot)=    22.58 kcal/mol
 sn=10  qrot/sn=   13910.6592 T*S(rot)=     6.54 kcal/mol T*S(tot)=    22.52 kcal/mol
 sn=11  qrot/sn=   12646.0538 T*S(rot)=     6.48 kcal/mol T*S(tot)=    22.46 kcal/mol
 sn=12  qrot/sn=   11592.2160 T*S(rot)=     6.43 kcal/mol T*S(tot)=    22.41 kcal/mol

-------------------
GIBBS FREE ENTHALPY
-------------------

The Gibbs free enthalpy is G = H - T*S

Total enthalpy                    ...   -250.64154603 Eh
Total entropy correction          ...     -0.03702113 Eh    -23.23 kcal/mol
-----------------------------------------------------------------------
Final Gibbs free enthalpy         ...   -250.67856716 Eh

For completeness - the Gibbs free enthalpy minus the electronic energy
G-E(el)                           ...      0.11632061 Eh     72.99 kcal/mol

                             ****ORCA TERMINATED NORMALLY****
TOTAL RUN TIME: 0 days 0 hours 16 minutes 23 seconds 324 msec
