                         Program Version 3.0.3 - RELEASE   -
|  1> ! NORI PBE0 def2-TZVP UseSym TightOPT Freq TightSCF Grid3 FinalGrid5 XYZFile
|  2> % pal
|  3>     nprocs 8
|  4> end
|  5> %method
|  6>     SymThresh 5.0e-2
|  7> end
|  8> % geom
|  9>     MaxIter 10
| 10> end
| 11> % maxcore 2000
| 12> % output
| 13>     printlevel mini
| 14>     print[ P_Basis ] 0
| 15>     print[ P_SCFInfo ] 1
| 16>     print[ P_SCFIterInfo ] 1
| 17>     print[ P_OrbEn ] 0
| 18>     print[ P_Cartesian ] 0
| 19> end
| 20> % elprop
| 21>     Dipole false
| 22> end
| 23> *xyz 1 1
| 24>  C        1.0320882253    -0.0496371477    -0.0337434342
| 25>  C        2.5097453905     0.0841581930     0.1149173514
| 26>  N        3.3643634475    -0.7444557722    -0.7870705646
| 27>  C        3.3484838933     0.7579935710    -0.9051688429
| 28>  C        4.5618636381     1.4253958444    -0.5691167874
| 29>  C        5.5731136505     2.0035911187    -0.2878835332
| 30>  H        0.5545339405     0.8109235388     0.4386236409
| 31>  H        0.6695113233    -0.9501307174     0.4645944891
| 32>  H        0.7262175004    -0.0693194287    -1.0822623834
| 33>  H        2.9099861335     0.0941571411     1.1233731047
| 34>  H        4.2110946243    -1.1606984032    -0.4124578684
| 35>  H        2.9107680232    -1.2843097038    -1.5174548660
| 36>  H        2.8453613628     1.0802524379    -1.8127036855
| 37>  H        6.4732588469     2.5221393282    -0.0387166204
| 38> *
| 39>
| 40>                          ****END OF INPUT****
 Total Charge           Charge          ....    1
 Multiplicity           Mult            ....    1
 Number of Electrons    NEL             ....   44
FINAL SINGLE POINT ENERGY      -249.536103717724

CARTESIAN COORDINATES (ANGSTROEM)
---------------------------------
  C      2.363322   -0.000050    0.351529
  C      0.940911   -0.429624    0.225509
  N      0.000037    0.000134    1.302969
  C     -0.146119    0.523477   -0.102884
  C     -1.321193    0.121824   -0.802047
  C     -2.302040   -0.207937   -1.406132
  H      2.846106   -0.102396   -0.622148
  H      2.900386   -0.631914    1.060698
  H      2.450239    1.044166    0.660694
  H      0.755455   -1.459708   -0.059892
  H     -0.710729   -0.651586    1.620313
  H      0.342936    0.637234    2.015033
  H      0.129674    1.572432   -0.167523
  H     -3.175830   -0.499242   -1.947447

FINAL SINGLE POINT ENERGY      -249.536104120459
                    ***********************HURRAY********************
 Multiplicity           Mult            ....    1
 Number of Electrons    NEL             ....   44
 Basis Dimension        Dim             ....  234
FINAL SINGLE POINT ENERGY      -249.536104319279

VIBRATIONAL FREQUENCIES
-----------------------

   0:         0.00 cm**-1
   1:         0.00 cm**-1
   2:         0.00 cm**-1
   3:         0.00 cm**-1
   4:         0.00 cm**-1
   5:         0.00 cm**-1
   6:       148.94 cm**-1
   7:       164.24 cm**-1
   8:       225.87 cm**-1
   9:       320.32 cm**-1
  10:       367.50 cm**-1
  11:       492.87 cm**-1
  12:       516.40 cm**-1
  13:       737.80 cm**-1
  14:       740.06 cm**-1
  15:       778.74 cm**-1
  16:       827.73 cm**-1
  17:       867.37 cm**-1
  18:       927.25 cm**-1
  19:       965.70 cm**-1
  20:      1005.06 cm**-1
  21:      1053.91 cm**-1
  22:      1124.51 cm**-1
  23:      1133.70 cm**-1
  24:      1182.24 cm**-1
  25:      1227.92 cm**-1
  26:      1258.13 cm**-1
  27:      1351.59 cm**-1
  28:      1420.20 cm**-1
  29:      1455.94 cm**-1
  30:      1472.34 cm**-1
  31:      1492.81 cm**-1
  32:      1615.82 cm**-1
  33:      2260.96 cm**-1
  34:      3063.30 cm**-1
  35:      3144.30 cm**-1
  36:      3153.41 cm**-1
  37:      3174.70 cm**-1
  38:      3199.94 cm**-1
  39:      3450.42 cm**-1
  40:      3498.98 cm**-1
  41:      3611.40 cm**-1

IR SPECTRUM
-----------

 Mode    freq (cm**-1)   T**2         TX         TY         TZ
-------------------------------------------------------------------
   6:       148.94    0.943658  ( -0.941037   0.071611   0.230173)
   7:       164.24    2.127999  ( -0.208864  -1.435360   0.155295)
   8:       225.87    1.724709  ( -0.326525   1.271948   0.015468)
   9:       320.32    4.764340  (  1.420868   1.361675  -0.944095)
  10:       367.50    7.418817  (  1.951619  -1.091353  -1.555297)
  11:       492.87   12.391969  (  1.290686  -3.092702   1.077633)
  12:       516.40   10.482590  (  0.889450   1.053567  -2.929414)
  13:       737.80   31.168954  ( -1.427728   4.717810   2.621605)
  14:       740.06   16.936873  ( -3.558266   1.688352  -1.193768)
  15:       778.74   30.645935  (  1.755292   2.797572  -4.442800)
  16:       827.73    9.945597  ( -0.421366  -1.490944  -2.746841)
  17:       867.37   23.164588  (  0.875242   0.174740  -4.729483)
  18:       927.25    8.065820  (  0.439042   1.141658  -2.563138)
  19:       965.70   23.522352  (  3.079951  -2.863583   2.415812)
  20:      1005.06   61.999203  ( -5.079189   5.895312  -1.202636)
  21:      1053.91   20.127633  (  3.718942  -1.601832  -1.931642)
  22:      1124.51   23.849801  ( -3.668314   0.694073  -3.148259)
  23:      1133.70    1.657534  (  1.073224   0.584925  -0.404460)
  24:      1182.24    1.112562  ( -0.930787  -0.173707   0.464785)
  25:      1227.92    5.215167  ( -2.203715  -0.492951  -0.340306)
  26:      1258.13    0.984916  (  0.906809  -0.398389   0.062450)
  27:      1351.59   21.383749  ( -4.060820  -1.147673  -1.891119)
  28:      1420.20   12.678592  ( -3.013991  -1.895459  -0.041019)
  29:      1455.94    8.160643  (  0.631212  -1.964741  -1.975350)
  30:      1472.34    9.884781  (  0.073242   0.999706  -2.979934)
  31:      1492.81   12.385481  ( -0.844977   3.386010   0.454345)
  32:      1615.82   75.167546  ( -2.470761   0.080848   8.310015)
  33:      2260.96   46.473668  (  5.414444   1.444815   3.882006)
  34:      3063.30    2.263082  ( -0.865212   0.900509   0.838793)
  35:      3144.30    1.617552  (  0.046596   1.261649  -0.153698)
  36:      3153.41    0.891568  ( -0.757381   0.304555   0.474540)
  37:      3174.70    5.689728  ( -0.885800   1.837286  -1.236715)
  38:      3199.94    3.956328  ( -0.927573   1.744207   0.231684)
  39:      3450.42  103.951501  ( -8.324080  -2.302046  -5.418650)
  40:      3498.98  109.440529  ( -2.694472  -0.381876  10.101214)
  41:      3611.40  122.422642  ( -6.992556  -8.278038  -2.236267)

--------------------------
THERMOCHEMISTRY AT 298.15K
--------------------------

Temperature         ... 298.15 K
Pressure            ... 1.00 atm
Total Mass          ... 82.13 AMU

Throughout the following assumptions are being made:
  (1) The electronic state is orbitally nondegenerate
  (2) There are no thermally accessible electronically excited states
  (3) Hindered rotations indicated by low frequency modes) are not
      treated as such but are treated as vibrations and this may
      case some error
  (4) All equations used are the standard statistical mechanics
      equations for an ideal gas
  (5) All vibrations are strinctly harmonic

------------
INNER ENERGY
------------

The inner energy is: U= E(el) + E(ZPE) + E(vib) + E(rot) + E(trans)
    E(el)   - is the total energy from the electronic structure calculation
              = E(kin-el) + E(nuc-el) + E(el-el) + E(nuc-nuc)
    E(ZPE)  - the the zero temperature vibrational energy from the frequency calculation
    E(vib)  - the the finite temperature correction to E(ZPE) due to population
              of excietd vibrational states
    E(rot)  - is the rotational thermal energy
    E(trans)- is the translational thermal energy

Summary of contributions to the inner energy U:
Electronic energy                ...   -249.53610432 Eh
Zero point energy                ...      0.12172790 Eh      76.39 kcal/mol
Thermal vibrational correction   ...      0.00366057 Eh       2.30 kcal/mol
Thermal rotational correction    ...      0.00141627 Eh       0.89 kcal/mol
Thermal translational correction ...      0.00141627 Eh       0.89 kcal/mol
-----------------------------------------------------------------------
Total thermal energy                   -249.40788331 Eh

Summary of corrections to the electronic energy:
(perhaps to be used in another calculation)
Total thermal correction                  0.00649311 Eh       4.07 kcal/mol
Non-thermal (ZPE) correction              0.12172790 Eh      76.39 kcal/mol
-----------------------------------------------------------------------
Total correction                          0.12822101 Eh      80.46 kcal/mol

--------
ENTHALPY
--------

The enthalpy is H = U + kB*T
                kB is Boltzmann's constant
Total free energy                 ...   -249.40788331 Eh
Thermal Enthalpy correction       ...      0.00094421 Eh       0.59 kcal/mol
-----------------------------------------------------------------------
Total Enthalpy                    ...   -249.40693910 Eh

-------
ENTROPY
-------

The entropy contributions are T*S = T*(S(el)+S(vib)+S(rot)+S(trans)
     S(el)   - electronic entropy
     S(vib)  - vibrational entropy
     S(rot)  - rotational entropy
     S(trans)- translational entropy
The entropies will be listed as mutliplied by the temperature to get
units of energy

Electronic entropy                ...      0.00000000 Eh      0.00 kcal/mol
Vibrational entropy               ...      0.00598549 Eh      3.76 kcal/mol
Rotational entropy                ...      0.01155276 Eh      7.25 kcal/mol
Translational entropy             ...      0.01859236 Eh     11.67 kcal/mol
-----------------------------------------------------------------------
Final entropy term                ...      0.03613061 Eh     22.67 kcal/mol

CAUTION: The rotational entropy is not quite correctly treated here
         because it includes a symmetry number that is not yet correctly
         implemented in ORCA!
For a nonlinear molecule the correct rotational entropy is:
    S(rot) = R*(ln(qrot/sn)+1.5)
    R    = 8.31441 J/mol/K = 1.987191683e-3 kcal/mol/K
    qrot = 137910.3928438
    sn is the rotational symmetry number. We have assumed 3 here
       if it is different for your molecule then you should correct
       the printed rotational entropy by manually evaluating the equation
       as given above

For convenience we print out the resulting values for sn=1 - 12:
 sn= 1  qrot/sn=  137910.3928 T*S(rot)=     7.90 kcal/mol T*S(tot)=    23.32 kcal/mol
 sn= 2  qrot/sn=   68955.1964 T*S(rot)=     7.49 kcal/mol T*S(tot)=    22.91 kcal/mol
 sn= 3  qrot/sn=   45970.1309 T*S(rot)=     7.25 kcal/mol T*S(tot)=    22.67 kcal/mol
 sn= 4  qrot/sn=   34477.5982 T*S(rot)=     7.08 kcal/mol T*S(tot)=    22.50 kcal/mol
 sn= 5  qrot/sn=   27582.0786 T*S(rot)=     6.95 kcal/mol T*S(tot)=    22.37 kcal/mol
 sn= 6  qrot/sn=   22985.0655 T*S(rot)=     6.84 kcal/mol T*S(tot)=    22.26 kcal/mol
 sn= 7  qrot/sn=   19701.4847 T*S(rot)=     6.75 kcal/mol T*S(tot)=    22.17 kcal/mol
 sn= 8  qrot/sn=   17238.7991 T*S(rot)=     6.67 kcal/mol T*S(tot)=    22.09 kcal/mol
 sn= 9  qrot/sn=   15323.3770 T*S(rot)=     6.60 kcal/mol T*S(tot)=    22.02 kcal/mol
 sn=10  qrot/sn=   13791.0393 T*S(rot)=     6.54 kcal/mol T*S(tot)=    21.96 kcal/mol
 sn=11  qrot/sn=   12537.3084 T*S(rot)=     6.48 kcal/mol T*S(tot)=    21.90 kcal/mol
 sn=12  qrot/sn=   11492.5327 T*S(rot)=     6.43 kcal/mol T*S(tot)=    21.85 kcal/mol

-------------------
GIBBS FREE ENTHALPY
-------------------

The Gibbs free enthalpy is G = H - T*S

Total enthalpy                    ...   -249.40693910 Eh
Total entropy correction          ...     -0.03613061 Eh    -22.67 kcal/mol
-----------------------------------------------------------------------
Final Gibbs free enthalpy         ...   -249.44306971 Eh

For completeness - the Gibbs free enthalpy minus the electronic energy
G-E(el)                           ...      0.09303461 Eh     58.38 kcal/mol

                             ****ORCA TERMINATED NORMALLY****
TOTAL RUN TIME: 0 days 0 hours 14 minutes 31 seconds 149 msec
