                         Program Version 3.0.3 - RELEASE   -
|  1> ! NORI PBE0 def2-TZVP UseSym TightOPT Freq TightSCF Grid3 FinalGrid5 XYZFile
|  2> % pal
|  3>     nprocs 8
|  4> end
|  5> %method
|  6>     SymThresh 5.0e-2
|  7> end
|  8> % geom
|  9>     MaxIter 10
| 10> end
| 11> % maxcore 2000
| 12> % output
| 13>     printlevel mini
| 14>     print[ P_Basis ] 0
| 15>     print[ P_SCFInfo ] 1
| 16>     print[ P_SCFIterInfo ] 1
| 17>     print[ P_OrbEn ] 0
| 18>     print[ P_Cartesian ] 0
| 19> end
| 20> % elprop
| 21>     Dipole false
| 22> end
| 23> *xyz 1 1
| 24>  C        1.0226232135     0.0158430016    -0.2098081950
| 25>  C        2.4994436908     0.1375899001    -0.0510807474
| 26>  N        3.3632717803    -0.6790460572    -0.9596855761
| 27>  C        3.3437955393     0.8100761144    -1.0686386626
| 28>  C        4.5636511067     1.4682655171    -0.7000651205
| 29>  N        5.5401346572     1.9802501041    -0.3784867595
| 30>  H        0.5511830416     0.8795854298     0.2634634279
| 31>  H        0.6536046018    -0.8824532668     0.2875439304
| 32>  H        0.7208914792    -0.0000177115    -1.2595344680
| 33>  H        2.8972745183     0.1392967569     0.9589162603
| 34>  H        4.2050234528    -1.1088185574    -0.5842107377
| 35>  H        2.9168609408    -1.2077965768    -1.7043993997
| 36>  H        2.8639019778     1.1649053457    -1.9757839520
| 37> *
| 38>
| 39>                          ****END OF INPUT****
 Total Charge           Charge          ....    1
 Multiplicity           Mult            ....    1
 Number of Electrons    NEL             ....   44
FINAL SINGLE POINT ENERGY      -265.604456717589

CARTESIAN COORDINATES (ANGSTROEM)
---------------------------------
  C     -2.360030    0.245517    0.352955
  C     -0.901281    0.522784    0.224777
  N     -0.000016   -0.000104    1.298656
  C      0.075463   -0.548887   -0.088075
  C      1.288297   -0.260260   -0.797345
  N      2.255623    0.000173   -1.358972
  H     -2.826016    0.385084   -0.624564
  H     -2.825831    0.943980    1.049799
  H     -2.558242   -0.778433    0.677891
  H     -0.605114    1.523838   -0.072110
  H      0.775087    0.577122    1.615407
  H     -0.400398   -0.598074    2.016632
  H     -0.292113   -1.567837   -0.164003

FINAL SINGLE POINT ENERGY      -265.604456975799
                    ***********************HURRAY********************
 Multiplicity           Mult            ....    1
 Number of Electrons    NEL             ....   44
 Basis Dimension        Dim             ....  228
FINAL SINGLE POINT ENERGY      -265.604457154327

VIBRATIONAL FREQUENCIES
-----------------------

   0:         0.00 cm**-1
   1:         0.00 cm**-1
   2:         0.00 cm**-1
   3:         0.00 cm**-1
   4:         0.00 cm**-1
   5:         0.00 cm**-1
   6:       152.66 cm**-1
   7:       168.97 cm**-1
   8:       227.49 cm**-1
   9:       325.35 cm**-1
  10:       375.29 cm**-1
  11:       517.44 cm**-1
  12:       550.78 cm**-1
  13:       754.75 cm**-1
  14:       830.06 cm**-1
  15:       875.85 cm**-1
  16:       926.94 cm**-1
  17:       983.05 cm**-1
  18:      1027.81 cm**-1
  19:      1048.41 cm**-1
  20:      1120.79 cm**-1
  21:      1136.30 cm**-1
  22:      1187.06 cm**-1
  23:      1228.29 cm**-1
  24:      1255.77 cm**-1
  25:      1355.48 cm**-1
  26:      1420.64 cm**-1
  27:      1454.53 cm**-1
  28:      1469.57 cm**-1
  29:      1492.29 cm**-1
  30:      1621.18 cm**-1
  31:      2402.42 cm**-1
  32:      3063.88 cm**-1
  33:      3145.75 cm**-1
  34:      3155.11 cm**-1
  35:      3186.97 cm**-1
  36:      3198.45 cm**-1
  37:      3484.19 cm**-1
  38:      3591.28 cm**-1

IR SPECTRUM
-----------

 Mode    freq (cm**-1)   T**2         TX         TY         TZ
-------------------------------------------------------------------
   6:       152.66    8.483692  (  1.040802  -1.160941   2.460211)
   7:       168.97    6.467046  ( -0.538832   1.844349   1.665858)
   8:       227.49    0.252662  ( -0.259301  -0.355757  -0.242614)
   9:       325.35    2.642401  (  1.120679   0.140152  -1.169118)
  10:       375.29    0.863059  ( -0.920741   0.038697  -0.117463)
  11:       517.44    1.686980  (  0.391033  -0.475366  -1.143722)
  12:       550.78    1.580508  ( -0.431755   0.418092   1.104217)
  13:       754.75    2.650795  ( -1.624474  -0.101996   0.038422)
  14:       830.06    5.380132  (  0.938250   1.355685  -1.631545)
  15:       875.85   21.374604  (  1.250481  -0.107385   4.449648)
  16:       926.94    6.408615  (  0.822879   0.794608   2.258336)
  17:       983.05   21.439547  ( -2.375461   3.245744   2.293878)
  18:      1027.81   41.384331  ( -3.279049   5.321947   1.519556)
  19:      1048.41   37.912508  ( -4.512264   3.930533  -1.450136)
  20:      1120.79   20.447285  ( -2.738572   1.476383   3.281433)
  21:      1136.30    3.768368  (  1.930189   0.063718  -0.196667)
  22:      1187.06    1.034986  ( -0.997347  -0.133473  -0.149900)
  23:      1228.29    5.892716  (  2.395084   0.301743  -0.255421)
  24:      1255.77    3.964915  ( -1.811914   0.823599   0.059734)
  25:      1355.48   10.035057  (  2.890005   0.748351  -1.059668)
  26:      1420.64   11.022944  ( -2.894085  -1.593368  -0.329236)
  27:      1454.53   10.299468  ( -1.719818   2.396064  -1.265137)
  28:      1469.57    9.968870  ( -0.285819  -1.056954  -2.961423)
  29:      1492.29   12.311020  ( -0.269950  -3.369801   0.939462)
  30:      1621.18   75.411405  ( -3.098318   0.384308  -8.103341)
  31:      2402.42    8.884037  (  2.350963   0.742687  -1.674941)
  32:      3063.88    4.052910  ( -1.522977   1.023295  -0.828443)
  33:      3145.75    1.428118  ( -0.616385  -0.923921  -0.441088)
  34:      3155.11    1.396784  (  0.499559  -0.278231   1.034318)
  35:      3186.97    8.998303  (  0.290674   2.744881   1.174495)
  36:      3198.45   10.653605  ( -0.501378   3.199000  -0.410636)
  37:      3484.19  131.041891  (  3.441526   0.389786  10.910814)
  38:      3591.28  141.110819  ( -8.282313  -8.069505   2.719780)

--------------------------
THERMOCHEMISTRY AT 298.15K
--------------------------

Temperature         ... 298.15 K
Pressure            ... 1.00 atm
Total Mass          ... 83.11 AMU

Throughout the following assumptions are being made:
  (1) The electronic state is orbitally nondegenerate
  (2) There are no thermally accessible electronically excited states
  (3) Hindered rotations indicated by low frequency modes) are not
      treated as such but are treated as vibrations and this may
      case some error
  (4) All equations used are the standard statistical mechanics
      equations for an ideal gas
  (5) All vibrations are strinctly harmonic

------------
INNER ENERGY
------------

The inner energy is: U= E(el) + E(ZPE) + E(vib) + E(rot) + E(trans)
    E(el)   - is the total energy from the electronic structure calculation
              = E(kin-el) + E(nuc-el) + E(el-el) + E(nuc-nuc)
    E(ZPE)  - the the zero temperature vibrational energy from the frequency calculation
    E(vib)  - the the finite temperature correction to E(ZPE) due to population
              of excietd vibrational states
    E(rot)  - is the rotational thermal energy
    E(trans)- is the translational thermal energy

Summary of contributions to the inner energy U:
Electronic energy                ...   -265.60445715 Eh
Zero point energy                ...      0.11102606 Eh      69.67 kcal/mol
Thermal vibrational correction   ...      0.00339255 Eh       2.13 kcal/mol
Thermal rotational correction    ...      0.00141627 Eh       0.89 kcal/mol
Thermal translational correction ...      0.00141627 Eh       0.89 kcal/mol
-----------------------------------------------------------------------
Total thermal energy                   -265.48720600 Eh

Summary of corrections to the electronic energy:
(perhaps to be used in another calculation)
Total thermal correction                  0.00622509 Eh       3.91 kcal/mol
Non-thermal (ZPE) correction              0.11102606 Eh      69.67 kcal/mol
-----------------------------------------------------------------------
Total correction                          0.11725115 Eh      73.58 kcal/mol

--------
ENTHALPY
--------

The enthalpy is H = U + kB*T
                kB is Boltzmann's constant
Total free energy                 ...   -265.48720600 Eh
Thermal Enthalpy correction       ...      0.00094421 Eh       0.59 kcal/mol
-----------------------------------------------------------------------
Total Enthalpy                    ...   -265.48626179 Eh

-------
ENTROPY
-------

The entropy contributions are T*S = T*(S(el)+S(vib)+S(rot)+S(trans)
     S(el)   - electronic entropy
     S(vib)  - vibrational entropy
     S(rot)  - rotational entropy
     S(trans)- translational entropy
The entropies will be listed as mutliplied by the temperature to get
units of energy

Electronic entropy                ...      0.00000000 Eh      0.00 kcal/mol
Vibrational entropy               ...      0.00559005 Eh      3.51 kcal/mol
Rotational entropy                ...      0.01153531 Eh      7.24 kcal/mol
Translational entropy             ...      0.01860929 Eh     11.68 kcal/mol
-----------------------------------------------------------------------
Final entropy term                ...      0.03573466 Eh     22.42 kcal/mol

CAUTION: The rotational entropy is not quite correctly treated here
         because it includes a symmetry number that is not yet correctly
         implemented in ORCA!
For a nonlinear molecule the correct rotational entropy is:
    S(rot) = R*(ln(qrot/sn)+1.5)
    R    = 8.31441 J/mol/K = 1.987191683e-3 kcal/mol/K
    qrot = 135385.7158641
    sn is the rotational symmetry number. We have assumed 3 here
       if it is different for your molecule then you should correct
       the printed rotational entropy by manually evaluating the equation
       as given above

For convenience we print out the resulting values for sn=1 - 12:
 sn= 1  qrot/sn=  135385.7159 T*S(rot)=     7.89 kcal/mol T*S(tot)=    23.07 kcal/mol
 sn= 2  qrot/sn=   67692.8579 T*S(rot)=     7.48 kcal/mol T*S(tot)=    22.66 kcal/mol
 sn= 3  qrot/sn=   45128.5720 T*S(rot)=     7.24 kcal/mol T*S(tot)=    22.42 kcal/mol
 sn= 4  qrot/sn=   33846.4290 T*S(rot)=     7.07 kcal/mol T*S(tot)=    22.25 kcal/mol
 sn= 5  qrot/sn=   27077.1432 T*S(rot)=     6.94 kcal/mol T*S(tot)=    22.12 kcal/mol
 sn= 6  qrot/sn=   22564.2860 T*S(rot)=     6.83 kcal/mol T*S(tot)=    22.01 kcal/mol
 sn= 7  qrot/sn=   19340.8166 T*S(rot)=     6.74 kcal/mol T*S(tot)=    21.92 kcal/mol
 sn= 8  qrot/sn=   16923.2145 T*S(rot)=     6.66 kcal/mol T*S(tot)=    21.84 kcal/mol
 sn= 9  qrot/sn=   15042.8573 T*S(rot)=     6.59 kcal/mol T*S(tot)=    21.77 kcal/mol
 sn=10  qrot/sn=   13538.5716 T*S(rot)=     6.53 kcal/mol T*S(tot)=    21.71 kcal/mol
 sn=11  qrot/sn=   12307.7924 T*S(rot)=     6.47 kcal/mol T*S(tot)=    21.65 kcal/mol
 sn=12  qrot/sn=   11282.1430 T*S(rot)=     6.42 kcal/mol T*S(tot)=    21.60 kcal/mol

-------------------
GIBBS FREE ENTHALPY
-------------------

The Gibbs free enthalpy is G = H - T*S

Total enthalpy                    ...   -265.48626179 Eh
Total entropy correction          ...     -0.03573466 Eh    -22.42 kcal/mol
-----------------------------------------------------------------------
Final Gibbs free enthalpy         ...   -265.52199645 Eh

For completeness - the Gibbs free enthalpy minus the electronic energy
G-E(el)                           ...      0.08246070 Eh     51.74 kcal/mol

                             ****ORCA TERMINATED NORMALLY****
TOTAL RUN TIME: 0 days 0 hours 12 minutes 6 seconds 377 msec
