                         Program Version 3.0.3 - RELEASE   -
|  1> ! NORI PBE0 def2-TZVP UseSym TightOPT Freq TightSCF Grid3 FinalGrid5 XYZFile
|  2> % pal
|  3>     nprocs 8
|  4> end
|  5> %method
|  6>     SymThresh 5.0e-2
|  7> end
|  8> % geom
|  9>     MaxIter 10
| 10> end
| 11> % maxcore 2000
| 12> % output
| 13>     printlevel mini
| 14>     print[ P_Basis ] 0
| 15>     print[ P_SCFInfo ] 1
| 16>     print[ P_SCFIterInfo ] 1
| 17>     print[ P_OrbEn ] 0
| 18>     print[ P_Cartesian ] 0
| 19> end
| 20> % elprop
| 21>     Dipole false
| 22> end
| 23> *xyz 1 1
| 24>  C        0.8508765905    -0.0246485442     0.1429098948
| 25>  C        2.3532103493     0.0059274580     0.1965309218
| 26>  N        2.8740311465    -0.0095318745    -1.2332770751
| 27>  C        3.1005119195     1.1105948828     0.9673438536
| 28>  C        4.1408301374     0.0629946474     1.4158381492
| 29>  C        3.1430310172    -1.0403440984     1.0057876534
| 30>  H        0.4413234232     0.8479923557    -0.3748527523
| 31>  H        0.4575946548    -0.0144284207     1.1594060961
| 32>  H        0.4763654155    -0.9305977810    -0.3432388110
| 33>  H        2.5350587140     0.8021502588    -1.7545182487
| 34>  H        2.5656402068    -0.8512234243    -1.7251248906
| 35>  H        3.8960449213     0.0090477681    -1.2489194235
| 36>  H        2.4851431625     1.4595815775     1.7966599691
| 37>  H        3.4376880902     1.9867583810     0.4076032490
| 38>  H        4.4438299638     0.0875958828     2.4600171841
| 39>  H        5.0502079550     0.0701050384     0.8100186677
| 40>  H        3.5145332018    -1.9219063336     0.4769420701
| 41>  H        2.5412991306    -1.3838477738     1.8472934925
| 42> *
| 43>
| 44>                          ****END OF INPUT****
 Total Charge           Charge          ....    1
 Multiplicity           Mult            ....    1
 Number of Electrons    NEL             ....   48
FINAL SINGLE POINT ENERGY      -252.035623674223

CARTESIAN COORDINATES (ANGSTROEM)
---------------------------------
  C      0.052638    1.895409    0.000000
  C      0.130125    0.393608   -0.000000
  N      1.600385    0.000280   -0.000000
  C     -0.590253   -0.441348    1.075792
  C     -0.929494   -1.494074   -0.000000
  C     -0.590253   -0.441348   -1.075792
  H      0.518651    2.329720    0.889613
  H     -0.994350    2.198570   -0.000000
  H      0.518651    2.329720   -0.889613
  H      2.076539    0.367510    0.826785
  H      2.076539    0.367510   -0.826785
  H      1.705918   -1.016423   -0.000000
  H     -1.475495    0.092346    1.421908
  H     -0.017339   -0.746852    1.954859
  H     -1.943541   -1.886863    0.000000
  H     -0.246835   -2.347452   -0.000000
  H     -0.017339   -0.746852   -1.954859
  H     -1.475495    0.092346   -1.421908

FINAL SINGLE POINT ENERGY      -252.035624286921
                    ***********************HURRAY********************
 Multiplicity           Mult            ....    1
 Number of Electrons    NEL             ....   48
 Basis Dimension        Dim             ....  258
FINAL SINGLE POINT ENERGY      -252.035624570878

VIBRATIONAL FREQUENCIES
-----------------------

   0:         0.00 cm**-1
   1:         0.00 cm**-1
   2:         0.00 cm**-1
   3:         0.00 cm**-1
   4:         0.00 cm**-1
   5:         0.00 cm**-1
   6:       138.85 cm**-1
   7:       227.37 cm**-1
   8:       256.48 cm**-1
   9:       290.83 cm**-1
  10:       347.84 cm**-1
  11:       390.53 cm**-1
  12:       394.15 cm**-1
  13:       607.49 cm**-1
  14:       700.62 cm**-1
  15:       763.19 cm**-1
  16:       826.26 cm**-1
  17:       896.81 cm**-1
  18:       903.17 cm**-1
  19:       944.37 cm**-1
  20:       953.84 cm**-1
  21:       987.60 cm**-1
  22:       990.73 cm**-1
  23:      1015.64 cm**-1
  24:      1094.62 cm**-1
  25:      1175.57 cm**-1
  26:      1199.56 cm**-1
  27:      1246.13 cm**-1
  28:      1262.19 cm**-1
  29:      1262.87 cm**-1
  30:      1273.18 cm**-1
  31:      1292.90 cm**-1
  32:      1357.85 cm**-1
  33:      1423.57 cm**-1
  34:      1462.92 cm**-1
  35:      1473.06 cm**-1
  36:      1480.99 cm**-1
  37:      1484.54 cm**-1
  38:      1485.93 cm**-1
  39:      1511.92 cm**-1
  40:      1651.42 cm**-1
  41:      1655.05 cm**-1
  42:      3047.40 cm**-1
  43:      3078.70 cm**-1
  44:      3080.59 cm**-1
  45:      3085.27 cm**-1
  46:      3118.78 cm**-1
  47:      3144.40 cm**-1
  48:      3146.04 cm**-1
  49:      3155.03 cm**-1
  50:      3166.85 cm**-1
  51:      3414.22 cm**-1
  52:      3503.93 cm**-1
  53:      3505.76 cm**-1

IR SPECTRUM
-----------

 Mode    freq (cm**-1)   T**2         TX         TY         TZ
-------------------------------------------------------------------
   6:       138.85    5.278883  (  2.000766   1.129522   0.000000)
   7:       227.37    0.428105  ( -0.000000  -0.000000  -0.654297)
   8:       256.48    0.029812  ( -0.000000   0.000000   0.172663)
   9:       290.83    1.633041  (  0.000003   0.000000   1.277905)
  10:       347.84    8.673548  ( -0.912689  -2.800098   0.000000)
  11:       390.53    4.302605  (  0.000006  -0.000000   2.074272)
  12:       394.15    7.993628  ( -2.826911   0.046958   0.000003)
  13:       607.49    0.378984  ( -0.579776  -0.206987   0.000000)
  14:       700.62    1.409248  ( -1.133342   0.353249   0.000000)
  15:       763.19    0.007862  ( -0.000002   0.000000  -0.088671)
  16:       826.26    5.534535  ( -2.153226   0.947710  -0.000000)
  17:       896.81    2.686199  (  0.000004   0.000000  -1.638963)
  18:       903.17    0.536352  ( -0.414196   0.603982   0.000001)
  19:       944.37    7.187099  (  0.732460   2.578876  -0.000001)
  20:       953.84    3.519072  ( -0.000001  -0.000001   1.875919)
  21:       987.60    1.458397  (  0.000006   0.000000   1.207641)
  22:       990.73    1.582796  ( -1.235934  -0.235083  -0.000000)
  23:      1015.64    9.504439  ( -1.594808  -2.638375  -0.000001)
  24:      1094.62    0.558341  ( -0.000007   0.000000   0.747222)
  25:      1175.57   14.941915  (  3.742786  -0.966162   0.000004)
  26:      1199.56    6.341599  ( -0.000002   0.000001   2.518253)
  27:      1246.13    6.873785  ( -0.000007  -0.000002  -2.621790)
  28:      1262.19    0.945178  ( -0.869816  -0.434278   0.000003)
  29:      1262.87    0.537742  ( -0.000008  -0.000000   0.733309)
  30:      1273.18    8.905793  ( -2.856290   0.864523   0.000004)
  31:      1292.90    0.495593  ( -0.000006   0.000004   0.703984)
  32:      1357.85   25.662360  ( -2.277656  -4.524892  -0.000000)
  33:      1423.57   32.475395  (  2.789570  -4.969275   0.000005)
  34:      1462.92   17.139131  ( -0.000001  -0.000002  -4.139943)
  35:      1473.06    3.923216  (  1.907399  -0.533896   0.000009)
  36:      1480.99  106.792895  ( 10.043430  -2.433600  -0.000025)
  37:      1484.54   34.021527  (  5.832670   0.038622   0.000024)
  38:      1485.93    9.386178  (  0.000027  -0.000016   3.063687)
  39:      1511.92   25.505118  ( -3.898326   3.210634  -0.000000)
  40:      1651.42   36.199370  ( -0.000000   0.000002  -6.016591)
  41:      1655.05   34.290662  ( -1.036452  -5.763370  -0.000002)
  42:      3047.40    4.357481  ( -1.755332  -1.129731   0.000000)
  43:      3078.70    8.036243  (  0.194009  -2.828180   0.000000)
  44:      3080.59   16.626367  (  0.000009   0.000000   4.077544)
  45:      3085.27    8.131569  ( -2.588763   1.195773  -0.000000)
  46:      3118.78    5.464634  ( -0.000000  -0.000000   2.337656)
  47:      3144.40    3.405729  ( -0.486945   1.780060  -0.000000)
  48:      3146.04    2.507957  ( -0.000015   0.000000   1.583653)
  49:      3155.03    0.655448  (  0.574607   0.570329   0.000000)
  50:      3166.85    3.416116  (  1.838875   0.186158   0.000000)
  51:      3414.22   28.872627  ( -5.269701   1.050181   0.000000)
  52:      3503.93   70.678594  ( -0.000000   0.000000  -8.407056)
  53:      3505.76   70.943593  ( -2.597912  -8.012144  -0.000000)

--------------------------
THERMOCHEMISTRY AT 298.15K
--------------------------

Temperature         ... 298.15 K
Pressure            ... 1.00 atm
Total Mass          ... 86.16 AMU

Throughout the following assumptions are being made:
  (1) The electronic state is orbitally nondegenerate
  (2) There are no thermally accessible electronically excited states
  (3) Hindered rotations indicated by low frequency modes) are not
      treated as such but are treated as vibrations and this may
      case some error
  (4) All equations used are the standard statistical mechanics
      equations for an ideal gas
  (5) All vibrations are strinctly harmonic

------------
INNER ENERGY
------------

The inner energy is: U= E(el) + E(ZPE) + E(vib) + E(rot) + E(trans)
    E(el)   - is the total energy from the electronic structure calculation
              = E(kin-el) + E(nuc-el) + E(el-el) + E(nuc-nuc)
    E(ZPE)  - the the zero temperature vibrational energy from the frequency calculation
    E(vib)  - the the finite temperature correction to E(ZPE) due to population
              of excietd vibrational states
    E(rot)  - is the rotational thermal energy
    E(trans)- is the translational thermal energy

Summary of contributions to the inner energy U:
Electronic energy                ...   -252.03562457 Eh
Zero point energy                ...      0.17058229 Eh     107.04 kcal/mol
Thermal vibrational correction   ...      0.00400434 Eh       2.51 kcal/mol
Thermal rotational correction    ...      0.00141627 Eh       0.89 kcal/mol
Thermal translational correction ...      0.00141627 Eh       0.89 kcal/mol
-----------------------------------------------------------------------
Total thermal energy                   -251.85820540 Eh

Summary of corrections to the electronic energy:
(perhaps to be used in another calculation)
Total thermal correction                  0.00683688 Eh       4.29 kcal/mol
Non-thermal (ZPE) correction              0.17058229 Eh     107.04 kcal/mol
-----------------------------------------------------------------------
Total correction                          0.17741917 Eh     111.33 kcal/mol

--------
ENTHALPY
--------

The enthalpy is H = U + kB*T
                kB is Boltzmann's constant
Total free energy                 ...   -251.85820540 Eh
Thermal Enthalpy correction       ...      0.00094421 Eh       0.59 kcal/mol
-----------------------------------------------------------------------
Total Enthalpy                    ...   -251.85726119 Eh

-------
ENTROPY
-------

The entropy contributions are T*S = T*(S(el)+S(vib)+S(rot)+S(trans)
     S(el)   - electronic entropy
     S(vib)  - vibrational entropy
     S(rot)  - rotational entropy
     S(trans)- translational entropy
The entropies will be listed as mutliplied by the temperature to get
units of energy

Electronic entropy                ...      0.00000000 Eh      0.00 kcal/mol
Vibrational entropy               ...      0.00637975 Eh      4.00 kcal/mol
Rotational entropy                ...      0.01151176 Eh      7.22 kcal/mol
Translational entropy             ...      0.01866024 Eh     11.71 kcal/mol
-----------------------------------------------------------------------
Final entropy term                ...      0.03655175 Eh     22.94 kcal/mol

CAUTION: The rotational entropy is not quite correctly treated here
         because it includes a symmetry number that is not yet correctly
         implemented in ORCA!
For a nonlinear molecule the correct rotational entropy is:
    S(rot) = R*(ln(qrot/sn)+1.5)
    R    = 8.31441 J/mol/K = 1.987191683e-3 kcal/mol/K
    qrot = 132050.1859334
    sn is the rotational symmetry number. We have assumed 3 here
       if it is different for your molecule then you should correct
       the printed rotational entropy by manually evaluating the equation
       as given above

For convenience we print out the resulting values for sn=1 - 12:
 sn= 1  qrot/sn=  132050.1859 T*S(rot)=     7.87 kcal/mol T*S(tot)=    23.59 kcal/mol
 sn= 2  qrot/sn=   66025.0930 T*S(rot)=     7.46 kcal/mol T*S(tot)=    23.18 kcal/mol
 sn= 3  qrot/sn=   44016.7286 T*S(rot)=     7.22 kcal/mol T*S(tot)=    22.94 kcal/mol
 sn= 4  qrot/sn=   33012.5465 T*S(rot)=     7.05 kcal/mol T*S(tot)=    22.77 kcal/mol
 sn= 5  qrot/sn=   26410.0372 T*S(rot)=     6.92 kcal/mol T*S(tot)=    22.63 kcal/mol
 sn= 6  qrot/sn=   22008.3643 T*S(rot)=     6.81 kcal/mol T*S(tot)=    22.53 kcal/mol
 sn= 7  qrot/sn=   18864.3123 T*S(rot)=     6.72 kcal/mol T*S(tot)=    22.43 kcal/mol
 sn= 8  qrot/sn=   16506.2732 T*S(rot)=     6.64 kcal/mol T*S(tot)=    22.36 kcal/mol
 sn= 9  qrot/sn=   14672.2429 T*S(rot)=     6.57 kcal/mol T*S(tot)=    22.29 kcal/mol
 sn=10  qrot/sn=   13205.0186 T*S(rot)=     6.51 kcal/mol T*S(tot)=    22.22 kcal/mol
 sn=11  qrot/sn=   12004.5624 T*S(rot)=     6.45 kcal/mol T*S(tot)=    22.17 kcal/mol
 sn=12  qrot/sn=   11004.1822 T*S(rot)=     6.40 kcal/mol T*S(tot)=    22.12 kcal/mol

-------------------
GIBBS FREE ENTHALPY
-------------------

The Gibbs free enthalpy is G = H - T*S

Total enthalpy                    ...   -251.85726119 Eh
Total entropy correction          ...     -0.03655175 Eh    -22.94 kcal/mol
-----------------------------------------------------------------------
Final Gibbs free enthalpy         ...   -251.89381294 Eh

For completeness - the Gibbs free enthalpy minus the electronic energy
G-E(el)                           ...      0.14181163 Eh     88.99 kcal/mol

                             ****ORCA TERMINATED NORMALLY****
TOTAL RUN TIME: 0 days 0 hours 21 minutes 51 seconds 168 msec
