                         Program Version 3.0.3 - RELEASE   -
|  1> ! NORI PBE0 def2-TZVP UseSym TightOPT Freq TightSCF Grid3 FinalGrid5 XYZFile
|  2> % pal
|  3>     nprocs 8
|  4> end
|  5> %method
|  6>     SymThresh 5.0e-2
|  7> end
|  8> % geom
|  9>     MaxIter 10
| 10> end
| 11> % maxcore 2000
| 12> % output
| 13>     printlevel mini
| 14>     print[ P_Basis ] 0
| 15>     print[ P_SCFInfo ] 1
| 16>     print[ P_SCFIterInfo ] 1
| 17>     print[ P_OrbEn ] 0
| 18>     print[ P_Cartesian ] 0
| 19> end
| 20> % elprop
| 21>     Dipole false
| 22> end
| 23> *xyz 1 1
| 24>  C        0.9793775129     0.1248936652    -0.2372444948
| 25>  C        2.4116238505     0.0920118285     0.2434418407
| 26>  N        2.6836540791    -1.1668954265     1.0625156818
| 27>  C        3.6498227353    -0.8138189129     2.1642025941
| 28>  C        3.4866054965     0.6677878392     2.2532258549
| 29>  C        2.8242971290     1.1537630056     1.2156106002
| 30>  H        0.7490172888    -0.7237731547    -0.8853588083
| 31>  H        0.8203383228     1.0321873280    -0.8220210247
| 32>  H        0.2778975272     0.1445096506     0.6012350393
| 33>  H        3.0973108820     0.0602925714    -0.6109158819
| 34>  H        3.0194525771    -1.9346052034     0.4820475378
| 35>  H        1.7986097946    -1.4671791937     1.4738176030
| 36>  H        4.6563562050    -1.1114902820     1.8575586293
| 37>  H        3.3879468156    -1.3650128737     3.0680878918
| 38>  H        3.9087817920     1.2376080213     3.0694954095
| 39>  H        2.6090979916     2.1978311370     1.0304815272
| 40> *
| 41>
| 42>                          ****END OF INPUT****
 Total Charge           Charge          ....    1
 Multiplicity           Mult            ....    1
 Number of Electrons    NEL             ....   46
FINAL SINGLE POINT ENERGY      -250.833299468781

CARTESIAN COORDINATES (ANGSTROEM)
---------------------------------
  C      2.129009    0.000206   -0.189989
  C      0.712314    0.521521   -0.119777
  N      0.000093   -0.000149    1.125293
  C     -1.447219   -0.236901    0.777096
  C     -1.391359   -0.345102   -0.711269
  C     -0.229948    0.068697   -1.192117
  H      2.723489    0.323652    0.667198
  H      2.610219    0.394807   -1.085935
  H      2.149192   -1.090919   -0.256946
  H      0.714083    1.614787   -0.040814
  H      0.111219    0.628629    1.919980
  H      0.434103   -0.887996    1.382546
  H     -2.035566    0.619530    1.118082
  H     -1.804408   -1.128196    1.294297
  H     -2.237920   -0.691926   -1.287738
  H      0.042758    0.122718   -2.237535

FINAL SINGLE POINT ENERGY      -250.833299905469
                    ***********************HURRAY********************
 Multiplicity           Mult            ....    1
 Number of Electrons    NEL             ....   46
 Basis Dimension        Dim             ....  246
FINAL SINGLE POINT ENERGY      -250.833300133329

VIBRATIONAL FREQUENCIES
-----------------------

   0:         0.00 cm**-1
   1:         0.00 cm**-1
   2:         0.00 cm**-1
   3:         0.00 cm**-1
   4:         0.00 cm**-1
   5:         0.00 cm**-1
   6:       107.63 cm**-1
   7:       242.16 cm**-1
   8:       286.23 cm**-1
   9:       342.75 cm**-1
  10:       501.71 cm**-1
  11:       611.11 cm**-1
  12:       745.44 cm**-1
  13:       772.54 cm**-1
  14:       816.72 cm**-1
  15:       875.90 cm**-1
  16:       906.84 cm**-1
  17:       955.80 cm**-1
  18:       981.21 cm**-1
  19:      1002.87 cm**-1
  20:      1013.78 cm**-1
  21:      1072.40 cm**-1
  22:      1114.16 cm**-1
  23:      1134.65 cm**-1
  24:      1150.91 cm**-1
  25:      1224.37 cm**-1
  26:      1273.85 cm**-1
  27:      1326.13 cm**-1
  28:      1343.20 cm**-1
  29:      1377.02 cm**-1
  30:      1385.98 cm**-1
  31:      1408.40 cm**-1
  32:      1421.80 cm**-1
  33:      1482.12 cm**-1
  34:      1489.71 cm**-1
  35:      1497.51 cm**-1
  36:      1640.20 cm**-1
  37:      1713.18 cm**-1
  38:      3054.63 cm**-1
  39:      3060.46 cm**-1
  40:      3079.89 cm**-1
  41:      3138.10 cm**-1
  42:      3139.44 cm**-1
  43:      3152.49 cm**-1
  44:      3238.17 cm**-1
  45:      3256.96 cm**-1
  46:      3455.55 cm**-1
  47:      3522.11 cm**-1

IR SPECTRUM
-----------

 Mode    freq (cm**-1)   T**2         TX         TY         TZ
-------------------------------------------------------------------
   6:       107.63    2.112047  ( -0.029588  -1.346643  -0.545641)
   7:       242.16    0.161276  ( -0.214235  -0.323395  -0.103899)
   8:       286.23    0.608367  (  0.537232   0.547403  -0.141771)
   9:       342.75    3.214257  (  1.241526  -0.474804  -1.203093)
  10:       501.71    4.799787  ( -0.221175   2.150663   0.354282)
  11:       611.11   10.952827  (  0.683504  -2.931449  -1.375594)
  12:       745.44   46.641139  ( -2.670656   6.232759  -0.813298)
  13:       772.54    1.714974  (  0.257788   0.994558  -0.812019)
  14:       816.72    1.763471  (  0.215289  -1.124045   0.673532)
  15:       875.90    1.079116  ( -0.044024   0.967798   0.374893)
  16:       906.84    1.549575  (  0.529246   0.325790  -1.078579)
  17:       955.80    3.266206  ( -1.739801   0.097403   0.479384)
  18:       981.21    1.385099  ( -1.159847   0.152391   0.128961)
  19:      1002.87   12.323632  ( -3.477251  -0.251210   0.411404)
  20:      1013.78    4.707931  (  1.705477   0.364825   1.290807)
  21:      1072.40    9.670621  ( -1.337371  -2.571399   1.126928)
  22:      1114.16   13.609801  (  2.042763  -2.027059  -2.308236)
  23:      1134.65   11.755558  (  1.741700   1.883555  -2.274700)
  24:      1150.91    1.438384  ( -1.100925   0.136124  -0.455871)
  25:      1224.37    3.284945  ( -0.953112  -0.969523   1.198560)
  26:      1273.85   15.563320  (  3.200298   0.102106  -2.304558)
  27:      1326.13    1.121199  ( -1.056587  -0.028312  -0.063415)
  28:      1343.20    9.607607  ( -2.193628  -1.764568   1.296882)
  29:      1377.02    3.066058  ( -1.239812  -0.894805  -0.853375)
  30:      1385.98    3.828166  (  1.195884   0.030826  -1.548250)
  31:      1408.40   61.876581  (  7.243325   1.637808  -2.593916)
  32:      1421.80    7.526687  ( -0.734479  -2.563855   0.643329)
  33:      1482.12    8.785160  ( -0.960622  -1.972997   1.992397)
  34:      1489.71   10.541264  ( -0.663476  -2.417864  -2.062764)
  35:      1497.51    9.393767  ( -2.021105   0.580162   2.229869)
  36:      1640.20   59.858973  ( -2.990078   2.408116  -6.717096)
  37:      1713.18    0.286963  ( -0.453032  -0.268149  -0.099102)
  38:      3054.63    1.688486  ( -0.352904   0.016943  -1.250463)
  39:      3060.46    2.657274  (  0.145158  -1.608675   0.219923)
  40:      3079.89    2.324981  ( -0.846648   0.083181   1.265405)
  41:      3138.10    4.003853  (  0.913563   1.581641   0.817109)
  42:      3139.44    0.091941  (  0.240760  -0.086213  -0.162921)
  43:      3152.49    0.862575  ( -0.848628   0.182057  -0.330545)
  44:      3238.17    5.443578  (  1.924354   0.631563  -1.158261)
  45:      3256.96    7.514565  ( -1.245601  -0.631675  -2.358820)
  46:      3455.55   49.896615  ( -3.113738   2.601344  -5.782237)
  47:      3522.11   75.942249  (  1.370184  -7.429693  -4.343329)

--------------------------
THERMOCHEMISTRY AT 298.15K
--------------------------

Temperature         ... 298.15 K
Pressure            ... 1.00 atm
Total Mass          ... 84.14 AMU

Throughout the following assumptions are being made:
  (1) The electronic state is orbitally nondegenerate
  (2) There are no thermally accessible electronically excited states
  (3) Hindered rotations indicated by low frequency modes) are not
      treated as such but are treated as vibrations and this may
      case some error
  (4) All equations used are the standard statistical mechanics
      equations for an ideal gas
  (5) All vibrations are strinctly harmonic

------------
INNER ENERGY
------------

The inner energy is: U= E(el) + E(ZPE) + E(vib) + E(rot) + E(trans)
    E(el)   - is the total energy from the electronic structure calculation
              = E(kin-el) + E(nuc-el) + E(el-el) + E(nuc-nuc)
    E(ZPE)  - the the zero temperature vibrational energy from the frequency calculation
    E(vib)  - the the finite temperature correction to E(ZPE) due to population
              of excietd vibrational states
    E(rot)  - is the rotational thermal energy
    E(trans)- is the translational thermal energy

Summary of contributions to the inner energy U:
Electronic energy                ...   -250.83330013 Eh
Zero point energy                ...      0.14880098 Eh      93.37 kcal/mol
Thermal vibrational correction   ...      0.00311497 Eh       1.95 kcal/mol
Thermal rotational correction    ...      0.00141627 Eh       0.89 kcal/mol
Thermal translational correction ...      0.00141627 Eh       0.89 kcal/mol
-----------------------------------------------------------------------
Total thermal energy                   -250.67855163 Eh

Summary of corrections to the electronic energy:
(perhaps to be used in another calculation)
Total thermal correction                  0.00594752 Eh       3.73 kcal/mol
Non-thermal (ZPE) correction              0.14880098 Eh      93.37 kcal/mol
-----------------------------------------------------------------------
Total correction                          0.15474850 Eh      97.11 kcal/mol

--------
ENTHALPY
--------

The enthalpy is H = U + kB*T
                kB is Boltzmann's constant
Total free energy                 ...   -250.67855163 Eh
Thermal Enthalpy correction       ...      0.00094421 Eh       0.59 kcal/mol
-----------------------------------------------------------------------
Total Enthalpy                    ...   -250.67760742 Eh

-------
ENTROPY
-------

The entropy contributions are T*S = T*(S(el)+S(vib)+S(rot)+S(trans)
     S(el)   - electronic entropy
     S(vib)  - vibrational entropy
     S(rot)  - rotational entropy
     S(trans)- translational entropy
The entropies will be listed as mutliplied by the temperature to get
units of energy

Electronic entropy                ...      0.00000000 Eh      0.00 kcal/mol
Vibrational entropy               ...      0.00508995 Eh      3.19 kcal/mol
Rotational entropy                ...      0.01142192 Eh      7.17 kcal/mol
Translational entropy             ...      0.01862670 Eh     11.69 kcal/mol
-----------------------------------------------------------------------
Final entropy term                ...      0.03513857 Eh     22.05 kcal/mol

CAUTION: The rotational entropy is not quite correctly treated here
         because it includes a symmetry number that is not yet correctly
         implemented in ORCA!
For a nonlinear molecule the correct rotational entropy is:
    S(rot) = R*(ln(qrot/sn)+1.5)
    R    = 8.31441 J/mol/K = 1.987191683e-3 kcal/mol/K
    qrot = 120064.2313646
    sn is the rotational symmetry number. We have assumed 3 here
       if it is different for your molecule then you should correct
       the printed rotational entropy by manually evaluating the equation
       as given above

For convenience we print out the resulting values for sn=1 - 12:
 sn= 1  qrot/sn=  120064.2314 T*S(rot)=     7.82 kcal/mol T*S(tot)=    22.70 kcal/mol
 sn= 2  qrot/sn=   60032.1157 T*S(rot)=     7.41 kcal/mol T*S(tot)=    22.29 kcal/mol
 sn= 3  qrot/sn=   40021.4105 T*S(rot)=     7.17 kcal/mol T*S(tot)=    22.05 kcal/mol
 sn= 4  qrot/sn=   30016.0578 T*S(rot)=     7.00 kcal/mol T*S(tot)=    21.88 kcal/mol
 sn= 5  qrot/sn=   24012.8463 T*S(rot)=     6.86 kcal/mol T*S(tot)=    21.75 kcal/mol
 sn= 6  qrot/sn=   20010.7052 T*S(rot)=     6.76 kcal/mol T*S(tot)=    21.64 kcal/mol
 sn= 7  qrot/sn=   17152.0331 T*S(rot)=     6.67 kcal/mol T*S(tot)=    21.55 kcal/mol
 sn= 8  qrot/sn=   15008.0289 T*S(rot)=     6.59 kcal/mol T*S(tot)=    21.47 kcal/mol
 sn= 9  qrot/sn=   13340.4702 T*S(rot)=     6.52 kcal/mol T*S(tot)=    21.40 kcal/mol
 sn=10  qrot/sn=   12006.4231 T*S(rot)=     6.45 kcal/mol T*S(tot)=    21.34 kcal/mol
 sn=11  qrot/sn=   10914.9301 T*S(rot)=     6.40 kcal/mol T*S(tot)=    21.28 kcal/mol
 sn=12  qrot/sn=   10005.3526 T*S(rot)=     6.35 kcal/mol T*S(tot)=    21.23 kcal/mol

-------------------
GIBBS FREE ENTHALPY
-------------------

The Gibbs free enthalpy is G = H - T*S

Total enthalpy                    ...   -250.67760742 Eh
Total entropy correction          ...     -0.03513857 Eh    -22.05 kcal/mol
-----------------------------------------------------------------------
Final Gibbs free enthalpy         ...   -250.71274599 Eh

For completeness - the Gibbs free enthalpy minus the electronic energy
G-E(el)                           ...      0.12055414 Eh     75.65 kcal/mol

                             ****ORCA TERMINATED NORMALLY****
TOTAL RUN TIME: 0 days 0 hours 19 minutes 22 seconds 853 msec
