                         Program Version 3.0.3 - RELEASE   -
|  1> ! NORI PBE0 def2-TZVP UseSym TightOPT Freq TightSCF Grid3 FinalGrid5 XYZFile
|  2> % pal
|  3>     nprocs 8
|  4> end
|  5> %method
|  6>     SymThresh 5.0e-2
|  7> end
|  8> % geom
|  9>     MaxIter 10
| 10> end
| 11> % maxcore 2000
| 12> % output
| 13>     printlevel mini
| 14>     print[ P_Basis ] 0
| 15>     print[ P_SCFInfo ] 1
| 16>     print[ P_SCFIterInfo ] 1
| 17>     print[ P_OrbEn ] 0
| 18>     print[ P_Cartesian ] 0
| 19> end
| 20> % elprop
| 21>     Dipole false
| 22> end
| 23> *xyz 1 1
| 24>  C        3.0508087286     1.1830253943     0.2380555027
| 25>  C        2.3157293985    -0.1037155655    -0.0974700376
| 26>  C        3.1160391452    -1.3388608148     0.2238883632
| 27>  C        2.8755960174    -2.6452127424    -0.4772274453
| 28>  C        4.1031092075    -1.8534195474    -0.7686469218
| 29>  N        5.4004789571    -2.3802979639    -0.2756611142
| 30>  H        2.4337722258     2.0522624720     0.0069521994
| 31>  H        3.9767183969     1.2788572409    -0.3353048011
| 32>  H        3.3022310599     1.2332470502     1.3003087615
| 33>  H        1.3751788484    -0.1571137028     0.4572507989
| 34>  H        2.0424671062    -0.1209202189    -1.1577372476
| 35>  H        3.4130434899    -1.4276529511     1.2678942541
| 36>  H        2.9705390941    -3.5617656429     0.0953158926
| 37>  H        2.1292729447    -2.6886064578    -1.2610628595
| 38>  H        4.2284074252    -1.3602755717    -1.7242694024
| 39>  H        5.2828375405    -2.8410875540     0.6296175652
| 40>  H        6.0857844659    -1.6304607385    -0.1510755268
| 41>  H        5.7968259483    -3.0695326857    -0.9207779814
| 42> *
| 43>
| 44>                          ****END OF INPUT****
 Total Charge           Charge          ....    1
 Multiplicity           Mult            ....    1
 Number of Electrons    NEL             ....   48
FINAL SINGLE POINT ENERGY      -252.024194291588
FINAL SINGLE POINT ENERGY      -252.024195380513

CARTESIAN COORDINATES (ANGSTROEM)
---------------------------------
  C      1.780848    0.000477   -1.701535
  C      0.264030   -0.026603   -1.617957
  C     -0.260458    0.463384   -0.293587
  C     -1.603307    0.045342    0.232191
  C     -0.357644   -0.484541    0.854005
  N      0.000557   -0.000330    2.210739
  H      2.120422   -0.346058   -2.678151
  H      2.238154   -0.648280   -0.948705
  H      2.170046    1.011738   -1.559399
  H     -0.168888    0.598050   -2.404574
  H     -0.109842   -1.040317   -1.797469
  H      0.034976    1.479728   -0.037119
  H     -2.190369    0.774344    0.780593
  H     -2.194514   -0.656887   -0.342401
  H     -0.078465   -1.523788    0.732628
  H     -0.255093    0.983299    2.323030
  H      1.006613   -0.076803    2.381614
  H     -0.486635   -0.528541    2.939828

FINAL SINGLE POINT ENERGY      -252.024195808092
                    ***********************HURRAY********************
 Multiplicity           Mult            ....    1
 Number of Electrons    NEL             ....   48
 Basis Dimension        Dim             ....  258
FINAL SINGLE POINT ENERGY      -252.024196124457

VIBRATIONAL FREQUENCIES
-----------------------

   0:         0.00 cm**-1
   1:         0.00 cm**-1
   2:         0.00 cm**-1
   3:         0.00 cm**-1
   4:         0.00 cm**-1
   5:         0.00 cm**-1
   6:        96.66 cm**-1
   7:       154.76 cm**-1
   8:       190.94 cm**-1
   9:       216.75 cm**-1
  10:       292.43 cm**-1
  11:       357.89 cm**-1
  12:       398.22 cm**-1
  13:       461.49 cm**-1
  14:       759.72 cm**-1
  15:       801.45 cm**-1
  16:       807.67 cm**-1
  17:       886.43 cm**-1
  18:       909.89 cm**-1
  19:       950.07 cm**-1
  20:      1000.07 cm**-1
  21:      1019.64 cm**-1
  22:      1067.63 cm**-1
  23:      1090.76 cm**-1
  24:      1103.34 cm**-1
  25:      1128.61 cm**-1
  26:      1176.99 cm**-1
  27:      1184.66 cm**-1
  28:      1210.90 cm**-1
  29:      1251.92 cm**-1
  30:      1295.37 cm**-1
  31:      1342.16 cm**-1
  32:      1384.60 cm**-1
  33:      1414.24 cm**-1
  34:      1441.91 cm**-1
  35:      1477.90 cm**-1
  36:      1492.97 cm**-1
  37:      1494.99 cm**-1
  38:      1498.55 cm**-1
  39:      1518.44 cm**-1
  40:      1652.95 cm**-1
  41:      1659.43 cm**-1
  42:      3047.76 cm**-1
  43:      3054.35 cm**-1
  44:      3092.37 cm**-1
  45:      3120.77 cm**-1
  46:      3133.29 cm**-1
  47:      3144.49 cm**-1
  48:      3151.42 cm**-1
  49:      3207.13 cm**-1
  50:      3241.13 cm**-1
  51:      3408.27 cm**-1
  52:      3484.08 cm**-1
  53:      3496.50 cm**-1

IR SPECTRUM
-----------

 Mode    freq (cm**-1)   T**2         TX         TY         TZ
-------------------------------------------------------------------
   6:        96.66    2.862417  ( -1.155883  -0.588122   1.086492)
   7:       154.76    8.451421  ( -2.456545   0.578797   1.442846)
   8:       190.94    0.766310  (  0.381627   0.662275  -0.426689)
   9:       216.75    0.594685  (  0.355021   0.614033  -0.302668)
  10:       292.43    3.369540  ( -0.340426  -1.136041   1.401093)
  11:       357.89    4.705160  ( -1.601164   0.482835  -1.381414)
  12:       398.22    5.285912  ( -1.168147  -0.507779   1.914028)
  13:       461.49    2.411305  (  0.380981   0.479745   1.426886)
  14:       759.72    2.229648  ( -0.044681  -1.401159   0.514203)
  15:       801.45    5.803742  (  0.870469  -1.807833   1.333329)
  16:       807.67    8.980944  (  1.273172   2.041096  -1.787150)
  17:       886.43    5.453558  (  2.312668   0.305906   0.107456)
  18:       909.89    7.818025  ( -1.979120   1.840703  -0.716184)
  19:       950.07    9.589425  ( -1.621502   2.612194  -0.369595)
  20:      1000.07    5.376619  ( -1.434617  -1.713809   0.617538)
  21:      1019.64   10.773771  (  0.965136   1.690278  -2.642961)
  22:      1067.63    3.511691  (  0.690821   1.140292  -1.316887)
  23:      1090.76    8.811337  (  0.147424   1.547212  -2.528980)
  24:      1103.34    5.708808  (  2.299016  -0.490296  -0.427717)
  25:      1128.61    1.783255  ( -1.244447  -0.368141   0.314770)
  26:      1176.99   15.148043  (  3.468041   0.703516  -1.620431)
  27:      1184.66    0.995623  ( -0.059024   0.488453   0.868074)
  28:      1210.90    1.933291  ( -0.181542   1.201515   0.675792)
  29:      1251.92    0.954683  ( -0.717953   0.082003  -0.657649)
  30:      1295.37    2.296968  ( -0.871218  -1.092259   0.587297)
  31:      1342.16    5.305647  ( -0.244082   0.367864  -2.260696)
  32:      1384.60    2.107003  ( -1.140381   0.439274  -0.783310)
  33:      1414.24    4.234322  (  2.056212   0.019462  -0.077028)
  34:      1441.91    7.612910  (  1.922851   1.211118  -1.564847)
  35:      1477.90    1.819021  (  1.137369   0.558021  -0.462629)
  36:      1492.97   16.180830  (  0.734320   3.931484   0.430161)
  37:      1494.99   36.197236  (  2.575069   1.066088   5.331952)
  38:      1498.55   34.911939  ( -3.149418  -0.985927  -4.901128)
  39:      1518.44   81.199768  (  0.136518   4.101305   8.022495)
  40:      1652.95   31.061264  ( -5.081598  -1.415979   1.798229)
  41:      1659.43   48.558988  ( -2.557478   6.378039  -1.157117)
  42:      3047.76    7.372528  ( -2.321052   0.734689  -1.202280)
  43:      3054.35   17.414439  (  3.575180   1.351427   1.675164)
  44:      3092.37    0.459703  (  0.379872  -0.048861   0.559475)
  45:      3120.77   23.161271  (  0.261902  -3.884178   2.829459)
  46:      3133.29    7.808228  (  0.519526   2.639894   0.754507)
  47:      3144.49    8.693985  (  0.079255   1.410544   2.588063)
  48:      3151.42    2.847584  (  0.236795   0.583875   1.565440)
  49:      3207.13    0.421259  (  0.097326  -0.633170  -0.104320)
  50:      3241.13    0.412139  (  0.390157   0.500507   0.097002)
  51:      3408.27   37.400188  (  1.405994   0.140372   5.950098)
  52:      3484.08   92.876993  (  8.256259   3.829858  -3.169128)
  53:      3496.50   83.522385  ( -4.233634   8.051970  -0.874362)

--------------------------
THERMOCHEMISTRY AT 298.15K
--------------------------

Temperature         ... 298.15 K
Pressure            ... 1.00 atm
Total Mass          ... 86.16 AMU

Throughout the following assumptions are being made:
  (1) The electronic state is orbitally nondegenerate
  (2) There are no thermally accessible electronically excited states
  (3) Hindered rotations indicated by low frequency modes) are not
      treated as such but are treated as vibrations and this may
      case some error
  (4) All equations used are the standard statistical mechanics
      equations for an ideal gas
  (5) All vibrations are strinctly harmonic

------------
INNER ENERGY
------------

The inner energy is: U= E(el) + E(ZPE) + E(vib) + E(rot) + E(trans)
    E(el)   - is the total energy from the electronic structure calculation
              = E(kin-el) + E(nuc-el) + E(el-el) + E(nuc-nuc)
    E(ZPE)  - the the zero temperature vibrational energy from the frequency calculation
    E(vib)  - the the finite temperature correction to E(ZPE) due to population
              of excietd vibrational states
    E(rot)  - is the rotational thermal energy
    E(trans)- is the translational thermal energy

Summary of contributions to the inner energy U:
Electronic energy                ...   -252.02419612 Eh
Zero point energy                ...      0.17034762 Eh     106.89 kcal/mol
Thermal vibrational correction   ...      0.00454253 Eh       2.85 kcal/mol
Thermal rotational correction    ...      0.00141627 Eh       0.89 kcal/mol
Thermal translational correction ...      0.00141627 Eh       0.89 kcal/mol
-----------------------------------------------------------------------
Total thermal energy                   -251.84647342 Eh

Summary of corrections to the electronic energy:
(perhaps to be used in another calculation)
Total thermal correction                  0.00737508 Eh       4.63 kcal/mol
Non-thermal (ZPE) correction              0.17034762 Eh     106.89 kcal/mol
-----------------------------------------------------------------------
Total correction                          0.17772270 Eh     111.52 kcal/mol

--------
ENTHALPY
--------

The enthalpy is H = U + kB*T
                kB is Boltzmann's constant
Total free energy                 ...   -251.84647342 Eh
Thermal Enthalpy correction       ...      0.00094421 Eh       0.59 kcal/mol
-----------------------------------------------------------------------
Total Enthalpy                    ...   -251.84552922 Eh

-------
ENTROPY
-------

The entropy contributions are T*S = T*(S(el)+S(vib)+S(rot)+S(trans)
     S(el)   - electronic entropy
     S(vib)  - vibrational entropy
     S(rot)  - rotational entropy
     S(trans)- translational entropy
The entropies will be listed as mutliplied by the temperature to get
units of energy

Electronic entropy                ...      0.00000000 Eh      0.00 kcal/mol
Vibrational entropy               ...      0.00782815 Eh      4.91 kcal/mol
Rotational entropy                ...      0.01179214 Eh      7.40 kcal/mol
Translational entropy             ...      0.01866024 Eh     11.71 kcal/mol
-----------------------------------------------------------------------
Final entropy term                ...      0.03828052 Eh     24.02 kcal/mol

CAUTION: The rotational entropy is not quite correctly treated here
         because it includes a symmetry number that is not yet correctly
         implemented in ORCA!
For a nonlinear molecule the correct rotational entropy is:
    S(rot) = R*(ln(qrot/sn)+1.5)
    R    = 8.31441 J/mol/K = 1.987191683e-3 kcal/mol/K
    qrot = 177706.2310084
    sn is the rotational symmetry number. We have assumed 3 here
       if it is different for your molecule then you should correct
       the printed rotational entropy by manually evaluating the equation
       as given above

For convenience we print out the resulting values for sn=1 - 12:
 sn= 1  qrot/sn=  177706.2310 T*S(rot)=     8.05 kcal/mol T*S(tot)=    24.67 kcal/mol
 sn= 2  qrot/sn=   88853.1155 T*S(rot)=     7.64 kcal/mol T*S(tot)=    24.26 kcal/mol
 sn= 3  qrot/sn=   59235.4103 T*S(rot)=     7.40 kcal/mol T*S(tot)=    24.02 kcal/mol
 sn= 4  qrot/sn=   44426.5578 T*S(rot)=     7.23 kcal/mol T*S(tot)=    23.85 kcal/mol
 sn= 5  qrot/sn=   35541.2462 T*S(rot)=     7.10 kcal/mol T*S(tot)=    23.72 kcal/mol
 sn= 6  qrot/sn=   29617.7052 T*S(rot)=     6.99 kcal/mol T*S(tot)=    23.61 kcal/mol
 sn= 7  qrot/sn=   25386.6044 T*S(rot)=     6.90 kcal/mol T*S(tot)=    23.52 kcal/mol
 sn= 8  qrot/sn=   22213.2789 T*S(rot)=     6.82 kcal/mol T*S(tot)=    23.44 kcal/mol
 sn= 9  qrot/sn=   19745.1368 T*S(rot)=     6.75 kcal/mol T*S(tot)=    23.37 kcal/mol
 sn=10  qrot/sn=   17770.6231 T*S(rot)=     6.69 kcal/mol T*S(tot)=    23.31 kcal/mol
 sn=11  qrot/sn=   16155.1119 T*S(rot)=     6.63 kcal/mol T*S(tot)=    23.25 kcal/mol
 sn=12  qrot/sn=   14808.8526 T*S(rot)=     6.58 kcal/mol T*S(tot)=    23.20 kcal/mol

-------------------
GIBBS FREE ENTHALPY
-------------------

The Gibbs free enthalpy is G = H - T*S

Total enthalpy                    ...   -251.84552922 Eh
Total entropy correction          ...     -0.03828052 Eh    -24.02 kcal/mol
-----------------------------------------------------------------------
Final Gibbs free enthalpy         ...   -251.88380974 Eh

For completeness - the Gibbs free enthalpy minus the electronic energy
G-E(el)                           ...      0.14038638 Eh     88.09 kcal/mol

                             ****ORCA TERMINATED NORMALLY****
TOTAL RUN TIME: 0 days 0 hours 23 minutes 10 seconds 897 msec
