                         Program Version 3.0.3 - RELEASE   -
|  1> ! NORI PBE0 def2-TZVP UseSym TightOPT Freq TightSCF Grid3 FinalGrid5 XYZFile
|  2> % pal
|  3>     nprocs 8
|  4> end
|  5> %method
|  6>     SymThresh 5.0e-2
|  7> end
|  8> % geom
|  9>     MaxIter 10
| 10> end
| 11> % maxcore 2000
| 12> % output
| 13>     printlevel mini
| 14>     print[ P_Basis ] 0
| 15>     print[ P_SCFInfo ] 1
| 16>     print[ P_SCFIterInfo ] 1
| 17>     print[ P_OrbEn ] 0
| 18>     print[ P_Cartesian ] 0
| 19> end
| 20> % elprop
| 21>     Dipole false
| 22> end
| 23> *xyz 1 1
| 24>  C        3.2180802520    -0.5318950239    -1.1061165896
| 25>  C        2.3226494263     0.0179089934    -0.0076943899
| 26>  C        2.8473088373    -0.2248999043     1.3780561006
| 27>  C        1.9845468485     0.0763690052     2.6131117762
| 28>  C        2.3751574391    -1.2941432958     3.1705580653
| 29>  N        2.8800058289    -1.7049547384     1.8020463965
| 30>  H        2.7984000447    -0.3083948316    -2.0871492871
| 31>  H        3.3252635363    -1.6198703139    -1.0493596059
| 32>  H        4.2164534770    -0.0912461631    -1.0660346649
| 33>  H        1.3067321606    -0.3872897113    -0.0875978051
| 34>  H        2.2175822073     1.1028301066    -0.1115740830
| 35>  H        3.8695480606     0.1419649991     1.4942646691
| 36>  H        0.9241403363     0.1469969324     2.3681572351
| 37>  H        2.2748700494     0.9395998825     3.2063964560
| 38>  H        3.2160673013    -1.2728417176     3.8612264056
| 39>  H        1.5985118506    -1.9560635190     3.5464777759
| 40>  H        3.7778404596    -2.1839763678     1.7631792188
| 41>  H        2.1987218843    -2.2582543325     1.2825723263
| 42> *
| 43>
| 44>                          ****END OF INPUT****
 Total Charge           Charge          ....    1
 Multiplicity           Mult            ....    1
 Number of Electrons    NEL             ....   48
FINAL SINGLE POINT ENERGY      -252.036192291162

CARTESIAN COORDINATES (ANGSTROEM)
---------------------------------
  C      2.270666    0.000032   -0.979260
  C      0.808501   -0.357609   -1.192106
  C     -0.131970    0.373279   -0.277603
  C     -1.619187   -0.006035   -0.207663
  C     -1.511709    0.015309    1.318542
  N     -0.000124   -0.000026    1.210692
  H      2.901936   -0.543067   -1.682571
  H      2.620496   -0.260809    0.024616
  H      2.447563    1.066991   -1.132289
  H      0.647748   -1.437761   -1.090274
  H      0.501624   -0.107498   -2.213077
  H      0.012065    1.454730   -0.328924
  H     -1.809369   -1.003879   -0.604513
  H     -2.318509    0.697104   -0.652444
  H     -1.819733    0.953757    1.775296
  H     -1.899316   -0.824369    1.890428
  H      0.514716    0.641484    1.811088
  H      0.392099   -0.934056    1.328762

FINAL SINGLE POINT ENERGY      -252.036192728041
                    ***********************HURRAY********************
 Multiplicity           Mult            ....    1
 Number of Electrons    NEL             ....   48
 Basis Dimension        Dim             ....  258
FINAL SINGLE POINT ENERGY      -252.036192845355

VIBRATIONAL FREQUENCIES
-----------------------

   0:         0.00 cm**-1
   1:         0.00 cm**-1
   2:         0.00 cm**-1
   3:         0.00 cm**-1
   4:         0.00 cm**-1
   5:         0.00 cm**-1
   6:       106.17 cm**-1
   7:       117.00 cm**-1
   8:       197.41 cm**-1
   9:       239.47 cm**-1
  10:       401.27 cm**-1
  11:       414.97 cm**-1
  12:       648.76 cm**-1
  13:       749.97 cm**-1
  14:       785.28 cm**-1
  15:       823.71 cm**-1
  16:       863.16 cm**-1
  17:       920.52 cm**-1
  18:       941.69 cm**-1
  19:       976.79 cm**-1
  20:      1012.40 cm**-1
  21:      1024.72 cm**-1
  22:      1048.22 cm**-1
  23:      1110.85 cm**-1
  24:      1133.14 cm**-1
  25:      1202.57 cm**-1
  26:      1232.83 cm**-1
  27:      1258.76 cm**-1
  28:      1276.93 cm**-1
  29:      1294.83 cm**-1
  30:      1309.76 cm**-1
  31:      1327.00 cm**-1
  32:      1337.32 cm**-1
  33:      1359.53 cm**-1
  34:      1412.42 cm**-1
  35:      1420.96 cm**-1
  36:      1470.29 cm**-1
  37:      1488.07 cm**-1
  38:      1492.52 cm**-1
  39:      1496.39 cm**-1
  40:      1503.61 cm**-1
  41:      1642.55 cm**-1
  42:      3041.05 cm**-1
  43:      3049.15 cm**-1
  44:      3087.17 cm**-1
  45:      3106.40 cm**-1
  46:      3114.17 cm**-1
  47:      3122.18 cm**-1
  48:      3127.22 cm**-1
  49:      3152.28 cm**-1
  50:      3180.90 cm**-1
  51:      3197.50 cm**-1
  52:      3464.85 cm**-1
  53:      3539.36 cm**-1

IR SPECTRUM
-----------

 Mode    freq (cm**-1)   T**2         TX         TY         TZ
-------------------------------------------------------------------
   6:       106.17    3.809642  (  1.022947   1.528060  -0.654411)
   7:       117.00    1.275215  (  0.434340  -0.366696  -0.975755)
   8:       197.41    3.090323  ( -0.996178   0.723887   1.254567)
   9:       239.47    0.347792  ( -0.545528  -0.140152   0.174781)
  10:       401.27    1.550607  ( -0.422338   0.538943   1.040086)
  11:       414.97    1.449251  (  0.040213   0.719795   0.964121)
  12:       648.76    2.993047  (  0.324857   1.679374   0.259264)
  13:       749.97    0.686858  ( -0.324716  -0.537344   0.540998)
  14:       785.28    4.812130  (  0.755115   1.291225  -1.604577)
  15:       823.71    2.924961  (  0.702892   1.181913  -1.016852)
  16:       863.16   11.895348  ( -0.054850  -1.462470  -3.123063)
  17:       920.52    9.908525  (  2.854517  -0.425833  -1.256553)
  18:       941.69    8.275543  (  1.415444  -0.405486   2.471365)
  19:       976.79    2.766322  (  0.537049   1.571065   0.098267)
  20:      1012.40    2.370447  ( -1.058183   0.644435   0.914002)
  21:      1024.72    2.108076  (  0.578691   0.380665  -1.276044)
  22:      1048.22    0.569644  ( -0.637251   0.232574   0.330854)
  23:      1110.85    1.862870  (  0.756999  -0.556965   0.989754)
  24:      1133.14    1.177724  (  0.251084  -0.731827   0.760993)
  25:      1202.57    0.494547  ( -0.215334  -0.607449   0.281396)
  26:      1232.83    2.867253  (  0.944392  -0.298399  -1.373439)
  27:      1258.76   42.925393  (  3.533554   0.004381  -5.517189)
  28:      1276.93   36.714687  ( -3.725124  -1.006348   4.671766)
  29:      1294.83    4.101008  ( -0.415470  -1.547443   1.238472)
  30:      1309.76    1.173274  ( -0.404939  -0.159816   0.991845)
  31:      1327.00   28.218538  (  3.663726   1.902914  -3.342839)
  32:      1337.32    5.138423  ( -0.869601  -0.615116   2.000962)
  33:      1359.53    3.825908  (  0.681386  -0.869884  -1.613977)
  34:      1412.42    3.795934  (  0.402752  -0.805209  -1.727820)
  35:      1420.96    5.011422  (  2.183329   0.418712   0.263014)
  36:      1470.29    5.544661  ( -1.708926  -1.550397  -0.469577)
  37:      1488.07   10.083225  (  1.639685   0.782396   2.604326)
  38:      1492.52   17.003614  ( -0.295828   3.053057   2.755892)
  39:      1496.39   16.315667  ( -0.540953   2.445277  -3.169173)
  40:      1503.61    9.235247  ( -2.821951  -0.180901   1.113156)
  41:      1642.55   43.229441  ( -4.586646   2.342472  -4.087168)
  42:      3041.05    8.122409  (  1.724171   2.004564  -1.063657)
  43:      3049.15   14.310271  (  2.332621   1.102980   2.766330)
  44:      3087.17    0.757377  (  0.845249  -0.042084  -0.202880)
  45:      3106.40    0.084994  (  0.026776  -0.154118  -0.246019)
  46:      3114.17    2.905125  (  0.412818   1.111205   1.224716)
  47:      3122.18   15.828965  ( -0.041980  -2.932941   2.687947)
  48:      3127.22    1.379421  ( -0.383321   0.473303   1.004226)
  49:      3152.28    3.218736  (  0.407498  -1.518550  -0.864111)
  50:      3180.90    0.161756  ( -0.247546   0.212784   0.234947)
  51:      3197.50    0.253114  ( -0.396059   0.131199   0.281137)
  52:      3464.85   48.899524  (  4.885514  -1.917838   4.620949)
  53:      3539.36   76.064136  (  1.034266   7.936914   3.464076)

--------------------------
THERMOCHEMISTRY AT 298.15K
--------------------------

Temperature         ... 298.15 K
Pressure            ... 1.00 atm
Total Mass          ... 86.16 AMU

Throughout the following assumptions are being made:
  (1) The electronic state is orbitally nondegenerate
  (2) There are no thermally accessible electronically excited states
  (3) Hindered rotations indicated by low frequency modes) are not
      treated as such but are treated as vibrations and this may
      case some error
  (4) All equations used are the standard statistical mechanics
      equations for an ideal gas
  (5) All vibrations are strinctly harmonic

------------
INNER ENERGY
------------

The inner energy is: U= E(el) + E(ZPE) + E(vib) + E(rot) + E(trans)
    E(el)   - is the total energy from the electronic structure calculation
              = E(kin-el) + E(nuc-el) + E(el-el) + E(nuc-nuc)
    E(ZPE)  - the the zero temperature vibrational energy from the frequency calculation
    E(vib)  - the the finite temperature correction to E(ZPE) due to population
              of excietd vibrational states
    E(rot)  - is the rotational thermal energy
    E(trans)- is the translational thermal energy

Summary of contributions to the inner energy U:
Electronic energy                ...   -252.03619285 Eh
Zero point energy                ...      0.17137314 Eh     107.54 kcal/mol
Thermal vibrational correction   ...      0.00397179 Eh       2.49 kcal/mol
Thermal rotational correction    ...      0.00141627 Eh       0.89 kcal/mol
Thermal translational correction ...      0.00141627 Eh       0.89 kcal/mol
-----------------------------------------------------------------------
Total thermal energy                   -251.85801538 Eh

Summary of corrections to the electronic energy:
(perhaps to be used in another calculation)
Total thermal correction                  0.00680433 Eh       4.27 kcal/mol
Non-thermal (ZPE) correction              0.17137314 Eh     107.54 kcal/mol
-----------------------------------------------------------------------
Total correction                          0.17817746 Eh     111.81 kcal/mol

--------
ENTHALPY
--------

The enthalpy is H = U + kB*T
                kB is Boltzmann's constant
Total free energy                 ...   -251.85801538 Eh
Thermal Enthalpy correction       ...      0.00094421 Eh       0.59 kcal/mol
-----------------------------------------------------------------------
Total Enthalpy                    ...   -251.85707117 Eh

-------
ENTROPY
-------

The entropy contributions are T*S = T*(S(el)+S(vib)+S(rot)+S(trans)
     S(el)   - electronic entropy
     S(vib)  - vibrational entropy
     S(rot)  - rotational entropy
     S(trans)- translational entropy
The entropies will be listed as mutliplied by the temperature to get
units of energy

Electronic entropy                ...      0.00000000 Eh      0.00 kcal/mol
Vibrational entropy               ...      0.00693325 Eh      4.35 kcal/mol
Rotational entropy                ...      0.01162542 Eh      7.30 kcal/mol
Translational entropy             ...      0.01866024 Eh     11.71 kcal/mol
-----------------------------------------------------------------------
Final entropy term                ...      0.03721890 Eh     23.36 kcal/mol

CAUTION: The rotational entropy is not quite correctly treated here
         because it includes a symmetry number that is not yet correctly
         implemented in ORCA!
For a nonlinear molecule the correct rotational entropy is:
    S(rot) = R*(ln(qrot/sn)+1.5)
    R    = 8.31441 J/mol/K = 1.987191683e-3 kcal/mol/K
    qrot = 148942.4186961
    sn is the rotational symmetry number. We have assumed 3 here
       if it is different for your molecule then you should correct
       the printed rotational entropy by manually evaluating the equation
       as given above

For convenience we print out the resulting values for sn=1 - 12:
 sn= 1  qrot/sn=  148942.4187 T*S(rot)=     7.95 kcal/mol T*S(tot)=    24.01 kcal/mol
 sn= 2  qrot/sn=   74471.2093 T*S(rot)=     7.54 kcal/mol T*S(tot)=    23.60 kcal/mol
 sn= 3  qrot/sn=   49647.4729 T*S(rot)=     7.30 kcal/mol T*S(tot)=    23.36 kcal/mol
 sn= 4  qrot/sn=   37235.6047 T*S(rot)=     7.12 kcal/mol T*S(tot)=    23.18 kcal/mol
 sn= 5  qrot/sn=   29788.4837 T*S(rot)=     6.99 kcal/mol T*S(tot)=    23.05 kcal/mol
 sn= 6  qrot/sn=   24823.7364 T*S(rot)=     6.88 kcal/mol T*S(tot)=    22.94 kcal/mol
 sn= 7  qrot/sn=   21277.4884 T*S(rot)=     6.79 kcal/mol T*S(tot)=    22.85 kcal/mol
 sn= 8  qrot/sn=   18617.8023 T*S(rot)=     6.71 kcal/mol T*S(tot)=    22.77 kcal/mol
 sn= 9  qrot/sn=   16549.1576 T*S(rot)=     6.64 kcal/mol T*S(tot)=    22.70 kcal/mol
 sn=10  qrot/sn=   14894.2419 T*S(rot)=     6.58 kcal/mol T*S(tot)=    22.64 kcal/mol
 sn=11  qrot/sn=   13540.2199 T*S(rot)=     6.53 kcal/mol T*S(tot)=    22.59 kcal/mol
 sn=12  qrot/sn=   12411.8682 T*S(rot)=     6.47 kcal/mol T*S(tot)=    22.53 kcal/mol

-------------------
GIBBS FREE ENTHALPY
-------------------

The Gibbs free enthalpy is G = H - T*S

Total enthalpy                    ...   -251.85707117 Eh
Total entropy correction          ...     -0.03721890 Eh    -23.36 kcal/mol
-----------------------------------------------------------------------
Final Gibbs free enthalpy         ...   -251.89429007 Eh

For completeness - the Gibbs free enthalpy minus the electronic energy
G-E(el)                           ...      0.14190277 Eh     89.05 kcal/mol

                             ****ORCA TERMINATED NORMALLY****
TOTAL RUN TIME: 0 days 0 hours 22 minutes 4 seconds 931 msec
