                         Program Version 3.0.3 - RELEASE   -
|  1> ! NORI PBE0 def2-TZVP UseSym TightOPT Freq TightSCF Grid3 FinalGrid5 XYZFile
|  2> % pal
|  3>     nprocs 8
|  4> end
|  5> %method
|  6>     SymThresh 5.0e-2
|  7> end
|  8> % geom
|  9>     MaxIter 10
| 10> end
| 11> % maxcore 2000
| 12> % output
| 13>     printlevel mini
| 14>     print[ P_Basis ] 0
| 15>     print[ P_SCFInfo ] 1
| 16>     print[ P_SCFIterInfo ] 1
| 17>     print[ P_OrbEn ] 0
| 18>     print[ P_Cartesian ] 0
| 19> end
| 20> % elprop
| 21>     Dipole false
| 22> end
| 23> *xyz 1 1
| 24>  C        1.8813750263    -0.1280670455    -0.9111310597
| 25>  C        2.4244029708    -0.2164309688     0.2947575668
| 26>  C        3.0811488709     0.9134158748     0.9926222312
| 27>  C        3.0161768420     2.3593657332     0.4825532142
| 28>  C        2.6999709273     2.8057972548     1.9118776833
| 29>  N        2.3573097909     1.3781351615     2.2806989259
| 30>  H        1.4515948911    -0.9989814919    -1.3905265352
| 31>  H        1.8646782302     0.7957790124    -1.4784507901
| 32>  H        2.4538874550    -1.1735866160     0.8104204616
| 33>  H        4.0921105908     0.6499344771     1.3135440149
| 34>  H        2.1794638613     2.5278323699    -0.1951534155
| 35>  H        3.9269177449     2.7524403427     0.0392091412
| 36>  H        1.8749349479     3.4931111030     2.0826432028
| 37>  H        3.5720538352     3.1143851740     2.4852523583
| 38>  H        2.7065825445     1.0279163521     3.1711836522
| 39>  H        1.3565914708     1.1882232665     2.2231793481
| 40> *
| 41>
| 42>                          ****END OF INPUT****
 Total Charge           Charge          ....    1
 Multiplicity           Mult            ....    1
 Number of Electrons    NEL             ....   46
FINAL SINGLE POINT ENERGY      -250.799185974169

CARTESIAN COORDINATES (ANGSTROEM)
---------------------------------
  C      1.472392    0.000489   -1.820157
  C      1.179276    0.690750   -0.727197
  C     -0.110266    0.591173   -0.004616
  C     -1.164457   -0.477817   -0.322585
  C     -1.306135   -0.726076    1.180973
  N      0.000285   -0.000336    1.422598
  H      2.416808    0.145013   -2.330210
  H      0.784637   -0.709861   -2.265397
  H      1.884691    1.421957   -0.339008
  H     -0.568607    1.574446    0.129399
  H     -0.745447   -1.338184   -0.843161
  H     -2.052519   -0.134244   -0.845940
  H     -1.294067   -1.747415    1.553284
  H     -2.110001   -0.163248    1.651558
  H      0.035579    0.653147    2.203472
  H      0.794922   -0.636354    1.491124

FINAL SINGLE POINT ENERGY      -250.799186733749
                    ***********************HURRAY********************
 Multiplicity           Mult            ....    1
 Number of Electrons    NEL             ....   46
 Basis Dimension        Dim             ....  246
FINAL SINGLE POINT ENERGY      -250.799186965461

VIBRATIONAL FREQUENCIES
-----------------------

   0:         0.00 cm**-1
   1:         0.00 cm**-1
   2:         0.00 cm**-1
   3:         0.00 cm**-1
   4:         0.00 cm**-1
   5:         0.00 cm**-1
   6:       100.26 cm**-1
   7:       137.57 cm**-1
   8:       248.17 cm**-1
   9:       341.99 cm**-1
  10:       516.87 cm**-1
  11:       621.99 cm**-1
  12:       674.31 cm**-1
  13:       765.33 cm**-1
  14:       825.50 cm**-1
  15:       858.53 cm**-1
  16:       929.66 cm**-1
  17:       958.13 cm**-1
  18:       994.52 cm**-1
  19:      1017.32 cm**-1
  20:      1025.60 cm**-1
  21:      1033.00 cm**-1
  22:      1044.82 cm**-1
  23:      1122.09 cm**-1
  24:      1166.63 cm**-1
  25:      1231.46 cm**-1
  26:      1257.49 cm**-1
  27:      1283.58 cm**-1
  28:      1299.73 cm**-1
  29:      1318.00 cm**-1
  30:      1334.46 cm**-1
  31:      1354.42 cm**-1
  32:      1395.77 cm**-1
  33:      1456.14 cm**-1
  34:      1486.78 cm**-1
  35:      1503.08 cm**-1
  36:      1641.91 cm**-1
  37:      1721.07 cm**-1
  38:      3095.91 cm**-1
  39:      3121.43 cm**-1
  40:      3127.66 cm**-1
  41:      3164.82 cm**-1
  42:      3173.16 cm**-1
  43:      3186.39 cm**-1
  44:      3199.58 cm**-1
  45:      3262.30 cm**-1
  46:      3459.45 cm**-1
  47:      3536.63 cm**-1

IR SPECTRUM
-----------

 Mode    freq (cm**-1)   T**2         TX         TY         TZ
-------------------------------------------------------------------
   6:       100.26    2.294390  ( -1.160412   0.773141   0.591682)
   7:       137.57    2.983312  (  0.569950  -1.480390  -0.683312)
   8:       248.17    0.016803  (  0.036204   0.102136   0.071140)
   9:       341.99    1.845010  ( -0.978669   0.624965   0.704724)
  10:       516.87    2.308223  (  1.012434  -1.124387  -0.137672)
  11:       621.99    4.668941  (  0.416106  -2.106385  -0.242772)
  12:       674.31    7.898350  ( -0.524548   1.469427  -2.337517)
  13:       765.33   14.041565  (  0.427019   2.094773  -3.077523)
  14:       825.50    7.650210  ( -0.616331  -1.475938   2.256536)
  15:       858.53   16.097374  ( -1.447881   0.851218   3.643686)
  16:       929.66   11.295261  ( -2.965327  -1.569053   0.200415)
  17:       958.13   12.738181  (  1.051687  -1.508743   3.058730)
  18:       994.52    2.834291  ( -0.693956  -0.070927  -1.532216)
  19:      1017.32   51.422472  ( -1.635220   4.932420  -4.941635)
  20:      1025.60    7.227895  ( -1.682249   2.071845  -0.324643)
  21:      1033.00    0.566982  (  0.063958   0.565422  -0.493142)
  22:      1044.82    1.275832  ( -1.043153   0.432379   0.026694)
  23:      1122.09    5.479787  (  1.187774  -1.237119   1.593273)
  24:      1166.63    3.366355  ( -0.947298  -0.567970   1.465057)
  25:      1231.46    4.563970  ( -1.547151  -0.897646   1.168129)
  26:      1257.49   48.971952  (  3.844934   2.862073  -5.098722)
  27:      1283.58   24.575780  (  2.897120   3.261438  -2.354889)
  28:      1299.73   15.115851  (  0.919354   2.978975  -2.323004)
  29:      1318.00    5.944756  (  0.003908   2.086023   1.262240)
  30:      1334.46    6.152113  ( -1.466367  -1.409773   1.419303)
  31:      1354.42    1.634135  ( -1.146176   0.502705   0.260199)
  32:      1395.77   27.654339  (  3.091585   0.747683  -4.187769)
  33:      1456.14   26.495194  ( -1.333010   2.419935   4.343063)
  34:      1486.78   12.245470  ( -0.260005  -1.334206  -3.224556)
  35:      1503.08    8.894790  (  2.587875   1.304507  -0.704242)
  36:      1641.91   54.185370  (  4.727514  -0.686360   5.600436)
  37:      1721.07    1.238195  ( -0.921837  -0.264506   0.564312)
  38:      3095.91    0.870655  ( -0.513604   0.288579   0.723594)
  39:      3121.43    1.027119  ( -0.329061   0.812674   0.508328)
  40:      3127.66    1.220037  ( -0.559693  -0.025186   0.951917)
  41:      3164.82    0.748252  (  0.703925   0.487017   0.124724)
  42:      3173.16    1.298843  (  0.995451   0.342446  -0.436635)
  43:      3186.39    0.103482  (  0.074723  -0.030828  -0.311365)
  44:      3199.58    0.366170  (  0.571522   0.025155  -0.197230)
  45:      3262.30    0.353966  (  0.293014  -0.215811  -0.470674)
  46:      3459.45   56.065865  (  4.849615  -0.059424   5.704697)
  47:      3536.63   82.861237  (  3.925472  -6.844564  -4.539146)

--------------------------
THERMOCHEMISTRY AT 298.15K
--------------------------

Temperature         ... 298.15 K
Pressure            ... 1.00 atm
Total Mass          ... 84.14 AMU

Throughout the following assumptions are being made:
  (1) The electronic state is orbitally nondegenerate
  (2) There are no thermally accessible electronically excited states
  (3) Hindered rotations indicated by low frequency modes) are not
      treated as such but are treated as vibrations and this may
      case some error
  (4) All equations used are the standard statistical mechanics
      equations for an ideal gas
  (5) All vibrations are strinctly harmonic

------------
INNER ENERGY
------------

The inner energy is: U= E(el) + E(ZPE) + E(vib) + E(rot) + E(trans)
    E(el)   - is the total energy from the electronic structure calculation
              = E(kin-el) + E(nuc-el) + E(el-el) + E(nuc-nuc)
    E(ZPE)  - the the zero temperature vibrational energy from the frequency calculation
    E(vib)  - the the finite temperature correction to E(ZPE) due to population
              of excietd vibrational states
    E(rot)  - is the rotational thermal energy
    E(trans)- is the translational thermal energy

Summary of contributions to the inner energy U:
Electronic energy                ...   -250.79918697 Eh
Zero point energy                ...      0.14806609 Eh      92.91 kcal/mol
Thermal vibrational correction   ...      0.00337674 Eh       2.12 kcal/mol
Thermal rotational correction    ...      0.00141627 Eh       0.89 kcal/mol
Thermal translational correction ...      0.00141627 Eh       0.89 kcal/mol
-----------------------------------------------------------------------
Total thermal energy                   -250.64491159 Eh

Summary of corrections to the electronic energy:
(perhaps to be used in another calculation)
Total thermal correction                  0.00620929 Eh       3.90 kcal/mol
Non-thermal (ZPE) correction              0.14806609 Eh      92.91 kcal/mol
-----------------------------------------------------------------------
Total correction                          0.15427537 Eh      96.81 kcal/mol

--------
ENTHALPY
--------

The enthalpy is H = U + kB*T
                kB is Boltzmann's constant
Total free energy                 ...   -250.64491159 Eh
Thermal Enthalpy correction       ...      0.00094421 Eh       0.59 kcal/mol
-----------------------------------------------------------------------
Total Enthalpy                    ...   -250.64396738 Eh

-------
ENTROPY
-------

The entropy contributions are T*S = T*(S(el)+S(vib)+S(rot)+S(trans)
     S(el)   - electronic entropy
     S(vib)  - vibrational entropy
     S(rot)  - rotational entropy
     S(trans)- translational entropy
The entropies will be listed as mutliplied by the temperature to get
units of energy

Electronic entropy                ...      0.00000000 Eh      0.00 kcal/mol
Vibrational entropy               ...      0.00580692 Eh      3.64 kcal/mol
Rotational entropy                ...      0.01151766 Eh      7.23 kcal/mol
Translational entropy             ...      0.01862670 Eh     11.69 kcal/mol
-----------------------------------------------------------------------
Final entropy term                ...      0.03595129 Eh     22.56 kcal/mol

CAUTION: The rotational entropy is not quite correctly treated here
         because it includes a symmetry number that is not yet correctly
         implemented in ORCA!
For a nonlinear molecule the correct rotational entropy is:
    S(rot) = R*(ln(qrot/sn)+1.5)
    R    = 8.31441 J/mol/K = 1.987191683e-3 kcal/mol/K
    qrot = 132877.8977360
    sn is the rotational symmetry number. We have assumed 3 here
       if it is different for your molecule then you should correct
       the printed rotational entropy by manually evaluating the equation
       as given above

For convenience we print out the resulting values for sn=1 - 12:
 sn= 1  qrot/sn=  132877.8977 T*S(rot)=     7.88 kcal/mol T*S(tot)=    23.21 kcal/mol
 sn= 2  qrot/sn=   66438.9489 T*S(rot)=     7.47 kcal/mol T*S(tot)=    22.80 kcal/mol
 sn= 3  qrot/sn=   44292.6326 T*S(rot)=     7.23 kcal/mol T*S(tot)=    22.56 kcal/mol
 sn= 4  qrot/sn=   33219.4744 T*S(rot)=     7.06 kcal/mol T*S(tot)=    22.39 kcal/mol
 sn= 5  qrot/sn=   26575.5795 T*S(rot)=     6.92 kcal/mol T*S(tot)=    22.26 kcal/mol
 sn= 6  qrot/sn=   22146.3163 T*S(rot)=     6.82 kcal/mol T*S(tot)=    22.15 kcal/mol
 sn= 7  qrot/sn=   18982.5568 T*S(rot)=     6.73 kcal/mol T*S(tot)=    22.06 kcal/mol
 sn= 8  qrot/sn=   16609.7372 T*S(rot)=     6.65 kcal/mol T*S(tot)=    21.98 kcal/mol
 sn= 9  qrot/sn=   14764.2109 T*S(rot)=     6.58 kcal/mol T*S(tot)=    21.91 kcal/mol
 sn=10  qrot/sn=   13287.7898 T*S(rot)=     6.51 kcal/mol T*S(tot)=    21.85 kcal/mol
 sn=11  qrot/sn=   12079.8089 T*S(rot)=     6.46 kcal/mol T*S(tot)=    21.79 kcal/mol
 sn=12  qrot/sn=   11073.1581 T*S(rot)=     6.41 kcal/mol T*S(tot)=    21.74 kcal/mol

-------------------
GIBBS FREE ENTHALPY
-------------------

The Gibbs free enthalpy is G = H - T*S

Total enthalpy                    ...   -250.64396738 Eh
Total entropy correction          ...     -0.03595129 Eh    -22.56 kcal/mol
-----------------------------------------------------------------------
Final Gibbs free enthalpy         ...   -250.67991867 Eh

For completeness - the Gibbs free enthalpy minus the electronic energy
G-E(el)                           ...      0.11926829 Eh     74.84 kcal/mol

                             ****ORCA TERMINATED NORMALLY****
TOTAL RUN TIME: 0 days 0 hours 17 minutes 53 seconds 219 msec
