                         Program Version 3.0.3 - RELEASE   -
|  1> ! NORI PBE0 def2-TZVP UseSym TightOPT Freq TightSCF Grid3 FinalGrid5 XYZFile
|  2> % pal
|  3>     nprocs 8
|  4> end
|  5> %method
|  6>     SymThresh 5.0e-2
|  7> end
|  8> % geom
|  9>     MaxIter 10
| 10> end
| 11> % maxcore 2000
| 12> % output
| 13>     printlevel mini
| 14>     print[ P_Basis ] 0
| 15>     print[ P_SCFInfo ] 1
| 16>     print[ P_SCFIterInfo ] 1
| 17>     print[ P_OrbEn ] 0
| 18>     print[ P_Cartesian ] 0
| 19> end
| 20> % elprop
| 21>     Dipole false
| 22> end
| 23> *xyz 1 1
| 24>  C        0.9856421300    -0.1277532915     0.1978616345
| 25>  C        2.1744205654     0.0190464247     0.1480128753
| 26>  C        3.5957038417     0.2067680233     0.1111537630
| 27>  C        4.2832608754     1.2123283293     1.0611561206
| 28>  C        5.3127349345     0.1276121369     1.3917816010
| 29>  N        4.3987421659    -0.9209397755     0.7881403495
| 30>  H       -0.0745663194    -0.2546596945     0.2307963520
| 31>  H        3.9698980047     0.2886198527    -0.9117540365
| 32>  H        3.6486172697     1.4699829982     1.9074483617
| 33>  H        4.6588335497     2.1190234508     0.5950747539
| 34>  H        6.2246928739     0.1792961894     0.8006178903
| 35>  H        5.5499092736    -0.0747184673     2.4329158861
| 36>  H        4.8178323866    -1.6196553276     0.1750908686
| 37>  H        3.8292984482    -1.4008908489     1.4858435801
| 38> *
| 39>
| 40>                          ****END OF INPUT****
 Total Charge           Charge          ....    1
 Multiplicity           Mult            ....    1
 Number of Electrons    NEL             ....   44
FINAL SINGLE POINT ENERGY      -249.540433663454

CARTESIAN COORDINATES (ANGSTROEM)
---------------------------------
  C      2.069620    0.000087   -1.576787
  C      1.101937    0.252943   -0.915756
  C     -0.066158    0.533006   -0.132327
  C     -1.363169   -0.282282   -0.331371
  C     -1.447491   -0.435089    1.190067
  N     -0.000035   -0.000009    1.312024
  H      2.931320   -0.214112   -2.170619
  H     -0.263275    1.605119   -0.063072
  H     -1.175539   -1.223975   -0.844799
  H     -2.180037    0.244051   -0.817359
  H     -2.077689    0.303911    1.681158
  H     -1.624171   -1.420996    1.612226
  H      0.233197    0.673516    2.041055
  H      0.647112   -0.786418    1.377406

FINAL SINGLE POINT ENERGY      -249.540433871945
                    ***********************HURRAY********************
 Multiplicity           Mult            ....    1
 Number of Electrons    NEL             ....   44
 Basis Dimension        Dim             ....  234
FINAL SINGLE POINT ENERGY      -249.540433948694

VIBRATIONAL FREQUENCIES
-----------------------

   0:         0.00 cm**-1
   1:         0.00 cm**-1
   2:         0.00 cm**-1
   3:         0.00 cm**-1
   4:         0.00 cm**-1
   5:         0.00 cm**-1
   6:       109.09 cm**-1
   7:       166.37 cm**-1
   8:       234.13 cm**-1
   9:       488.81 cm**-1
  10:       507.01 cm**-1
  11:       627.96 cm**-1
  12:       729.66 cm**-1
  13:       761.40 cm**-1
  14:       779.09 cm**-1
  15:       827.46 cm**-1
  16:       865.87 cm**-1
  17:       925.39 cm**-1
  18:       957.34 cm**-1
  19:       998.81 cm**-1
  20:      1054.18 cm**-1
  21:      1104.99 cm**-1
  22:      1136.62 cm**-1
  23:      1231.03 cm**-1
  24:      1262.64 cm**-1
  25:      1276.62 cm**-1
  26:      1293.58 cm**-1
  27:      1307.91 cm**-1
  28:      1342.22 cm**-1
  29:      1384.90 cm**-1
  30:      1487.94 cm**-1
  31:      1502.50 cm**-1
  32:      1640.96 cm**-1
  33:      2251.71 cm**-1
  34:      3106.61 cm**-1
  35:      3126.20 cm**-1
  36:      3129.36 cm**-1
  37:      3190.96 cm**-1
  38:      3202.59 cm**-1
  39:      3451.25 cm**-1
  40:      3456.76 cm**-1
  41:      3531.03 cm**-1

IR SPECTRUM
-----------

 Mode    freq (cm**-1)   T**2         TX         TY         TZ
-------------------------------------------------------------------
   6:       109.09    0.375194  ( -0.195970  -0.507105  -0.282195)
   7:       166.37    3.390600  ( -1.772545   0.288730  -0.406594)
   8:       234.13    9.693348  (  0.114476  -3.094004  -0.327688)
   9:       488.81   14.643150  (  2.270270   1.042469   2.898669)
  10:       507.01   12.673336  ( -0.707348  -2.620075   2.303953)
  11:       627.96    3.026669  ( -0.386778   1.122127   1.271968)
  12:       729.66   37.039401  (  2.135654   5.557161   1.263464)
  13:       761.40    7.093024  (  1.304649   2.034117  -1.119501)
  14:       779.09   30.610315  (  2.693134  -2.331796   4.233211)
  15:       827.46    2.330819  ( -0.364689  -1.161675   0.921050)
  16:       865.87   23.115602  (  1.560892  -1.171740  -4.393887)
  17:       925.39   13.042769  ( -3.539016  -0.708730   0.125836)
  18:       957.34   15.860726  (  0.271087  -1.047267   3.832815)
  19:       998.81    0.650687  (  0.168760   0.787322   0.048273)
  20:      1054.18    4.649479  (  1.070309  -0.153608  -1.865562)
  21:      1104.99    1.621133  ( -1.147739   0.293082   0.466832)
  22:      1136.62    4.159008  ( -1.331159   1.411761   0.627658)
  23:      1231.03    0.693228  ( -0.677598  -0.048310   0.481409)
  24:      1262.64   51.876632  (  4.549735   2.113394  -5.168182)
  25:      1276.62    9.361308  ( -1.823930  -1.607672   1.857411)
  26:      1293.58    1.663245  ( -0.066498   1.164135  -0.551010)
  27:      1307.91   34.054758  (  2.888282   3.874359  -3.271380)
  28:      1342.22    1.554434  (  1.234766   0.042827  -0.167188)
  29:      1384.90   44.545578  (  4.825114  -0.053051  -4.610969)
  30:      1487.94   14.196690  (  0.627960   1.190483   3.519248)
  31:      1502.50    9.360186  ( -2.906828  -0.795494   0.526998)
  32:      1640.96   52.449349  (  4.627431  -1.403691   5.391279)
  33:      2251.71   48.982053  ( -5.263595   0.705205   4.558432)
  34:      3106.61    1.773732  ( -0.726629  -0.699544   0.869701)
  35:      3126.20    0.069570  (  0.207498  -0.010535   0.162494)
  36:      3129.36    0.397980  (  0.263998  -0.102714  -0.563680)
  37:      3190.96    0.113675  (  0.133866   0.219745  -0.217868)
  38:      3202.59    0.690024  ( -0.441212   0.689883   0.139346)
  39:      3451.25   93.130249  ( -7.123371   1.465635   6.343480)
  40:      3456.76   66.071282  (  6.252773  -1.179475   5.057959)
  41:      3531.03   89.380525  ( -2.260927   8.237524   4.051165)

--------------------------
THERMOCHEMISTRY AT 298.15K
--------------------------

Temperature         ... 298.15 K
Pressure            ... 1.00 atm
Total Mass          ... 82.13 AMU

Throughout the following assumptions are being made:
  (1) The electronic state is orbitally nondegenerate
  (2) There are no thermally accessible electronically excited states
  (3) Hindered rotations indicated by low frequency modes) are not
      treated as such but are treated as vibrations and this may
      case some error
  (4) All equations used are the standard statistical mechanics
      equations for an ideal gas
  (5) All vibrations are strinctly harmonic

------------
INNER ENERGY
------------

The inner energy is: U= E(el) + E(ZPE) + E(vib) + E(rot) + E(trans)
    E(el)   - is the total energy from the electronic structure calculation
              = E(kin-el) + E(nuc-el) + E(el-el) + E(nuc-nuc)
    E(ZPE)  - the the zero temperature vibrational energy from the frequency calculation
    E(vib)  - the the finite temperature correction to E(ZPE) due to population
              of excietd vibrational states
    E(rot)  - is the rotational thermal energy
    E(trans)- is the translational thermal energy

Summary of contributions to the inner energy U:
Electronic energy                ...   -249.54043395 Eh
Zero point energy                ...      0.12404841 Eh      77.84 kcal/mol
Thermal vibrational correction   ...      0.00314530 Eh       1.97 kcal/mol
Thermal rotational correction    ...      0.00141627 Eh       0.89 kcal/mol
Thermal translational correction ...      0.00141627 Eh       0.89 kcal/mol
-----------------------------------------------------------------------
Total thermal energy                   -249.41040769 Eh

Summary of corrections to the electronic energy:
(perhaps to be used in another calculation)
Total thermal correction                  0.00597785 Eh       3.75 kcal/mol
Non-thermal (ZPE) correction              0.12404841 Eh      77.84 kcal/mol
-----------------------------------------------------------------------
Total correction                          0.13002626 Eh      81.59 kcal/mol

--------
ENTHALPY
--------

The enthalpy is H = U + kB*T
                kB is Boltzmann's constant
Total free energy                 ...   -249.41040769 Eh
Thermal Enthalpy correction       ...      0.00094421 Eh       0.59 kcal/mol
-----------------------------------------------------------------------
Total Enthalpy                    ...   -249.40946348 Eh

-------
ENTROPY
-------

The entropy contributions are T*S = T*(S(el)+S(vib)+S(rot)+S(trans)
     S(el)   - electronic entropy
     S(vib)  - vibrational entropy
     S(rot)  - rotational entropy
     S(trans)- translational entropy
The entropies will be listed as mutliplied by the temperature to get
units of energy

Electronic entropy                ...      0.00000000 Eh      0.00 kcal/mol
Vibrational entropy               ...      0.00530812 Eh      3.33 kcal/mol
Rotational entropy                ...      0.01146521 Eh      7.19 kcal/mol
Translational entropy             ...      0.01859236 Eh     11.67 kcal/mol
-----------------------------------------------------------------------
Final entropy term                ...      0.03536568 Eh     22.19 kcal/mol

CAUTION: The rotational entropy is not quite correctly treated here
         because it includes a symmetry number that is not yet correctly
         implemented in ORCA!
For a nonlinear molecule the correct rotational entropy is:
    S(rot) = R*(ln(qrot/sn)+1.5)
    R    = 8.31441 J/mol/K = 1.987191683e-3 kcal/mol/K
    qrot = 125697.2720901
    sn is the rotational symmetry number. We have assumed 3 here
       if it is different for your molecule then you should correct
       the printed rotational entropy by manually evaluating the equation
       as given above

For convenience we print out the resulting values for sn=1 - 12:
 sn= 1  qrot/sn=  125697.2721 T*S(rot)=     7.85 kcal/mol T*S(tot)=    22.84 kcal/mol
 sn= 2  qrot/sn=   62848.6360 T*S(rot)=     7.43 kcal/mol T*S(tot)=    22.43 kcal/mol
 sn= 3  qrot/sn=   41899.0907 T*S(rot)=     7.19 kcal/mol T*S(tot)=    22.19 kcal/mol
 sn= 4  qrot/sn=   31424.3180 T*S(rot)=     7.02 kcal/mol T*S(tot)=    22.02 kcal/mol
 sn= 5  qrot/sn=   25139.4544 T*S(rot)=     6.89 kcal/mol T*S(tot)=    21.89 kcal/mol
 sn= 6  qrot/sn=   20949.5453 T*S(rot)=     6.78 kcal/mol T*S(tot)=    21.78 kcal/mol
 sn= 7  qrot/sn=   17956.7532 T*S(rot)=     6.69 kcal/mol T*S(tot)=    21.69 kcal/mol
 sn= 8  qrot/sn=   15712.1590 T*S(rot)=     6.61 kcal/mol T*S(tot)=    21.61 kcal/mol
 sn= 9  qrot/sn=   13966.3636 T*S(rot)=     6.54 kcal/mol T*S(tot)=    21.54 kcal/mol
 sn=10  qrot/sn=   12569.7272 T*S(rot)=     6.48 kcal/mol T*S(tot)=    21.48 kcal/mol
 sn=11  qrot/sn=   11427.0247 T*S(rot)=     6.42 kcal/mol T*S(tot)=    21.42 kcal/mol
 sn=12  qrot/sn=   10474.7727 T*S(rot)=     6.37 kcal/mol T*S(tot)=    21.37 kcal/mol

-------------------
GIBBS FREE ENTHALPY
-------------------

The Gibbs free enthalpy is G = H - T*S

Total enthalpy                    ...   -249.40946348 Eh
Total entropy correction          ...     -0.03536568 Eh    -22.19 kcal/mol
-----------------------------------------------------------------------
Final Gibbs free enthalpy         ...   -249.44482917 Eh

For completeness - the Gibbs free enthalpy minus the electronic energy
G-E(el)                           ...      0.09560478 Eh     59.99 kcal/mol

                             ****ORCA TERMINATED NORMALLY****
TOTAL RUN TIME: 0 days 0 hours 16 minutes 29 seconds 493 msec
