                         Program Version 3.0.3 - RELEASE   -
|  1> ! NORI PBE0 def2-TZVP UseSym TightOPT Freq TightSCF Grid3 FinalGrid5 XYZFile
|  2> % pal
|  3>     nprocs 8
|  4> end
|  5> %method
|  6>     SymThresh 5.0e-2
|  7> end
|  8> % geom
|  9>     MaxIter 10
| 10> end
| 11> % maxcore 2000
| 12> % output
| 13>     printlevel mini
| 14>     print[ P_Basis ] 0
| 15>     print[ P_SCFInfo ] 1
| 16>     print[ P_SCFIterInfo ] 1
| 17>     print[ P_OrbEn ] 0
| 18>     print[ P_Cartesian ] 0
| 19> end
| 20> % elprop
| 21>     Dipole false
| 22> end
| 23> *xyz 1 1
| 24>  C        3.7638060680     0.1837662269    -1.1353319102
| 25>  C        2.6376538972     0.0394873534    -0.1274258807
| 26>  C        3.0192320137    -0.1362726433     1.3231730323
| 27>  C        1.8843063937    -0.1395431451     2.3041599003
| 28>  C        4.2773503914    -0.8021891872     1.7049761050
| 29>  N        4.2105692494     0.6769218543     1.7784492199
| 30>  H        3.3404738071     0.2821431104    -2.1350984339
| 31>  H        4.4271772841    -0.6835699121    -1.1618878449
| 32>  H        4.3667154867     1.0856736738    -0.9820612257
| 33>  H        2.0286049803    -0.8351892304    -0.3769937615
| 34>  H        1.9634532696     0.8992986072    -0.1896715038
| 35>  H        1.2474016069    -1.0021455993     2.0988119381
| 36>  H        1.2751551369     0.7600580668     2.1993689781
| 37>  H        2.2270018007    -0.2220840840     3.3381541307
| 38>  H        4.9564690550    -1.1645543486     0.9444473322
| 39>  H        4.3480895024    -1.2866968218     2.6705322252
| 40>  H        4.1774280317     1.1144648502     2.6920216083
| 41>  H        4.7243120251     1.1988812288     1.0768760907
| 42> *
| 43>
| 44>                          ****END OF INPUT****
 Total Charge           Charge          ....    1
 Multiplicity           Mult            ....    1
 Number of Electrons    NEL             ....   48
FINAL SINGLE POINT ENERGY      -252.031137462532
FINAL SINGLE POINT ENERGY      -252.031138770763
FINAL SINGLE POINT ENERGY      -252.031139710084
FINAL SINGLE POINT ENERGY      -252.031140483896
FINAL SINGLE POINT ENERGY      -252.031141255332

CARTESIAN COORDINATES (ANGSTROEM)
---------------------------------
  C      1.996761   -0.010158   -0.846453
  C      0.577387    0.490751   -1.049582
  C     -0.466823    0.050439   -0.051166
  C     -1.832588    0.646791   -0.225558
  C     -0.348597   -1.235062    0.659793
  N     -0.003586    0.008861    1.388647
  H      2.632065    0.380774   -1.641457
  H      2.072340   -1.098368   -0.889972
  H      2.447564    0.338275    0.089116
  H      0.206807    0.159396   -2.024707
  H      0.562727    1.584404   -1.080749
  H     -2.240583    0.311701   -1.181050
  H     -1.783395    1.736705   -0.245116
  H     -2.527044    0.332471    0.556653
  H      0.501069   -1.881581    0.485013
  H     -1.243384   -1.722981    1.025340
  H     -0.635468    0.336486    2.110151
  H      0.978303    0.178936    1.576716

FINAL SINGLE POINT ENERGY      -252.031141698072
                    ***********************HURRAY********************
 Multiplicity           Mult            ....    1
 Number of Electrons    NEL             ....   48
 Basis Dimension        Dim             ....  258
FINAL SINGLE POINT ENERGY      -252.031141959688

VIBRATIONAL FREQUENCIES
-----------------------

   0:         0.00 cm**-1
   1:         0.00 cm**-1
   2:         0.00 cm**-1
   3:         0.00 cm**-1
   4:         0.00 cm**-1
   5:         0.00 cm**-1
   6:        60.83 cm**-1
   7:       215.10 cm**-1
   8:       247.53 cm**-1
   9:       260.95 cm**-1
  10:       328.59 cm**-1
  11:       357.86 cm**-1
  12:       416.61 cm**-1
  13:       466.51 cm**-1
  14:       658.67 cm**-1
  15:       757.18 cm**-1
  16:       802.91 cm**-1
  17:       873.67 cm**-1
  18:       904.68 cm**-1
  19:       907.17 cm**-1
  20:       947.20 cm**-1
  21:      1004.28 cm**-1
  22:      1014.29 cm**-1
  23:      1040.42 cm**-1
  24:      1074.31 cm**-1
  25:      1097.33 cm**-1
  26:      1140.63 cm**-1
  27:      1184.40 cm**-1
  28:      1246.10 cm**-1
  29:      1295.05 cm**-1
  30:      1306.85 cm**-1
  31:      1366.67 cm**-1
  32:      1405.37 cm**-1
  33:      1424.19 cm**-1
  34:      1431.68 cm**-1
  35:      1467.31 cm**-1
  36:      1473.52 cm**-1
  37:      1483.03 cm**-1
  38:      1491.47 cm**-1
  39:      1497.96 cm**-1
  40:      1512.10 cm**-1
  41:      1617.49 cm**-1
  42:      3043.39 cm**-1
  43:      3061.75 cm**-1
  44:      3065.60 cm**-1
  45:      3099.51 cm**-1
  46:      3123.65 cm**-1
  47:      3143.54 cm**-1
  48:      3150.20 cm**-1
  49:      3151.59 cm**-1
  50:      3174.46 cm**-1
  51:      3273.13 cm**-1
  52:      3512.56 cm**-1
  53:      3621.09 cm**-1

IR SPECTRUM
-----------

 Mode    freq (cm**-1)   T**2         TX         TY         TZ
-------------------------------------------------------------------
   6:        60.83    1.138289  (  0.562296  -0.669060  -0.611940)
   7:       215.10    0.518834  ( -0.139658   0.654625   0.266076)
   8:       247.53    5.595430  (  1.408811   0.570119  -1.812635)
   9:       260.95    0.487563  (  0.472066   0.171765  -0.484988)
  10:       328.59    2.108079  (  1.357328  -0.005630  -0.515469)
  11:       357.86    0.585014  (  0.611079  -0.411174   0.206235)
  12:       416.61    1.784635  ( -0.025646   1.333200  -0.080967)
  13:       466.51    0.436520  ( -0.283853  -0.427871   0.415781)
  14:       658.67    0.296582  ( -0.423508   0.032683  -0.340816)
  15:       757.18    4.049841  (  0.807102  -0.552789   1.758651)
  16:       802.91   16.820252  ( -0.968289  -1.038748  -3.847554)
  17:       873.67    1.543657  (  0.176726   0.313207  -1.189255)
  18:       904.68    6.473023  (  1.859300  -0.557715  -1.644683)
  19:       907.17    5.735725  ( -1.207780  -1.364572  -1.554007)
  20:       947.20    6.715979  (  2.438181   0.419742   0.771408)
  21:      1004.28   84.746525  (  0.638475  -6.905795   6.053831)
  22:      1014.29   12.383765  ( -0.926868  -2.378758   2.422022)
  23:      1040.42    3.846715  ( -0.799344   1.734477   0.446490)
  24:      1074.31    4.639030  ( -0.437198  -1.822671  -1.061019)
  25:      1097.33    0.480404  (  0.162502  -0.661178  -0.129773)
  26:      1140.63    7.957677  (  0.916564   1.549198   2.171998)
  27:      1184.40    3.796995  ( -0.370468   0.031690  -1.912784)
  28:      1246.10    1.494386  ( -1.188541   0.069274   0.277414)
  29:      1295.05    7.466546  (  2.446438   0.238224  -1.193623)
  30:      1306.85    1.953715  ( -0.811634   0.174295  -1.124538)
  31:      1366.67    3.439406  ( -0.335405  -0.975753   1.541043)
  32:      1405.37    2.118976  (  1.269500  -0.695303   0.154589)
  33:      1424.19   18.175961  ( -4.167810   0.893744  -0.080900)
  34:      1431.68    2.671560  ( -1.178792   0.515140  -1.008285)
  35:      1467.31    4.239519  (  1.861409  -0.844859   0.246759)
  36:      1473.52   18.218722  ( -1.210929  -4.091519   0.108833)
  37:      1483.03   23.616284  ( -1.236989  -1.696699   4.382619)
  38:      1491.47    2.069300  ( -1.332974  -0.302280   0.448451)
  39:      1497.96    4.963055  (  0.617541   2.024653  -0.694607)
  40:      1512.10   17.629979  (  0.403874   3.827516   1.678389)
  41:      1617.49   89.070521  (  1.790356   2.610075   8.891156)
  42:      3043.39   14.831374  ( -1.150994   0.495769  -3.641538)
  43:      3061.75    3.184112  ( -0.642292   0.744093  -1.489261)
  44:      3065.60    5.165183  (  1.864656  -1.289760   0.157357)
  45:      3099.51    0.724332  (  0.329902  -0.272563  -0.735667)
  46:      3123.65   10.894695  (  0.370849   2.663397   1.914022)
  47:      3143.54    3.483049  ( -1.273057  -0.651713   1.199018)
  48:      3150.20    1.972169  ( -0.185180  -1.361352   0.290857)
  49:      3151.59    1.905515  ( -0.063314   1.247932  -0.586663)
  50:      3174.46    0.600784  (  0.007205   0.774457  -0.030794)
  51:      3273.13    3.174554  (  1.657747   0.049996  -0.651100)
  52:      3512.56   76.144100  ( -3.546978  -3.587578  -7.119855)
  53:      3621.09  123.787537  (  9.888432  -1.183204  -4.960492)

--------------------------
THERMOCHEMISTRY AT 298.15K
--------------------------

Temperature         ... 298.15 K
Pressure            ... 1.00 atm
Total Mass          ... 86.16 AMU

Throughout the following assumptions are being made:
  (1) The electronic state is orbitally nondegenerate
  (2) There are no thermally accessible electronically excited states
  (3) Hindered rotations indicated by low frequency modes) are not
      treated as such but are treated as vibrations and this may
      case some error
  (4) All equations used are the standard statistical mechanics
      equations for an ideal gas
  (5) All vibrations are strinctly harmonic

------------
INNER ENERGY
------------

The inner energy is: U= E(el) + E(ZPE) + E(vib) + E(rot) + E(trans)
    E(el)   - is the total energy from the electronic structure calculation
              = E(kin-el) + E(nuc-el) + E(el-el) + E(nuc-nuc)
    E(ZPE)  - the the zero temperature vibrational energy from the frequency calculation
    E(vib)  - the the finite temperature correction to E(ZPE) due to population
              of excietd vibrational states
    E(rot)  - is the rotational thermal energy
    E(trans)- is the translational thermal energy

Summary of contributions to the inner energy U:
Electronic energy                ...   -252.03114196 Eh
Zero point energy                ...      0.16904092 Eh     106.07 kcal/mol
Thermal vibrational correction   ...      0.00439714 Eh       2.76 kcal/mol
Thermal rotational correction    ...      0.00141627 Eh       0.89 kcal/mol
Thermal translational correction ...      0.00141627 Eh       0.89 kcal/mol
-----------------------------------------------------------------------
Total thermal energy                   -251.85487135 Eh

Summary of corrections to the electronic energy:
(perhaps to be used in another calculation)
Total thermal correction                  0.00722969 Eh       4.54 kcal/mol
Non-thermal (ZPE) correction              0.16904092 Eh     106.07 kcal/mol
-----------------------------------------------------------------------
Total correction                          0.17627061 Eh     110.61 kcal/mol

--------
ENTHALPY
--------

The enthalpy is H = U + kB*T
                kB is Boltzmann's constant
Total free energy                 ...   -251.85487135 Eh
Thermal Enthalpy correction       ...      0.00094421 Eh       0.59 kcal/mol
-----------------------------------------------------------------------
Total Enthalpy                    ...   -251.85392714 Eh

-------
ENTROPY
-------

The entropy contributions are T*S = T*(S(el)+S(vib)+S(rot)+S(trans)
     S(el)   - electronic entropy
     S(vib)  - vibrational entropy
     S(rot)  - rotational entropy
     S(trans)- translational entropy
The entropies will be listed as mutliplied by the temperature to get
units of energy

Electronic entropy                ...      0.00000000 Eh      0.00 kcal/mol
Vibrational entropy               ...      0.00758570 Eh      4.76 kcal/mol
Rotational entropy                ...      0.01162183 Eh      7.29 kcal/mol
Translational entropy             ...      0.01866024 Eh     11.71 kcal/mol
-----------------------------------------------------------------------
Final entropy term                ...      0.03786776 Eh     23.76 kcal/mol

CAUTION: The rotational entropy is not quite correctly treated here
         because it includes a symmetry number that is not yet correctly
         implemented in ORCA!
For a nonlinear molecule the correct rotational entropy is:
    S(rot) = R*(ln(qrot/sn)+1.5)
    R    = 8.31441 J/mol/K = 1.987191683e-3 kcal/mol/K
    qrot = 148376.5736648
    sn is the rotational symmetry number. We have assumed 3 here
       if it is different for your molecule then you should correct
       the printed rotational entropy by manually evaluating the equation
       as given above

For convenience we print out the resulting values for sn=1 - 12:
 sn= 1  qrot/sn=  148376.5737 T*S(rot)=     7.94 kcal/mol T*S(tot)=    24.41 kcal/mol
 sn= 2  qrot/sn=   74188.2868 T*S(rot)=     7.53 kcal/mol T*S(tot)=    24.00 kcal/mol
 sn= 3  qrot/sn=   49458.8579 T*S(rot)=     7.29 kcal/mol T*S(tot)=    23.76 kcal/mol
 sn= 4  qrot/sn=   37094.1434 T*S(rot)=     7.12 kcal/mol T*S(tot)=    23.59 kcal/mol
 sn= 5  qrot/sn=   29675.3147 T*S(rot)=     6.99 kcal/mol T*S(tot)=    23.46 kcal/mol
 sn= 6  qrot/sn=   24729.4289 T*S(rot)=     6.88 kcal/mol T*S(tot)=    23.35 kcal/mol
 sn= 7  qrot/sn=   21196.6534 T*S(rot)=     6.79 kcal/mol T*S(tot)=    23.26 kcal/mol
 sn= 8  qrot/sn=   18547.0717 T*S(rot)=     6.71 kcal/mol T*S(tot)=    23.18 kcal/mol
 sn= 9  qrot/sn=   16486.2860 T*S(rot)=     6.64 kcal/mol T*S(tot)=    23.11 kcal/mol
 sn=10  qrot/sn=   14837.6574 T*S(rot)=     6.58 kcal/mol T*S(tot)=    23.05 kcal/mol
 sn=11  qrot/sn=   13488.7794 T*S(rot)=     6.52 kcal/mol T*S(tot)=    22.99 kcal/mol
 sn=12  qrot/sn=   12364.7145 T*S(rot)=     6.47 kcal/mol T*S(tot)=    22.94 kcal/mol

-------------------
GIBBS FREE ENTHALPY
-------------------

The Gibbs free enthalpy is G = H - T*S

Total enthalpy                    ...   -251.85392714 Eh
Total entropy correction          ...     -0.03786776 Eh    -23.76 kcal/mol
-----------------------------------------------------------------------
Final Gibbs free enthalpy         ...   -251.89179490 Eh

For completeness - the Gibbs free enthalpy minus the electronic energy
G-E(el)                           ...      0.13934706 Eh     87.44 kcal/mol

                             ****ORCA TERMINATED NORMALLY****
TOTAL RUN TIME: 0 days 0 hours 26 minutes 36 seconds 580 msec
