                         Program Version 3.0.3 - RELEASE   -
|  1> ! NORI PBE0 def2-TZVP UseSym TightOPT Freq TightSCF Grid3 FinalGrid5 XYZFile
|  2> % pal
|  3>     nprocs 8
|  4> end
|  5> %method
|  6>     SymThresh 5.0e-2
|  7> end
|  8> % geom
|  9>     MaxIter 10
| 10> end
| 11> % maxcore 2000
| 12> % output
| 13>     printlevel mini
| 14>     print[ P_Basis ] 0
| 15>     print[ P_SCFInfo ] 1
| 16>     print[ P_SCFIterInfo ] 1
| 17>     print[ P_OrbEn ] 0
| 18>     print[ P_Cartesian ] 0
| 19> end
| 20> % elprop
| 21>     Dipole false
| 22> end
| 23> *xyz 1 1
| 24>  C        2.8738461553     1.1918775963     0.3997784275
| 25>  C        2.5425065259    -0.2298483592    -0.0255114389
| 26>  C        3.0616726339    -0.5751023237    -1.3877275686
| 27>  C        2.4011579845    -1.5574935999    -2.2651713282
| 28>  N        2.2693329192    -0.1152734362    -2.5666935093
| 29>  C        2.8931437957     0.4790492118    -3.7550188856
| 30>  H        2.5012280970     1.3819381091     1.4062846038
| 31>  H        2.4180082884     1.9336841456    -0.2608631457
| 32>  H        3.9524797631     1.3623880102     0.4090484884
| 33>  H        2.9899523951    -0.9485971075     0.6678683905
| 34>  H        1.4619857509    -0.4124261659     0.0129490978
| 35>  H        4.1228313338    -0.4152278181    -1.5546240908
| 36>  H        2.9797301216    -2.1044922056    -2.9990865124
| 37>  H        1.4868600616    -2.0323701729    -1.9308304232
| 38>  H        1.3668784639     0.2840721021    -2.3274146762
| 39>  H        3.8516064896    -0.0066705839    -3.9306822829
| 40>  H        3.0468944636     1.5432867812    -3.5811114983
| 41>  H        2.2418847569     0.3250658168    -4.6148836477
| 42> *
| 43>
| 44>                          ****END OF INPUT****
 Total Charge           Charge          ....    1
 Multiplicity           Mult            ....    1
 Number of Electrons    NEL             ....   48
FINAL SINGLE POINT ENERGY      -252.023735235702
FINAL SINGLE POINT ENERGY      -252.023736627644

CARTESIAN COORDINATES (ANGSTROEM)
---------------------------------
  C      1.405671    0.000978   -1.952866
  C      0.180640   -0.722435   -1.416121
  C     -0.546083    0.049743   -0.358164
  C     -1.314354   -0.603062    0.715992
  N     -0.000018   -0.000462    1.030768
  C      0.113267    1.192105    1.878455
  H      1.879169   -0.589641   -2.737080
  H      2.155351    0.170142   -1.175246
  H      1.139401    0.968653   -2.382987
  H     -0.539619   -0.899705   -2.221114
  H      0.444331   -1.713403   -1.029070
  H     -0.842465    1.062110   -0.616045
  H     -2.149925   -0.089329    1.174160
  H     -1.336450   -1.684925    0.766548
  H      0.751602   -0.671980    1.154635
  H     -0.727238    1.852167    1.670934
  H      1.047296    1.703230    1.649632
  H      0.092705    0.889950    2.924939

FINAL SINGLE POINT ENERGY      -252.023737274108
                    ***********************HURRAY********************
 Multiplicity           Mult            ....    1
 Number of Electrons    NEL             ....   48
 Basis Dimension        Dim             ....  258
FINAL SINGLE POINT ENERGY      -252.023737479687

VIBRATIONAL FREQUENCIES
-----------------------

   0:         0.00 cm**-1
   1:         0.00 cm**-1
   2:         0.00 cm**-1
   3:         0.00 cm**-1
   4:         0.00 cm**-1
   5:         0.00 cm**-1
   6:        95.44 cm**-1
   7:       156.81 cm**-1
   8:       194.16 cm**-1
   9:       213.47 cm**-1
  10:       296.69 cm**-1
  11:       361.70 cm**-1
  12:       403.73 cm**-1
  13:       475.81 cm**-1
  14:       741.00 cm**-1
  15:       806.39 cm**-1
  16:       821.19 cm**-1
  17:       876.55 cm**-1
  18:       935.10 cm**-1
  19:       983.74 cm**-1
  20:      1034.39 cm**-1
  21:      1071.64 cm**-1
  22:      1104.00 cm**-1
  23:      1115.39 cm**-1
  24:      1157.37 cm**-1
  25:      1159.06 cm**-1
  26:      1194.47 cm**-1
  27:      1218.35 cm**-1
  28:      1239.33 cm**-1
  29:      1285.31 cm**-1
  30:      1307.35 cm**-1
  31:      1339.54 cm**-1
  32:      1415.60 cm**-1
  33:      1421.12 cm**-1
  34:      1455.31 cm**-1
  35:      1460.75 cm**-1
  36:      1471.60 cm**-1
  37:      1483.20 cm**-1
  38:      1492.62 cm**-1
  39:      1494.49 cm**-1
  40:      1497.34 cm**-1
  41:      1518.26 cm**-1
  42:      3048.24 cm**-1
  43:      3057.95 cm**-1
  44:      3084.20 cm**-1
  45:      3093.42 cm**-1
  46:      3131.14 cm**-1
  47:      3154.02 cm**-1
  48:      3166.42 cm**-1
  49:      3180.99 cm**-1
  50:      3182.52 cm**-1
  51:      3186.23 cm**-1
  52:      3267.49 cm**-1
  53:      3537.97 cm**-1

IR SPECTRUM
-----------

 Mode    freq (cm**-1)   T**2         TX         TY         TZ
-------------------------------------------------------------------
   6:        95.44    1.282335  (  0.387513   0.179385  -1.048804)
   7:       156.81    0.492173  (  0.106626   0.471228   0.508673)
   8:       194.16    0.045342  (  0.172175  -0.089748   0.087426)
   9:       213.47    0.600869  ( -0.356890  -0.249080   0.641450)
  10:       296.69    0.986445  (  0.056259   0.565839  -0.814313)
  11:       361.70    0.244596  ( -0.287101   0.381562  -0.128758)
  12:       403.73    1.345611  ( -0.524778   0.109546   1.028698)
  13:       475.81    0.419775  ( -0.529460   0.373089  -0.015856)
  14:       741.00    0.705141  ( -0.707883   0.451659   0.006822)
  15:       806.39    3.948212  (  1.779684   0.819355  -0.331052)
  16:       821.19   23.503421  (  1.889035  -0.570214   4.428298)
  17:       876.55    5.256895  ( -0.271950  -0.958001  -2.065229)
  18:       935.10    8.366602  ( -0.745736  -2.505325   1.238478)
  19:       983.74   16.775199  (  3.755198   0.974539  -1.312997)
  20:      1034.39   14.365890  (  0.807990   0.848117   3.604683)
  21:      1071.64   13.728395  ( -1.412235  -0.741766  -3.344214)
  22:      1104.00   14.655905  ( -1.139486  -1.553494  -3.308192)
  23:      1115.39    5.042619  (  1.600495   0.658913  -1.430689)
  24:      1157.37    9.397767  ( -1.249701  -0.708772   2.708073)
  25:      1159.06    4.181248  (  0.417616  -2.000776   0.061174)
  26:      1194.47    1.160185  (  0.145084   0.593931  -0.886782)
  27:      1218.35    4.522663  (  0.950946   1.553500  -1.097726)
  28:      1239.33    6.448596  ( -0.778175  -2.052379  -1.277020)
  29:      1285.31    3.958345  (  1.180909  -0.766637   1.405726)
  30:      1307.35    3.588911  ( -1.521849  -0.661998   0.913590)
  31:      1339.54    5.194173  (  0.307501   0.886295   2.077041)
  32:      1415.60    3.976137  (  0.258902   0.869342   1.775767)
  33:      1421.12    5.646037  ( -1.878684  -1.454761   0.015934)
  34:      1455.31    4.937409  (  0.435725  -1.724115   1.332284)
  35:      1460.75   17.473837  ( -1.705718  -3.746149  -0.728511)
  36:      1471.60    2.148822  ( -0.619521  -1.019109   0.852310)
  37:      1483.20   13.799263  ( -1.977033  -1.354699   2.838202)
  38:      1492.62    7.507610  (  0.626368   2.629260   0.449739)
  39:      1494.49   24.492202  ( -3.793073   0.790920  -3.078838)
  40:      1497.34   17.954635  ( -3.461898   2.350478   0.667195)
  41:      1518.26   29.439266  (  0.958294   0.685917   5.296268)
  42:      3048.24    7.616359  (  0.500220   1.960242  -1.877123)
  43:      3057.95   11.229512  ( -2.379274  -2.317070  -0.446938)
  44:      3084.20    0.548245  ( -0.068792  -0.554340  -0.486025)
  45:      3093.42    0.358849  (  0.387467  -0.432696  -0.146603)
  46:      3131.14   13.398635  (  1.963204  -1.256740   2.822246)
  47:      3154.02    3.363053  ( -0.432736   1.597180   0.790448)
  48:      3166.42    1.627433  (  1.062201   0.631239  -0.317334)
  49:      3180.99    0.200439  ( -0.081963  -0.251816  -0.360985)
  50:      3182.52    0.426643  ( -0.106794  -0.117309   0.633622)
  51:      3186.23    0.079433  ( -0.040652   0.223287   0.167104)
  52:      3267.49    3.635956  (  0.912961  -1.634004  -0.363991)
  53:      3537.97   69.705130  (  6.618942  -4.603943   2.167588)

--------------------------
THERMOCHEMISTRY AT 298.15K
--------------------------

Temperature         ... 298.15 K
Pressure            ... 1.00 atm
Total Mass          ... 86.16 AMU

Throughout the following assumptions are being made:
  (1) The electronic state is orbitally nondegenerate
  (2) There are no thermally accessible electronically excited states
  (3) Hindered rotations indicated by low frequency modes) are not
      treated as such but are treated as vibrations and this may
      case some error
  (4) All equations used are the standard statistical mechanics
      equations for an ideal gas
  (5) All vibrations are strinctly harmonic

------------
INNER ENERGY
------------

The inner energy is: U= E(el) + E(ZPE) + E(vib) + E(rot) + E(trans)
    E(el)   - is the total energy from the electronic structure calculation
              = E(kin-el) + E(nuc-el) + E(el-el) + E(nuc-nuc)
    E(ZPE)  - the the zero temperature vibrational energy from the frequency calculation
    E(vib)  - the the finite temperature correction to E(ZPE) due to population
              of excietd vibrational states
    E(rot)  - is the rotational thermal energy
    E(trans)- is the translational thermal energy

Summary of contributions to the inner energy U:
Electronic energy                ...   -252.02373748 Eh
Zero point energy                ...      0.16947028 Eh     106.34 kcal/mol
Thermal vibrational correction   ...      0.00448101 Eh       2.81 kcal/mol
Thermal rotational correction    ...      0.00141627 Eh       0.89 kcal/mol
Thermal translational correction ...      0.00141627 Eh       0.89 kcal/mol
-----------------------------------------------------------------------
Total thermal energy                   -251.84695365 Eh

Summary of corrections to the electronic energy:
(perhaps to be used in another calculation)
Total thermal correction                  0.00731355 Eh       4.59 kcal/mol
Non-thermal (ZPE) correction              0.16947028 Eh     106.34 kcal/mol
-----------------------------------------------------------------------
Total correction                          0.17678383 Eh     110.93 kcal/mol

--------
ENTHALPY
--------

The enthalpy is H = U + kB*T
                kB is Boltzmann's constant
Total free energy                 ...   -251.84695365 Eh
Thermal Enthalpy correction       ...      0.00094421 Eh       0.59 kcal/mol
-----------------------------------------------------------------------
Total Enthalpy                    ...   -251.84600944 Eh

-------
ENTROPY
-------

The entropy contributions are T*S = T*(S(el)+S(vib)+S(rot)+S(trans)
     S(el)   - electronic entropy
     S(vib)  - vibrational entropy
     S(rot)  - rotational entropy
     S(trans)- translational entropy
The entropies will be listed as mutliplied by the temperature to get
units of energy

Electronic entropy                ...      0.00000000 Eh      0.00 kcal/mol
Vibrational entropy               ...      0.00773652 Eh      4.85 kcal/mol
Rotational entropy                ...      0.01174286 Eh      7.37 kcal/mol
Translational entropy             ...      0.01866024 Eh     11.71 kcal/mol
-----------------------------------------------------------------------
Final entropy term                ...      0.03813962 Eh     23.93 kcal/mol

CAUTION: The rotational entropy is not quite correctly treated here
         because it includes a symmetry number that is not yet correctly
         implemented in ORCA!
For a nonlinear molecule the correct rotational entropy is:
    S(rot) = R*(ln(qrot/sn)+1.5)
    R    = 8.31441 J/mol/K = 1.987191683e-3 kcal/mol/K
    qrot = 168670.2266250
    sn is the rotational symmetry number. We have assumed 3 here
       if it is different for your molecule then you should correct
       the printed rotational entropy by manually evaluating the equation
       as given above

For convenience we print out the resulting values for sn=1 - 12:
 sn= 1  qrot/sn=  168670.2266 T*S(rot)=     8.02 kcal/mol T*S(tot)=    24.58 kcal/mol
 sn= 2  qrot/sn=   84335.1133 T*S(rot)=     7.61 kcal/mol T*S(tot)=    24.17 kcal/mol
 sn= 3  qrot/sn=   56223.4089 T*S(rot)=     7.37 kcal/mol T*S(tot)=    23.93 kcal/mol
 sn= 4  qrot/sn=   42167.5567 T*S(rot)=     7.20 kcal/mol T*S(tot)=    23.76 kcal/mol
 sn= 5  qrot/sn=   33734.0453 T*S(rot)=     7.07 kcal/mol T*S(tot)=    23.63 kcal/mol
 sn= 6  qrot/sn=   28111.7044 T*S(rot)=     6.96 kcal/mol T*S(tot)=    23.52 kcal/mol
 sn= 7  qrot/sn=   24095.7467 T*S(rot)=     6.87 kcal/mol T*S(tot)=    23.43 kcal/mol
 sn= 8  qrot/sn=   21083.7783 T*S(rot)=     6.79 kcal/mol T*S(tot)=    23.35 kcal/mol
 sn= 9  qrot/sn=   18741.1363 T*S(rot)=     6.72 kcal/mol T*S(tot)=    23.28 kcal/mol
 sn=10  qrot/sn=   16867.0227 T*S(rot)=     6.66 kcal/mol T*S(tot)=    23.22 kcal/mol
 sn=11  qrot/sn=   15333.6570 T*S(rot)=     6.60 kcal/mol T*S(tot)=    23.16 kcal/mol
 sn=12  qrot/sn=   14055.8522 T*S(rot)=     6.55 kcal/mol T*S(tot)=    23.11 kcal/mol

-------------------
GIBBS FREE ENTHALPY
-------------------

The Gibbs free enthalpy is G = H - T*S

Total enthalpy                    ...   -251.84600944 Eh
Total entropy correction          ...     -0.03813962 Eh    -23.93 kcal/mol
-----------------------------------------------------------------------
Final Gibbs free enthalpy         ...   -251.88414906 Eh

For completeness - the Gibbs free enthalpy minus the electronic energy
G-E(el)                           ...      0.13958842 Eh     87.59 kcal/mol

                             ****ORCA TERMINATED NORMALLY****
TOTAL RUN TIME: 0 days 0 hours 22 minutes 0 seconds 956 msec
