                         Program Version 3.0.3 - RELEASE   -
|  1> ! NORI PBE0 def2-TZVP UseSym TightOPT Freq TightSCF Grid3 FinalGrid5 XYZFile
|  2> % pal
|  3>     nprocs 8
|  4> end
|  5> %method
|  6>     SymThresh 5.0e-2
|  7> end
|  8> % geom
|  9>     MaxIter 10
| 10> end
| 11> % maxcore 2000
| 12> % output
| 13>     printlevel mini
| 14>     print[ P_Basis ] 0
| 15>     print[ P_SCFInfo ] 1
| 16>     print[ P_SCFIterInfo ] 1
| 17>     print[ P_OrbEn ] 0
| 18>     print[ P_Cartesian ] 0
| 19> end
| 20> % elprop
| 21>     Dipole false
| 22> end
| 23> *xyz 1 1
| 24>  C        3.3064773627     0.6365104314    -1.0916529803
| 25>  C        2.4977885212    -0.0259959865     0.0123117213
| 26>  C        3.1521721258    -1.2840097576     0.5358573837
| 27>  C        2.3719432105    -2.1470410390     1.5413314404
| 28>  N        2.7883649242    -3.3954891324     0.7837900761
| 29>  C        3.1937416726    -2.5163959519    -0.3864389935
| 30>  H        2.8058391806     1.5375504013    -1.4459678929
| 31>  H        3.4352056377    -0.0243625217    -1.9534035255
| 32>  H        4.2986311169     0.9260724361    -0.7387318397
| 33>  H        1.4915758391    -0.2694007196    -0.3487681005
| 34>  H        2.3658239303     0.6698707898     0.8468253005
| 35>  H        4.1530062014    -1.0631894083     0.9171472982
| 36>  H        1.2903641280    -2.0376802403     1.4607002491
| 37>  H        2.6747416980    -2.1666595064     2.5859513814
| 38>  H        3.5847336781    -3.8637879932     1.2134010143
| 39>  H        2.0665143711    -4.0930881176     0.6087066527
| 40>  H        4.1328883904    -2.8260569058    -0.8386689980
| 41>  H        2.3915480113    -2.5331567784    -1.1248001874
| 42> *
| 43>
| 44>                          ****END OF INPUT****
 Total Charge           Charge          ....    1
 Multiplicity           Mult            ....    1
 Number of Electrons    NEL             ....   48
FINAL SINGLE POINT ENERGY      -252.030641514166
FINAL SINGLE POINT ENERGY      -252.030642789643

CARTESIAN COORDINATES (ANGSTROEM)
---------------------------------
  C      0.741853   -0.000900   -2.416011
  C     -0.372763   -0.330117   -1.436715
  C     -0.212410    0.385406   -0.115025
  C     -1.171527    0.024453    1.031601
  N      0.000840    0.000115    1.996345
  C      0.943362   -0.046581    0.806288
  H      0.596918   -0.532880   -3.356498
  H      1.722930   -0.289716   -2.027892
  H      0.770671    1.067806   -2.640967
  H     -0.412577   -1.410969   -1.256999
  H     -1.340399   -0.053052   -1.866554
  H     -0.189424    1.468185   -0.267775
  H     -1.578835   -0.983275    0.956282
  H     -1.947548    0.726236    1.328763
  H      0.086365    0.866238    2.526170
  H      0.044737   -0.778436    2.652249
  H      1.809823    0.598551    0.931253
  H      1.256717   -1.079110    0.653661

FINAL SINGLE POINT ENERGY      -252.030643402705
                    ***********************HURRAY********************
 Multiplicity           Mult            ....    1
 Number of Electrons    NEL             ....   48
 Basis Dimension        Dim             ....  258
FINAL SINGLE POINT ENERGY      -252.030643656802

VIBRATIONAL FREQUENCIES
-----------------------

   0:         0.00 cm**-1
   1:         0.00 cm**-1
   2:         0.00 cm**-1
   3:         0.00 cm**-1
   4:         0.00 cm**-1
   5:         0.00 cm**-1
   6:       100.56 cm**-1
   7:       118.08 cm**-1
   8:       196.74 cm**-1
   9:       242.66 cm**-1
  10:       395.65 cm**-1
  11:       407.90 cm**-1
  12:       652.51 cm**-1
  13:       777.32 cm**-1
  14:       805.17 cm**-1
  15:       824.55 cm**-1
  16:       886.54 cm**-1
  17:       904.03 cm**-1
  18:       946.05 cm**-1
  19:       972.19 cm**-1
  20:       992.74 cm**-1
  21:      1024.26 cm**-1
  22:      1051.55 cm**-1
  23:      1125.23 cm**-1
  24:      1151.46 cm**-1
  25:      1205.77 cm**-1
  26:      1247.45 cm**-1
  27:      1279.13 cm**-1
  28:      1289.45 cm**-1
  29:      1305.36 cm**-1
  30:      1320.70 cm**-1
  31:      1321.38 cm**-1
  32:      1337.16 cm**-1
  33:      1363.13 cm**-1
  34:      1410.02 cm**-1
  35:      1419.20 cm**-1
  36:      1478.11 cm**-1
  37:      1482.87 cm**-1
  38:      1494.50 cm**-1
  39:      1495.29 cm**-1
  40:      1503.05 cm**-1
  41:      1648.95 cm**-1
  42:      3039.90 cm**-1
  43:      3052.25 cm**-1
  44:      3078.87 cm**-1
  45:      3091.90 cm**-1
  46:      3114.10 cm**-1
  47:      3117.77 cm**-1
  48:      3124.08 cm**-1
  49:      3148.61 cm**-1
  50:      3190.22 cm**-1
  51:      3191.16 cm**-1
  52:      3471.39 cm**-1
  53:      3538.85 cm**-1

IR SPECTRUM
-----------

 Mode    freq (cm**-1)   T**2         TX         TY         TZ
-------------------------------------------------------------------
   6:       100.56    1.685454  (  0.576876  -0.965594  -0.648303)
   7:       118.08    2.772033  (  0.469733   1.512825  -0.512587)
   8:       196.74    0.871141  ( -0.599095  -0.008069   0.715654)
   9:       242.66    0.034400  ( -0.171436  -0.049391  -0.050701)
  10:       395.65    1.965968  (  0.112305   0.172518   1.386936)
  11:       407.90    0.424264  ( -0.131302   0.444032  -0.458104)
  12:       652.51    4.008760  ( -0.381290   1.878176  -0.579512)
  13:       777.32    2.503878  ( -1.101042  -0.093187  -1.132652)
  14:       805.17    3.970363  (  0.129905  -1.981721  -0.162078)
  15:       824.55    3.415810  ( -1.689747   0.204550   0.720226)
  16:       886.54    8.390305  ( -0.105650   2.094055  -1.998518)
  17:       904.03    1.747884  ( -1.239854  -0.025383   0.458259)
  18:       946.05    2.521100  ( -0.080191  -0.672056   1.436318)
  19:       972.19    2.921183  ( -1.300375  -0.224820  -1.086124)
  20:       992.74    6.959691  ( -0.169991  -0.736571  -2.527500)
  21:      1024.26    0.380512  ( -0.146126   0.592006   0.093211)
  22:      1051.55    0.525002  ( -0.156271  -0.026449   0.707023)
  23:      1125.23    0.861581  ( -0.274601   0.584171   0.667023)
  24:      1151.46    0.973993  (  0.624123  -0.070607  -0.761234)
  25:      1205.77    0.643057  (  0.072198   0.797287  -0.046669)
  26:      1247.45   33.204818  ( -5.737163   0.032884   0.537306)
  27:      1279.13    3.812027  ( -1.429012   1.330267   0.018479)
  28:      1289.45    9.911302  ( -3.077678  -0.621499   0.230082)
  29:      1305.36    2.136212  (  1.151358  -0.517754  -0.736557)
  30:      1320.70    4.568498  ( -2.124360   0.094574   0.215981)
  31:      1321.38   19.080818  ( -4.323936  -0.205912   0.584803)
  32:      1337.16   10.262878  (  3.073284  -0.890452   0.157786)
  33:      1363.13    2.296022  ( -0.476156  -0.340045   1.397736)
  34:      1410.02    1.095759  (  0.312969   0.390437  -0.919439)
  35:      1419.20    4.532674  ( -1.759356  -0.520897   1.079819)
  36:      1478.11    7.500092  ( -2.453844  -0.430263   1.137372)
  37:      1482.87    9.179337  ( -3.018709   0.218939  -0.137111)
  38:      1494.50    9.019871  (  0.606502  -2.931737  -0.238625)
  39:      1495.29   10.000076  (  2.068809  -1.042577   2.152473)
  40:      1503.05   10.556247  (  1.072135   3.023895  -0.512675)
  41:      1648.95   59.319208  (  0.798824   0.609394   7.636081)
  42:      3039.90   10.446185  ( -1.651880  -2.557983   1.083606)
  43:      3052.25   12.954725  ( -3.316427  -1.261988   0.602846)
  44:      3078.87    3.475723  ( -1.452779  -1.126630  -0.309612)
  45:      3091.90    3.974817  ( -0.647172   1.885662   0.016235)
  46:      3114.10    0.878276  ( -0.851854  -0.012561   0.390465)
  47:      3117.77    0.777710  ( -0.552257  -0.657659   0.200516)
  48:      3124.08   22.695565  ( -2.527103   3.324006  -2.293534)
  49:      3148.61    6.626639  (  0.702890   1.886389   1.604406)
  50:      3190.22    0.356800  (  0.590281  -0.049717  -0.076789)
  51:      3191.16    0.014796  ( -0.116495   0.013005  -0.032495)
  52:      3471.39   70.468809  (  0.791198   0.133936   8.356128)
  53:      3538.85   86.638716  (  0.284884   9.303453   0.057662)

--------------------------
THERMOCHEMISTRY AT 298.15K
--------------------------

Temperature         ... 298.15 K
Pressure            ... 1.00 atm
Total Mass          ... 86.16 AMU

Throughout the following assumptions are being made:
  (1) The electronic state is orbitally nondegenerate
  (2) There are no thermally accessible electronically excited states
  (3) Hindered rotations indicated by low frequency modes) are not
      treated as such but are treated as vibrations and this may
      case some error
  (4) All equations used are the standard statistical mechanics
      equations for an ideal gas
  (5) All vibrations are strinctly harmonic

------------
INNER ENERGY
------------

The inner energy is: U= E(el) + E(ZPE) + E(vib) + E(rot) + E(trans)
    E(el)   - is the total energy from the electronic structure calculation
              = E(kin-el) + E(nuc-el) + E(el-el) + E(nuc-nuc)
    E(ZPE)  - the the zero temperature vibrational energy from the frequency calculation
    E(vib)  - the the finite temperature correction to E(ZPE) due to population
              of excietd vibrational states
    E(rot)  - is the rotational thermal energy
    E(trans)- is the translational thermal energy

Summary of contributions to the inner energy U:
Electronic energy                ...   -252.03064366 Eh
Zero point energy                ...      0.17162756 Eh     107.70 kcal/mol
Thermal vibrational correction   ...      0.00396636 Eh       2.49 kcal/mol
Thermal rotational correction    ...      0.00141627 Eh       0.89 kcal/mol
Thermal translational correction ...      0.00141627 Eh       0.89 kcal/mol
-----------------------------------------------------------------------
Total thermal energy                   -251.85221720 Eh

Summary of corrections to the electronic energy:
(perhaps to be used in another calculation)
Total thermal correction                  0.00679890 Eh       4.27 kcal/mol
Non-thermal (ZPE) correction              0.17162756 Eh     107.70 kcal/mol
-----------------------------------------------------------------------
Total correction                          0.17842646 Eh     111.96 kcal/mol

--------
ENTHALPY
--------

The enthalpy is H = U + kB*T
                kB is Boltzmann's constant
Total free energy                 ...   -251.85221720 Eh
Thermal Enthalpy correction       ...      0.00094421 Eh       0.59 kcal/mol
-----------------------------------------------------------------------
Total Enthalpy                    ...   -251.85127299 Eh

-------
ENTROPY
-------

The entropy contributions are T*S = T*(S(el)+S(vib)+S(rot)+S(trans)
     S(el)   - electronic entropy
     S(vib)  - vibrational entropy
     S(rot)  - rotational entropy
     S(trans)- translational entropy
The entropies will be listed as mutliplied by the temperature to get
units of energy

Electronic entropy                ...      0.00000000 Eh      0.00 kcal/mol
Vibrational entropy               ...      0.00695833 Eh      4.37 kcal/mol
Rotational entropy                ...      0.01164145 Eh      7.31 kcal/mol
Translational entropy             ...      0.01866024 Eh     11.71 kcal/mol
-----------------------------------------------------------------------
Final entropy term                ...      0.03726001 Eh     23.38 kcal/mol

CAUTION: The rotational entropy is not quite correctly treated here
         because it includes a symmetry number that is not yet correctly
         implemented in ORCA!
For a nonlinear molecule the correct rotational entropy is:
    S(rot) = R*(ln(qrot/sn)+1.5)
    R    = 8.31441 J/mol/K = 1.987191683e-3 kcal/mol/K
    qrot = 151493.1082773
    sn is the rotational symmetry number. We have assumed 3 here
       if it is different for your molecule then you should correct
       the printed rotational entropy by manually evaluating the equation
       as given above

For convenience we print out the resulting values for sn=1 - 12:
 sn= 1  qrot/sn=  151493.1083 T*S(rot)=     7.96 kcal/mol T*S(tot)=    24.03 kcal/mol
 sn= 2  qrot/sn=   75746.5541 T*S(rot)=     7.55 kcal/mol T*S(tot)=    23.62 kcal/mol
 sn= 3  qrot/sn=   50497.7028 T*S(rot)=     7.31 kcal/mol T*S(tot)=    23.38 kcal/mol
 sn= 4  qrot/sn=   37873.2771 T*S(rot)=     7.13 kcal/mol T*S(tot)=    23.21 kcal/mol
 sn= 5  qrot/sn=   30298.6217 T*S(rot)=     7.00 kcal/mol T*S(tot)=    23.08 kcal/mol
 sn= 6  qrot/sn=   25248.8514 T*S(rot)=     6.89 kcal/mol T*S(tot)=    22.97 kcal/mol
 sn= 7  qrot/sn=   21641.8726 T*S(rot)=     6.80 kcal/mol T*S(tot)=    22.88 kcal/mol
 sn= 8  qrot/sn=   18936.6385 T*S(rot)=     6.72 kcal/mol T*S(tot)=    22.80 kcal/mol
 sn= 9  qrot/sn=   16832.5676 T*S(rot)=     6.65 kcal/mol T*S(tot)=    22.73 kcal/mol
 sn=10  qrot/sn=   15149.3108 T*S(rot)=     6.59 kcal/mol T*S(tot)=    22.67 kcal/mol
 sn=11  qrot/sn=   13772.1008 T*S(rot)=     6.54 kcal/mol T*S(tot)=    22.61 kcal/mol
 sn=12  qrot/sn=   12624.4257 T*S(rot)=     6.48 kcal/mol T*S(tot)=    22.56 kcal/mol

-------------------
GIBBS FREE ENTHALPY
-------------------

The Gibbs free enthalpy is G = H - T*S

Total enthalpy                    ...   -251.85127299 Eh
Total entropy correction          ...     -0.03726001 Eh    -23.38 kcal/mol
-----------------------------------------------------------------------
Final Gibbs free enthalpy         ...   -251.88853300 Eh

For completeness - the Gibbs free enthalpy minus the electronic energy
G-E(el)                           ...      0.14211066 Eh     89.18 kcal/mol

                             ****ORCA TERMINATED NORMALLY****
TOTAL RUN TIME: 0 days 0 hours 22 minutes 41 seconds 139 msec
