                         Program Version 3.0.3 - RELEASE   -
|  1> ! NORI PBE0 def2-TZVP UseSym TightOPT Freq TightSCF Grid3 FinalGrid5 XYZFile
|  2> % pal
|  3>     nprocs 8
|  4> end
|  5> %method
|  6>     SymThresh 5.0e-2
|  7> end
|  8> % geom
|  9>     MaxIter 10
| 10> end
| 11> % maxcore 2000
| 12> % output
| 13>     printlevel mini
| 14>     print[ P_Basis ] 0
| 15>     print[ P_SCFInfo ] 1
| 16>     print[ P_SCFIterInfo ] 1
| 17>     print[ P_OrbEn ] 0
| 18>     print[ P_Cartesian ] 0
| 19> end
| 20> % elprop
| 21>     Dipole false
| 22> end
| 23> *xyz 1 1
| 24>  C        2.5777359871    -0.6706224543    -0.9501536541
| 25>  C        2.1310519521     0.2641091301    -0.1244137665
| 26>  C        3.0162593300     1.1912615132     0.6244170670
| 27>  C        2.7292241183     2.7049321313     0.5319461386
| 28>  N        2.9466620294     2.8334159467     2.0290027224
| 29>  C        2.8023796266     1.3268003240     2.1464477541
| 30>  H        1.8971518644    -1.3276212144    -1.4773552370
| 31>  H        3.6379860696    -0.8154658522    -1.1314909398
| 32>  H        1.0603193349     0.3826366613     0.0353285559
| 33>  H        4.0650574730     0.9844259656     0.3998056066
| 34>  H        1.6877380676     2.9346583557     0.3118273071
| 35>  H        3.3913459235     3.3400471730    -0.0518371760
| 36>  H        2.2807212814     3.4047683347     2.5469611263
| 37>  H        3.8860975199     3.1533799396     2.2598115372
| 38>  H        3.5206610138     0.8803393606     2.8302291369
| 39>  H        1.7844384085     1.1000846850     2.4606638213
| 40> *
| 41>
| 42>                          ****END OF INPUT****
 Total Charge           Charge          ....    1
 Multiplicity           Mult            ....    1
 Number of Electrons    NEL             ....   46
FINAL SINGLE POINT ENERGY      -250.795509598452

CARTESIAN COORDINATES (ANGSTROEM)
---------------------------------
  C     -2.622939    0.184343    0.000000
  C     -1.438424   -0.408821   -0.000000
  C     -0.149353    0.327760   -0.000000
  C      0.904009   -0.051820    1.061996
  N      1.987680    0.000203    0.000000
  C      0.904009   -0.051820   -1.061996
  H     -3.540286   -0.391181    0.000000
  H     -2.722148    1.265194    0.000000
  H     -1.374330   -1.495789   -0.000000
  H     -0.324487    1.405932   -0.000000
  H      0.812385   -1.078801    1.413446
  H      1.089979    0.621325    1.895723
  H      2.673468   -0.753435    0.000000
  H      2.490345    0.886670    0.000000
  H      1.089980    0.621325   -1.895723
  H      0.812385   -1.078801   -1.413446

FINAL SINGLE POINT ENERGY      -250.795509776687
                    ***********************HURRAY********************
 Multiplicity           Mult            ....    1
 Number of Electrons    NEL             ....   46
 Basis Dimension        Dim             ....  246
FINAL SINGLE POINT ENERGY      -250.795509807057

VIBRATIONAL FREQUENCIES
-----------------------

   0:         0.00 cm**-1
   1:         0.00 cm**-1
   2:         0.00 cm**-1
   3:         0.00 cm**-1
   4:         0.00 cm**-1
   5:         0.00 cm**-1
   6:        99.32 cm**-1
   7:       122.55 cm**-1
   8:       290.44 cm**-1
   9:       306.52 cm**-1
  10:       444.01 cm**-1
  11:       663.39 cm**-1
  12:       669.35 cm**-1
  13:       805.18 cm**-1
  14:       827.00 cm**-1
  15:       889.99 cm**-1
  16:       901.54 cm**-1
  17:       953.38 cm**-1
  18:       989.78 cm**-1
  19:      1003.75 cm**-1
  20:      1009.16 cm**-1
  21:      1023.17 cm**-1
  22:      1073.21 cm**-1
  23:      1110.78 cm**-1
  24:      1223.08 cm**-1
  25:      1243.75 cm**-1
  26:      1279.90 cm**-1
  27:      1286.01 cm**-1
  28:      1311.40 cm**-1
  29:      1317.62 cm**-1
  30:      1321.34 cm**-1
  31:      1334.12 cm**-1
  32:      1371.42 cm**-1
  33:      1465.64 cm**-1
  34:      1479.76 cm**-1
  35:      1499.43 cm**-1
  36:      1650.04 cm**-1
  37:      1726.69 cm**-1
  38:      3099.12 cm**-1
  39:      3117.16 cm**-1
  40:      3120.72 cm**-1
  41:      3150.24 cm**-1
  42:      3163.47 cm**-1
  43:      3193.81 cm**-1
  44:      3194.65 cm**-1
  45:      3257.94 cm**-1
  46:      3471.30 cm**-1
  47:      3538.38 cm**-1

IR SPECTRUM
-----------

 Mode    freq (cm**-1)   T**2         TX         TY         TZ
-------------------------------------------------------------------
   6:        99.32    2.113348  ( -0.000020   0.000002   1.453736)
   7:       122.55    3.738091  (  0.285690  -1.912190   0.000004)
   8:       290.44    0.569694  ( -0.000001   0.000001   0.754781)
   9:       306.52    0.130755  (  0.136306   0.334927   0.000002)
  10:       444.01    2.789771  (  1.668611  -0.074220  -0.000001)
  11:       663.39    3.956922  ( -0.100692  -1.986651  -0.000077)
  12:       669.35   15.436595  (  0.000036   0.000022  -3.928943)
  13:       805.18    2.175097  (  0.450943   1.404189   0.000010)
  14:       827.00    1.000323  ( -0.000000   0.000056  -1.000161)
  15:       889.99    7.381113  ( -1.758702   2.070768  -0.000012)
  16:       901.54    1.691825  ( -0.000030   0.000031   1.300702)
  17:       953.38    5.333219  ( -2.308493   0.063854   0.000013)
  18:       989.78    2.709438  (  0.000039  -0.000000  -1.646037)
  19:      1003.75    7.679994  ( -2.765302  -0.181924  -0.000051)
  20:      1009.16   55.084821  ( -0.000050   0.000036   7.421915)
  21:      1023.17    2.678251  ( -0.000017   0.000033   1.636536)
  22:      1073.21    0.821085  (  0.000011   0.000015  -0.906137)
  23:      1110.78    1.660503  ( -0.222982   1.269166   0.000002)
  24:      1223.08    0.531666  ( -0.592664   0.424754  -0.000039)
  25:      1243.75   31.269552  (  0.000021   0.000007  -5.591918)
  26:      1279.90    8.924826  (  0.000013   0.000004   2.987445)
  27:      1286.01    2.746213  (  0.294527   1.630787   0.000129)
  28:      1311.40    0.307769  ( -0.510477   0.217215  -0.000099)
  29:      1317.62    3.720435  ( -0.000013  -0.000004   1.928843)
  30:      1321.34   36.108569  ( -0.000003  -0.000017   6.009041)
  31:      1334.12    5.883628  (  1.783071  -1.644472   0.000006)
  32:      1371.42    0.013840  ( -0.106072  -0.050884   0.000002)
  33:      1465.64   11.464893  ( -2.870196   1.796349   0.000006)
  34:      1479.76   13.289489  ( -0.000019   0.000041  -3.645475)
  35:      1499.43    7.576001  (  1.252016  -2.451216  -0.000047)
  36:      1650.04   61.053929  ( -7.766171  -0.860530  -0.000001)
  37:      1726.69    0.309847  (  0.101861   0.547240   0.000014)
  38:      3099.12    1.654612  ( -0.711975  -1.071309   0.000001)
  39:      3117.16    0.638605  ( -0.000031   0.000027   0.799127)
  40:      3120.72    0.678628  ( -0.419335   0.709074  -0.000025)
  41:      3150.24    4.217017  ( -0.215072   2.042244   0.000003)
  42:      3163.47    0.596963  (  0.436790   0.637321  -0.000004)
  43:      3193.81    0.416075  (  0.000001   0.000025   0.645039)
  44:      3194.65    0.106223  ( -0.124585   0.301168  -0.000054)
  45:      3257.94    0.387299  (  0.241780  -0.573447   0.000000)
  46:      3471.30   79.433541  (  8.899871   0.475217  -0.000000)
  47:      3538.38   87.913566  ( -0.457194   9.365070   0.000000)

--------------------------
THERMOCHEMISTRY AT 298.15K
--------------------------

Temperature         ... 298.15 K
Pressure            ... 1.00 atm
Total Mass          ... 84.14 AMU

Throughout the following assumptions are being made:
  (1) The electronic state is orbitally nondegenerate
  (2) There are no thermally accessible electronically excited states
  (3) Hindered rotations indicated by low frequency modes) are not
      treated as such but are treated as vibrations and this may
      case some error
  (4) All equations used are the standard statistical mechanics
      equations for an ideal gas
  (5) All vibrations are strinctly harmonic

------------
INNER ENERGY
------------

The inner energy is: U= E(el) + E(ZPE) + E(vib) + E(rot) + E(trans)
    E(el)   - is the total energy from the electronic structure calculation
              = E(kin-el) + E(nuc-el) + E(el-el) + E(nuc-nuc)
    E(ZPE)  - the the zero temperature vibrational energy from the frequency calculation
    E(vib)  - the the finite temperature correction to E(ZPE) due to population
              of excietd vibrational states
    E(rot)  - is the rotational thermal energy
    E(trans)- is the translational thermal energy

Summary of contributions to the inner energy U:
Electronic energy                ...   -250.79550981 Eh
Zero point energy                ...      0.14807980 Eh      92.92 kcal/mol
Thermal vibrational correction   ...      0.00341606 Eh       2.14 kcal/mol
Thermal rotational correction    ...      0.00141627 Eh       0.89 kcal/mol
Thermal translational correction ...      0.00141627 Eh       0.89 kcal/mol
-----------------------------------------------------------------------
Total thermal energy                   -250.64118140 Eh

Summary of corrections to the electronic energy:
(perhaps to be used in another calculation)
Total thermal correction                  0.00624860 Eh       3.92 kcal/mol
Non-thermal (ZPE) correction              0.14807980 Eh      92.92 kcal/mol
-----------------------------------------------------------------------
Total correction                          0.15432840 Eh      96.84 kcal/mol

--------
ENTHALPY
--------

The enthalpy is H = U + kB*T
                kB is Boltzmann's constant
Total free energy                 ...   -250.64118140 Eh
Thermal Enthalpy correction       ...      0.00094421 Eh       0.59 kcal/mol
-----------------------------------------------------------------------
Total Enthalpy                    ...   -250.64023719 Eh

-------
ENTROPY
-------

The entropy contributions are T*S = T*(S(el)+S(vib)+S(rot)+S(trans)
     S(el)   - electronic entropy
     S(vib)  - vibrational entropy
     S(rot)  - rotational entropy
     S(trans)- translational entropy
The entropies will be listed as mutliplied by the temperature to get
units of energy

Electronic entropy                ...      0.00000000 Eh      0.00 kcal/mol
Vibrational entropy               ...      0.00592587 Eh      3.72 kcal/mol
Rotational entropy                ...      0.01154981 Eh      7.25 kcal/mol
Translational entropy             ...      0.01862670 Eh     11.69 kcal/mol
-----------------------------------------------------------------------
Final entropy term                ...      0.03610238 Eh     22.65 kcal/mol

CAUTION: The rotational entropy is not quite correctly treated here
         because it includes a symmetry number that is not yet correctly
         implemented in ORCA!
For a nonlinear molecule the correct rotational entropy is:
    S(rot) = R*(ln(qrot/sn)+1.5)
    R    = 8.31441 J/mol/K = 1.987191683e-3 kcal/mol/K
    qrot = 137480.7418495
    sn is the rotational symmetry number. We have assumed 3 here
       if it is different for your molecule then you should correct
       the printed rotational entropy by manually evaluating the equation
       as given above

For convenience we print out the resulting values for sn=1 - 12:
 sn= 1  qrot/sn=  137480.7418 T*S(rot)=     7.90 kcal/mol T*S(tot)=    23.31 kcal/mol
 sn= 2  qrot/sn=   68740.3709 T*S(rot)=     7.49 kcal/mol T*S(tot)=    22.89 kcal/mol
 sn= 3  qrot/sn=   45826.9139 T*S(rot)=     7.25 kcal/mol T*S(tot)=    22.65 kcal/mol
 sn= 4  qrot/sn=   34370.1855 T*S(rot)=     7.08 kcal/mol T*S(tot)=    22.48 kcal/mol
 sn= 5  qrot/sn=   27496.1484 T*S(rot)=     6.94 kcal/mol T*S(tot)=    22.35 kcal/mol
 sn= 6  qrot/sn=   22913.4570 T*S(rot)=     6.84 kcal/mol T*S(tot)=    22.24 kcal/mol
 sn= 7  qrot/sn=   19640.1060 T*S(rot)=     6.75 kcal/mol T*S(tot)=    22.15 kcal/mol
 sn= 8  qrot/sn=   17185.0927 T*S(rot)=     6.67 kcal/mol T*S(tot)=    22.07 kcal/mol
 sn= 9  qrot/sn=   15275.6380 T*S(rot)=     6.60 kcal/mol T*S(tot)=    22.00 kcal/mol
 sn=10  qrot/sn=   13748.0742 T*S(rot)=     6.53 kcal/mol T*S(tot)=    21.94 kcal/mol
 sn=11  qrot/sn=   12498.2493 T*S(rot)=     6.48 kcal/mol T*S(tot)=    21.88 kcal/mol
 sn=12  qrot/sn=   11456.7285 T*S(rot)=     6.43 kcal/mol T*S(tot)=    21.83 kcal/mol

-------------------
GIBBS FREE ENTHALPY
-------------------

The Gibbs free enthalpy is G = H - T*S

Total enthalpy                    ...   -250.64023719 Eh
Total entropy correction          ...     -0.03610238 Eh    -22.65 kcal/mol
-----------------------------------------------------------------------
Final Gibbs free enthalpy         ...   -250.67633958 Eh

For completeness - the Gibbs free enthalpy minus the electronic energy
G-E(el)                           ...      0.11917023 Eh     74.78 kcal/mol

                             ****ORCA TERMINATED NORMALLY****
TOTAL RUN TIME: 0 days 0 hours 16 minutes 46 seconds 566 msec
