                         Program Version 3.0.3 - RELEASE   -
|  1> ! NORI PBE0 def2-TZVP UseSym TightOPT Freq TightSCF Grid3 FinalGrid5 XYZFile
|  2> % pal
|  3>     nprocs 8
|  4> end
|  5> %method
|  6>     SymThresh 5.0e-2
|  7> end
|  8> % geom
|  9>     MaxIter 10
| 10> end
| 11> % maxcore 2000
| 12> % output
| 13>     printlevel mini
| 14>     print[ P_Basis ] 0
| 15>     print[ P_SCFInfo ] 1
| 16>     print[ P_SCFIterInfo ] 1
| 17>     print[ P_OrbEn ] 0
| 18>     print[ P_Cartesian ] 0
| 19> end
| 20> % elprop
| 21>     Dipole false
| 22> end
| 23> *xyz 1 1
| 24>  C        0.9241639499     0.0712096317     0.1169961982
| 25>  C        2.1208152917     0.0892531363     0.0578384099
| 26>  C        3.5597851658     0.1101854407    -0.0005428342
| 27>  C        4.2979641732     1.1586957699     0.8616280210
| 28>  N        5.2745817025     0.0876414792     1.3132126805
| 29>  C        4.3249392825    -0.9747327594     0.7901585018
| 30>  H       -0.1420844173     0.0549474174     0.1622966553
| 31>  H        3.9028037804     0.1496063937    -1.0382827535
| 32>  H        3.7182928706     1.4944772892     1.7186330563
| 33>  H        4.7843988770     1.9967607822     0.3682908565
| 34>  H        6.1549669191     0.1161362662     0.8005948947
| 35>  H        5.4894639529     0.0567954305     2.3088798809
| 36>  H        4.8312969970    -1.7665926136     0.2433055779
| 37>  H        3.7535214547    -1.3798036640     1.6223208548
| 38> *
| 39>
| 40>                          ****END OF INPUT****
 Total Charge           Charge          ....    1
 Multiplicity           Mult            ....    1
 Number of Electrons    NEL             ....   44
FINAL SINGLE POINT ENERGY      -249.537828157833

CARTESIAN COORDINATES (ANGSTROEM)
---------------------------------
  C     -2.569534   -0.607061   -0.000036
  C     -1.491819   -0.083102    0.000079
  C     -0.191040    0.535358    0.000038
  C      0.824690    0.070050    1.067451
  N      1.901669    0.000419   -0.000013
  C      0.824632    0.070025   -1.067419
  H     -3.532634   -1.066798   -0.000139
  H     -0.282965    1.625178    0.000027
  H      0.627149   -0.933537    1.437940
  H      1.076793    0.743683    1.882785
  H      2.509900    0.818433   -0.000039
  H      2.490407   -0.831347   -0.000019
  H      1.076691    0.743638   -1.882783
  H      0.627071   -0.933571   -1.437874

FINAL SINGLE POINT ENERGY      -249.537828409034
                    ***********************HURRAY********************
 Multiplicity           Mult            ....    1
 Number of Electrons    NEL             ....   44
 Basis Dimension        Dim             ....  234
FINAL SINGLE POINT ENERGY      -249.537827924819

VIBRATIONAL FREQUENCIES
-----------------------

   0:         0.00 cm**-1
   1:         0.00 cm**-1
   2:         0.00 cm**-1
   3:         0.00 cm**-1
   4:         0.00 cm**-1
   5:         0.00 cm**-1
   6:       101.57 cm**-1
   7:       168.00 cm**-1
   8:       232.26 cm**-1
   9:       491.88 cm**-1
  10:       505.75 cm**-1
  11:       633.06 cm**-1
  12:       733.08 cm**-1
  13:       747.02 cm**-1
  14:       799.99 cm**-1
  15:       828.80 cm**-1
  16:       889.12 cm**-1
  17:       905.53 cm**-1
  18:       958.01 cm**-1
  19:       989.90 cm**-1
  20:      1073.52 cm**-1
  21:      1113.24 cm**-1
  22:      1123.66 cm**-1
  23:      1248.93 cm**-1
  24:      1270.33 cm**-1
  25:      1285.58 cm**-1
  26:      1318.13 cm**-1
  27:      1321.84 cm**-1
  28:      1326.39 cm**-1
  29:      1393.64 cm**-1
  30:      1480.25 cm**-1
  31:      1498.45 cm**-1
  32:      1650.47 cm**-1
  33:      2256.99 cm**-1
  34:      3084.35 cm**-1
  35:      3128.16 cm**-1
  36:      3130.95 cm**-1
  37:      3205.56 cm**-1
  38:      3206.29 cm**-1
  39:      3459.97 cm**-1
  40:      3470.46 cm**-1
  41:      3536.14 cm**-1

IR SPECTRUM
-----------

 Mode    freq (cm**-1)   T**2         TX         TY         TZ
-------------------------------------------------------------------
   6:       101.57    4.727885  ( -0.068083  -2.173303   0.001823)
   7:       168.00    5.172374  (  0.000968  -0.000434   2.274285)
   8:       232.26    3.938694  ( -0.077061  -1.983114  -0.003775)
   9:       491.88   12.769468  (  0.001145   0.002611   3.573438)
  10:       505.75   13.764167  ( -2.803841   2.429535   0.000879)
  11:       633.06    2.899498  (  0.573940  -1.603150   0.000065)
  12:       733.08   37.086752  (  2.464841  -5.568735   0.022241)
  13:       747.02   34.563178  (  0.005718  -0.019744  -5.879010)
  14:       799.99    6.905592  ( -1.039503  -2.413508  -0.002017)
  15:       828.80    2.194551  ( -0.001108  -0.002387   1.481399)
  16:       889.12    7.572830  ( -1.495677   2.309929   0.002568)
  17:       905.53    2.337977  (  0.002238  -0.002246   1.529041)
  18:       958.01    7.616198  (  2.702878  -0.557356   0.001516)
  19:       989.90    3.166558  ( -0.001632  -0.000618   1.779482)
  20:      1073.52    0.527423  ( -0.000612   0.001146   0.726238)
  21:      1113.24    1.851108  ( -1.259854  -0.513690   0.000681)
  22:      1123.66    0.876764  ( -0.889890  -0.291303  -0.001454)
  23:      1248.93   29.885759  ( -0.001730  -0.002222  -5.466786)
  24:      1270.33    6.319841  ( -0.000144  -0.001009   2.513929)
  25:      1285.58    3.558656  (  0.627326   1.779077  -0.001516)
  26:      1318.13    1.164546  (  0.001270   0.001501   1.079139)
  27:      1321.84   45.396079  (  0.002607   0.001205   6.737661)
  28:      1326.39    2.614024  ( -0.932205  -1.320974   0.006758)
  29:      1393.64    7.371742  ( -2.608747  -0.752450  -0.000534)
  30:      1480.25   15.486512  ( -0.001340  -0.001002   3.935290)
  31:      1498.45    5.779610  ( -0.981030   2.194809  -0.001877)
  32:      1650.47   60.947523  ( -7.806719   0.051648  -0.000198)
  33:      2256.99   13.472990  ( -3.445933  -1.264328  -0.003415)
  34:      3084.35    2.736141  ( -1.633022  -0.263403   0.000540)
  35:      3128.16    0.012346  ( -0.002641  -0.000599  -0.111080)
  36:      3130.95    0.161801  ( -0.383562  -0.121168  -0.000302)
  37:      3205.56    0.357954  ( -0.001164   0.016023  -0.598077)
  38:      3206.29    1.660278  ( -0.006023   1.288462   0.010383)
  39:      3459.97  103.672097  (  9.422189   3.859331  -0.002588)
  40:      3470.46   82.581980  (  9.086875  -0.103377   0.001373)
  41:      3536.14   95.736684  ( -0.015647  -9.784500  -0.000782)

--------------------------
THERMOCHEMISTRY AT 298.15K
--------------------------

Temperature         ... 298.15 K
Pressure            ... 1.00 atm
Total Mass          ... 82.13 AMU

Throughout the following assumptions are being made:
  (1) The electronic state is orbitally nondegenerate
  (2) There are no thermally accessible electronically excited states
  (3) Hindered rotations indicated by low frequency modes) are not
      treated as such but are treated as vibrations and this may
      case some error
  (4) All equations used are the standard statistical mechanics
      equations for an ideal gas
  (5) All vibrations are strinctly harmonic

------------
INNER ENERGY
------------

The inner energy is: U= E(el) + E(ZPE) + E(vib) + E(rot) + E(trans)
    E(el)   - is the total energy from the electronic structure calculation
              = E(kin-el) + E(nuc-el) + E(el-el) + E(nuc-nuc)
    E(ZPE)  - the the zero temperature vibrational energy from the frequency calculation
    E(vib)  - the the finite temperature correction to E(ZPE) due to population
              of excietd vibrational states
    E(rot)  - is the rotational thermal energy
    E(trans)- is the translational thermal energy

Summary of contributions to the inner energy U:
Electronic energy                ...   -249.53782792 Eh
Zero point energy                ...      0.12431341 Eh      78.01 kcal/mol
Thermal vibrational correction   ...      0.00314757 Eh       1.98 kcal/mol
Thermal rotational correction    ...      0.00141627 Eh       0.89 kcal/mol
Thermal translational correction ...      0.00141627 Eh       0.89 kcal/mol
-----------------------------------------------------------------------
Total thermal energy                   -249.40753441 Eh

Summary of corrections to the electronic energy:
(perhaps to be used in another calculation)
Total thermal correction                  0.00598011 Eh       3.75 kcal/mol
Non-thermal (ZPE) correction              0.12431341 Eh      78.01 kcal/mol
-----------------------------------------------------------------------
Total correction                          0.13029352 Eh      81.76 kcal/mol

--------
ENTHALPY
--------

The enthalpy is H = U + kB*T
                kB is Boltzmann's constant
Total free energy                 ...   -249.40753441 Eh
Thermal Enthalpy correction       ...      0.00094421 Eh       0.59 kcal/mol
-----------------------------------------------------------------------
Total Enthalpy                    ...   -249.40659020 Eh

-------
ENTROPY
-------

The entropy contributions are T*S = T*(S(el)+S(vib)+S(rot)+S(trans)
     S(el)   - electronic entropy
     S(vib)  - vibrational entropy
     S(rot)  - rotational entropy
     S(trans)- translational entropy
The entropies will be listed as mutliplied by the temperature to get
units of energy

Electronic entropy                ...      0.00000000 Eh      0.00 kcal/mol
Vibrational entropy               ...      0.00535601 Eh      3.36 kcal/mol
Rotational entropy                ...      0.01147201 Eh      7.20 kcal/mol
Translational entropy             ...      0.01859236 Eh     11.67 kcal/mol
-----------------------------------------------------------------------
Final entropy term                ...      0.03542038 Eh     22.23 kcal/mol

CAUTION: The rotational entropy is not quite correctly treated here
         because it includes a symmetry number that is not yet correctly
         implemented in ORCA!
For a nonlinear molecule the correct rotational entropy is:
    S(rot) = R*(ln(qrot/sn)+1.5)
    R    = 8.31441 J/mol/K = 1.987191683e-3 kcal/mol/K
    qrot = 126606.6848156
    sn is the rotational symmetry number. We have assumed 3 here
       if it is different for your molecule then you should correct
       the printed rotational entropy by manually evaluating the equation
       as given above

For convenience we print out the resulting values for sn=1 - 12:
 sn= 1  qrot/sn=  126606.6848 T*S(rot)=     7.85 kcal/mol T*S(tot)=    22.88 kcal/mol
 sn= 2  qrot/sn=   63303.3424 T*S(rot)=     7.44 kcal/mol T*S(tot)=    22.47 kcal/mol
 sn= 3  qrot/sn=   42202.2283 T*S(rot)=     7.20 kcal/mol T*S(tot)=    22.23 kcal/mol
 sn= 4  qrot/sn=   31651.6712 T*S(rot)=     7.03 kcal/mol T*S(tot)=    22.06 kcal/mol
 sn= 5  qrot/sn=   25321.3370 T*S(rot)=     6.90 kcal/mol T*S(tot)=    21.92 kcal/mol
 sn= 6  qrot/sn=   21101.1141 T*S(rot)=     6.79 kcal/mol T*S(tot)=    21.82 kcal/mol
 sn= 7  qrot/sn=   18086.6693 T*S(rot)=     6.70 kcal/mol T*S(tot)=    21.72 kcal/mol
 sn= 8  qrot/sn=   15825.8356 T*S(rot)=     6.62 kcal/mol T*S(tot)=    21.65 kcal/mol
 sn= 9  qrot/sn=   14067.4094 T*S(rot)=     6.55 kcal/mol T*S(tot)=    21.58 kcal/mol
 sn=10  qrot/sn=   12660.6685 T*S(rot)=     6.49 kcal/mol T*S(tot)=    21.51 kcal/mol
 sn=11  qrot/sn=   11509.6986 T*S(rot)=     6.43 kcal/mol T*S(tot)=    21.46 kcal/mol
 sn=12  qrot/sn=   10550.5571 T*S(rot)=     6.38 kcal/mol T*S(tot)=    21.41 kcal/mol

-------------------
GIBBS FREE ENTHALPY
-------------------

The Gibbs free enthalpy is G = H - T*S

Total enthalpy                    ...   -249.40659020 Eh
Total entropy correction          ...     -0.03542038 Eh    -22.23 kcal/mol
-----------------------------------------------------------------------
Final Gibbs free enthalpy         ...   -249.44201058 Eh

For completeness - the Gibbs free enthalpy minus the electronic energy
G-E(el)                           ...      0.09581735 Eh     60.13 kcal/mol

                             ****ORCA TERMINATED NORMALLY****
TOTAL RUN TIME: 0 days 0 hours 14 minutes 38 seconds 790 msec
