                         Program Version 3.0.3 - RELEASE   -
|  1> ! NORI PBE0 def2-TZVP UseSym TightOPT Freq TightSCF Grid3 FinalGrid5 XYZFile
|  2> % pal
|  3>     nprocs 8
|  4> end
|  5> %method
|  6>     SymThresh 5.0e-2
|  7> end
|  8> % geom
|  9>     MaxIter 10
| 10> end
| 11> % maxcore 2000
| 12> % output
| 13>     printlevel mini
| 14>     print[ P_Basis ] 0
| 15>     print[ P_SCFInfo ] 1
| 16>     print[ P_SCFIterInfo ] 1
| 17>     print[ P_OrbEn ] 0
| 18>     print[ P_Cartesian ] 0
| 19> end
| 20> % elprop
| 21>     Dipole false
| 22> end
| 23> *xyz 1 1
| 24>  C        1.0754643669    -0.2434673441    -0.1257872361
| 25>  C        2.5800906485    -0.0121451708    -0.0942999028
| 26>  C        2.9959044581     0.6017879128     1.2076899712
| 27>  N        4.3418402132     1.2576704981     1.2538479936
| 28>  C        3.0836859569     2.0579648386     1.4124396089
| 29>  C        2.8630294530     2.7129673085     2.7354449307
| 30>  H        0.7873956317    -0.6919285409    -1.0764995823
| 31>  H        0.5219499553     0.6915250190    -0.0182982929
| 32>  H        0.7603451851    -0.9225396881     0.6692437717
| 33>  H        2.8769958753     0.6450370289    -0.9196017777
| 34>  H        3.1104858603    -0.9594029673    -0.2264655693
| 35>  H        2.8241773586     0.0067531135     2.1004475644
| 36>  H        4.8582419525     1.3291275541     0.3838963995
| 37>  H        4.9229992971     1.1238021512     2.0741529390
| 38>  H        2.9067687445     2.6685418814     0.5317917581
| 39>  H        3.0955644828     2.0413161409     3.5651654898
| 40>  H        1.8104784620     2.9899831548     2.8174766814
| 41>  H        3.4575720982     3.6222671092     2.8307152527
| 42> *
| 43>
| 44>                          ****END OF INPUT****
 Total Charge           Charge          ....    1
 Multiplicity           Mult            ....    1
 Number of Electrons    NEL             ....   48
FINAL SINGLE POINT ENERGY      -252.033483400229

CARTESIAN COORDINATES (ANGSTROEM)
---------------------------------
  C      1.436820    0.000000   -2.043231
  C      1.509393    0.139821   -0.528574
  C      0.274670   -0.412419    0.115936
  N      0.000100    0.000005    1.529670
  C     -0.909770    0.412088    0.411372
  C     -2.299717   -0.131513    0.436959
  H      2.342151    0.401859   -2.497802
  H      0.586144    0.544868   -2.457717
  H      1.352811   -1.046578   -2.342750
  H      1.625210    1.194407   -0.253170
  H      2.381854   -0.394590   -0.141666
  H      0.091465   -1.474711   -0.020127
  H      0.611250    0.696578    1.941829
  H     -0.340878   -0.695469    2.184094
  H     -0.806824    1.473987    0.208053
  H     -2.315697   -1.196124    0.681208
  H     -2.740501   -0.011659   -0.554549
  H     -2.923699    0.410739    1.148956

FINAL SINGLE POINT ENERGY      -252.033484366175
                    ***********************HURRAY********************
 Multiplicity           Mult            ....    1
 Number of Electrons    NEL             ....   48
 Basis Dimension        Dim             ....  258
FINAL SINGLE POINT ENERGY      -252.033484855052

VIBRATIONAL FREQUENCIES
-----------------------

   0:         0.00 cm**-1
   1:         0.00 cm**-1
   2:         0.00 cm**-1
   3:         0.00 cm**-1
   4:         0.00 cm**-1
   5:         0.00 cm**-1
   6:        95.74 cm**-1
   7:       161.13 cm**-1
   8:       200.48 cm**-1
   9:       225.33 cm**-1
  10:       290.04 cm**-1
  11:       354.06 cm**-1
  12:       415.93 cm**-1
  13:       462.93 cm**-1
  14:       754.12 cm**-1
  15:       778.69 cm**-1
  16:       828.97 cm**-1
  17:       873.74 cm**-1
  18:       914.18 cm**-1
  19:       956.71 cm**-1
  20:       977.09 cm**-1
  21:      1002.61 cm**-1
  22:      1031.83 cm**-1
  23:      1066.64 cm**-1
  24:      1101.16 cm**-1
  25:      1161.48 cm**-1
  26:      1166.12 cm**-1
  27:      1222.66 cm**-1
  28:      1234.57 cm**-1
  29:      1266.55 cm**-1
  30:      1311.11 cm**-1
  31:      1345.80 cm**-1
  32:      1371.70 cm**-1
  33:      1418.08 cm**-1
  34:      1422.69 cm**-1
  35:      1466.99 cm**-1
  36:      1476.02 cm**-1
  37:      1479.82 cm**-1
  38:      1492.73 cm**-1
  39:      1496.16 cm**-1
  40:      1502.34 cm**-1
  41:      1623.87 cm**-1
  42:      3045.55 cm**-1
  43:      3063.25 cm**-1
  44:      3065.08 cm**-1
  45:      3096.58 cm**-1
  46:      3140.60 cm**-1
  47:      3142.95 cm**-1
  48:      3151.08 cm**-1
  49:      3156.80 cm**-1
  50:      3174.95 cm**-1
  51:      3184.40 cm**-1
  52:      3511.78 cm**-1
  53:      3620.19 cm**-1

IR SPECTRUM
-----------

 Mode    freq (cm**-1)   T**2         TX         TY         TZ
-------------------------------------------------------------------
   6:        95.74    0.495787  ( -0.142897  -0.689350   0.012806)
   7:       161.13    0.420877  (  0.200320  -0.497746   0.364689)
   8:       200.48    0.134295  (  0.122782  -0.264899  -0.221469)
   9:       225.33    0.620390  (  0.183449  -0.765549  -0.025896)
  10:       290.04    0.082030  (  0.012608   0.269708   0.095545)
  11:       354.06    1.085054  (  0.788852   0.348036   0.584498)
  12:       415.93    2.088863  ( -0.763999   0.226364   1.205790)
  13:       462.93    0.593743  ( -0.717423   0.273940  -0.063281)
  14:       754.12    3.286295  ( -1.379642  -1.162086   0.180112)
  15:       778.69    5.247031  (  1.297784  -0.471525  -1.827690)
  16:       828.97    2.286661  ( -0.356642   1.458709   0.177862)
  17:       873.74   25.322978  ( -1.579454   0.891173  -4.694051)
  18:       914.18    5.166249  (  0.734945   0.635408   2.054839)
  19:       956.71    7.063347  (  0.046739   2.532613   0.804383)
  20:       977.09    4.389340  ( -0.618766   1.910910  -0.595728)
  21:      1002.61   85.737534  ( -7.600116   4.927086   1.923431)
  22:      1031.83   11.855653  ( -2.904327   0.685028   1.717927)
  23:      1066.64    6.100890  ( -2.193640   1.096391  -0.294551)
  24:      1101.16   14.597654  (  0.501223  -0.046755  -3.787379)
  25:      1161.48    0.755103  (  0.792725  -0.351692   0.054799)
  26:      1166.12    2.161457  ( -0.482964   0.818066   1.122039)
  27:      1222.66    0.954210  ( -0.774638   0.360822   0.473238)
  28:      1234.57    2.688373  ( -1.565039  -0.340181   0.351146)
  29:      1266.55    0.126313  (  0.079656   0.346302   0.006567)
  30:      1311.11    3.409266  ( -1.225058   0.499702   1.287943)
  31:      1345.80    3.495507  (  1.821916   0.396871   0.136465)
  32:      1371.70    1.032040  (  0.570062   0.722903  -0.429513)
  33:      1418.08    3.788000  (  0.479287   0.637674   1.775290)
  34:      1422.69   10.386014  (  2.506185   1.990386   0.378703)
  35:      1466.99    9.859117  ( -2.328252   2.085139  -0.300923)
  36:      1476.02    9.489044  ( -0.517522   0.109275  -3.034679)
  37:      1479.82    4.653311  ( -0.231349   0.243955   2.130792)
  38:      1492.73   12.735245  (  1.596569  -3.190727   0.073983)
  39:      1496.16   17.080764  (  0.930486   4.026640  -0.033657)
  40:      1502.34    5.540064  ( -2.326454  -0.232384  -0.271428)
  41:      1623.87   75.835712  (  2.114110   0.076512   8.447508)
  42:      3045.55    8.698217  ( -0.479952  -1.809864  -2.278652)
  43:      3063.25    1.545182  ( -0.341504   0.845190  -0.845111)
  44:      3065.08    8.093578  ( -1.170795  -0.766829  -2.476851)
  45:      3096.58    2.006498  ( -0.954733   1.038928  -0.124949)
  46:      3140.60   11.826886  (  1.709574  -2.976893   0.205787)
  47:      3142.95    1.676499  (  0.221506  -1.274998  -0.042600)
  48:      3151.08    1.207266  ( -1.014261   0.419774  -0.048284)
  49:      3156.80    3.077784  (  1.594751   0.715167   0.151947)
  50:      3174.95    0.175240  (  0.043190  -0.072090   0.410095)
  51:      3184.40    0.847865  (  0.886597  -0.247665  -0.021742)
  52:      3511.78   98.530526  (  2.352867   0.056196   9.643204)
  53:      3620.19  107.404052  ( -5.909875  -8.328776   1.763211)

--------------------------
THERMOCHEMISTRY AT 298.15K
--------------------------

Temperature         ... 298.15 K
Pressure            ... 1.00 atm
Total Mass          ... 86.16 AMU

Throughout the following assumptions are being made:
  (1) The electronic state is orbitally nondegenerate
  (2) There are no thermally accessible electronically excited states
  (3) Hindered rotations indicated by low frequency modes) are not
      treated as such but are treated as vibrations and this may
      case some error
  (4) All equations used are the standard statistical mechanics
      equations for an ideal gas
  (5) All vibrations are strinctly harmonic

------------
INNER ENERGY
------------

The inner energy is: U= E(el) + E(ZPE) + E(vib) + E(rot) + E(trans)
    E(el)   - is the total energy from the electronic structure calculation
              = E(kin-el) + E(nuc-el) + E(el-el) + E(nuc-nuc)
    E(ZPE)  - the the zero temperature vibrational energy from the frequency calculation
    E(vib)  - the the finite temperature correction to E(ZPE) due to population
              of excietd vibrational states
    E(rot)  - is the rotational thermal energy
    E(trans)- is the translational thermal energy

Summary of contributions to the inner energy U:
Electronic energy                ...   -252.03348486 Eh
Zero point energy                ...      0.16927531 Eh     106.22 kcal/mol
Thermal vibrational correction   ...      0.00450858 Eh       2.83 kcal/mol
Thermal rotational correction    ...      0.00141627 Eh       0.89 kcal/mol
Thermal translational correction ...      0.00141627 Eh       0.89 kcal/mol
-----------------------------------------------------------------------
Total thermal energy                   -251.85686842 Eh

Summary of corrections to the electronic energy:
(perhaps to be used in another calculation)
Total thermal correction                  0.00734112 Eh       4.61 kcal/mol
Non-thermal (ZPE) correction              0.16927531 Eh     106.22 kcal/mol
-----------------------------------------------------------------------
Total correction                          0.17661644 Eh     110.83 kcal/mol

--------
ENTHALPY
--------

The enthalpy is H = U + kB*T
                kB is Boltzmann's constant
Total free energy                 ...   -251.85686842 Eh
Thermal Enthalpy correction       ...      0.00094421 Eh       0.59 kcal/mol
-----------------------------------------------------------------------
Total Enthalpy                    ...   -251.85592421 Eh

-------
ENTROPY
-------

The entropy contributions are T*S = T*(S(el)+S(vib)+S(rot)+S(trans)
     S(el)   - electronic entropy
     S(vib)  - vibrational entropy
     S(rot)  - rotational entropy
     S(trans)- translational entropy
The entropies will be listed as mutliplied by the temperature to get
units of energy

Electronic entropy                ...      0.00000000 Eh      0.00 kcal/mol
Vibrational entropy               ...      0.00772486 Eh      4.85 kcal/mol
Rotational entropy                ...      0.01177879 Eh      7.39 kcal/mol
Translational entropy             ...      0.01866024 Eh     11.71 kcal/mol
-----------------------------------------------------------------------
Final entropy term                ...      0.03816388 Eh     23.95 kcal/mol

CAUTION: The rotational entropy is not quite correctly treated here
         because it includes a symmetry number that is not yet correctly
         implemented in ORCA!
For a nonlinear molecule the correct rotational entropy is:
    S(rot) = R*(ln(qrot/sn)+1.5)
    R    = 8.31441 J/mol/K = 1.987191683e-3 kcal/mol/K
    qrot = 175211.4482989
    sn is the rotational symmetry number. We have assumed 3 here
       if it is different for your molecule then you should correct
       the printed rotational entropy by manually evaluating the equation
       as given above

For convenience we print out the resulting values for sn=1 - 12:
 sn= 1  qrot/sn=  175211.4483 T*S(rot)=     8.04 kcal/mol T*S(tot)=    24.60 kcal/mol
 sn= 2  qrot/sn=   87605.7241 T*S(rot)=     7.63 kcal/mol T*S(tot)=    24.19 kcal/mol
 sn= 3  qrot/sn=   58403.8161 T*S(rot)=     7.39 kcal/mol T*S(tot)=    23.95 kcal/mol
 sn= 4  qrot/sn=   43802.8621 T*S(rot)=     7.22 kcal/mol T*S(tot)=    23.78 kcal/mol
 sn= 5  qrot/sn=   35042.2897 T*S(rot)=     7.09 kcal/mol T*S(tot)=    23.65 kcal/mol
 sn= 6  qrot/sn=   29201.9080 T*S(rot)=     6.98 kcal/mol T*S(tot)=    23.54 kcal/mol
 sn= 7  qrot/sn=   25030.2069 T*S(rot)=     6.89 kcal/mol T*S(tot)=    23.45 kcal/mol
 sn= 8  qrot/sn=   21901.4310 T*S(rot)=     6.81 kcal/mol T*S(tot)=    23.37 kcal/mol
 sn= 9  qrot/sn=   19467.9387 T*S(rot)=     6.74 kcal/mol T*S(tot)=    23.30 kcal/mol
 sn=10  qrot/sn=   17521.1448 T*S(rot)=     6.68 kcal/mol T*S(tot)=    23.23 kcal/mol
 sn=11  qrot/sn=   15928.3135 T*S(rot)=     6.62 kcal/mol T*S(tot)=    23.18 kcal/mol
 sn=12  qrot/sn=   14600.9540 T*S(rot)=     6.57 kcal/mol T*S(tot)=    23.13 kcal/mol

-------------------
GIBBS FREE ENTHALPY
-------------------

The Gibbs free enthalpy is G = H - T*S

Total enthalpy                    ...   -251.85592421 Eh
Total entropy correction          ...     -0.03816388 Eh    -23.95 kcal/mol
-----------------------------------------------------------------------
Final Gibbs free enthalpy         ...   -251.89408809 Eh

For completeness - the Gibbs free enthalpy minus the electronic energy
G-E(el)                           ...      0.13939677 Eh     87.47 kcal/mol

                             ****ORCA TERMINATED NORMALLY****
TOTAL RUN TIME: 0 days 0 hours 21 minutes 21 seconds 433 msec
