                         Program Version 3.0.3 - RELEASE   -
|  1> ! NORI PBE0 def2-TZVP UseSym TightOPT Freq TightSCF Grid3 FinalGrid5 XYZFile
|  2> % pal
|  3>     nprocs 8
|  4> end
|  5> %method
|  6>     SymThresh 5.0e-2
|  7> end
|  8> % geom
|  9>     MaxIter 10
| 10> end
| 11> % maxcore 2000
| 12> % output
| 13>     printlevel mini
| 14>     print[ P_Basis ] 0
| 15>     print[ P_SCFInfo ] 1
| 16>     print[ P_SCFIterInfo ] 1
| 17>     print[ P_OrbEn ] 0
| 18>     print[ P_Cartesian ] 0
| 19> end
| 20> % elprop
| 21>     Dipole false
| 22> end
| 23> *xyz 1 1
| 24>  C        0.9630118761     0.7150710114     0.5324542533
| 25>  C        2.2964458368     0.1190862190     0.1135323528
| 26>  C        2.9010643611     0.7226377595    -1.1295772392
| 27>  N        4.2034781903     0.0541537676    -1.4364805223
| 28>  C        2.1360451295     1.1521845653    -2.3341358272
| 29>  C        2.8555400632     2.1677494357    -1.4910736677
| 30>  H        0.6132866467     0.2158586327     1.4358536538
| 31>  H        0.1955481164     0.5779212008    -0.2312608113
| 32>  H        1.0440812604     1.7789086848     0.7603079516
| 33>  H        3.0120930201     0.2317858402     0.9386098236
| 34>  H        2.1692473239    -0.9591351993    -0.0492062683
| 35>  H        4.6374724087     0.4402551210    -2.2770204144
| 36>  H        4.0699591338    -0.9500484378    -1.5853217680
| 37>  H        4.8626821174     0.1697740993    -0.6613933712
| 38>  H        2.5345412243     0.9334099239    -3.3188341357
| 39>  H        1.0568571112     1.1021225935    -2.2770220039
| 40>  H        2.2728287759     2.8177906285    -0.8525433820
| 41>  H        3.7415574044     2.6371441539    -1.9043086238
| 42> *
| 43>
| 44>                          ****END OF INPUT****
 Total Charge           Charge          ....    1
 Multiplicity           Mult            ....    1
 Number of Electrons    NEL             ....   48
FINAL SINGLE POINT ENERGY      -252.026600928389
FINAL SINGLE POINT ENERGY      -252.026602357170

CARTESIAN COORDINATES (ANGSTROEM)
---------------------------------
  C     -1.786340    1.289256    0.000000
  C     -0.267701    1.267743   -0.000000
  C      0.347318   -0.109402   -0.000000
  N      1.838921    0.000183    0.000000
  C     -0.179627   -1.284067    0.751285
  C     -0.179627   -1.284068   -0.751285
  H     -2.132850    2.322653    0.000001
  H     -2.201728    0.808080    0.886579
  H     -2.201729    0.808080   -0.886579
  H      0.096906    1.812079   -0.880740
  H      0.096906    1.812080    0.880739
  H      2.284557   -0.919217    0.000000
  H      2.165937    0.507596    0.826883
  H      2.165938    0.507596   -0.826883
  H      0.517053   -1.941036    1.260777
  H     -1.120508   -1.157074    1.269039
  H     -1.120507   -1.157075   -1.269040
  H      0.517053   -1.941036   -1.260777

FINAL SINGLE POINT ENERGY      -252.026602571823
                    ***********************HURRAY********************
 Multiplicity           Mult            ....    1
 Number of Electrons    NEL             ....   48
 Basis Dimension        Dim             ....  258
FINAL SINGLE POINT ENERGY      -252.026602609311

VIBRATIONAL FREQUENCIES
-----------------------

   0:         0.00 cm**-1
   1:         0.00 cm**-1
   2:         0.00 cm**-1
   3:         0.00 cm**-1
   4:         0.00 cm**-1
   5:         0.00 cm**-1
   6:        73.95 cm**-1
   7:       204.03 cm**-1
   8:       240.10 cm**-1
   9:       245.97 cm**-1
  10:       321.01 cm**-1
  11:       352.13 cm**-1
  12:       405.65 cm**-1
  13:       452.28 cm**-1
  14:       663.34 cm**-1
  15:       766.09 cm**-1
  16:       792.68 cm**-1
  17:       885.26 cm**-1
  18:       895.25 cm**-1
  19:       930.84 cm**-1
  20:       933.58 cm**-1
  21:      1019.30 cm**-1
  22:      1051.33 cm**-1
  23:      1068.75 cm**-1
  24:      1098.21 cm**-1
  25:      1107.93 cm**-1
  26:      1112.42 cm**-1
  27:      1186.59 cm**-1
  28:      1191.21 cm**-1
  29:      1233.34 cm**-1
  30:      1326.24 cm**-1
  31:      1383.62 cm**-1
  32:      1395.18 cm**-1
  33:      1427.73 cm**-1
  34:      1458.41 cm**-1
  35:      1479.00 cm**-1
  36:      1494.45 cm**-1
  37:      1498.67 cm**-1
  38:      1500.52 cm**-1
  39:      1527.67 cm**-1
  40:      1644.88 cm**-1
  41:      1657.83 cm**-1
  42:      3019.82 cm**-1
  43:      3057.91 cm**-1
  44:      3072.54 cm**-1
  45:      3149.57 cm**-1
  46:      3155.03 cm**-1
  47:      3155.92 cm**-1
  48:      3158.50 cm**-1
  49:      3246.60 cm**-1
  50:      3256.40 cm**-1
  51:      3404.36 cm**-1
  52:      3479.41 cm**-1
  53:      3504.10 cm**-1

IR SPECTRUM
-----------

 Mode    freq (cm**-1)   T**2         TX         TY         TZ
-------------------------------------------------------------------
   6:        73.95    1.452433  (  0.000022  -0.000025   1.205169)
   7:       204.03    0.078593  (  0.000203  -0.000216   0.280345)
   8:       240.10    2.653009  (  1.288517  -0.996359   0.000495)
   9:       245.97    0.631874  ( -0.000916   0.000706   0.794904)
  10:       321.01    0.865250  (  0.000023   0.000160   0.930188)
  11:       352.13    6.521670  (  0.685099   2.460144   0.000024)
  12:       405.65    6.595771  ( -0.000173   0.000100  -2.568223)
  13:       452.28    6.711902  ( -2.573248  -0.300491   0.000125)
  14:       663.34    2.400074  (  0.476687  -1.474057  -0.000010)
  15:       766.09    1.197466  ( -0.056376   1.092835   0.000121)
  16:       792.68    0.646981  (  0.000090   0.000088  -0.804351)
  17:       885.26    0.247806  (  0.488798   0.094251   0.000011)
  18:       895.25    0.067482  (  0.000038  -0.000029   0.259773)
  19:       930.84   10.718144  (  0.424929  -3.246164   0.000365)
  20:       933.58    4.224399  ( -0.000171   0.000577   2.055334)
  21:      1019.30   14.041809  ( -0.183025   3.742768  -0.000063)
  22:      1051.33   12.924674  (  1.349953   3.332012   0.000065)
  23:      1068.75    7.959108  (  1.579626   2.337496  -0.000033)
  24:      1098.21   11.246982  ( -0.000047  -0.000051   3.353652)
  25:      1107.93    0.006061  ( -0.000064  -0.000189  -0.077854)
  26:      1112.42    2.627305  (  1.446150   0.732090   0.000229)
  27:      1186.59    0.110638  (  0.000104  -0.000077   0.332623)
  28:      1191.21    8.893364  (  0.000177  -0.000035  -2.982174)
  29:      1233.34   15.499187  (  3.390951  -2.000159   0.000016)
  30:      1326.24    0.441260  ( -0.000060  -0.000061   0.664274)
  31:      1383.62    7.910147  ( -2.529227  -1.230104  -0.000110)
  32:      1395.18    0.037133  (  0.071455  -0.178960   0.000062)
  33:      1427.73    4.189902  ( -2.011421   0.379590  -0.000184)
  34:      1458.41    8.696885  (  0.000190   0.000023   2.949048)
  35:      1479.00    0.972475  ( -0.984239  -0.061220  -0.000058)
  36:      1494.45  112.862261  ( 10.621829   0.197524  -0.000199)
  37:      1498.67   21.776819  (  2.372046   4.018733   0.001709)
  38:      1500.52   23.774010  (  0.000537   0.001320  -4.875860)
  39:      1527.67   45.234623  (  6.106207  -2.819372   0.000081)
  40:      1644.88   38.302485  (  0.000073  -0.000795   6.188900)
  41:      1657.83   37.117863  (  1.460060  -5.914904  -0.000814)
  42:      3019.82   20.997295  (  3.599957   2.835067  -0.000122)
  43:      3057.91    8.708998  ( -0.000145  -0.000071  -2.951101)
  44:      3072.54    6.808831  ( -2.316649  -1.200819  -0.000032)
  45:      3149.57    8.671598  (  0.000228   0.000046   2.944758)
  46:      3155.03    4.494881  (  0.505309   2.059015  -0.000405)
  47:      3155.92    1.571399  (  0.000989  -0.000691  -1.253554)
  48:      3158.50    2.979633  (  1.718684  -0.160488   0.000651)
  49:      3246.60    0.164402  ( -0.000007  -0.000060   0.405465)
  50:      3256.40    0.430589  (  0.635190  -0.164692  -0.000090)
  51:      3404.36   29.366659  ( -5.211347  -1.486110   0.000115)
  52:      3479.41   75.799915  ( -0.000106  -0.000228  -8.706315)
  53:      3504.10   69.470992  (  1.816789  -8.134511   0.000165)

--------------------------
THERMOCHEMISTRY AT 298.15K
--------------------------

Temperature         ... 298.15 K
Pressure            ... 1.00 atm
Total Mass          ... 86.16 AMU

Throughout the following assumptions are being made:
  (1) The electronic state is orbitally nondegenerate
  (2) There are no thermally accessible electronically excited states
  (3) Hindered rotations indicated by low frequency modes) are not
      treated as such but are treated as vibrations and this may
      case some error
  (4) All equations used are the standard statistical mechanics
      equations for an ideal gas
  (5) All vibrations are strinctly harmonic

------------
INNER ENERGY
------------

The inner energy is: U= E(el) + E(ZPE) + E(vib) + E(rot) + E(trans)
    E(el)   - is the total energy from the electronic structure calculation
              = E(kin-el) + E(nuc-el) + E(el-el) + E(nuc-nuc)
    E(ZPE)  - the the zero temperature vibrational energy from the frequency calculation
    E(vib)  - the the finite temperature correction to E(ZPE) due to population
              of excietd vibrational states
    E(rot)  - is the rotational thermal energy
    E(trans)- is the translational thermal energy

Summary of contributions to the inner energy U:
Electronic energy                ...   -252.02660261 Eh
Zero point energy                ...      0.17014625 Eh     106.77 kcal/mol
Thermal vibrational correction   ...      0.00444080 Eh       2.79 kcal/mol
Thermal rotational correction    ...      0.00141627 Eh       0.89 kcal/mol
Thermal translational correction ...      0.00141627 Eh       0.89 kcal/mol
-----------------------------------------------------------------------
Total thermal energy                   -251.84918302 Eh

Summary of corrections to the electronic energy:
(perhaps to be used in another calculation)
Total thermal correction                  0.00727334 Eh       4.56 kcal/mol
Non-thermal (ZPE) correction              0.17014625 Eh     106.77 kcal/mol
-----------------------------------------------------------------------
Total correction                          0.17741959 Eh     111.33 kcal/mol

--------
ENTHALPY
--------

The enthalpy is H = U + kB*T
                kB is Boltzmann's constant
Total free energy                 ...   -251.84918302 Eh
Thermal Enthalpy correction       ...      0.00094421 Eh       0.59 kcal/mol
-----------------------------------------------------------------------
Total Enthalpy                    ...   -251.84823881 Eh

-------
ENTROPY
-------

The entropy contributions are T*S = T*(S(el)+S(vib)+S(rot)+S(trans)
     S(el)   - electronic entropy
     S(vib)  - vibrational entropy
     S(rot)  - rotational entropy
     S(trans)- translational entropy
The entropies will be listed as mutliplied by the temperature to get
units of energy

Electronic entropy                ...      0.00000000 Eh      0.00 kcal/mol
Vibrational entropy               ...      0.00757213 Eh      4.75 kcal/mol
Rotational entropy                ...      0.01164310 Eh      7.31 kcal/mol
Translational entropy             ...      0.01866024 Eh     11.71 kcal/mol
-----------------------------------------------------------------------
Final entropy term                ...      0.03787547 Eh     23.77 kcal/mol

CAUTION: The rotational entropy is not quite correctly treated here
         because it includes a symmetry number that is not yet correctly
         implemented in ORCA!
For a nonlinear molecule the correct rotational entropy is:
    S(rot) = R*(ln(qrot/sn)+1.5)
    R    = 8.31441 J/mol/K = 1.987191683e-3 kcal/mol/K
    qrot = 151757.9527913
    sn is the rotational symmetry number. We have assumed 3 here
       if it is different for your molecule then you should correct
       the printed rotational entropy by manually evaluating the equation
       as given above

For convenience we print out the resulting values for sn=1 - 12:
 sn= 1  qrot/sn=  151757.9528 T*S(rot)=     7.96 kcal/mol T*S(tot)=    24.42 kcal/mol
 sn= 2  qrot/sn=   75878.9764 T*S(rot)=     7.55 kcal/mol T*S(tot)=    24.01 kcal/mol
 sn= 3  qrot/sn=   50585.9843 T*S(rot)=     7.31 kcal/mol T*S(tot)=    23.77 kcal/mol
 sn= 4  qrot/sn=   37939.4882 T*S(rot)=     7.14 kcal/mol T*S(tot)=    23.60 kcal/mol
 sn= 5  qrot/sn=   30351.5906 T*S(rot)=     7.00 kcal/mol T*S(tot)=    23.46 kcal/mol
 sn= 6  qrot/sn=   25292.9921 T*S(rot)=     6.90 kcal/mol T*S(tot)=    23.36 kcal/mol
 sn= 7  qrot/sn=   21679.7075 T*S(rot)=     6.80 kcal/mol T*S(tot)=    23.27 kcal/mol
 sn= 8  qrot/sn=   18969.7441 T*S(rot)=     6.73 kcal/mol T*S(tot)=    23.19 kcal/mol
 sn= 9  qrot/sn=   16861.9948 T*S(rot)=     6.66 kcal/mol T*S(tot)=    23.12 kcal/mol
 sn=10  qrot/sn=   15175.7953 T*S(rot)=     6.59 kcal/mol T*S(tot)=    23.05 kcal/mol
 sn=11  qrot/sn=   13796.1775 T*S(rot)=     6.54 kcal/mol T*S(tot)=    23.00 kcal/mol
 sn=12  qrot/sn=   12646.4961 T*S(rot)=     6.48 kcal/mol T*S(tot)=    22.95 kcal/mol

-------------------
GIBBS FREE ENTHALPY
-------------------

The Gibbs free enthalpy is G = H - T*S

Total enthalpy                    ...   -251.84823881 Eh
Total entropy correction          ...     -0.03787547 Eh    -23.77 kcal/mol
-----------------------------------------------------------------------
Final Gibbs free enthalpy         ...   -251.88611427 Eh

For completeness - the Gibbs free enthalpy minus the electronic energy
G-E(el)                           ...      0.14048834 Eh     88.16 kcal/mol

                             ****ORCA TERMINATED NORMALLY****
TOTAL RUN TIME: 0 days 0 hours 23 minutes 58 seconds 548 msec
