                         Program Version 3.0.3 - RELEASE   -
|  1> ! NORI PBE0 def2-TZVP UseSym TightOPT Freq TightSCF Grid3 FinalGrid5 XYZFile
|  2> % pal
|  3>     nprocs 8
|  4> end
|  5> %method
|  6>     SymThresh 5.0e-2
|  7> end
|  8> % geom
|  9>     MaxIter 10
| 10> end
| 11> % maxcore 2000
| 12> % output
| 13>     printlevel mini
| 14>     print[ P_Basis ] 0
| 15>     print[ P_SCFInfo ] 1
| 16>     print[ P_SCFIterInfo ] 1
| 17>     print[ P_OrbEn ] 0
| 18>     print[ P_Cartesian ] 0
| 19> end
| 20> % elprop
| 21>     Dipole false
| 22> end
| 23> *xyz 1 1
| 24>  C        1.0543673779     0.3126661624     0.3464102026
| 25>  C        2.5326612017     0.5378261949     0.0796688005
| 26>  C        3.2546006226    -0.7659185578    -0.2526728361
| 27>  C        4.7050133100    -0.5234329036    -0.5308281685
| 28>  C        5.7307543564    -0.5946385834     0.5206338625
| 29>  N        5.6253596925    -1.7059412556    -0.4568560326
| 30>  H        0.5587746722     1.2557517251     0.5780977591
| 31>  H        0.8999051241    -0.3606947639     1.1930980510
| 32>  H        0.5551105638    -0.1197208691    -0.5238493259
| 33>  H        2.6563590233     1.2401367482    -0.7511452162
| 34>  H        3.0028923172     1.0031494243     0.9523337613
| 35>  H        3.1497040159    -1.4702760423     0.5820135627
| 36>  H        2.7956169355    -1.2310918464    -1.1309133123
| 37>  H        4.9395773147     0.0969204642    -1.3904496326
| 38>  H        5.4352609506    -0.8719852424     1.5251136297
| 39>  H        6.6440388142    -0.0199044593     0.4348598928
| 40>  H        6.3564701179    -1.8092856850    -1.1518179372
| 41>  H        5.2315035897    -2.5838805103    -0.1356870608
| 42> *
| 43>
| 44>                          ****END OF INPUT****
 Total Charge           Charge          ....    1
 Multiplicity           Mult            ....    1
 Number of Electrons    NEL             ....   48
FINAL SINGLE POINT ENERGY      -252.023221381300
FINAL SINGLE POINT ENERGY      -252.023222653660

CARTESIAN COORDINATES (ANGSTROEM)
---------------------------------
  C      0.901959   -0.003329   -2.755928
  C     -0.096716    0.188768   -1.627749
  C      0.583563    0.189509   -0.260043
  C     -0.415545    0.389958    0.835949
  C     -1.075418   -0.736899    1.512046
  N     -0.001358   -0.000546    2.223675
  H      0.395801    0.002563   -3.721697
  H      1.429544   -0.955682   -2.663959
  H      1.647274    0.795323   -2.767044
  H     -0.632568    1.133875   -1.763746
  H     -0.851561   -0.603892   -1.658821
  H      1.112286   -0.759842   -0.109578
  H      1.329694    0.989104   -0.216414
  H     -0.950313    1.334500    0.842591
  H     -0.799477   -1.747925    1.238417
  H     -2.056907   -0.613649    1.950981
  H     -0.258507    0.594068    3.003557
  H      0.897555   -0.458572    2.330577

FINAL SINGLE POINT ENERGY      -252.023223440328
                    ***********************HURRAY********************
 Multiplicity           Mult            ....    1
 Number of Electrons    NEL             ....   48
 Basis Dimension        Dim             ....  258
FINAL SINGLE POINT ENERGY      -252.023223500718

VIBRATIONAL FREQUENCIES
-----------------------

   0:         0.00 cm**-1
   1:         0.00 cm**-1
   2:         0.00 cm**-1
   3:         0.00 cm**-1
   4:         0.00 cm**-1
   5:         0.00 cm**-1
   6:        90.96 cm**-1
   7:        95.60 cm**-1
   8:       164.42 cm**-1
   9:       246.47 cm**-1
  10:       326.45 cm**-1
  11:       390.63 cm**-1
  12:       425.86 cm**-1
  13:       749.94 cm**-1
  14:       794.41 cm**-1
  15:       845.87 cm**-1
  16:       858.93 cm**-1
  17:       867.28 cm**-1
  18:       903.43 cm**-1
  19:       935.23 cm**-1
  20:       977.07 cm**-1
  21:      1019.61 cm**-1
  22:      1055.48 cm**-1
  23:      1073.25 cm**-1
  24:      1127.24 cm**-1
  25:      1160.29 cm**-1
  26:      1189.33 cm**-1
  27:      1215.35 cm**-1
  28:      1249.92 cm**-1
  29:      1262.87 cm**-1
  30:      1290.65 cm**-1
  31:      1306.37 cm**-1
  32:      1339.73 cm**-1
  33:      1386.34 cm**-1
  34:      1417.30 cm**-1
  35:      1428.76 cm**-1
  36:      1478.96 cm**-1
  37:      1485.33 cm**-1
  38:      1492.59 cm**-1
  39:      1496.98 cm**-1
  40:      1501.74 cm**-1
  41:      1631.92 cm**-1
  42:      3034.78 cm**-1
  43:      3048.55 cm**-1
  44:      3058.34 cm**-1
  45:      3077.93 cm**-1
  46:      3100.64 cm**-1
  47:      3131.52 cm**-1
  48:      3147.62 cm**-1
  49:      3170.58 cm**-1
  50:      3189.69 cm**-1
  51:      3272.64 cm**-1
  52:      3513.78 cm**-1
  53:      3618.57 cm**-1

IR SPECTRUM
-----------

 Mode    freq (cm**-1)   T**2         TX         TY         TZ
-------------------------------------------------------------------
   6:        90.96    0.449164  (  0.017771   0.568061   0.355182)
   7:        95.60    0.721957  (  0.026908   0.784606   0.325002)
   8:       164.42    1.816357  (  1.222573  -0.490889  -0.284081)
   9:       246.47    0.054673  ( -0.106053  -0.054535   0.201126)
  10:       326.45    2.178396  (  0.339062   0.425889  -1.371879)
  11:       390.63    0.787021  (  0.302283   0.403146  -0.730150)
  12:       425.86    0.686027  ( -0.433484  -0.287410   0.644603)
  13:       749.94    4.421711  ( -0.064505  -2.016911   0.591285)
  14:       794.41    8.629072  ( -0.142048  -0.535934  -2.884730)
  15:       845.87   22.510301  (  2.007304   0.548567   4.263813)
  16:       858.93    4.488640  ( -1.293841  -0.739352  -1.505979)
  17:       867.28    0.668671  (  0.475024  -0.094175  -0.658904)
  18:       903.43    3.156440  (  1.187306  -0.970895  -0.896721)
  19:       935.23    2.792099  (  0.144067  -0.926365   1.383182)
  20:       977.07   12.327384  ( -0.551117   0.312559  -3.453398)
  21:      1019.61   85.371248  ( -3.327902  -7.257273   4.650624)
  22:      1055.48   12.855594  (  2.351977   1.772273  -2.045201)
  23:      1073.25    2.385321  (  0.443174   1.270016  -0.758932)
  24:      1127.24    9.125729  (  1.093257   0.727370   2.720561)
  25:      1160.29    1.172829  (  0.804849  -0.606512   0.396471)
  26:      1189.33    2.834538  (  0.384643  -0.724360   1.470337)
  27:      1215.35    0.888290  ( -0.714410   0.579523   0.205087)
  28:      1249.92    3.401208  (  1.355530  -0.322006  -1.208329)
  29:      1262.87    1.838005  (  0.929447  -0.221612   0.961780)
  30:      1290.65    1.785859  ( -0.919887   0.422482   0.872454)
  31:      1306.37    1.380501  (  0.476688   0.977561  -0.444571)
  32:      1339.73    1.190506  (  0.195412   0.860567  -0.641673)
  33:      1386.34    1.851818  (  0.675637   0.359156   1.125318)
  34:      1417.30    3.163391  ( -1.419773   0.362202   1.008189)
  35:      1428.76    6.165441  ( -0.217095  -1.042201  -2.243241)
  36:      1478.96    2.180816  ( -0.787214   0.743120  -1.004431)
  37:      1485.33    3.371777  ( -0.782560   0.691923   1.510171)
  38:      1492.59    8.772845  ( -0.052817  -2.959484   0.107279)
  39:      1496.98   17.359571  (  2.502413   3.136877  -1.121386)
  40:      1501.74   12.173547  ( -3.144167   1.097299  -1.041006)
  41:      1631.92   70.283755  (  4.343956   0.006807   7.170339)
  42:      3034.78    5.862472  (  0.534156  -1.192220   2.038568)
  43:      3048.55   13.579660  ( -3.558629   0.613255  -0.734667)
  44:      3058.34   17.917341  (  3.860655  -0.722465  -1.578203)
  45:      3077.93    1.376885  (  0.486214  -1.066771  -0.049809)
  46:      3100.64    7.903486  (  0.687160   2.697459  -0.393716)
  47:      3131.52   22.499563  ( -0.473304  -4.700674   0.423327)
  48:      3147.62    8.240128  ( -2.132283   0.048417  -1.921237)
  49:      3170.58    2.480657  (  1.154088   1.053733  -0.195925)
  50:      3189.69    0.508034  (  0.116867  -0.493815   0.500522)
  51:      3272.64    5.091171  (  1.586833  -1.431202  -0.724427)
  52:      3513.78  112.383677  ( -5.184996  -1.290088  -9.156154)
  53:      3618.57  123.472697  (  7.159848  -6.783812  -5.117535)

--------------------------
THERMOCHEMISTRY AT 298.15K
--------------------------

Temperature         ... 298.15 K
Pressure            ... 1.00 atm
Total Mass          ... 86.16 AMU

Throughout the following assumptions are being made:
  (1) The electronic state is orbitally nondegenerate
  (2) There are no thermally accessible electronically excited states
  (3) Hindered rotations indicated by low frequency modes) are not
      treated as such but are treated as vibrations and this may
      case some error
  (4) All equations used are the standard statistical mechanics
      equations for an ideal gas
  (5) All vibrations are strinctly harmonic

------------
INNER ENERGY
------------

The inner energy is: U= E(el) + E(ZPE) + E(vib) + E(rot) + E(trans)
    E(el)   - is the total energy from the electronic structure calculation
              = E(kin-el) + E(nuc-el) + E(el-el) + E(nuc-nuc)
    E(ZPE)  - the the zero temperature vibrational energy from the frequency calculation
    E(vib)  - the the finite temperature correction to E(ZPE) due to population
              of excietd vibrational states
    E(rot)  - is the rotational thermal energy
    E(trans)- is the translational thermal energy

Summary of contributions to the inner energy U:
Electronic energy                ...   -252.02322350 Eh
Zero point energy                ...      0.17005883 Eh     106.71 kcal/mol
Thermal vibrational correction   ...      0.00437775 Eh       2.75 kcal/mol
Thermal rotational correction    ...      0.00141627 Eh       0.89 kcal/mol
Thermal translational correction ...      0.00141627 Eh       0.89 kcal/mol
-----------------------------------------------------------------------
Total thermal energy                   -251.84595438 Eh

Summary of corrections to the electronic energy:
(perhaps to be used in another calculation)
Total thermal correction                  0.00721029 Eh       4.52 kcal/mol
Non-thermal (ZPE) correction              0.17005883 Eh     106.71 kcal/mol
-----------------------------------------------------------------------
Total correction                          0.17726912 Eh     111.24 kcal/mol

--------
ENTHALPY
--------

The enthalpy is H = U + kB*T
                kB is Boltzmann's constant
Total free energy                 ...   -251.84595438 Eh
Thermal Enthalpy correction       ...      0.00094421 Eh       0.59 kcal/mol
-----------------------------------------------------------------------
Total Enthalpy                    ...   -251.84501017 Eh

-------
ENTROPY
-------

The entropy contributions are T*S = T*(S(el)+S(vib)+S(rot)+S(trans)
     S(el)   - electronic entropy
     S(vib)  - vibrational entropy
     S(rot)  - rotational entropy
     S(trans)- translational entropy
The entropies will be listed as mutliplied by the temperature to get
units of energy

Electronic entropy                ...      0.00000000 Eh      0.00 kcal/mol
Vibrational entropy               ...      0.00788053 Eh      4.95 kcal/mol
Rotational entropy                ...      0.01175970 Eh      7.38 kcal/mol
Translational entropy             ...      0.01866024 Eh     11.71 kcal/mol
-----------------------------------------------------------------------
Final entropy term                ...      0.03830046 Eh     24.03 kcal/mol

CAUTION: The rotational entropy is not quite correctly treated here
         because it includes a symmetry number that is not yet correctly
         implemented in ORCA!
For a nonlinear molecule the correct rotational entropy is:
    S(rot) = R*(ln(qrot/sn)+1.5)
    R    = 8.31441 J/mol/K = 1.987191683e-3 kcal/mol/K
    qrot = 171705.6602894
    sn is the rotational symmetry number. We have assumed 3 here
       if it is different for your molecule then you should correct
       the printed rotational entropy by manually evaluating the equation
       as given above

For convenience we print out the resulting values for sn=1 - 12:
 sn= 1  qrot/sn=  171705.6603 T*S(rot)=     8.03 kcal/mol T*S(tot)=    24.68 kcal/mol
 sn= 2  qrot/sn=   85852.8301 T*S(rot)=     7.62 kcal/mol T*S(tot)=    24.27 kcal/mol
 sn= 3  qrot/sn=   57235.2201 T*S(rot)=     7.38 kcal/mol T*S(tot)=    24.03 kcal/mol
 sn= 4  qrot/sn=   42926.4151 T*S(rot)=     7.21 kcal/mol T*S(tot)=    23.86 kcal/mol
 sn= 5  qrot/sn=   34341.1321 T*S(rot)=     7.08 kcal/mol T*S(tot)=    23.73 kcal/mol
 sn= 6  qrot/sn=   28617.6100 T*S(rot)=     6.97 kcal/mol T*S(tot)=    23.62 kcal/mol
 sn= 7  qrot/sn=   24529.3800 T*S(rot)=     6.88 kcal/mol T*S(tot)=    23.53 kcal/mol
 sn= 8  qrot/sn=   21463.2075 T*S(rot)=     6.80 kcal/mol T*S(tot)=    23.45 kcal/mol
 sn= 9  qrot/sn=   19078.4067 T*S(rot)=     6.73 kcal/mol T*S(tot)=    23.38 kcal/mol
 sn=10  qrot/sn=   17170.5660 T*S(rot)=     6.67 kcal/mol T*S(tot)=    23.32 kcal/mol
 sn=11  qrot/sn=   15609.6055 T*S(rot)=     6.61 kcal/mol T*S(tot)=    23.26 kcal/mol
 sn=12  qrot/sn=   14308.8050 T*S(rot)=     6.56 kcal/mol T*S(tot)=    23.21 kcal/mol

-------------------
GIBBS FREE ENTHALPY
-------------------

The Gibbs free enthalpy is G = H - T*S

Total enthalpy                    ...   -251.84501017 Eh
Total entropy correction          ...     -0.03830046 Eh    -24.03 kcal/mol
-----------------------------------------------------------------------
Final Gibbs free enthalpy         ...   -251.88331064 Eh

For completeness - the Gibbs free enthalpy minus the electronic energy
G-E(el)                           ...      0.13991286 Eh     87.80 kcal/mol

                             ****ORCA TERMINATED NORMALLY****
TOTAL RUN TIME: 0 days 0 hours 21 minutes 3 seconds 216 msec
