                         Program Version 3.0.3 - RELEASE   -
|  1> ! NORI PBE0 def2-TZVP UseSym TightOPT Freq TightSCF Grid3 FinalGrid5 XYZFile
|  2> % pal
|  3>     nprocs 8
|  4> end
|  5> %method
|  6>     SymThresh 5.0e-2
|  7> end
|  8> % geom
|  9>     MaxIter 10
| 10> end
| 11> % maxcore 2000
| 12> % output
| 13>     printlevel mini
| 14>     print[ P_Basis ] 0
| 15>     print[ P_SCFInfo ] 1
| 16>     print[ P_SCFIterInfo ] 1
| 17>     print[ P_OrbEn ] 0
| 18>     print[ P_Cartesian ] 0
| 19> end
| 20> % elprop
| 21>     Dipole false
| 22> end
| 23> *xyz 1 1
| 24>  C        1.4024632351    -0.6643921994     0.8264295373
| 25>  C        2.2293913961     0.2723083457     0.3887975192
| 26>  C        3.1519044077     0.0896721161    -0.7802001246
| 27>  C        4.5808925474     0.1703748096    -0.3217494530
| 28>  C        5.3345419848    -1.0222088592     0.0831796724
| 29>  N        5.6266116542    -0.3982808901    -1.2332068329
| 30>  H        0.7441320188    -0.4825534197     1.6671392018
| 31>  H        1.3347221497    -1.6391740928     0.3533850866
| 32>  H        2.2546185194     1.2445944460     0.8746648205
| 33>  H        2.9654745140    -0.8805474418    -1.2532043266
| 34>  H        2.9766977073     0.8689599896    -1.5301878536
| 35>  H        4.9039202513     1.1158149368     0.1015930433
| 36>  H        6.1451593522    -0.9426369489     0.7960382873
| 37>  H        4.8580709150    -1.9919156493     0.0091640269
| 38>  H        6.5047902423     0.0951136770    -1.3496321934
| 39>  H        5.3101391048    -0.8802088195    -2.0678404110
| 40> *
| 41>
| 42>                          ****END OF INPUT****
 Total Charge           Charge          ....    1
 Multiplicity           Mult            ....    1
 Number of Electrons    NEL             ....   46
FINAL SINGLE POINT ENERGY      -250.787181335028
FINAL SINGLE POINT ENERGY      -250.787182012047

CARTESIAN COORDINATES (ANGSTROEM)
---------------------------------
  C      0.597775    0.002045   -2.550126
  C     -0.310715    0.393716   -1.670574
  C      0.020604    0.873744   -0.288235
  C     -0.563742   -0.061105    0.733278
  C      0.192853   -1.200022    1.267132
  N      0.000559    0.000778    2.121208
  H      0.313003   -0.322082   -3.543525
  H      1.659454    0.009456   -2.323354
  H     -1.363617    0.394868   -1.941262
  H      1.107477    0.930286   -0.164964
  H     -0.389606    1.876291   -0.124042
  H     -1.645607   -0.144252    0.754478
  H     -0.323612   -2.080948    1.625780
  H      1.216689   -1.345532    0.945012
  H     -0.626658   -0.066463    2.915232
  H      0.799769    0.606132    2.276522

FINAL SINGLE POINT ENERGY      -250.787182223735
                    ***********************HURRAY********************
 Multiplicity           Mult            ....    1
 Number of Electrons    NEL             ....   46
 Basis Dimension        Dim             ....  246
FINAL SINGLE POINT ENERGY      -250.787182281729

VIBRATIONAL FREQUENCIES
-----------------------

   0:         0.00 cm**-1
   1:         0.00 cm**-1
   2:         0.00 cm**-1
   3:         0.00 cm**-1
   4:         0.00 cm**-1
   5:         0.00 cm**-1
   6:        77.53 cm**-1
   7:        90.90 cm**-1
   8:       210.93 cm**-1
   9:       360.58 cm**-1
  10:       394.58 cm**-1
  11:       434.31 cm**-1
  12:       635.32 cm**-1
  13:       795.73 cm**-1
  14:       854.70 cm**-1
  15:       859.18 cm**-1
  16:       872.28 cm**-1
  17:       914.32 cm**-1
  18:       974.71 cm**-1
  19:       991.68 cm**-1
  20:      1000.60 cm**-1
  21:      1022.02 cm**-1
  22:      1029.29 cm**-1
  23:      1070.73 cm**-1
  24:      1156.88 cm**-1
  25:      1183.82 cm**-1
  26:      1206.83 cm**-1
  27:      1246.52 cm**-1
  28:      1253.62 cm**-1
  29:      1294.57 cm**-1
  30:      1322.76 cm**-1
  31:      1334.61 cm**-1
  32:      1429.99 cm**-1
  33:      1455.32 cm**-1
  34:      1472.49 cm**-1
  35:      1497.34 cm**-1
  36:      1632.39 cm**-1
  37:      1726.59 cm**-1
  38:      3043.16 cm**-1
  39:      3093.95 cm**-1
  40:      3158.44 cm**-1
  41:      3169.86 cm**-1
  42:      3170.97 cm**-1
  43:      3192.80 cm**-1
  44:      3254.00 cm**-1
  45:      3273.00 cm**-1
  46:      3512.74 cm**-1
  47:      3616.77 cm**-1

IR SPECTRUM
-----------

 Mode    freq (cm**-1)   T**2         TX         TY         TZ
-------------------------------------------------------------------
   6:        77.53    1.783110  ( -0.841331   0.474944   0.921792)
   7:        90.90    1.138861  ( -0.774266  -0.623783  -0.387645)
   8:       210.93    0.807681  ( -0.586120  -0.681017   0.018993)
   9:       360.58    1.800754  (  0.289012  -0.779291   1.053533)
  10:       394.58    0.968946  ( -0.207857   0.081013  -0.958738)
  11:       434.31    0.420815  (  0.254651   0.027177  -0.596012)
  12:       635.32   15.191746  ( -0.240623   3.541364  -1.610152)
  13:       795.73   16.584983  ( -0.678197  -0.611366   3.968786)
  14:       854.70   16.975828  (  1.078558   1.905944   3.489974)
  15:       859.18   10.029688  (  0.899800  -2.119610  -2.174236)
  16:       872.28    4.373069  ( -1.193701  -1.673975  -0.382039)
  17:       914.32    2.298250  ( -0.512115  -0.454954   1.352407)
  18:       974.71    3.171279  (  0.003101  -0.275452   1.759374)
  19:       991.68   42.307475  ( -0.671467   3.193398  -5.626617)
  20:      1000.60   34.710380  (  0.668046   5.798834  -0.798512)
  21:      1022.02   90.769795  (  5.198609  -7.271718   3.296418)
  22:      1029.29    5.178981  ( -1.797365  -0.481994   1.310016)
  23:      1070.73   11.055672  (  0.083222   2.713192  -1.920244)
  24:      1156.88    1.244056  ( -1.050916  -0.133509  -0.349008)
  25:      1183.82    1.232184  (  0.658522  -0.439874   0.777845)
  26:      1206.83    1.584917  (  1.175718  -0.129355   0.431129)
  27:      1246.52    3.384228  ( -0.475236  -0.955338   1.498569)
  28:      1253.62    2.638768  ( -0.922201  -1.057433  -0.818627)
  29:      1294.57    3.275491  ( -0.718042  -1.008314   1.320306)
  30:      1322.76    1.267150  ( -0.675482  -0.440196   0.785558)
  31:      1334.61    1.955218  ( -0.986940   0.486469   0.862853)
  32:      1429.99    5.822997  (  1.039573  -0.797595  -2.026358)
  33:      1455.32    5.170386  ( -1.847417   0.738591   1.100872)
  34:      1472.49   13.952153  ( -3.109946  -2.051316  -0.269247)
  35:      1497.34   11.886169  (  2.075918  -2.645535   0.760185)
  36:      1632.39   69.961906  (  1.907937   3.343368   7.425872)
  37:      1726.59    1.668979  (  0.976081  -0.606561  -0.590194)
  38:      3043.16    7.354962  ( -1.305536  -0.986522  -2.162710)
  39:      3093.95    3.138577  (  1.614340  -0.547197   0.482764)
  40:      3158.44    3.130367  ( -1.568155  -0.118626  -0.810669)
  41:      3169.86    1.302550  ( -0.968358   0.029743  -0.603281)
  42:      3170.97    2.689849  (  0.448441  -1.576672  -0.053422)
  43:      3192.80    0.727056  (  0.725437  -0.132359   0.428111)
  44:      3254.00    0.796944  (  0.869764  -0.009888   0.200891)
  45:      3273.00    5.377853  (  1.978328   0.958219  -0.738841)
  46:      3512.74  117.296180  ( -0.985459  -4.463498  -9.818464)
  47:      3616.77  123.465824  ( -9.129045  -4.175434   4.763623)

--------------------------
THERMOCHEMISTRY AT 298.15K
--------------------------

Temperature         ... 298.15 K
Pressure            ... 1.00 atm
Total Mass          ... 84.14 AMU

Throughout the following assumptions are being made:
  (1) The electronic state is orbitally nondegenerate
  (2) There are no thermally accessible electronically excited states
  (3) Hindered rotations indicated by low frequency modes) are not
      treated as such but are treated as vibrations and this may
      case some error
  (4) All equations used are the standard statistical mechanics
      equations for an ideal gas
  (5) All vibrations are strinctly harmonic

------------
INNER ENERGY
------------

The inner energy is: U= E(el) + E(ZPE) + E(vib) + E(rot) + E(trans)
    E(el)   - is the total energy from the electronic structure calculation
              = E(kin-el) + E(nuc-el) + E(el-el) + E(nuc-nuc)
    E(ZPE)  - the the zero temperature vibrational energy from the frequency calculation
    E(vib)  - the the finite temperature correction to E(ZPE) due to population
              of excietd vibrational states
    E(rot)  - is the rotational thermal energy
    E(trans)- is the translational thermal energy

Summary of contributions to the inner energy U:
Electronic energy                ...   -250.78718228 Eh
Zero point energy                ...      0.14646071 Eh      91.91 kcal/mol
Thermal vibrational correction   ...      0.00382650 Eh       2.40 kcal/mol
Thermal rotational correction    ...      0.00141627 Eh       0.89 kcal/mol
Thermal translational correction ...      0.00141627 Eh       0.89 kcal/mol
-----------------------------------------------------------------------
Total thermal energy                   -250.63406253 Eh

Summary of corrections to the electronic energy:
(perhaps to be used in another calculation)
Total thermal correction                  0.00665904 Eh       4.18 kcal/mol
Non-thermal (ZPE) correction              0.14646071 Eh      91.91 kcal/mol
-----------------------------------------------------------------------
Total correction                          0.15311975 Eh      96.08 kcal/mol

--------
ENTHALPY
--------

The enthalpy is H = U + kB*T
                kB is Boltzmann's constant
Total free energy                 ...   -250.63406253 Eh
Thermal Enthalpy correction       ...      0.00094421 Eh       0.59 kcal/mol
-----------------------------------------------------------------------
Total Enthalpy                    ...   -250.63311832 Eh

-------
ENTROPY
-------

The entropy contributions are T*S = T*(S(el)+S(vib)+S(rot)+S(trans)
     S(el)   - electronic entropy
     S(vib)  - vibrational entropy
     S(rot)  - rotational entropy
     S(trans)- translational entropy
The entropies will be listed as mutliplied by the temperature to get
units of energy

Electronic entropy                ...      0.00000000 Eh      0.00 kcal/mol
Vibrational entropy               ...      0.00697264 Eh      4.38 kcal/mol
Rotational entropy                ...      0.01166123 Eh      7.32 kcal/mol
Translational entropy             ...      0.01862670 Eh     11.69 kcal/mol
-----------------------------------------------------------------------
Final entropy term                ...      0.03726057 Eh     23.38 kcal/mol

CAUTION: The rotational entropy is not quite correctly treated here
         because it includes a symmetry number that is not yet correctly
         implemented in ORCA!
For a nonlinear molecule the correct rotational entropy is:
    S(rot) = R*(ln(qrot/sn)+1.5)
    R    = 8.31441 J/mol/K = 1.987191683e-3 kcal/mol/K
    qrot = 154700.4599803
    sn is the rotational symmetry number. We have assumed 3 here
       if it is different for your molecule then you should correct
       the printed rotational entropy by manually evaluating the equation
       as given above

For convenience we print out the resulting values for sn=1 - 12:
 sn= 1  qrot/sn=  154700.4600 T*S(rot)=     7.97 kcal/mol T*S(tot)=    24.03 kcal/mol
 sn= 2  qrot/sn=   77350.2300 T*S(rot)=     7.56 kcal/mol T*S(tot)=    23.62 kcal/mol
 sn= 3  qrot/sn=   51566.8200 T*S(rot)=     7.32 kcal/mol T*S(tot)=    23.38 kcal/mol
 sn= 4  qrot/sn=   38675.1150 T*S(rot)=     7.15 kcal/mol T*S(tot)=    23.21 kcal/mol
 sn= 5  qrot/sn=   30940.0920 T*S(rot)=     7.01 kcal/mol T*S(tot)=    23.08 kcal/mol
 sn= 6  qrot/sn=   25783.4100 T*S(rot)=     6.91 kcal/mol T*S(tot)=    22.97 kcal/mol
 sn= 7  qrot/sn=   22100.0657 T*S(rot)=     6.82 kcal/mol T*S(tot)=    22.88 kcal/mol
 sn= 8  qrot/sn=   19337.5575 T*S(rot)=     6.74 kcal/mol T*S(tot)=    22.80 kcal/mol
 sn= 9  qrot/sn=   17188.9400 T*S(rot)=     6.67 kcal/mol T*S(tot)=    22.73 kcal/mol
 sn=10  qrot/sn=   15470.0460 T*S(rot)=     6.60 kcal/mol T*S(tot)=    22.67 kcal/mol
 sn=11  qrot/sn=   14063.6782 T*S(rot)=     6.55 kcal/mol T*S(tot)=    22.61 kcal/mol
 sn=12  qrot/sn=   12891.7050 T*S(rot)=     6.50 kcal/mol T*S(tot)=    22.56 kcal/mol

-------------------
GIBBS FREE ENTHALPY
-------------------

The Gibbs free enthalpy is G = H - T*S

Total enthalpy                    ...   -250.63311832 Eh
Total entropy correction          ...     -0.03726057 Eh    -23.38 kcal/mol
-----------------------------------------------------------------------
Final Gibbs free enthalpy         ...   -250.67037889 Eh

For completeness - the Gibbs free enthalpy minus the electronic energy
G-E(el)                           ...      0.11680339 Eh     73.30 kcal/mol

                             ****ORCA TERMINATED NORMALLY****
TOTAL RUN TIME: 0 days 0 hours 16 minutes 33 seconds 301 msec
