                         Program Version 3.0.3 - RELEASE   -
|  1> ! NORI PBE0 def2-TZVP UseSym TightOPT Freq TightSCF Grid3 FinalGrid5 XYZFile
|  2> % pal
|  3>     nprocs 8
|  4> end
|  5> %method
|  6>     SymThresh 5.0e-2
|  7> end
|  8> % geom
|  9>     MaxIter 10
| 10> end
| 11> % maxcore 2000
| 12> % output
| 13>     printlevel mini
| 14>     print[ P_Basis ] 0
| 15>     print[ P_SCFInfo ] 1
| 16>     print[ P_SCFIterInfo ] 1
| 17>     print[ P_OrbEn ] 0
| 18>     print[ P_Cartesian ] 0
| 19> end
| 20> % elprop
| 21>     Dipole false
| 22> end
| 23> *xyz 1 1
| 24>  C        3.7707647321     2.1019736965    -1.6626401871
| 25>  C        3.7537123761     1.1904782513    -0.8848255036
| 26>  C        3.7407811602     0.0584767819     0.0249534054
| 27>  C        4.5152883182    -1.1027846640    -0.5411072399
| 28>  C        4.0473661780    -2.4927214174    -0.4319638423
| 29>  N        3.9037239311    -1.7754814767    -1.7223066589
| 30>  H        3.7810937674     2.9327668680    -2.3323018581
| 31>  H        2.7119206828    -0.2429416428     0.2534986423
| 32>  H        4.2005811333     0.3241301535     0.9827607057
| 33>  H        5.5788162795    -0.9427938681    -0.6815875359
| 34>  H        4.7595721014    -3.3075678096    -0.4565548958
| 35>  H        3.1051388060    -2.6984381513     0.0601528977
| 36>  H        4.5030729859    -2.0404302329    -2.4963670654
| 37>  H        2.9802675479    -1.4625764883    -2.0061708641
| 38> *
| 39>
| 40>                          ****END OF INPUT****
 Total Charge           Charge          ....    1
 Multiplicity           Mult            ....    1
 Number of Electrons    NEL             ....   44
FINAL SINGLE POINT ENERGY      -249.532792109573
FINAL SINGLE POINT ENERGY      -249.532792971131

CARTESIAN COORDINATES (ANGSTROEM)
---------------------------------
  C      2.008765   -0.002407   -1.735804
  C      0.875692   -0.140778   -1.370846
  C     -0.485008   -0.298741   -0.888659
  C     -0.712490    0.493676    0.371821
  C     -1.480688   -0.035820    1.508391
  N      0.000460    0.001619    1.584971
  H      3.009046    0.114207   -2.088692
  H     -0.715318   -1.357562   -0.720772
  H     -1.205298    0.055480   -1.634065
  H     -0.637647    1.571373    0.277280
  H     -1.975666    0.642991    2.191000
  H     -1.889154   -1.037293    1.452425
  H      0.439844    0.678015    2.199923
  H      0.515377   -0.869681    1.498388

FINAL SINGLE POINT ENERGY      -249.532793363445
                    ***********************HURRAY********************
 Multiplicity           Mult            ....    1
 Number of Electrons    NEL             ....   44
 Basis Dimension        Dim             ....  234
FINAL SINGLE POINT ENERGY      -249.532793546936

VIBRATIONAL FREQUENCIES
-----------------------

   0:         0.00 cm**-1
   1:         0.00 cm**-1
   2:         0.00 cm**-1
   3:         0.00 cm**-1
   4:         0.00 cm**-1
   5:         0.00 cm**-1
   6:        66.16 cm**-1
   7:       144.73 cm**-1
   8:       330.08 cm**-1
   9:       341.12 cm**-1
  10:       356.46 cm**-1
  11:       530.83 cm**-1
  12:       725.42 cm**-1
  13:       745.12 cm**-1
  14:       774.48 cm**-1
  15:       840.79 cm**-1
  16:       857.26 cm**-1
  17:       921.92 cm**-1
  18:       936.51 cm**-1
  19:       969.60 cm**-1
  20:      1005.62 cm**-1
  21:      1029.89 cm**-1
  22:      1141.11 cm**-1
  23:      1160.10 cm**-1
  24:      1185.50 cm**-1
  25:      1244.81 cm**-1
  26:      1269.09 cm**-1
  27:      1291.67 cm**-1
  28:      1328.89 cm**-1
  29:      1437.72 cm**-1
  30:      1454.94 cm**-1
  31:      1496.53 cm**-1
  32:      1638.06 cm**-1
  33:      2253.73 cm**-1
  34:      3045.43 cm**-1
  35:      3089.81 cm**-1
  36:      3171.40 cm**-1
  37:      3202.65 cm**-1
  38:      3273.26 cm**-1
  39:      3459.79 cm**-1
  40:      3505.77 cm**-1
  41:      3609.03 cm**-1

IR SPECTRUM
-----------

 Mode    freq (cm**-1)   T**2         TX         TY         TZ
-------------------------------------------------------------------
   6:        66.16    4.110785  (  1.167396   0.671524  -1.515595)
   7:       144.73    1.193805  (  0.950780  -0.050306  -0.535997)
   8:       330.08   18.671607  ( -0.229579   1.406022  -4.079461)
   9:       341.12   10.697733  ( -0.383346   3.094630   0.986935)
  10:       356.46    2.922397  ( -0.667214   1.376047   0.764013)
  11:       530.83   10.541174  (  0.342459   1.432311   2.893507)
  12:       725.42   42.319712  (  2.095001  -5.108609   3.439883)
  13:       745.12   33.951885  ( -1.619336  -3.640572  -4.251573)
  14:       774.48    5.177140  (  0.288321   1.229473   1.892725)
  15:       840.79    7.628757  ( -2.173618   1.020656  -1.364699)
  16:       857.26    3.446006  (  1.801044   0.257677   0.368578)
  17:       921.92    4.273126  ( -0.125477   1.523977   1.390998)
  18:       936.51   24.735161  (  3.337425  -1.191332   3.489625)
  19:       969.60    3.523583  ( -0.146261   1.809263  -0.478285)
  20:      1005.62   11.613397  ( -1.024096  -1.026411   3.084008)
  21:      1029.89   97.163836  ( -4.609386  -3.470826   7.991919)
  22:      1141.11    2.140401  (  0.554879   0.087415  -1.350877)
  23:      1160.10    2.103071  ( -1.024403   1.025026  -0.054684)
  24:      1185.50    1.624543  ( -0.399537   0.544294  -1.081044)
  25:      1244.81    2.904554  ( -0.119513   1.294702   1.101824)
  26:      1269.09    1.703433  ( -0.076865   0.810808  -1.019860)
  27:      1291.67    4.705077  (  1.716459  -1.306412  -0.228334)
  28:      1328.89    7.236629  ( -1.738639  -0.569569   1.972145)
  29:      1437.72    3.906137  (  1.385807   1.391887   0.219835)
  30:      1454.94   15.713977  (  2.448447   2.642709   1.653835)
  31:      1496.53   10.541089  (  2.406514   1.002447  -1.935168)
  32:      1638.06   56.878883  (  5.578775  -2.106676   4.617149)
  33:      2253.73    5.903823  ( -2.063149  -0.141087   1.275670)
  34:      3045.43    7.611324  ( -1.450811  -0.822280   2.197800)
  35:      3089.81    1.984978  ( -0.806426   0.059077  -1.153761)
  36:      3171.40    3.824794  ( -1.618034  -0.298374   1.057229)
  37:      3202.65    2.905072  (  0.044124   1.517065  -0.775654)
  38:      3273.26    6.896739  ( -0.177698   2.437587   0.960902)
  39:      3459.79   93.222494  ( -8.836113  -0.965183   3.770149)
  40:      3505.77  103.311177  ( -8.299982   2.041821  -5.500221)
  41:      3609.03  135.052898  (  0.118705  10.036016   5.858087)

--------------------------
THERMOCHEMISTRY AT 298.15K
--------------------------

Temperature         ... 298.15 K
Pressure            ... 1.00 atm
Total Mass          ... 82.13 AMU

Throughout the following assumptions are being made:
  (1) The electronic state is orbitally nondegenerate
  (2) There are no thermally accessible electronically excited states
  (3) Hindered rotations indicated by low frequency modes) are not
      treated as such but are treated as vibrations and this may
      case some error
  (4) All equations used are the standard statistical mechanics
      equations for an ideal gas
  (5) All vibrations are strinctly harmonic

------------
INNER ENERGY
------------

The inner energy is: U= E(el) + E(ZPE) + E(vib) + E(rot) + E(trans)
    E(el)   - is the total energy from the electronic structure calculation
              = E(kin-el) + E(nuc-el) + E(el-el) + E(nuc-nuc)
    E(ZPE)  - the the zero temperature vibrational energy from the frequency calculation
    E(vib)  - the the finite temperature correction to E(ZPE) due to population
              of excietd vibrational states
    E(rot)  - is the rotational thermal energy
    E(trans)- is the translational thermal energy

Summary of contributions to the inner energy U:
Electronic energy                ...   -249.53279355 Eh
Zero point energy                ...      0.12264580 Eh      76.96 kcal/mol
Thermal vibrational correction   ...      0.00351538 Eh       2.21 kcal/mol
Thermal rotational correction    ...      0.00141627 Eh       0.89 kcal/mol
Thermal translational correction ...      0.00141627 Eh       0.89 kcal/mol
-----------------------------------------------------------------------
Total thermal energy                   -249.40379983 Eh

Summary of corrections to the electronic energy:
(perhaps to be used in another calculation)
Total thermal correction                  0.00634792 Eh       3.98 kcal/mol
Non-thermal (ZPE) correction              0.12264580 Eh      76.96 kcal/mol
-----------------------------------------------------------------------
Total correction                          0.12899372 Eh      80.94 kcal/mol

--------
ENTHALPY
--------

The enthalpy is H = U + kB*T
                kB is Boltzmann's constant
Total free energy                 ...   -249.40379983 Eh
Thermal Enthalpy correction       ...      0.00094421 Eh       0.59 kcal/mol
-----------------------------------------------------------------------
Total Enthalpy                    ...   -249.40285562 Eh

-------
ENTROPY
-------

The entropy contributions are T*S = T*(S(el)+S(vib)+S(rot)+S(trans)
     S(el)   - electronic entropy
     S(vib)  - vibrational entropy
     S(rot)  - rotational entropy
     S(trans)- translational entropy
The entropies will be listed as mutliplied by the temperature to get
units of energy

Electronic entropy                ...      0.00000000 Eh      0.00 kcal/mol
Vibrational entropy               ...      0.00624354 Eh      3.92 kcal/mol
Rotational entropy                ...      0.01155358 Eh      7.25 kcal/mol
Translational entropy             ...      0.01859236 Eh     11.67 kcal/mol
-----------------------------------------------------------------------
Final entropy term                ...      0.03638947 Eh     22.83 kcal/mol

CAUTION: The rotational entropy is not quite correctly treated here
         because it includes a symmetry number that is not yet correctly
         implemented in ORCA!
For a nonlinear molecule the correct rotational entropy is:
    S(rot) = R*(ln(qrot/sn)+1.5)
    R    = 8.31441 J/mol/K = 1.987191683e-3 kcal/mol/K
    qrot = 138030.5021429
    sn is the rotational symmetry number. We have assumed 3 here
       if it is different for your molecule then you should correct
       the printed rotational entropy by manually evaluating the equation
       as given above

For convenience we print out the resulting values for sn=1 - 12:
 sn= 1  qrot/sn=  138030.5021 T*S(rot)=     7.90 kcal/mol T*S(tot)=    23.49 kcal/mol
 sn= 2  qrot/sn=   69015.2511 T*S(rot)=     7.49 kcal/mol T*S(tot)=    23.07 kcal/mol
 sn= 3  qrot/sn=   46010.1674 T*S(rot)=     7.25 kcal/mol T*S(tot)=    22.83 kcal/mol
 sn= 4  qrot/sn=   34507.6255 T*S(rot)=     7.08 kcal/mol T*S(tot)=    22.66 kcal/mol
 sn= 5  qrot/sn=   27606.1004 T*S(rot)=     6.95 kcal/mol T*S(tot)=    22.53 kcal/mol
 sn= 6  qrot/sn=   23005.0837 T*S(rot)=     6.84 kcal/mol T*S(tot)=    22.42 kcal/mol
 sn= 7  qrot/sn=   19718.6432 T*S(rot)=     6.75 kcal/mol T*S(tot)=    22.33 kcal/mol
 sn= 8  qrot/sn=   17253.8128 T*S(rot)=     6.67 kcal/mol T*S(tot)=    22.25 kcal/mol
 sn= 9  qrot/sn=   15336.7225 T*S(rot)=     6.60 kcal/mol T*S(tot)=    22.18 kcal/mol
 sn=10  qrot/sn=   13803.0502 T*S(rot)=     6.54 kcal/mol T*S(tot)=    22.12 kcal/mol
 sn=11  qrot/sn=   12548.2275 T*S(rot)=     6.48 kcal/mol T*S(tot)=    22.06 kcal/mol
 sn=12  qrot/sn=   11502.5418 T*S(rot)=     6.43 kcal/mol T*S(tot)=    22.01 kcal/mol

-------------------
GIBBS FREE ENTHALPY
-------------------

The Gibbs free enthalpy is G = H - T*S

Total enthalpy                    ...   -249.40285562 Eh
Total entropy correction          ...     -0.03638947 Eh    -22.83 kcal/mol
-----------------------------------------------------------------------
Final Gibbs free enthalpy         ...   -249.43924509 Eh

For completeness - the Gibbs free enthalpy minus the electronic energy
G-E(el)                           ...      0.09354845 Eh     58.70 kcal/mol

                             ****ORCA TERMINATED NORMALLY****
TOTAL RUN TIME: 0 days 0 hours 15 minutes 26 seconds 970 msec
