                         Program Version 3.0.3 - RELEASE   -
|  1> ! NORI PBE0 def2-TZVP UseSym TightOPT Freq TightSCF Grid3 FinalGrid5 XYZFile
|  2> % pal
|  3>     nprocs 8
|  4> end
|  5> %method
|  6>     SymThresh 5.0e-2
|  7> end
|  8> % geom
|  9>     MaxIter 10
| 10> end
| 11> % maxcore 2000
| 12> % output
| 13>     printlevel mini
| 14>     print[ P_Basis ] 0
| 15>     print[ P_SCFInfo ] 1
| 16>     print[ P_SCFIterInfo ] 1
| 17>     print[ P_OrbEn ] 0
| 18>     print[ P_Cartesian ] 0
| 19> end
| 20> % elprop
| 21>     Dipole false
| 22> end
| 23> *xyz 1 1
| 24>  C        0.8536719187    -0.0573845627     0.1362622204
| 25>  C        2.3317223049    -0.1193371312     0.2056327229
| 26>  C        3.0685331077    -1.1735053841    -0.1432077854
| 27>  C        4.5380188662    -1.1823358639    -0.1184812921
| 28>  C        5.3399389760    -0.3662702229     0.8030657682
| 29>  N        5.2027595691    -1.8106255147     1.0959945870
| 30>  H        0.4364417015     0.1868413177     1.1176438646
| 31>  H        0.4157578230    -0.9924616623    -0.2120293164
| 32>  H        0.5442212563     0.7489247652    -0.5356595266
| 33>  H        2.8314240807     0.7863909173     0.5471666153
| 34>  H        2.5975240236    -2.0702747838    -0.5363404035
| 35>  H        5.0439475263    -1.5191554420    -1.0188823795
| 36>  H        4.8428270485     0.2692632379     1.5240246771
| 37>  H        6.3412423588    -0.0676542986     0.5218711755
| 38>  H        6.0092663892    -2.4121012415     0.9694219990
| 39>  H        4.5874930495    -2.0763741304     1.8579370734
| 40> *
| 41>
| 42>                          ****END OF INPUT****
 Total Charge           Charge          ....    1
 Multiplicity           Mult            ....    1
 Number of Electrons    NEL             ....   46
FINAL SINGLE POINT ENERGY      -250.796436330768

CARTESIAN COORDINATES (ANGSTROEM)
---------------------------------
  C      1.103133   -0.000025   -2.602894
  C      0.304008   -0.212250   -1.374187
  C      0.155789    0.680856   -0.396409
  C     -0.693587    0.461342    0.782819
  C     -0.970685   -0.865934    1.348658
  N     -0.000216    0.000122    2.054847
  H      1.862543   -0.781240   -2.702631
  H      1.592495    0.973533   -2.615754
  H      0.461743   -0.084168   -3.485379
  H     -0.212026   -1.168599   -1.300258
  H      0.616936    1.661797   -0.470398
  H     -1.409477    1.241333    1.026584
  H     -0.520535   -1.741895    0.900684
  H     -1.889287   -1.034510    1.895332
  H     -0.266958    0.406075    2.944971
  H      0.983207   -0.235258    1.970810

FINAL SINGLE POINT ENERGY      -250.796436651228
                    ***********************HURRAY********************
 Multiplicity           Mult            ....    1
 Number of Electrons    NEL             ....   46
 Basis Dimension        Dim             ....  246
FINAL SINGLE POINT ENERGY      -250.796436817168

VIBRATIONAL FREQUENCIES
-----------------------

   0:         0.00 cm**-1
   1:         0.00 cm**-1
   2:         0.00 cm**-1
   3:         0.00 cm**-1
   4:         0.00 cm**-1
   5:         0.00 cm**-1
   6:       106.37 cm**-1
   7:       168.91 cm**-1
   8:       192.03 cm**-1
   9:       216.11 cm**-1
  10:       363.67 cm**-1
  11:       413.64 cm**-1
  12:       563.75 cm**-1
  13:       736.27 cm**-1
  14:       799.24 cm**-1
  15:       840.52 cm**-1
  16:       873.88 cm**-1
  17:       895.86 cm**-1
  18:       952.82 cm**-1
  19:       996.02 cm**-1
  20:      1005.48 cm**-1
  21:      1023.49 cm**-1
  22:      1072.25 cm**-1
  23:      1115.24 cm**-1
  24:      1151.27 cm**-1
  25:      1171.85 cm**-1
  26:      1195.49 cm**-1
  27:      1252.19 cm**-1
  28:      1279.88 cm**-1
  29:      1330.95 cm**-1
  30:      1338.05 cm**-1
  31:      1404.84 cm**-1
  32:      1427.31 cm**-1
  33:      1461.49 cm**-1
  34:      1472.55 cm**-1
  35:      1494.03 cm**-1
  36:      1623.03 cm**-1
  37:      1732.17 cm**-1
  38:      3051.64 cm**-1
  39:      3110.31 cm**-1
  40:      3143.94 cm**-1
  41:      3162.21 cm**-1
  42:      3173.46 cm**-1
  43:      3178.42 cm**-1
  44:      3182.10 cm**-1
  45:      3277.31 cm**-1
  46:      3507.14 cm**-1
  47:      3619.32 cm**-1

IR SPECTRUM
-----------

 Mode    freq (cm**-1)   T**2         TX         TY         TZ
-------------------------------------------------------------------
   6:       106.37    4.878978  (  1.768586  -1.095088  -0.742875)
   7:       168.91    2.194347  ( -1.461553   0.049848   0.236063)
   8:       192.03    0.792951  (  0.065310   0.680977   0.570050)
   9:       216.11    2.217661  (  0.842259  -0.219178   1.208396)
  10:       363.67    2.144435  ( -0.516699   1.068414  -0.857874)
  11:       413.64    1.821556  (  0.774167  -0.929967   0.597815)
  12:       563.75    0.617052  ( -0.051371   0.030598  -0.783247)
  13:       736.27   33.817673  (  0.173643   0.380021   5.800268)
  14:       799.24   10.934685  ( -1.480744   0.028627  -2.956562)
  15:       840.52   32.397344  ( -1.035295  -0.168176  -5.594392)
  16:       873.88    3.984348  ( -1.009626  -1.441303   0.942151)
  17:       895.86    2.556222  ( -0.050216   0.418631   1.542222)
  18:       952.82   13.175941  (  1.802027  -3.142332  -0.233222)
  19:       996.02   96.047465  (  2.359314  -7.097953   6.332469)
  20:      1005.48   24.469809  ( -4.182552  -2.615324   0.368992)
  21:      1023.49   21.635193  ( -1.794074  -4.041159  -1.444135)
  22:      1072.25    1.438873  (  0.962036  -0.487202   0.525350)
  23:      1115.24    9.918870  (  2.719243   1.543878  -0.375542)
  24:      1151.27    2.899794  (  1.378220  -0.724996  -0.688974)
  25:      1171.85    1.595134  ( -0.084695  -1.142844  -0.530913)
  26:      1195.49    4.190519  ( -0.575956   1.010606  -1.684479)
  27:      1252.19    2.545374  ( -1.395406  -0.539571   0.554148)
  28:      1279.88    8.157295  ( -2.052385   0.690814   1.862199)
  29:      1330.95    1.227376  ( -0.275978   1.034962   0.282959)
  30:      1338.05    4.466606  ( -0.181682  -0.553314  -2.031610)
  31:      1404.84    6.613351  (  1.387603  -0.086828  -2.163416)
  32:      1427.31   37.828701  ( -1.980973   2.050853   5.449628)
  33:      1461.49   13.477173  ( -2.900195   1.493766  -1.683659)
  34:      1472.55   27.571261  (  0.331143   4.072849   3.297500)
  35:      1494.03   18.048280  (  2.018977   3.282557  -1.787969)
  36:      1623.03   83.821230  (  4.425070   0.589589   7.993271)
  37:      1732.17   51.814694  (  3.126278  -1.136791  -6.383477)
  38:      3051.64    0.233876  ( -0.304626  -0.309454  -0.212878)
  39:      3110.31    0.443637  (  0.571420  -0.334830   0.070743)
  40:      3143.94    1.129066  ( -0.666010  -0.565207   0.605011)
  41:      3162.21   10.624299  (  1.804961   2.346016  -1.364780)
  42:      3173.46    3.901926  (  0.188033   1.136428  -1.604713)
  43:      3178.42    1.299832  (  0.700094   0.888574  -0.141905)
  44:      3182.10    0.544484  ( -0.677125   0.001797   0.293228)
  45:      3277.31    5.046217  (  1.741580  -0.838586  -1.144505)
  46:      3507.14  103.890684  ( -5.692388  -1.626817  -8.297040)
  47:      3619.32  121.636891  (  7.766925  -4.101773  -6.669875)

--------------------------
THERMOCHEMISTRY AT 298.15K
--------------------------

Temperature         ... 298.15 K
Pressure            ... 1.00 atm
Total Mass          ... 84.14 AMU

Throughout the following assumptions are being made:
  (1) The electronic state is orbitally nondegenerate
  (2) There are no thermally accessible electronically excited states
  (3) Hindered rotations indicated by low frequency modes) are not
      treated as such but are treated as vibrations and this may
      case some error
  (4) All equations used are the standard statistical mechanics
      equations for an ideal gas
  (5) All vibrations are strinctly harmonic

------------
INNER ENERGY
------------

The inner energy is: U= E(el) + E(ZPE) + E(vib) + E(rot) + E(trans)
    E(el)   - is the total energy from the electronic structure calculation
              = E(kin-el) + E(nuc-el) + E(el-el) + E(nuc-nuc)
    E(ZPE)  - the the zero temperature vibrational energy from the frequency calculation
    E(vib)  - the the finite temperature correction to E(ZPE) due to population
              of excietd vibrational states
    E(rot)  - is the rotational thermal energy
    E(trans)- is the translational thermal energy

Summary of contributions to the inner energy U:
Electronic energy                ...   -250.79643682 Eh
Zero point energy                ...      0.14597696 Eh      91.60 kcal/mol
Thermal vibrational correction   ...      0.00396526 Eh       2.49 kcal/mol
Thermal rotational correction    ...      0.00141627 Eh       0.89 kcal/mol
Thermal translational correction ...      0.00141627 Eh       0.89 kcal/mol
-----------------------------------------------------------------------
Total thermal energy                   -250.64366205 Eh

Summary of corrections to the electronic energy:
(perhaps to be used in another calculation)
Total thermal correction                  0.00679781 Eh       4.27 kcal/mol
Non-thermal (ZPE) correction              0.14597696 Eh      91.60 kcal/mol
-----------------------------------------------------------------------
Total correction                          0.15277477 Eh      95.87 kcal/mol

--------
ENTHALPY
--------

The enthalpy is H = U + kB*T
                kB is Boltzmann's constant
Total free energy                 ...   -250.64366205 Eh
Thermal Enthalpy correction       ...      0.00094421 Eh       0.59 kcal/mol
-----------------------------------------------------------------------
Total Enthalpy                    ...   -250.64271784 Eh

-------
ENTROPY
-------

The entropy contributions are T*S = T*(S(el)+S(vib)+S(rot)+S(trans)
     S(el)   - electronic entropy
     S(vib)  - vibrational entropy
     S(rot)  - rotational entropy
     S(trans)- translational entropy
The entropies will be listed as mutliplied by the temperature to get
units of energy

Electronic entropy                ...      0.00000000 Eh      0.00 kcal/mol
Vibrational entropy               ...      0.00680031 Eh      4.27 kcal/mol
Rotational entropy                ...      0.01166346 Eh      7.32 kcal/mol
Translational entropy             ...      0.01862670 Eh     11.69 kcal/mol
-----------------------------------------------------------------------
Final entropy term                ...      0.03709047 Eh     23.27 kcal/mol

CAUTION: The rotational entropy is not quite correctly treated here
         because it includes a symmetry number that is not yet correctly
         implemented in ORCA!
For a nonlinear molecule the correct rotational entropy is:
    S(rot) = R*(ln(qrot/sn)+1.5)
    R    = 8.31441 J/mol/K = 1.987191683e-3 kcal/mol/K
    qrot = 155066.5426974
    sn is the rotational symmetry number. We have assumed 3 here
       if it is different for your molecule then you should correct
       the printed rotational entropy by manually evaluating the equation
       as given above

For convenience we print out the resulting values for sn=1 - 12:
 sn= 1  qrot/sn=  155066.5427 T*S(rot)=     7.97 kcal/mol T*S(tot)=    23.93 kcal/mol
 sn= 2  qrot/sn=   77533.2713 T*S(rot)=     7.56 kcal/mol T*S(tot)=    23.51 kcal/mol
 sn= 3  qrot/sn=   51688.8476 T*S(rot)=     7.32 kcal/mol T*S(tot)=    23.27 kcal/mol
 sn= 4  qrot/sn=   38766.6357 T*S(rot)=     7.15 kcal/mol T*S(tot)=    23.10 kcal/mol
 sn= 5  qrot/sn=   31013.3085 T*S(rot)=     7.02 kcal/mol T*S(tot)=    22.97 kcal/mol
 sn= 6  qrot/sn=   25844.4238 T*S(rot)=     6.91 kcal/mol T*S(tot)=    22.86 kcal/mol
 sn= 7  qrot/sn=   22152.3632 T*S(rot)=     6.82 kcal/mol T*S(tot)=    22.77 kcal/mol
 sn= 8  qrot/sn=   19383.3178 T*S(rot)=     6.74 kcal/mol T*S(tot)=    22.69 kcal/mol
 sn= 9  qrot/sn=   17229.6159 T*S(rot)=     6.67 kcal/mol T*S(tot)=    22.62 kcal/mol
 sn=10  qrot/sn=   15506.6543 T*S(rot)=     6.61 kcal/mol T*S(tot)=    22.56 kcal/mol
 sn=11  qrot/sn=   14096.9584 T*S(rot)=     6.55 kcal/mol T*S(tot)=    22.50 kcal/mol
 sn=12  qrot/sn=   12922.2119 T*S(rot)=     6.50 kcal/mol T*S(tot)=    22.45 kcal/mol

-------------------
GIBBS FREE ENTHALPY
-------------------

The Gibbs free enthalpy is G = H - T*S

Total enthalpy                    ...   -250.64271784 Eh
Total entropy correction          ...     -0.03709047 Eh    -23.27 kcal/mol
-----------------------------------------------------------------------
Final Gibbs free enthalpy         ...   -250.67980832 Eh

For completeness - the Gibbs free enthalpy minus the electronic energy
G-E(el)                           ...      0.11662850 Eh     73.19 kcal/mol

                             ****ORCA TERMINATED NORMALLY****
TOTAL RUN TIME: 0 days 0 hours 15 minutes 27 seconds 687 msec
