                         Program Version 3.0.3 - RELEASE   -
|  1> ! NORI PBE0 def2-TZVP UseSym TightOPT Freq TightSCF Grid3 FinalGrid5 XYZFile
|  2> % pal
|  3>     nprocs 8
|  4> end
|  5> %method
|  6>     SymThresh 5.0e-2
|  7> end
|  8> % geom
|  9>     MaxIter 10
| 10> end
| 11> % maxcore 2000
| 12> % output
| 13>     printlevel mini
| 14>     print[ P_Basis ] 0
| 15>     print[ P_SCFInfo ] 1
| 16>     print[ P_SCFIterInfo ] 1
| 17>     print[ P_OrbEn ] 0
| 18>     print[ P_Cartesian ] 0
| 19> end
| 20> % elprop
| 21>     Dipole false
| 22> end
| 23> *xyz 1 1
| 24>  C        1.0198146379    -0.1769651219    -0.1276344076
| 25>  C        2.5049322784    -0.0212502713    -0.1899905345
| 26>  C        3.2646191891    -0.4255299334    -1.2008192683
| 27>  C        3.0821431969     0.6715127201     0.9923440981
| 28>  C        3.3823768735    -0.0573495415     2.2394940786
| 29>  N        4.4918592916     0.3627485121     1.3494078081
| 30>  H        0.6484462771    -0.6884463751    -1.0143527614
| 31>  H        0.5265903923     0.7982242947    -0.0680896434
| 32>  H        0.7120839889    -0.7467450194     0.7545553596
| 33>  H        2.8293365070    -0.9352995008    -2.0514139986
| 34>  H        4.3341485767    -0.2463291917    -1.2547759399
| 35>  H        2.8603079541     1.7301868547     1.1010857946
| 36>  H        3.2361737733    -1.1301006589     2.2643589543
| 37>  H        3.3579624167     0.4588087058     3.1903371715
| 38>  H        5.1046855420     1.1127812831     1.6501930770
| 39>  H        4.9456991043    -0.3630967567     0.8032102119
| 40> *
| 41>
| 42>                          ****END OF INPUT****
 Total Charge           Charge          ....    1
 Multiplicity           Mult            ....    1
 Number of Electrons    NEL             ....   46
FINAL SINGLE POINT ENERGY      -250.791626850026

CARTESIAN COORDINATES (ANGSTROEM)
---------------------------------
  C      0.371854   -0.000237   -2.050734
  C     -0.368548   -0.187584   -0.766016
  C     -1.690927   -0.195952   -0.650845
  C      0.518492   -0.400454    0.408107
  C      1.130608    0.734415    1.125475
  N     -0.000255   -0.000306    1.742504
  H     -0.321664    0.150860   -2.876347
  H      0.985309   -0.877206   -2.279833
  H      1.046502    0.859837   -2.003915
  H     -2.323083   -0.031461   -1.514653
  H     -2.209122   -0.394409    0.282369
  H      1.062584   -1.340582    0.451509
  H      0.872806    1.741976    0.823878
  H      2.074403    0.607440    1.639802
  H      0.180275   -0.593739    2.544729
  H     -0.902503    0.465493    1.753446

FINAL SINGLE POINT ENERGY      -250.791627560495
                    ***********************HURRAY********************
 Multiplicity           Mult            ....    1
 Number of Electrons    NEL             ....   46
 Basis Dimension        Dim             ....  246
FINAL SINGLE POINT ENERGY      -250.791627732767

VIBRATIONAL FREQUENCIES
-----------------------

   0:         0.00 cm**-1
   1:         0.00 cm**-1
   2:         0.00 cm**-1
   3:         0.00 cm**-1
   4:         0.00 cm**-1
   5:         0.00 cm**-1
   6:        77.89 cm**-1
   7:       167.68 cm**-1
   8:       221.49 cm**-1
   9:       258.82 cm**-1
  10:       383.97 cm**-1
  11:       490.13 cm**-1
  12:       538.25 cm**-1
  13:       704.74 cm**-1
  14:       765.39 cm**-1
  15:       845.27 cm**-1
  16:       887.20 cm**-1
  17:       892.58 cm**-1
  18:       942.84 cm**-1
  19:       961.53 cm**-1
  20:       976.13 cm**-1
  21:      1023.57 cm**-1
  22:      1032.56 cm**-1
  23:      1060.75 cm**-1
  24:      1123.81 cm**-1
  25:      1163.13 cm**-1
  26:      1179.01 cm**-1
  27:      1248.19 cm**-1
  28:      1263.55 cm**-1
  29:      1273.76 cm**-1
  30:      1412.52 cm**-1
  31:      1419.57 cm**-1
  32:      1448.62 cm**-1
  33:      1468.35 cm**-1
  34:      1483.85 cm**-1
  35:      1492.14 cm**-1
  36:      1617.63 cm**-1
  37:      1736.27 cm**-1
  38:      3049.07 cm**-1
  39:      3107.34 cm**-1
  40:      3158.22 cm**-1
  41:      3165.03 cm**-1
  42:      3168.55 cm**-1
  43:      3170.83 cm**-1
  44:      3249.93 cm**-1
  45:      3276.07 cm**-1
  46:      3504.39 cm**-1
  47:      3611.15 cm**-1

IR SPECTRUM
-----------

 Mode    freq (cm**-1)   T**2         TX         TY         TZ
-------------------------------------------------------------------
   6:        77.89    1.673995  (  0.390278  -1.230430   0.087861)
   7:       167.68    0.226333  (  0.262439   0.188165   0.349360)
   8:       221.49    1.363436  ( -0.991493  -0.531125  -0.313502)
   9:       258.82    5.672508  ( -1.059249   0.706899  -2.012658)
  10:       383.97    8.035352  ( -0.117634  -1.360792  -2.483900)
  11:       490.13    0.162605  ( -0.317459   0.163792  -0.187076)
  12:       538.25   11.711107  (  0.409654   3.261515   0.951741)
  13:       704.74    0.118216  ( -0.252345   0.088680  -0.216041)
  14:       765.39    1.323319  (  0.941306   0.559701   0.352130)
  15:       845.27   12.943503  (  1.970849   0.735703  -2.918561)
  16:       887.20    3.207694  (  0.370400   0.004723  -1.752277)
  17:       892.58    4.233330  (  0.686409  -0.625783   1.835911)
  18:       942.84    6.785857  (  1.390086   0.905848  -2.008223)
  19:       961.53   32.006422  (  2.094061  -4.327844  -2.981794)
  20:       976.13   24.028982  ( -1.129186  -4.713071   0.735450)
  21:      1023.57    4.787531  ( -1.794340   0.373608  -1.195111)
  22:      1032.56  107.691038  ( -3.227296  -7.520960  -6.380498)
  23:      1060.75    1.339382  (  0.108814   1.148944   0.086424)
  24:      1123.81    4.914478  ( -0.773621   0.646584  -1.974315)
  25:      1163.13    1.750259  ( -0.778798   0.146574   1.059363)
  26:      1179.01    1.702799  ( -0.582261   0.918600   0.721072)
  27:      1248.19    1.251292  ( -0.653833  -0.015305  -0.907503)
  28:      1263.55    4.064608  (  1.177161  -0.562059  -1.537202)
  29:      1273.76    6.230802  ( -2.147833   0.001123  -1.271855)
  30:      1412.52    9.290233  (  1.064261   0.633962  -2.784901)
  31:      1419.57    2.556211  ( -1.362202   0.802742   0.237114)
  32:      1448.62    0.388559  (  0.203337  -0.183856  -0.559830)
  33:      1468.35   14.415905  ( -0.043423   3.719726   0.760039)
  34:      1483.85   13.362766  ( -3.163733   1.669470  -0.752614)
  35:      1492.14   26.681147  (  4.478540   2.280429   1.193093)
  36:      1617.63   70.558352  (  4.461798  -0.384172  -7.106555)
  37:      1736.27    7.246774  ( -2.432389  -0.190119   1.137591)
  38:      3049.07    2.982934  (  1.675365   0.266741  -0.323937)
  39:      3107.34    3.486167  (  0.451735   1.805871   0.144684)
  40:      3158.22    5.639516  (  0.421401  -0.315630   2.315667)
  41:      3165.03    1.004178  (  0.772042  -0.003409   0.638840)
  42:      3168.55    3.086177  (  0.505693   1.406829   0.922650)
  43:      3170.83    2.265805  (  1.022006   1.102842   0.071054)
  44:      3249.93    1.579605  ( -1.010345   0.016158   0.747360)
  45:      3276.07    6.111431  (  1.494311  -1.743841   0.915140)
  46:      3504.39   82.633701  ( -5.839482  -1.054826   6.886326)
  47:      3611.15  136.825374  (  6.033177  -6.780040   7.379513)

--------------------------
THERMOCHEMISTRY AT 298.15K
--------------------------

Temperature         ... 298.15 K
Pressure            ... 1.00 atm
Total Mass          ... 84.14 AMU

Throughout the following assumptions are being made:
  (1) The electronic state is orbitally nondegenerate
  (2) There are no thermally accessible electronically excited states
  (3) Hindered rotations indicated by low frequency modes) are not
      treated as such but are treated as vibrations and this may
      case some error
  (4) All equations used are the standard statistical mechanics
      equations for an ideal gas
  (5) All vibrations are strinctly harmonic

------------
INNER ENERGY
------------

The inner energy is: U= E(el) + E(ZPE) + E(vib) + E(rot) + E(trans)
    E(el)   - is the total energy from the electronic structure calculation
              = E(kin-el) + E(nuc-el) + E(el-el) + E(nuc-nuc)
    E(ZPE)  - the the zero temperature vibrational energy from the frequency calculation
    E(vib)  - the the finite temperature correction to E(ZPE) due to population
              of excietd vibrational states
    E(rot)  - is the rotational thermal energy
    E(trans)- is the translational thermal energy

Summary of contributions to the inner energy U:
Electronic energy                ...   -250.79162773 Eh
Zero point energy                ...      0.14585236 Eh      91.52 kcal/mol
Thermal vibrational correction   ...      0.00389013 Eh       2.44 kcal/mol
Thermal rotational correction    ...      0.00141627 Eh       0.89 kcal/mol
Thermal translational correction ...      0.00141627 Eh       0.89 kcal/mol
-----------------------------------------------------------------------
Total thermal energy                   -250.63905270 Eh

Summary of corrections to the electronic energy:
(perhaps to be used in another calculation)
Total thermal correction                  0.00672267 Eh       4.22 kcal/mol
Non-thermal (ZPE) correction              0.14585236 Eh      91.52 kcal/mol
-----------------------------------------------------------------------
Total correction                          0.15257503 Eh      95.74 kcal/mol

--------
ENTHALPY
--------

The enthalpy is H = U + kB*T
                kB is Boltzmann's constant
Total free energy                 ...   -250.63905270 Eh
Thermal Enthalpy correction       ...      0.00094421 Eh       0.59 kcal/mol
-----------------------------------------------------------------------
Total Enthalpy                    ...   -250.63810849 Eh

-------
ENTROPY
-------

The entropy contributions are T*S = T*(S(el)+S(vib)+S(rot)+S(trans)
     S(el)   - electronic entropy
     S(vib)  - vibrational entropy
     S(rot)  - rotational entropy
     S(trans)- translational entropy
The entropies will be listed as mutliplied by the temperature to get
units of energy

Electronic entropy                ...      0.00000000 Eh      0.00 kcal/mol
Vibrational entropy               ...      0.00675332 Eh      4.24 kcal/mol
Rotational entropy                ...      0.01158119 Eh      7.27 kcal/mol
Translational entropy             ...      0.01862670 Eh     11.69 kcal/mol
-----------------------------------------------------------------------
Final entropy term                ...      0.03696122 Eh     23.19 kcal/mol

CAUTION: The rotational entropy is not quite correctly treated here
         because it includes a symmetry number that is not yet correctly
         implemented in ORCA!
For a nonlinear molecule the correct rotational entropy is:
    S(rot) = R*(ln(qrot/sn)+1.5)
    R    = 8.31441 J/mol/K = 1.987191683e-3 kcal/mol/K
    qrot = 142126.7969960
    sn is the rotational symmetry number. We have assumed 3 here
       if it is different for your molecule then you should correct
       the printed rotational entropy by manually evaluating the equation
       as given above

For convenience we print out the resulting values for sn=1 - 12:
 sn= 1  qrot/sn=  142126.7970 T*S(rot)=     7.92 kcal/mol T*S(tot)=    23.84 kcal/mol
 sn= 2  qrot/sn=   71063.3985 T*S(rot)=     7.51 kcal/mol T*S(tot)=    23.43 kcal/mol
 sn= 3  qrot/sn=   47375.5990 T*S(rot)=     7.27 kcal/mol T*S(tot)=    23.19 kcal/mol
 sn= 4  qrot/sn=   35531.6992 T*S(rot)=     7.10 kcal/mol T*S(tot)=    23.02 kcal/mol
 sn= 5  qrot/sn=   28425.3594 T*S(rot)=     6.96 kcal/mol T*S(tot)=    22.89 kcal/mol
 sn= 6  qrot/sn=   23687.7995 T*S(rot)=     6.86 kcal/mol T*S(tot)=    22.78 kcal/mol
 sn= 7  qrot/sn=   20303.8281 T*S(rot)=     6.77 kcal/mol T*S(tot)=    22.69 kcal/mol
 sn= 8  qrot/sn=   17765.8496 T*S(rot)=     6.69 kcal/mol T*S(tot)=    22.61 kcal/mol
 sn= 9  qrot/sn=   15791.8663 T*S(rot)=     6.62 kcal/mol T*S(tot)=    22.54 kcal/mol
 sn=10  qrot/sn=   14212.6797 T*S(rot)=     6.55 kcal/mol T*S(tot)=    22.48 kcal/mol
 sn=11  qrot/sn=   12920.6179 T*S(rot)=     6.50 kcal/mol T*S(tot)=    22.42 kcal/mol
 sn=12  qrot/sn=   11843.8997 T*S(rot)=     6.45 kcal/mol T*S(tot)=    22.37 kcal/mol

-------------------
GIBBS FREE ENTHALPY
-------------------

The Gibbs free enthalpy is G = H - T*S

Total enthalpy                    ...   -250.63810849 Eh
Total entropy correction          ...     -0.03696122 Eh    -23.19 kcal/mol
-----------------------------------------------------------------------
Final Gibbs free enthalpy         ...   -250.67506971 Eh

For completeness - the Gibbs free enthalpy minus the electronic energy
G-E(el)                           ...      0.11655802 Eh     73.14 kcal/mol

                             ****ORCA TERMINATED NORMALLY****
TOTAL RUN TIME: 0 days 0 hours 17 minutes 2 seconds 488 msec
