                         Program Version 3.0.3 - RELEASE   -
|  1> ! NORI PBE0 def2-TZVP UseSym TightOPT Freq TightSCF Grid3 FinalGrid5 XYZFile
|  2> % pal
|  3>     nprocs 8
|  4> end
|  5> %method
|  6>     SymThresh 5.0e-2
|  7> end
|  8> % geom
|  9>     MaxIter 10
| 10> end
| 11> % maxcore 2000
| 12> % output
| 13>     printlevel mini
| 14>     print[ P_Basis ] 0
| 15>     print[ P_SCFInfo ] 1
| 16>     print[ P_SCFIterInfo ] 1
| 17>     print[ P_OrbEn ] 0
| 18>     print[ P_Cartesian ] 0
| 19> end
| 20> % elprop
| 21>     Dipole false
| 22> end
| 23> *xyz 1 1
| 24>  C        1.0232250101    -0.2152188208     0.1307544585
| 25>  C        2.5106342432     0.1070336876     0.0367542575
| 26>  C        3.0078028670     0.8616119691     1.2614633066
| 27>  C        3.2875440505    -1.1468094751    -0.2778553942
| 28>  C        4.6933773251    -1.3872226094     0.0783437147
| 29>  N        3.6287182573    -2.0635870149     0.8591286896
| 30>  H        0.6579996164    -0.7171272066    -0.7678878277
| 31>  H        0.4472483014     0.7020969808     0.2539262421
| 32>  H        0.8059518545    -0.8557117660     0.9911316526
| 33>  H        2.6708888182     0.7416658425    -0.8437523947
| 34>  H        2.8659727129     0.2971969433     2.1909613113
| 35>  H        2.4247883984     1.7748331393     1.3799900473
| 36>  H        4.0541484922     1.1630820630     1.1858374329
| 37>  H        2.9157863360    -1.7167817339    -1.1241092879
| 38>  H        5.2394223943    -0.6481162050     0.6492940081
| 39>  H        5.2913439403    -2.0582584699    -0.5248462453
| 40>  H        3.5008396449    -3.0630916873     0.7499877906
| 41>  H        3.4537577374    -1.7173456366     1.7966182381
| 42> *
| 43>
| 44>                          ****END OF INPUT****
 Total Charge           Charge          ....    1
 Multiplicity           Mult            ....    1
 Number of Electrons    NEL             ....   48
FINAL SINGLE POINT ENERGY      -252.023525466409
FINAL SINGLE POINT ENERGY      -252.023527819298

CARTESIAN COORDINATES (ANGSTROEM)
---------------------------------
  C      1.656913   -0.001539   -1.216868
  C      0.155116    0.071131   -0.961990
  C     -0.508126   -1.294578   -1.071024
  C     -0.109552    0.789342    0.337740
  C     -1.291422    0.594456    1.190322
  N      0.001859    0.003460    1.610638
  H      2.123442    0.985129   -1.180152
  H      1.850812   -0.422465   -2.203822
  H      2.157077   -0.643459   -0.485400
  H     -0.291856    0.728027   -1.718448
  H     -0.101256   -2.020251   -0.356802
  H     -0.308896   -1.711759   -2.058637
  H     -1.593269   -1.256189   -0.958675
  H      0.388728    1.748057    0.441900
  H     -2.033927   -0.145187    0.922115
  H     -1.633552    1.401791    1.824737
  H      0.489512    0.404750    2.403097
  H      0.099842   -1.002551    1.522892

FINAL SINGLE POINT ENERGY      -252.023528694465
                    ***********************HURRAY********************
 Multiplicity           Mult            ....    1
 Number of Electrons    NEL             ....   48
 Basis Dimension        Dim             ....  258
FINAL SINGLE POINT ENERGY      -252.023528998556

VIBRATIONAL FREQUENCIES
-----------------------

   0:         0.00 cm**-1
   1:         0.00 cm**-1
   2:         0.00 cm**-1
   3:         0.00 cm**-1
   4:         0.00 cm**-1
   5:         0.00 cm**-1
   6:        60.36 cm**-1
   7:       208.25 cm**-1
   8:       238.25 cm**-1
   9:       253.08 cm**-1
  10:       270.83 cm**-1
  11:       367.38 cm**-1
  12:       451.82 cm**-1
  13:       537.11 cm**-1
  14:       721.03 cm**-1
  15:       811.74 cm**-1
  16:       866.96 cm**-1
  17:       885.56 cm**-1
  18:       908.60 cm**-1
  19:       933.19 cm**-1
  20:       957.05 cm**-1
  21:       980.05 cm**-1
  22:      1019.52 cm**-1
  23:      1063.04 cm**-1
  24:      1116.41 cm**-1
  25:      1162.47 cm**-1
  26:      1173.63 cm**-1
  27:      1190.28 cm**-1
  28:      1213.33 cm**-1
  29:      1252.95 cm**-1
  30:      1284.40 cm**-1
  31:      1325.77 cm**-1
  32:      1367.87 cm**-1
  33:      1405.39 cm**-1
  34:      1411.62 cm**-1
  35:      1437.49 cm**-1
  36:      1470.99 cm**-1
  37:      1485.00 cm**-1
  38:      1494.16 cm**-1
  39:      1499.62 cm**-1
  40:      1511.15 cm**-1
  41:      1623.89 cm**-1
  42:      3034.91 cm**-1
  43:      3048.01 cm**-1
  44:      3055.80 cm**-1
  45:      3117.79 cm**-1
  46:      3125.40 cm**-1
  47:      3147.52 cm**-1
  48:      3150.71 cm**-1
  49:      3178.18 cm**-1
  50:      3186.63 cm**-1
  51:      3278.10 cm**-1
  52:      3513.68 cm**-1
  53:      3619.88 cm**-1

IR SPECTRUM
-----------

 Mode    freq (cm**-1)   T**2         TX         TY         TZ
-------------------------------------------------------------------
   6:        60.36    2.905081  (  1.326539   1.050816  -0.202880)
   7:       208.25    2.553888  ( -0.601691   0.605429   1.351041)
   8:       238.25    3.178615  ( -0.115877  -1.018545  -1.458682)
   9:       253.08    4.084827  ( -0.536197   0.743701   1.801174)
  10:       270.83    2.307895  (  0.065740  -0.570809  -1.406325)
  11:       367.38    0.243478  ( -0.047139  -0.005841   0.491143)
  12:       451.82    0.145638  (  0.011766   0.002077   0.381438)
  13:       537.11    1.762183  (  0.144586  -0.034642  -1.319120)
  14:       721.03    1.028047  ( -0.107157   0.943962   0.354260)
  15:       811.74   14.467977  ( -1.861039   1.500117  -2.958743)
  16:       866.96    2.860077  ( -1.081213   0.487978   1.205377)
  17:       885.56    7.517132  ( -1.179551  -0.609114  -2.398911)
  18:       908.60    7.538411  ( -0.213429   2.066284  -1.795363)
  19:       933.19    0.920282  (  0.945080   0.039745  -0.159767)
  20:       957.05    8.034358  ( -1.551756   1.303264  -1.981896)
  21:       980.05    9.290954  (  0.350018   1.938430  -2.326141)
  22:      1019.52   91.287697  ( -7.142546  -1.361659   6.198195)
  23:      1063.04    7.025606  ( -0.953548   1.009884   2.257540)
  24:      1116.41    9.181192  ( -0.890147   1.779331   2.285347)
  25:      1162.47    0.713691  (  0.263667  -0.802573  -0.006928)
  26:      1173.63    4.837310  (  0.877660   0.188512  -2.007856)
  27:      1190.28    2.401256  ( -0.542302  -0.514054   1.357539)
  28:      1213.33    0.126031  (  0.328383   0.133165   0.021520)
  29:      1252.95    3.502061  ( -0.332440   1.356761   1.245289)
  30:      1284.40    4.197065  ( -0.435024   2.000767   0.068921)
  31:      1325.77    1.561544  ( -0.218470   0.001110  -1.230371)
  32:      1367.87    3.386960  (  0.605603  -0.062734  -1.736741)
  33:      1405.39    4.303749  (  0.953860   1.741004   0.602332)
  34:      1411.62    7.834868  (  2.758741   0.472955   0.023027)
  35:      1437.49    6.722267  ( -0.116236  -2.585185  -0.159923)
  36:      1470.99    0.941770  (  0.122336  -0.717999  -0.641312)
  37:      1485.00    2.240584  (  0.800976  -0.875118  -0.912792)
  38:      1494.16   14.561235  ( -2.006019  -2.147532   2.434179)
  39:      1499.62   16.784961  (  0.069139  -1.498814  -3.812314)
  40:      1511.15   21.419824  (  3.920157  -1.992153   1.443441)
  41:      1623.89   74.443313  ( -3.486139   4.080177  -6.755909)
  42:      3034.91   15.244981  (  0.566532   1.990069  -3.311140)
  43:      3048.01    3.854727  ( -1.687292  -0.737014  -0.681603)
  44:      3055.80    7.203835  (  1.937663  -1.406963   1.212334)
  45:      3117.79    9.921410  (  2.952297  -0.441777   1.005079)
  46:      3125.40   13.753721  (  0.484756  -3.137251   1.917392)
  47:      3147.52    4.057710  ( -1.951278  -0.474705   0.157726)
  48:      3150.71    4.713878  (  0.162813  -1.227379  -1.783511)
  49:      3178.18    1.387367  ( -1.059352   0.327569   0.397290)
  50:      3186.63    0.294884  (  0.151577   0.166232  -0.494242)
  51:      3278.10    5.300686  (  0.366157   1.920977   1.215098)
  52:      3513.68   78.573309  (  4.452324  -4.916280   5.880503)
  53:      3619.88  139.006454  (  3.050684   8.299328   7.798778)

--------------------------
THERMOCHEMISTRY AT 298.15K
--------------------------

Temperature         ... 298.15 K
Pressure            ... 1.00 atm
Total Mass          ... 86.16 AMU

Throughout the following assumptions are being made:
  (1) The electronic state is orbitally nondegenerate
  (2) There are no thermally accessible electronically excited states
  (3) Hindered rotations indicated by low frequency modes) are not
      treated as such but are treated as vibrations and this may
      case some error
  (4) All equations used are the standard statistical mechanics
      equations for an ideal gas
  (5) All vibrations are strinctly harmonic

------------
INNER ENERGY
------------

The inner energy is: U= E(el) + E(ZPE) + E(vib) + E(rot) + E(trans)
    E(el)   - is the total energy from the electronic structure calculation
              = E(kin-el) + E(nuc-el) + E(el-el) + E(nuc-nuc)
    E(ZPE)  - the the zero temperature vibrational energy from the frequency calculation
    E(vib)  - the the finite temperature correction to E(ZPE) due to population
              of excietd vibrational states
    E(rot)  - is the rotational thermal energy
    E(trans)- is the translational thermal energy

Summary of contributions to the inner energy U:
Electronic energy                ...   -252.02352900 Eh
Zero point energy                ...      0.16953400 Eh     106.38 kcal/mol
Thermal vibrational correction   ...      0.00433934 Eh       2.72 kcal/mol
Thermal rotational correction    ...      0.00141627 Eh       0.89 kcal/mol
Thermal translational correction ...      0.00141627 Eh       0.89 kcal/mol
-----------------------------------------------------------------------
Total thermal energy                   -251.84682311 Eh

Summary of corrections to the electronic energy:
(perhaps to be used in another calculation)
Total thermal correction                  0.00717188 Eh       4.50 kcal/mol
Non-thermal (ZPE) correction              0.16953400 Eh     106.38 kcal/mol
-----------------------------------------------------------------------
Total correction                          0.17670589 Eh     110.88 kcal/mol

--------
ENTHALPY
--------

The enthalpy is H = U + kB*T
                kB is Boltzmann's constant
Total free energy                 ...   -251.84682311 Eh
Thermal Enthalpy correction       ...      0.00094421 Eh       0.59 kcal/mol
-----------------------------------------------------------------------
Total Enthalpy                    ...   -251.84587890 Eh

-------
ENTROPY
-------

The entropy contributions are T*S = T*(S(el)+S(vib)+S(rot)+S(trans)
     S(el)   - electronic entropy
     S(vib)  - vibrational entropy
     S(rot)  - rotational entropy
     S(trans)- translational entropy
The entropies will be listed as mutliplied by the temperature to get
units of energy

Electronic entropy                ...      0.00000000 Eh      0.00 kcal/mol
Vibrational entropy               ...      0.00757808 Eh      4.76 kcal/mol
Rotational entropy                ...      0.01163610 Eh      7.30 kcal/mol
Translational entropy             ...      0.01866024 Eh     11.71 kcal/mol
-----------------------------------------------------------------------
Final entropy term                ...      0.03787441 Eh     23.77 kcal/mol

CAUTION: The rotational entropy is not quite correctly treated here
         because it includes a symmetry number that is not yet correctly
         implemented in ORCA!
For a nonlinear molecule the correct rotational entropy is:
    S(rot) = R*(ln(qrot/sn)+1.5)
    R    = 8.31441 J/mol/K = 1.987191683e-3 kcal/mol/K
    qrot = 150636.0473643
    sn is the rotational symmetry number. We have assumed 3 here
       if it is different for your molecule then you should correct
       the printed rotational entropy by manually evaluating the equation
       as given above

For convenience we print out the resulting values for sn=1 - 12:
 sn= 1  qrot/sn=  150636.0474 T*S(rot)=     7.95 kcal/mol T*S(tot)=    24.42 kcal/mol
 sn= 2  qrot/sn=   75318.0237 T*S(rot)=     7.54 kcal/mol T*S(tot)=    24.01 kcal/mol
 sn= 3  qrot/sn=   50212.0158 T*S(rot)=     7.30 kcal/mol T*S(tot)=    23.77 kcal/mol
 sn= 4  qrot/sn=   37659.0118 T*S(rot)=     7.13 kcal/mol T*S(tot)=    23.60 kcal/mol
 sn= 5  qrot/sn=   30127.2095 T*S(rot)=     7.00 kcal/mol T*S(tot)=    23.46 kcal/mol
 sn= 6  qrot/sn=   25106.0079 T*S(rot)=     6.89 kcal/mol T*S(tot)=    23.36 kcal/mol
 sn= 7  qrot/sn=   21519.4353 T*S(rot)=     6.80 kcal/mol T*S(tot)=    23.26 kcal/mol
 sn= 8  qrot/sn=   18829.5059 T*S(rot)=     6.72 kcal/mol T*S(tot)=    23.19 kcal/mol
 sn= 9  qrot/sn=   16737.3386 T*S(rot)=     6.65 kcal/mol T*S(tot)=    23.12 kcal/mol
 sn=10  qrot/sn=   15063.6047 T*S(rot)=     6.59 kcal/mol T*S(tot)=    23.05 kcal/mol
 sn=11  qrot/sn=   13694.1861 T*S(rot)=     6.53 kcal/mol T*S(tot)=    23.00 kcal/mol
 sn=12  qrot/sn=   12553.0039 T*S(rot)=     6.48 kcal/mol T*S(tot)=    22.95 kcal/mol

-------------------
GIBBS FREE ENTHALPY
-------------------

The Gibbs free enthalpy is G = H - T*S

Total enthalpy                    ...   -251.84587890 Eh
Total entropy correction          ...     -0.03787441 Eh    -23.77 kcal/mol
-----------------------------------------------------------------------
Final Gibbs free enthalpy         ...   -251.88375331 Eh

For completeness - the Gibbs free enthalpy minus the electronic energy
G-E(el)                           ...      0.13977569 Eh     87.71 kcal/mol

                             ****ORCA TERMINATED NORMALLY****
TOTAL RUN TIME: 0 days 0 hours 24 minutes 28 seconds 413 msec
