                         Program Version 3.0.3 - RELEASE   -
|  1> ! NORI PBE0 def2-TZVP UseSym TightOPT Freq TightSCF Grid3 FinalGrid5 XYZFile
|  2> % pal
|  3>     nprocs 8
|  4> end
|  5> %method
|  6>     SymThresh 5.0e-2
|  7> end
|  8> % geom
|  9>     MaxIter 10
| 10> end
| 11> % maxcore 2000
| 12> % output
| 13>     printlevel mini
| 14>     print[ P_Basis ] 0
| 15>     print[ P_SCFInfo ] 1
| 16>     print[ P_SCFIterInfo ] 1
| 17>     print[ P_OrbEn ] 0
| 18>     print[ P_Cartesian ] 0
| 19> end
| 20> % elprop
| 21>     Dipole false
| 22> end
| 23> *xyz 1 1
| 24>  C        1.0133850988     0.0719984350    -0.0862119425
| 25>  C        2.4557643675     0.0326503963    -0.0977701779
| 26>  C        3.6589780079    -0.0057524051    -0.1017098250
| 27>  C        5.0764785687    -0.0788454561    -0.0532593173
| 28>  C        5.8656495424    -0.7068270914    -1.1344091219
| 29>  N        5.8283720952     0.7693979914    -1.0639933814
| 30>  H        0.6351374988    -0.3952163247     0.8263584483
| 31>  H        0.6015140171    -0.4619858351    -0.9450073647
| 32>  H        0.6584125917     1.1046171846    -0.1116721440
| 33>  H        5.5483039981    -0.0244157722     0.9237679493
| 34>  H        6.8332873506    -1.1344125780    -0.9066099250
| 35>  H        5.3401478205    -1.1184122901    -1.9860143400
| 36>  H        5.2582734139     1.2636043982    -1.7428907654
| 37>  H        6.6597756286     1.2665693472    -0.7630080926
| 38> *
| 39>
| 40>                          ****END OF INPUT****
 Total Charge           Charge          ....    1
 Multiplicity           Mult            ....    1
 Number of Electrons    NEL             ....   44
FINAL SINGLE POINT ENERGY      -249.544441449332

CARTESIAN COORDINATES (ANGSTROEM)
---------------------------------
  C      1.258716    0.000049   -2.759789
  C      0.577638    0.135428   -1.494910
  C      0.002987    0.250845   -0.443465
  C     -0.716095    0.420988    0.769346
  C     -1.194185   -0.730118    1.564636
  N      0.000027   -0.000062    2.040779
  H      0.719036    0.550468   -3.534259
  H      1.320843   -1.048111   -3.059218
  H      2.270320    0.407413   -2.695526
  H     -1.239004    1.361972    0.914205
  H     -2.063567   -0.613632    2.198581
  H     -0.983602   -1.729143    1.206643
  H      0.906646   -0.439108    1.917166
  H     -0.080566    0.586704    2.864383

FINAL SINGLE POINT ENERGY      -249.544441709990
                    ***********************HURRAY********************
 Multiplicity           Mult            ....    1
 Number of Electrons    NEL             ....   44
 Basis Dimension        Dim             ....  234
FINAL SINGLE POINT ENERGY      -249.544441856283

VIBRATIONAL FREQUENCIES
-----------------------

   0:         0.00 cm**-1
   1:         0.00 cm**-1
   2:         0.00 cm**-1
   3:         0.00 cm**-1
   4:         0.00 cm**-1
   5:         0.00 cm**-1
   6:        15.31 cm**-1
   7:       121.27 cm**-1
   8:       131.61 cm**-1
   9:       333.96 cm**-1
  10:       345.50 cm**-1
  11:       480.51 cm**-1
  12:       506.14 cm**-1
  13:       687.67 cm**-1
  14:       744.28 cm**-1
  15:       865.66 cm**-1
  16:       888.93 cm**-1
  17:       933.64 cm**-1
  18:      1014.41 cm**-1
  19:      1032.81 cm**-1
  20:      1039.56 cm**-1
  21:      1058.41 cm**-1
  22:      1147.95 cm**-1
  23:      1171.47 cm**-1
  24:      1215.04 cm**-1
  25:      1254.35 cm**-1
  26:      1265.96 cm**-1
  27:      1399.78 cm**-1
  28:      1429.62 cm**-1
  29:      1450.91 cm**-1
  30:      1453.01 cm**-1
  31:      1488.91 cm**-1
  32:      1621.35 cm**-1
  33:      2369.55 cm**-1
  34:      3058.71 cm**-1
  35:      3134.55 cm**-1
  36:      3140.15 cm**-1
  37:      3176.50 cm**-1
  38:      3177.66 cm**-1
  39:      3282.90 cm**-1
  40:      3505.76 cm**-1
  41:      3617.21 cm**-1

IR SPECTRUM
-----------

 Mode    freq (cm**-1)   T**2         TX         TY         TZ
-------------------------------------------------------------------
   7:       121.27   10.645749  ( -2.598715   1.972842  -0.018041)
   8:       131.61    8.679018  (  2.043731   2.112286   0.201067)
   9:       333.96    4.919905  (  0.201221  -2.037579   0.853046)
  10:       345.50    4.064823  (  1.356879   0.031533   1.490875)
  11:       480.51    6.213964  ( -0.501655   1.811739  -1.637042)
  12:       506.14    2.694272  (  1.243589   0.994850   0.397534)
  13:       687.67    2.366228  ( -0.640405   0.579300  -1.272996)
  14:       744.28   57.187071  (  0.568964   0.074027   7.540416)
  15:       865.66    4.929151  (  1.751796   0.567879  -1.240111)
  16:       888.93    5.429387  (  0.801787   0.943896   1.973723)
  17:       933.64   24.637513  ( -2.652618   1.493232  -3.920637)
  18:      1014.41   89.664792  (  2.851630   7.613953  -4.853938)
  19:      1032.81    4.728081  ( -2.088497  -0.509562  -0.326508)
  20:      1039.56    2.183155  ( -0.481484  -1.229045   0.663910)
  21:      1058.41    7.618274  ( -0.661930   1.419866   2.272466)
  22:      1147.95    2.278501  (  1.353550  -0.247741  -0.620506)
  23:      1171.47    1.818296  ( -0.330303  -0.812384   1.024318)
  24:      1215.04    3.895450  ( -1.807138   0.647663  -0.458516)
  25:      1254.35    3.179399  ( -1.216610   0.162464   1.293393)
  26:      1265.96    4.911744  (  1.994562  -0.937381  -0.234058)
  27:      1399.78    9.800807  ( -1.399947   0.244846   2.789445)
  28:      1429.62   43.703995  (  2.426986  -1.143338  -6.042062)
  29:      1450.91   14.658227  (  1.228130   3.624795  -0.103857)
  30:      1453.01   13.993693  ( -3.126415   1.023977  -1.780644)
  31:      1488.91   21.692233  ( -2.708341  -2.561703   2.791916)
  32:      1621.35   72.977687  (  5.040132   0.313242   6.890329)
  33:      2369.55  223.735300  (  6.240447  -0.384679 -13.588382)
  34:      3058.71    2.033389  ( -0.458943  -0.182322   1.337729)
  35:      3134.55    0.967104  (  0.679672  -0.191691   0.684401)
  36:      3140.15    0.725075  ( -0.222753  -0.628271   0.529842)
  37:      3176.50    7.614840  (  1.150717   2.073030  -1.411821)
  38:      3177.66    3.776909  ( -0.580398   1.131498  -1.469612)
  39:      3282.90    7.699358  (  1.421610  -2.011967  -1.276859)
  40:      3505.76  119.876531  (  6.471608   1.171690   8.753397)
  41:      3617.21  132.185005  ( -6.550412   6.841676   6.516792)

--------------------------
THERMOCHEMISTRY AT 298.15K
--------------------------

Temperature         ... 298.15 K
Pressure            ... 1.00 atm
Total Mass          ... 82.13 AMU

Throughout the following assumptions are being made:
  (1) The electronic state is orbitally nondegenerate
  (2) There are no thermally accessible electronically excited states
  (3) Hindered rotations indicated by low frequency modes) are not
      treated as such but are treated as vibrations and this may
      case some error
  (4) All equations used are the standard statistical mechanics
      equations for an ideal gas
  (5) All vibrations are strinctly harmonic

------------
INNER ENERGY
------------

The inner energy is: U= E(el) + E(ZPE) + E(vib) + E(rot) + E(trans)
    E(el)   - is the total energy from the electronic structure calculation
              = E(kin-el) + E(nuc-el) + E(el-el) + E(nuc-nuc)
    E(ZPE)  - the the zero temperature vibrational energy from the frequency calculation
    E(vib)  - the the finite temperature correction to E(ZPE) due to population
              of excietd vibrational states
    E(rot)  - is the rotational thermal energy
    E(trans)- is the translational thermal energy

Summary of contributions to the inner energy U:
Electronic energy                ...   -249.54444186 Eh
Zero point energy                ...      0.12198605 Eh      76.55 kcal/mol
Thermal vibrational correction   ...      0.00319806 Eh       2.01 kcal/mol
Thermal rotational correction    ...      0.00141627 Eh       0.89 kcal/mol
Thermal translational correction ...      0.00141627 Eh       0.89 kcal/mol
-----------------------------------------------------------------------
Total thermal energy                   -249.41642521 Eh

Summary of corrections to the electronic energy:
(perhaps to be used in another calculation)
Total thermal correction                  0.00603060 Eh       3.78 kcal/mol
Non-thermal (ZPE) correction              0.12198605 Eh      76.55 kcal/mol
-----------------------------------------------------------------------
Total correction                          0.12801665 Eh      80.33 kcal/mol

--------
ENTHALPY
--------

The enthalpy is H = U + kB*T
                kB is Boltzmann's constant
Total free energy                 ...   -249.41642521 Eh
Thermal Enthalpy correction       ...      0.00094421 Eh       0.59 kcal/mol
-----------------------------------------------------------------------
Total Enthalpy                    ...   -249.41548100 Eh

-------
ENTROPY
-------

The entropy contributions are T*S = T*(S(el)+S(vib)+S(rot)+S(trans)
     S(el)   - electronic entropy
     S(vib)  - vibrational entropy
     S(rot)  - rotational entropy
     S(trans)- translational entropy
The entropies will be listed as mutliplied by the temperature to get
units of energy

Electronic entropy                ...      0.00000000 Eh      0.00 kcal/mol
Vibrational entropy               ...      0.00541464 Eh      3.40 kcal/mol
Rotational entropy                ...      0.01163239 Eh      7.30 kcal/mol
Translational entropy             ...      0.01859236 Eh     11.67 kcal/mol
-----------------------------------------------------------------------
Final entropy term                ...      0.03563938 Eh     22.36 kcal/mol

CAUTION: The rotational entropy is not quite correctly treated here
         because it includes a symmetry number that is not yet correctly
         implemented in ORCA!
For a nonlinear molecule the correct rotational entropy is:
    S(rot) = R*(ln(qrot/sn)+1.5)
    R    = 8.31441 J/mol/K = 1.987191683e-3 kcal/mol/K
    qrot = 150045.6790061
    sn is the rotational symmetry number. We have assumed 3 here
       if it is different for your molecule then you should correct
       the printed rotational entropy by manually evaluating the equation
       as given above

For convenience we print out the resulting values for sn=1 - 12:
 sn= 1  qrot/sn=  150045.6790 T*S(rot)=     7.95 kcal/mol T*S(tot)=    23.01 kcal/mol
 sn= 2  qrot/sn=   75022.8395 T*S(rot)=     7.54 kcal/mol T*S(tot)=    22.60 kcal/mol
 sn= 3  qrot/sn=   50015.2263 T*S(rot)=     7.30 kcal/mol T*S(tot)=    22.36 kcal/mol
 sn= 4  qrot/sn=   37511.4198 T*S(rot)=     7.13 kcal/mol T*S(tot)=    22.19 kcal/mol
 sn= 5  qrot/sn=   30009.1358 T*S(rot)=     7.00 kcal/mol T*S(tot)=    22.06 kcal/mol
 sn= 6  qrot/sn=   25007.6132 T*S(rot)=     6.89 kcal/mol T*S(tot)=    21.95 kcal/mol
 sn= 7  qrot/sn=   21435.0970 T*S(rot)=     6.80 kcal/mol T*S(tot)=    21.86 kcal/mol
 sn= 8  qrot/sn=   18755.7099 T*S(rot)=     6.72 kcal/mol T*S(tot)=    21.78 kcal/mol
 sn= 9  qrot/sn=   16671.7421 T*S(rot)=     6.65 kcal/mol T*S(tot)=    21.71 kcal/mol
 sn=10  qrot/sn=   15004.5679 T*S(rot)=     6.59 kcal/mol T*S(tot)=    21.65 kcal/mol
 sn=11  qrot/sn=   13640.5163 T*S(rot)=     6.53 kcal/mol T*S(tot)=    21.59 kcal/mol
 sn=12  qrot/sn=   12503.8066 T*S(rot)=     6.48 kcal/mol T*S(tot)=    21.54 kcal/mol

-------------------
GIBBS FREE ENTHALPY
-------------------

The Gibbs free enthalpy is G = H - T*S

Total enthalpy                    ...   -249.41548100 Eh
Total entropy correction          ...     -0.03563938 Eh    -22.36 kcal/mol
-----------------------------------------------------------------------
Final Gibbs free enthalpy         ...   -249.45112038 Eh

For completeness - the Gibbs free enthalpy minus the electronic energy
G-E(el)                           ...      0.09332148 Eh     58.56 kcal/mol

                             ****ORCA TERMINATED NORMALLY****
TOTAL RUN TIME: 0 days 0 hours 12 minutes 59 seconds 89 msec
