                         Program Version 3.0.3 - RELEASE   -
|  1> ! NORI PBE0 def2-TZVP UseSym TightOPT Freq TightSCF Grid3 FinalGrid5 XYZFile
|  2> % pal
|  3>     nprocs 8
|  4> end
|  5> %method
|  6>     SymThresh 5.0e-2
|  7> end
|  8> % geom
|  9>     MaxIter 10
| 10> end
| 11> % maxcore 2000
| 12> % output
| 13>     printlevel mini
| 14>     print[ P_Basis ] 0
| 15>     print[ P_SCFInfo ] 1
| 16>     print[ P_SCFIterInfo ] 1
| 17>     print[ P_OrbEn ] 0
| 18>     print[ P_Cartesian ] 0
| 19> end
| 20> % elprop
| 21>     Dipole false
| 22> end
| 23> *xyz 1 1
| 24>  C        1.0662416422     0.0629044068     0.0024771677
| 25>  C        2.5836294992     0.0175521749     0.0020300650
| 26>  C        3.1311219817    -1.1226155706    -0.8437832907
| 27>  C        4.6546926114    -1.1694296217    -0.8469347809
| 28>  C        5.1658960599    -2.3093383381    -1.6947945894
| 29>  N        6.6752613086    -2.3443834716    -1.6918795708
| 30>  H        0.6995542348     0.8871956221     0.6156882859
| 31>  H        0.6412613006    -0.8611442399     0.4025394061
| 32>  H        0.6721297220     0.2011145187    -1.0073609847
| 33>  H        2.9822859144     0.9673245398    -0.3716242359
| 34>  H        2.9508381076    -0.0862731607     1.0290404241
| 35>  H        2.7379126621    -2.0750602906    -0.4699330328
| 36>  H        2.7675334844    -1.0199195701    -1.8727119804
| 37>  H        5.0471967917    -0.2184909814    -1.2275857893
| 38>  H        5.0180314185    -1.2797137174     0.1820395759
| 39>  H        4.8363128910    -3.2809287874    -1.3237305295
| 40>  H        4.8642856774    -2.2155610988    -2.7390096976
| 41>  H        7.0332722106    -2.4651824596    -0.7420638959
| 42>  H        7.0579299397    -1.4669967700    -2.0508964097
| 43>  H        7.0435025423    -3.1058331845    -2.2653961374
| 44> *
| 45>
| 46>                          ****END OF INPUT****
 Total Charge           Charge          ....    1
 Multiplicity           Mult            ....    1
 Number of Electrons    NEL             ....   50
FINAL SINGLE POINT ENERGY      -253.259853370092
FINAL SINGLE POINT ENERGY      -253.259853863395

CARTESIAN COORDINATES (ANGSTROEM)
---------------------------------
  C     -3.249362   -0.001762    0.000001
  C     -1.887541    0.670065   -0.000001
  C     -0.743246   -0.333594   -0.000000
  C      0.624239    0.340646   -0.000000
  C      1.738174   -0.679153   -0.000001
  N      3.086501    0.000960    0.000001
  H     -4.050687    0.738399   -0.000000
  H     -3.381389   -0.632100    0.882984
  H     -3.381390   -0.632103   -0.882980
  H     -1.796185    1.321072   -0.876655
  H     -1.796185    1.321074    0.876651
  H     -0.828954   -0.984393    0.877912
  H     -0.828953   -0.984394   -0.877911
  H      0.711609    0.986400   -0.882491
  H      0.711609    0.986399    0.882492
  H      1.716289   -1.315443    0.885994
  H      1.716290   -1.315441   -0.885998
  H      3.190421    0.598222    0.823220
  H      3.190422    0.598225   -0.823216
  H      3.856480   -0.671031   -0.000000

FINAL SINGLE POINT ENERGY      -253.259853973760
                    ***********************HURRAY********************
 Multiplicity           Mult            ....    1
 Number of Electrons    NEL             ....   50
 Basis Dimension        Dim             ....  270
FINAL SINGLE POINT ENERGY      -253.259853958232

VIBRATIONAL FREQUENCIES
-----------------------

   0:         0.00 cm**-1
   1:         0.00 cm**-1
   2:         0.00 cm**-1
   3:         0.00 cm**-1
   4:         0.00 cm**-1
   5:         0.00 cm**-1
   6:        74.29 cm**-1
   7:        95.06 cm**-1
   8:       127.22 cm**-1
   9:       150.03 cm**-1
  10:       223.35 cm**-1
  11:       246.64 cm**-1
  12:       294.96 cm**-1
  13:       358.96 cm**-1
  14:       467.97 cm**-1
  15:       737.65 cm**-1
  16:       763.20 cm**-1
  17:       831.47 cm**-1
  18:       890.51 cm**-1
  19:       918.41 cm**-1
  20:       923.99 cm**-1
  21:       978.38 cm**-1
  22:      1016.03 cm**-1
  23:      1053.60 cm**-1
  24:      1082.40 cm**-1
  25:      1094.18 cm**-1
  26:      1178.37 cm**-1
  27:      1208.00 cm**-1
  28:      1271.55 cm**-1
  29:      1281.12 cm**-1
  30:      1327.84 cm**-1
  31:      1335.83 cm**-1
  32:      1353.14 cm**-1
  33:      1356.04 cm**-1
  34:      1401.44 cm**-1
  35:      1408.79 cm**-1
  36:      1416.23 cm**-1
  37:      1478.32 cm**-1
  38:      1479.20 cm**-1
  39:      1487.76 cm**-1
  40:      1492.76 cm**-1
  41:      1498.94 cm**-1
  42:      1503.92 cm**-1
  43:      1509.44 cm**-1
  44:      1657.17 cm**-1
  45:      1664.48 cm**-1
  46:      3024.95 cm**-1
  47:      3032.71 cm**-1
  48:      3042.96 cm**-1
  49:      3054.13 cm**-1
  50:      3057.87 cm**-1
  51:      3070.74 cm**-1
  52:      3091.92 cm**-1
  53:      3097.57 cm**-1
  54:      3125.48 cm**-1
  55:      3140.39 cm**-1
  56:      3157.09 cm**-1
  57:      3422.03 cm**-1
  58:      3503.77 cm**-1
  59:      3509.38 cm**-1

IR SPECTRUM
-----------

 Mode    freq (cm**-1)   T**2         TX         TY         TZ
-------------------------------------------------------------------
   6:        74.29    5.534743  ( -0.000339   0.000389  -2.352603)
   7:        95.06    0.213291  (  0.000244  -0.000784  -0.461834)
   8:       127.22    5.526700  ( -0.547268   2.286306   0.000182)
   9:       150.03    1.043071  (  0.000117   0.000264   1.021309)
  10:       223.35    0.000178  (  0.000391   0.000182   0.013318)
  11:       246.64    0.001316  ( -0.000194  -0.000425   0.036278)
  12:       294.96    6.943640  (  2.485114  -0.876270   0.000047)
  13:       358.96    3.981145  (  1.991620   0.120805   0.000024)
  14:       467.97    3.419935  (  1.747355  -0.605544  -0.000068)
  15:       737.65    6.175283  (  0.000072   0.000667  -2.485012)
  16:       763.20    1.465229  ( -0.000194  -0.001182  -1.210466)
  17:       831.47    5.622690  (  0.000061  -0.000193   2.371221)
  18:       890.51   17.222058  (  3.857336  -1.530692  -0.000414)
  19:       918.41    4.870358  ( -2.164375   0.431088  -0.000725)
  20:       923.99    3.223119  ( -0.000376   0.000366   1.795305)
  21:       978.38    5.086230  ( -0.611758  -2.170710  -0.000069)
  22:      1016.03    4.191447  (  0.000039  -0.000267   2.047302)
  23:      1053.60    1.068317  (  0.784194   0.673318   0.000023)
  24:      1082.40    8.485026  ( -2.845188   0.624443   0.000004)
  25:      1094.18   19.943926  (  3.523564  -2.743797  -0.000141)
  26:      1178.37    3.584486  ( -0.722095   1.750161  -0.000300)
  27:      1208.00    0.397519  (  0.000867   0.000011  -0.630491)
  28:      1271.55    0.873389  ( -0.000283   0.000720  -0.934553)
  29:      1281.12    1.986523  (  0.727038  -1.207451  -0.000470)
  30:      1327.84    2.527273  ( -0.000512  -0.000155   1.589740)
  31:      1335.83    1.820239  ( -0.000362  -0.000234   1.349162)
  32:      1353.14    1.495947  ( -0.001255  -0.000713   1.223088)
  33:      1356.04    1.386673  ( -0.879396  -0.783158  -0.000637)
  34:      1401.44    0.664449  ( -0.035703   0.814355   0.000486)
  35:      1408.79   10.706389  (  3.268971   0.142192  -0.000045)
  36:      1416.23   10.554664  ( -2.904861  -1.454801  -0.000398)
  37:      1478.32    0.664343  ( -0.505703   0.639224   0.000194)
  38:      1479.20    3.856674  ( -1.850347  -0.657943   0.000609)
  39:      1487.76    2.160919  ( -0.240892   1.450131   0.002971)
  40:      1492.76   11.834431  ( -0.000981   0.001195  -3.440120)
  41:      1498.94    2.019071  ( -1.299108  -0.575663  -0.000971)
  42:      1503.92   78.315697  (  8.836980   0.472736   0.000097)
  43:      1509.44   90.370655  (  6.737068   6.706905   0.000069)
  44:      1657.17   52.811680  ( -0.000237  -0.000344   7.267165)
  45:      1664.48   36.564196  (  3.124927  -5.176778  -0.000373)
  46:      3024.95    7.843068  (  2.460226   1.338041  -0.000112)
  47:      3032.71    0.354238  (  0.164483  -0.571999   0.000218)
  48:      3042.96   37.699817  ( -0.994797  -6.058894  -0.000224)
  49:      3054.13   24.299423  ( -3.300640  -3.661311   0.000021)
  50:      3057.87    1.051813  (  0.000374  -0.000079   1.025579)
  51:      3070.74    0.040889  (  0.000080   0.000094   0.202210)
  52:      3091.92   27.276255  (  0.000252   0.000160   5.222667)
  53:      3097.57    2.992980  (  0.499963  -1.656205   0.000262)
  54:      3125.48   31.294560  (  0.000146  -0.000938  -5.594154)
  55:      3140.39   13.850018  ( -1.847591   3.230546  -0.000747)
  56:      3157.09    1.433611  ( -0.000493  -0.000640   1.197335)
  57:      3422.03   46.183188  ( -6.440725  -2.168006   0.000680)
  58:      3503.77   91.004611  (  0.002225  -0.002264   9.539633)
  59:      3509.38   96.871328  (  4.681281  -8.657767  -0.003103)

--------------------------
THERMOCHEMISTRY AT 298.15K
--------------------------

Temperature         ... 298.15 K
Pressure            ... 1.00 atm
Total Mass          ... 88.17 AMU

Throughout the following assumptions are being made:
  (1) The electronic state is orbitally nondegenerate
  (2) There are no thermally accessible electronically excited states
  (3) Hindered rotations indicated by low frequency modes) are not
      treated as such but are treated as vibrations and this may
      case some error
  (4) All equations used are the standard statistical mechanics
      equations for an ideal gas
  (5) All vibrations are strinctly harmonic

------------
INNER ENERGY
------------

The inner energy is: U= E(el) + E(ZPE) + E(vib) + E(rot) + E(trans)
    E(el)   - is the total energy from the electronic structure calculation
              = E(kin-el) + E(nuc-el) + E(el-el) + E(nuc-nuc)
    E(ZPE)  - the the zero temperature vibrational energy from the frequency calculation
    E(vib)  - the the finite temperature correction to E(ZPE) due to population
              of excietd vibrational states
    E(rot)  - is the rotational thermal energy
    E(trans)- is the translational thermal energy

Summary of contributions to the inner energy U:
Electronic energy                ...   -253.25985396 Eh
Zero point energy                ...      0.19357506 Eh     121.47 kcal/mol
Thermal vibrational correction   ...      0.00562880 Eh       3.53 kcal/mol
Thermal rotational correction    ...      0.00141627 Eh       0.89 kcal/mol
Thermal translational correction ...      0.00141627 Eh       0.89 kcal/mol
-----------------------------------------------------------------------
Total thermal energy                   -253.05781755 Eh

Summary of corrections to the electronic energy:
(perhaps to be used in another calculation)
Total thermal correction                  0.00846135 Eh       5.31 kcal/mol
Non-thermal (ZPE) correction              0.19357506 Eh     121.47 kcal/mol
-----------------------------------------------------------------------
Total correction                          0.20203641 Eh     126.78 kcal/mol

--------
ENTHALPY
--------

The enthalpy is H = U + kB*T
                kB is Boltzmann's constant
Total free energy                 ...   -253.05781755 Eh
Thermal Enthalpy correction       ...      0.00094421 Eh       0.59 kcal/mol
-----------------------------------------------------------------------
Total Enthalpy                    ...   -253.05687334 Eh

-------
ENTROPY
-------

The entropy contributions are T*S = T*(S(el)+S(vib)+S(rot)+S(trans)
     S(el)   - electronic entropy
     S(vib)  - vibrational entropy
     S(rot)  - rotational entropy
     S(trans)- translational entropy
The entropies will be listed as mutliplied by the temperature to get
units of energy

Electronic entropy                ...      0.00000000 Eh      0.00 kcal/mol
Vibrational entropy               ...      0.01051056 Eh      6.60 kcal/mol
Rotational entropy                ...      0.01193252 Eh      7.49 kcal/mol
Translational entropy             ...      0.01869299 Eh     11.73 kcal/mol
-----------------------------------------------------------------------
Final entropy term                ...      0.04113607 Eh     25.81 kcal/mol

CAUTION: The rotational entropy is not quite correctly treated here
         because it includes a symmetry number that is not yet correctly
         implemented in ORCA!
For a nonlinear molecule the correct rotational entropy is:
    S(rot) = R*(ln(qrot/sn)+1.5)
    R    = 8.31441 J/mol/K = 1.987191683e-3 kcal/mol/K
    qrot = 206193.0818037
    sn is the rotational symmetry number. We have assumed 3 here
       if it is different for your molecule then you should correct
       the printed rotational entropy by manually evaluating the equation
       as given above

For convenience we print out the resulting values for sn=1 - 12:
 sn= 1  qrot/sn=  206193.0818 T*S(rot)=     8.14 kcal/mol T*S(tot)=    26.46 kcal/mol
 sn= 2  qrot/sn=  103096.5409 T*S(rot)=     7.73 kcal/mol T*S(tot)=    26.05 kcal/mol
 sn= 3  qrot/sn=   68731.0273 T*S(rot)=     7.49 kcal/mol T*S(tot)=    25.81 kcal/mol
 sn= 4  qrot/sn=   51548.2705 T*S(rot)=     7.32 kcal/mol T*S(tot)=    25.64 kcal/mol
 sn= 5  qrot/sn=   41238.6164 T*S(rot)=     7.19 kcal/mol T*S(tot)=    25.51 kcal/mol
 sn= 6  qrot/sn=   34365.5136 T*S(rot)=     7.08 kcal/mol T*S(tot)=    25.40 kcal/mol
 sn= 7  qrot/sn=   29456.1545 T*S(rot)=     6.99 kcal/mol T*S(tot)=    25.31 kcal/mol
 sn= 8  qrot/sn=   25774.1352 T*S(rot)=     6.91 kcal/mol T*S(tot)=    25.23 kcal/mol
 sn= 9  qrot/sn=   22910.3424 T*S(rot)=     6.84 kcal/mol T*S(tot)=    25.16 kcal/mol
 sn=10  qrot/sn=   20619.3082 T*S(rot)=     6.77 kcal/mol T*S(tot)=    25.10 kcal/mol
 sn=11  qrot/sn=   18744.8256 T*S(rot)=     6.72 kcal/mol T*S(tot)=    25.04 kcal/mol
 sn=12  qrot/sn=   17182.7568 T*S(rot)=     6.67 kcal/mol T*S(tot)=    24.99 kcal/mol

-------------------
GIBBS FREE ENTHALPY
-------------------

The Gibbs free enthalpy is G = H - T*S

Total enthalpy                    ...   -253.05687334 Eh
Total entropy correction          ...     -0.04113607 Eh    -25.81 kcal/mol
-----------------------------------------------------------------------
Final Gibbs free enthalpy         ...   -253.09800941 Eh

For completeness - the Gibbs free enthalpy minus the electronic energy
G-E(el)                           ...      0.16184455 Eh    101.56 kcal/mol

                             ****ORCA TERMINATED NORMALLY****
TOTAL RUN TIME: 0 days 0 hours 22 minutes 44 seconds 142 msec
