                         Program Version 3.0.3 - RELEASE   -
|  1> ! NORI PBE0 def2-TZVP UseSym TightOPT Freq TightSCF Grid3 FinalGrid5 XYZFile
|  2> % pal
|  3>     nprocs 8
|  4> end
|  5> %method
|  6>     SymThresh 5.0e-2
|  7> end
|  8> % geom
|  9>     MaxIter 10
| 10> end
| 11> % maxcore 2000
| 12> % output
| 13>     printlevel mini
| 14>     print[ P_Basis ] 0
| 15>     print[ P_SCFInfo ] 1
| 16>     print[ P_SCFIterInfo ] 1
| 17>     print[ P_OrbEn ] 0
| 18>     print[ P_Cartesian ] 0
| 19> end
| 20> % elprop
| 21>     Dipole false
| 22> end
| 23> *xyz 1 1
| 24>  C        0.7168222608     0.1634090850    -1.4412987615
| 25>  C        2.1993614895     0.2077266895    -1.3690519303
| 26>  C        3.0020733817    -0.8481979514    -1.4387146586
| 27>  C        4.4943514787    -0.7694118002    -1.3426538615
| 28>  C        5.1305165709    -1.1800532379    -2.6563822466
| 29>  N        6.6372507001    -1.1958769517    -2.5415891070
| 30>  H        0.3509743182     0.7847876207    -2.2638080949
| 31>  H        0.2772366622     0.5721818273    -0.5267024176
| 32>  H        0.3444913133    -0.8520511451    -1.5795277871
| 33>  H        2.6460960219     1.1924970679    -1.2315853059
| 34>  H        2.5766144445    -1.8426821615    -1.5591876939
| 35>  H        4.7947945479     0.2515399168    -1.0847771273
| 36>  H        4.8536749603    -1.4313298506    -0.5430030431
| 37>  H        4.8358058422    -2.1854666530    -2.9592013703
| 38>  H        4.8860619206    -0.4864587381    -3.4611011030
| 39>  H        6.9384339941    -1.8479013694    -1.8140996270
| 40>  H        6.9915969237    -0.2715067974    -2.2868532758
| 41>  H        7.0853331696    -1.4728255511    -3.4171925887
| 42> *
| 43>
| 44>                          ****END OF INPUT****
 Total Charge           Charge          ....    1
 Multiplicity           Mult            ....    1
 Number of Electrons    NEL             ....   48
FINAL SINGLE POINT ENERGY      -252.031837252397

CARTESIAN COORDINATES (ANGSTROEM)
---------------------------------
  C      0.412468    0.000018   -3.169075
  C      0.161169    0.472635   -1.783825
  C     -0.338437   -0.267387   -0.800411
  C     -0.595348    0.246766    0.582374
  C      0.316044   -0.442118    1.579232
  N      0.000799    0.000134    2.989668
  H      1.463607    0.136083   -3.439324
  H     -0.169065    0.588344   -3.884855
  H      0.153719   -1.051856   -3.295271
  H      0.397974    1.517060   -1.580393
  H     -0.596987   -1.308208   -0.985750
  H     -0.430570    1.329120    0.610964
  H     -1.642283    0.064531    0.861626
  H      0.196877   -1.526312    1.564037
  H      1.365180   -0.202746    1.404092
  H     -0.969381   -0.216101    3.228969
  H      0.120202    1.010620    3.088373
  H      0.603536   -0.455404    3.677719

FINAL SINGLE POINT ENERGY      -252.031837781246
                    ***********************HURRAY********************
 Multiplicity           Mult            ....    1
 Number of Electrons    NEL             ....   48
 Basis Dimension        Dim             ....  258
FINAL SINGLE POINT ENERGY      -252.031837903253

VIBRATIONAL FREQUENCIES
-----------------------

   0:         0.00 cm**-1
   1:         0.00 cm**-1
   2:         0.00 cm**-1
   3:         0.00 cm**-1
   4:         0.00 cm**-1
   5:         0.00 cm**-1
   6:        76.36 cm**-1
   7:        94.42 cm**-1
   8:       148.74 cm**-1
   9:       210.73 cm**-1
  10:       225.14 cm**-1
  11:       286.58 cm**-1
  12:       308.38 cm**-1
  13:       382.45 cm**-1
  14:       541.06 cm**-1
  15:       769.21 cm**-1
  16:       796.17 cm**-1
  17:       887.63 cm**-1
  18:       901.45 cm**-1
  19:       934.45 cm**-1
  20:       974.20 cm**-1
  21:      1000.50 cm**-1
  22:      1050.45 cm**-1
  23:      1070.41 cm**-1
  24:      1107.50 cm**-1
  25:      1137.57 cm**-1
  26:      1183.84 cm**-1
  27:      1281.49 cm**-1
  28:      1313.88 cm**-1
  29:      1334.32 cm**-1
  30:      1349.50 cm**-1
  31:      1356.43 cm**-1
  32:      1404.58 cm**-1
  33:      1410.46 cm**-1
  34:      1465.81 cm**-1
  35:      1471.89 cm**-1
  36:      1477.88 cm**-1
  37:      1496.82 cm**-1
  38:      1503.69 cm**-1
  39:      1657.22 cm**-1
  40:      1663.80 cm**-1
  41:      1750.51 cm**-1
  42:      3015.39 cm**-1
  43:      3049.73 cm**-1
  44:      3078.15 cm**-1
  45:      3102.21 cm**-1
  46:      3109.05 cm**-1
  47:      3130.76 cm**-1
  48:      3149.48 cm**-1
  49:      3155.93 cm**-1
  50:      3164.21 cm**-1
  51:      3422.43 cm**-1
  52:      3503.88 cm**-1
  53:      3510.47 cm**-1

IR SPECTRUM
-----------

 Mode    freq (cm**-1)   T**2         TX         TY         TZ
-------------------------------------------------------------------
   6:        76.36    7.910277  (  2.622963   0.573475  -0.837538)
   7:        94.42    5.356354  ( -0.249873  -2.300577   0.035570)
   8:       148.74    3.663404  ( -1.505786   1.162698  -0.210107)
   9:       210.73    0.977226  (  0.845589  -0.259170   0.441629)
  10:       225.14    0.899421  (  0.549238  -0.239214   0.735211)
  11:       286.58    1.459229  ( -0.742184  -0.042162   0.952163)
  12:       308.38    3.014340  (  0.555823  -0.337052   1.609906)
  13:       382.45    9.667334  ( -1.320263   0.275722  -2.801467)
  14:       541.06    2.687144  (  0.578232  -0.358927   1.491296)
  15:       769.21    5.276949  ( -1.535419  -1.659540   0.406651)
  16:       796.17    1.468476  (  0.263948   1.156962  -0.245450)
  17:       887.63   24.967829  ( -0.530393   1.999106  -4.548636)
  18:       901.45   19.453651  ( -3.191865  -0.403830  -3.017047)
  19:       934.45    2.089295  ( -0.002854  -0.078395  -1.443309)
  20:       974.20    7.663580  ( -1.583089   2.162125   0.694713)
  21:      1000.50   39.404614  ( -5.789297   1.171930  -2.124909)
  22:      1050.45   20.147368  (  1.081702   2.631172  -3.471919)
  23:      1070.41    1.262964  (  1.083299  -0.288306   0.079415)
  24:      1107.50    3.549715  (  0.323795   0.364596  -1.819874)
  25:      1137.57    9.524550  ( -2.083146   1.320227  -1.855277)
  26:      1183.84    2.729799  ( -0.212349  -1.278504   1.024761)
  27:      1281.49    0.615591  ( -0.255999  -0.675147   0.306972)
  28:      1313.88    9.615933  (  0.007717   1.212050  -2.854261)
  29:      1334.32    3.752076  ( -1.052037  -1.186826   1.112087)
  30:      1349.50    2.543576  ( -1.095044  -1.111052  -0.331690)
  31:      1356.43    1.408597  (  0.446867  -0.948279  -0.556483)
  32:      1404.58    2.741088  (  0.347373   0.128498   1.613663)
  33:      1410.46   11.471926  ( -0.366111   1.203602   3.144715)
  34:      1465.81   11.456994  (  3.090649  -1.014928   0.935308)
  35:      1471.89    0.605960  ( -0.253407  -0.725299   0.125245)
  36:      1477.88   19.770628  (  1.564832   3.844664  -1.593891)
  37:      1496.82   18.805565  ( -2.173362   1.856509  -3.261202)
  38:      1503.69  155.699834  ( -2.928908   3.695649  11.552641)
  39:      1657.22   52.889082  (  4.273914   5.785108  -1.074832)
  40:      1663.80   38.186842  (  4.847078  -2.919603   2.483667)
  41:      1750.51   15.526700  (  0.524363   0.137593  -3.902924)
  42:      3015.39   25.101594  ( -2.794748   0.960513   4.045787)
  43:      3049.73    4.298043  (  0.486166  -0.558788  -1.936348)
  44:      3078.15    5.750011  (  1.085323   2.135642   0.105433)
  45:      3102.21    1.675967  ( -0.783235   0.980513  -0.317970)
  46:      3109.05    3.219707  (  1.711750  -0.433180   0.319333)
  47:      3130.76    2.151219  (  0.182824  -0.868706  -1.167537)
  48:      3149.48    7.234253  ( -0.561042  -2.544401  -0.667464)
  49:      3155.93   15.513303  ( -0.582092  -3.465500  -1.778983)
  50:      3164.21    1.055453  (  0.444254   0.918065   0.123486)
  51:      3422.43   52.284783  (  1.091270  -1.259327  -7.036193)
  52:      3503.88   89.990334  ( -6.611670  -6.789647   0.420547)
  53:      3510.47  100.398272  ( -6.763418   6.192647  -4.038016)

--------------------------
THERMOCHEMISTRY AT 298.15K
--------------------------

Temperature         ... 298.15 K
Pressure            ... 1.00 atm
Total Mass          ... 86.16 AMU

Throughout the following assumptions are being made:
  (1) The electronic state is orbitally nondegenerate
  (2) There are no thermally accessible electronically excited states
  (3) Hindered rotations indicated by low frequency modes) are not
      treated as such but are treated as vibrations and this may
      case some error
  (4) All equations used are the standard statistical mechanics
      equations for an ideal gas
  (5) All vibrations are strinctly harmonic

------------
INNER ENERGY
------------

The inner energy is: U= E(el) + E(ZPE) + E(vib) + E(rot) + E(trans)
    E(el)   - is the total energy from the electronic structure calculation
              = E(kin-el) + E(nuc-el) + E(el-el) + E(nuc-nuc)
    E(ZPE)  - the the zero temperature vibrational energy from the frequency calculation
    E(vib)  - the the finite temperature correction to E(ZPE) due to population
              of excietd vibrational states
    E(rot)  - is the rotational thermal energy
    E(trans)- is the translational thermal energy

Summary of contributions to the inner energy U:
Electronic energy                ...   -252.03183790 Eh
Zero point energy                ...      0.16953484 Eh     106.38 kcal/mol
Thermal vibrational correction   ...      0.00523004 Eh       3.28 kcal/mol
Thermal rotational correction    ...      0.00141627 Eh       0.89 kcal/mol
Thermal translational correction ...      0.00141627 Eh       0.89 kcal/mol
-----------------------------------------------------------------------
Total thermal energy                   -251.85424048 Eh

Summary of corrections to the electronic energy:
(perhaps to be used in another calculation)
Total thermal correction                  0.00806258 Eh       5.06 kcal/mol
Non-thermal (ZPE) correction              0.16953484 Eh     106.38 kcal/mol
-----------------------------------------------------------------------
Total correction                          0.17759743 Eh     111.44 kcal/mol

--------
ENTHALPY
--------

The enthalpy is H = U + kB*T
                kB is Boltzmann's constant
Total free energy                 ...   -251.85424048 Eh
Thermal Enthalpy correction       ...      0.00094421 Eh       0.59 kcal/mol
-----------------------------------------------------------------------
Total Enthalpy                    ...   -251.85329627 Eh

-------
ENTROPY
-------

The entropy contributions are T*S = T*(S(el)+S(vib)+S(rot)+S(trans)
     S(el)   - electronic entropy
     S(vib)  - vibrational entropy
     S(rot)  - rotational entropy
     S(trans)- translational entropy
The entropies will be listed as mutliplied by the temperature to get
units of energy

Electronic entropy                ...      0.00000000 Eh      0.00 kcal/mol
Vibrational entropy               ...      0.00961665 Eh      6.03 kcal/mol
Rotational entropy                ...      0.01185451 Eh      7.44 kcal/mol
Translational entropy             ...      0.01866024 Eh     11.71 kcal/mol
-----------------------------------------------------------------------
Final entropy term                ...      0.04013139 Eh     25.18 kcal/mol

CAUTION: The rotational entropy is not quite correctly treated here
         because it includes a symmetry number that is not yet correctly
         implemented in ORCA!
For a nonlinear molecule the correct rotational entropy is:
    S(rot) = R*(ln(qrot/sn)+1.5)
    R    = 8.31441 J/mol/K = 1.987191683e-3 kcal/mol/K
    qrot = 189841.7541674
    sn is the rotational symmetry number. We have assumed 3 here
       if it is different for your molecule then you should correct
       the printed rotational entropy by manually evaluating the equation
       as given above

For convenience we print out the resulting values for sn=1 - 12:
 sn= 1  qrot/sn=  189841.7542 T*S(rot)=     8.09 kcal/mol T*S(tot)=    25.83 kcal/mol
 sn= 2  qrot/sn=   94920.8771 T*S(rot)=     7.68 kcal/mol T*S(tot)=    25.42 kcal/mol
 sn= 3  qrot/sn=   63280.5847 T*S(rot)=     7.44 kcal/mol T*S(tot)=    25.18 kcal/mol
 sn= 4  qrot/sn=   47460.4385 T*S(rot)=     7.27 kcal/mol T*S(tot)=    25.01 kcal/mol
 sn= 5  qrot/sn=   37968.3508 T*S(rot)=     7.14 kcal/mol T*S(tot)=    24.88 kcal/mol
 sn= 6  qrot/sn=   31640.2924 T*S(rot)=     7.03 kcal/mol T*S(tot)=    24.77 kcal/mol
 sn= 7  qrot/sn=   27120.2506 T*S(rot)=     6.94 kcal/mol T*S(tot)=    24.68 kcal/mol
 sn= 8  qrot/sn=   23730.2193 T*S(rot)=     6.86 kcal/mol T*S(tot)=    24.60 kcal/mol
 sn= 9  qrot/sn=   21093.5282 T*S(rot)=     6.79 kcal/mol T*S(tot)=    24.53 kcal/mol
 sn=10  qrot/sn=   18984.1754 T*S(rot)=     6.73 kcal/mol T*S(tot)=    24.47 kcal/mol
 sn=11  qrot/sn=   17258.3413 T*S(rot)=     6.67 kcal/mol T*S(tot)=    24.41 kcal/mol
 sn=12  qrot/sn=   15820.1462 T*S(rot)=     6.62 kcal/mol T*S(tot)=    24.36 kcal/mol

-------------------
GIBBS FREE ENTHALPY
-------------------

The Gibbs free enthalpy is G = H - T*S

Total enthalpy                    ...   -251.85329627 Eh
Total entropy correction          ...     -0.04013139 Eh    -25.18 kcal/mol
-----------------------------------------------------------------------
Final Gibbs free enthalpy         ...   -251.89342766 Eh

For completeness - the Gibbs free enthalpy minus the electronic energy
G-E(el)                           ...      0.13841025 Eh     86.85 kcal/mol

                             ****ORCA TERMINATED NORMALLY****
TOTAL RUN TIME: 0 days 0 hours 18 minutes 51 seconds 935 msec
