                         Program Version 3.0.3 - RELEASE   -
|  1> ! NORI PBE0 def2-TZVP UseSym TightOPT Freq TightSCF Grid3 FinalGrid5 XYZFile
|  2> % pal
|  3>     nprocs 8
|  4> end
|  5> %method
|  6>     SymThresh 5.0e-2
|  7> end
|  8> % geom
|  9>     MaxIter 10
| 10> end
| 11> % maxcore 2000
| 12> % output
| 13>     printlevel mini
| 14>     print[ P_Basis ] 0
| 15>     print[ P_SCFInfo ] 1
| 16>     print[ P_SCFIterInfo ] 1
| 17>     print[ P_OrbEn ] 0
| 18>     print[ P_Cartesian ] 0
| 19> end
| 20> % elprop
| 21>     Dipole false
| 22> end
| 23> *xyz 1 1
| 24>  C        0.6532203330     0.2346619613    -1.2304495135
| 25>  C        2.1324737254     0.1888417161    -1.1443330962
| 26>  C        2.9667062883     1.1492619681    -0.7301324739
| 27>  C        2.5732483034     2.5097064805    -0.2398052961
| 28>  C        4.4264677771     0.8431353899    -0.6934932665
| 29>  N        5.1679830269     1.6582839797    -1.7457047031
| 30>  H        0.3299061574     0.0069012186    -2.2504161031
| 31>  H        0.2257367419     1.1928883228    -0.9420272172
| 32>  H        0.2200031625    -0.5424221066    -0.5936794051
| 33>  H        2.5765472756    -0.7609506254    -1.4403212990
| 34>  H        1.4934981401     2.6363352139    -0.2090909793
| 35>  H        2.9563267112     3.3194396294    -0.8735438666
| 36>  H        2.9555114799     2.6852770629     0.7706984726
| 37>  H        4.8936205787     1.1117914648     0.2575754481
| 38>  H        4.6403795252    -0.2013115704    -0.9166966477
| 39>  H        5.0255581341     2.6580120896    -1.5892426930
| 40>  H        4.8047945119     1.4384333321    -2.6755826635
| 41>  H        6.1737081274     1.4766944728    -1.7377246970
| 42> *
| 43>
| 44>                          ****END OF INPUT****
 Total Charge           Charge          ....    1
 Multiplicity           Mult            ....    1
 Number of Electrons    NEL             ....   48
FINAL SINGLE POINT ENERGY      -252.036896897162

CARTESIAN COORDINATES (ANGSTROEM)
---------------------------------
  C      1.095431    0.000104   -2.317755
  C      0.678641   -0.533138   -0.998684
  C     -0.223240   -0.026823   -0.150205
  C     -1.034543    1.215103   -0.362341
  C     -0.503405   -0.778903    1.107689
  N     -0.000671    0.000323    2.316892
  H      2.178220    0.155957   -2.333926
  H      0.610752    0.936878   -2.585820
  H      0.882444   -0.735140   -3.099650
  H      1.162710   -1.465890   -0.710764
  H     -0.845111    1.665795   -1.333637
  H     -0.824062    1.994877    0.380826
  H     -2.105446    0.995913   -0.302826
  H     -1.571429   -0.926035    1.286541
  H      0.002297   -1.743012    1.139642
  H     -0.447277    0.918069    2.361212
  H      1.006896    0.153057    2.238031
  H     -0.188479   -0.485954    3.195783

FINAL SINGLE POINT ENERGY      -252.036897779262
                    ***********************HURRAY********************
 Multiplicity           Mult            ....    1
 Number of Electrons    NEL             ....   48
 Basis Dimension        Dim             ....  258
FINAL SINGLE POINT ENERGY      -252.036898053023

VIBRATIONAL FREQUENCIES
-----------------------

   0:         0.00 cm**-1
   1:         0.00 cm**-1
   2:         0.00 cm**-1
   3:         0.00 cm**-1
   4:         0.00 cm**-1
   5:         0.00 cm**-1
   6:        61.21 cm**-1
   7:       108.70 cm**-1
   8:       133.06 cm**-1
   9:       191.08 cm**-1
  10:       199.18 cm**-1
  11:       293.59 cm**-1
  12:       330.79 cm**-1
  13:       393.87 cm**-1
  14:       490.91 cm**-1
  15:       559.35 cm**-1
  16:       768.69 cm**-1
  17:       836.04 cm**-1
  18:       857.37 cm**-1
  19:       885.76 cm**-1
  20:       967.59 cm**-1
  21:       999.11 cm**-1
  22:      1042.30 cm**-1
  23:      1063.07 cm**-1
  24:      1088.81 cm**-1
  25:      1094.50 cm**-1
  26:      1154.80 cm**-1
  27:      1247.55 cm**-1
  28:      1329.24 cm**-1
  29:      1384.33 cm**-1
  30:      1396.81 cm**-1
  31:      1411.61 cm**-1
  32:      1430.52 cm**-1
  33:      1464.11 cm**-1
  34:      1465.79 cm**-1
  35:      1475.89 cm**-1
  36:      1479.61 cm**-1
  37:      1485.88 cm**-1
  38:      1490.92 cm**-1
  39:      1649.75 cm**-1
  40:      1663.14 cm**-1
  41:      1741.98 cm**-1
  42:      3023.83 cm**-1
  43:      3054.12 cm**-1
  44:      3084.12 cm**-1
  45:      3086.56 cm**-1
  46:      3107.90 cm**-1
  47:      3137.04 cm**-1
  48:      3161.48 cm**-1
  49:      3166.70 cm**-1
  50:      3176.20 cm**-1
  51:      3421.29 cm**-1
  52:      3509.51 cm**-1
  53:      3513.44 cm**-1

IR SPECTRUM
-----------

 Mode    freq (cm**-1)   T**2         TX         TY         TZ
-------------------------------------------------------------------
   6:        61.21    5.971983  ( -2.237281   0.875212   0.447839)
   7:       108.70    4.393454  ( -2.018837  -0.507091   0.246192)
   8:       133.06    0.434222  (  0.224540  -0.207169   0.583853)
   9:       191.08   10.272698  (  0.578009   2.523814  -1.889171)
  10:       199.18    0.786724  ( -0.272784   0.400113  -0.743117)
  11:       293.59    2.903623  ( -0.061548  -0.107004   1.699525)
  12:       330.79    7.240509  (  0.819392  -0.158896   2.558096)
  13:       393.87    1.288870  ( -0.702603  -0.120525   0.883569)
  14:       490.91    8.883159  (  1.973544   0.544497   2.166058)
  15:       559.35    8.694394  (  0.489926   1.264926   2.618077)
  16:       768.69    3.788495  ( -1.298680   0.728709  -1.253358)
  17:       836.04    5.956723  ( -1.228479   2.104332   0.139099)
  18:       857.37   36.623616  ( -0.964120  -1.079967  -5.876033)
  19:       885.76   15.263206  ( -2.934063  -1.120820   2.323412)
  20:       967.59    2.623808  ( -0.144790  -0.136586  -1.607541)
  21:       999.11   20.101865  (  2.991549  -3.002409  -1.462203)
  22:      1042.30    6.147843  ( -0.156258  -1.013759   2.257370)
  23:      1063.07    1.816233  ( -1.276723  -0.429810   0.038396)
  24:      1088.81    5.859763  (  1.489827   1.870741   0.374843)
  25:      1094.50   33.997275  ( -2.688046  -1.962558   4.787489)
  26:      1154.80    2.205514  (  0.607244  -1.014932  -0.898155)
  27:      1247.55    3.752427  (  0.986064   0.056328  -1.666413)
  28:      1329.24    8.161254  (  2.365988  -1.274372  -0.969192)
  29:      1384.33    0.886135  ( -0.089163  -0.161651   0.923067)
  30:      1396.81   27.775516  (  1.627990  -0.479007  -4.989561)
  31:      1411.61   26.276189  ( -1.844484  -0.614308   4.743068)
  32:      1430.52    7.149190  (  2.086567  -1.602978  -0.475279)
  33:      1464.11   13.051792  ( -2.318942  -1.558547  -2.290247)
  34:      1465.79   19.344278  ( -0.917470   0.511052   4.270990)
  35:      1475.89   18.238287  ( -0.119198   0.821764   4.189127)
  36:      1479.61   18.502951  (  2.297649  -3.460539   1.117331)
  37:      1485.88   14.918432  ( -0.769185  -1.339944   3.539963)
  38:      1490.92  143.638220  (  4.985410   6.659510   8.627563)
  39:      1649.75   47.041859  ( -5.689488   3.830058  -0.047341)
  40:      1663.14   33.390244  ( -1.909920  -3.454764   4.219840)
  41:      1741.98   29.817723  ( -1.678422  -0.672151   5.152556)
  42:      3023.83   20.908855  (  0.962973  -3.017237  -3.298154)
  43:      3054.12    0.468229  ( -0.151216  -0.547557   0.381503)
  44:      3084.12    7.099346  (  1.983982   1.105769   1.392996)
  45:      3086.56    6.526221  ( -1.554710  -0.970366   1.779744)
  46:      3107.90    0.957757  ( -0.815549  -0.456363  -0.290465)
  47:      3137.04    4.860961  ( -0.145598   1.578931  -1.531907)
  48:      3161.48    0.298274  ( -0.409065   0.345043   0.109016)
  49:      3166.70    6.485751  ( -1.036939   2.132269  -0.929483)
  50:      3176.20    5.912732  ( -0.386360   1.727943  -1.666635)
  51:      3421.29   33.447642  (  1.685987   2.163800   5.091469)
  52:      3509.51   82.980495  ( -8.600818   2.348761   1.868085)
  53:      3513.44   92.263431  (  0.759968   7.696417  -5.696581)

--------------------------
THERMOCHEMISTRY AT 298.15K
--------------------------

Temperature         ... 298.15 K
Pressure            ... 1.00 atm
Total Mass          ... 86.16 AMU

Throughout the following assumptions are being made:
  (1) The electronic state is orbitally nondegenerate
  (2) There are no thermally accessible electronically excited states
  (3) Hindered rotations indicated by low frequency modes) are not
      treated as such but are treated as vibrations and this may
      case some error
  (4) All equations used are the standard statistical mechanics
      equations for an ideal gas
  (5) All vibrations are strinctly harmonic

------------
INNER ENERGY
------------

The inner energy is: U= E(el) + E(ZPE) + E(vib) + E(rot) + E(trans)
    E(el)   - is the total energy from the electronic structure calculation
              = E(kin-el) + E(nuc-el) + E(el-el) + E(nuc-nuc)
    E(ZPE)  - the the zero temperature vibrational energy from the frequency calculation
    E(vib)  - the the finite temperature correction to E(ZPE) due to population
              of excietd vibrational states
    E(rot)  - is the rotational thermal energy
    E(trans)- is the translational thermal energy

Summary of contributions to the inner energy U:
Electronic energy                ...   -252.03689805 Eh
Zero point energy                ...      0.16876459 Eh     105.90 kcal/mol
Thermal vibrational correction   ...      0.00546099 Eh       3.43 kcal/mol
Thermal rotational correction    ...      0.00141627 Eh       0.89 kcal/mol
Thermal translational correction ...      0.00141627 Eh       0.89 kcal/mol
-----------------------------------------------------------------------
Total thermal energy                   -251.85983992 Eh

Summary of corrections to the electronic energy:
(perhaps to be used in another calculation)
Total thermal correction                  0.00829354 Eh       5.20 kcal/mol
Non-thermal (ZPE) correction              0.16876459 Eh     105.90 kcal/mol
-----------------------------------------------------------------------
Total correction                          0.17705813 Eh     111.11 kcal/mol

--------
ENTHALPY
--------

The enthalpy is H = U + kB*T
                kB is Boltzmann's constant
Total free energy                 ...   -251.85983992 Eh
Thermal Enthalpy correction       ...      0.00094421 Eh       0.59 kcal/mol
-----------------------------------------------------------------------
Total Enthalpy                    ...   -251.85889572 Eh

-------
ENTROPY
-------

The entropy contributions are T*S = T*(S(el)+S(vib)+S(rot)+S(trans)
     S(el)   - electronic entropy
     S(vib)  - vibrational entropy
     S(rot)  - rotational entropy
     S(trans)- translational entropy
The entropies will be listed as mutliplied by the temperature to get
units of energy

Electronic entropy                ...      0.00000000 Eh      0.00 kcal/mol
Vibrational entropy               ...      0.01014474 Eh      6.37 kcal/mol
Rotational entropy                ...      0.01185560 Eh      7.44 kcal/mol
Translational entropy             ...      0.01866024 Eh     11.71 kcal/mol
-----------------------------------------------------------------------
Final entropy term                ...      0.04066058 Eh     25.51 kcal/mol

CAUTION: The rotational entropy is not quite correctly treated here
         because it includes a symmetry number that is not yet correctly
         implemented in ORCA!
For a nonlinear molecule the correct rotational entropy is:
    S(rot) = R*(ln(qrot/sn)+1.5)
    R    = 8.31441 J/mol/K = 1.987191683e-3 kcal/mol/K
    qrot = 190062.2888404
    sn is the rotational symmetry number. We have assumed 3 here
       if it is different for your molecule then you should correct
       the printed rotational entropy by manually evaluating the equation
       as given above

For convenience we print out the resulting values for sn=1 - 12:
 sn= 1  qrot/sn=  190062.2888 T*S(rot)=     8.09 kcal/mol T*S(tot)=    26.17 kcal/mol
 sn= 2  qrot/sn=   95031.1444 T*S(rot)=     7.68 kcal/mol T*S(tot)=    25.76 kcal/mol
 sn= 3  qrot/sn=   63354.0963 T*S(rot)=     7.44 kcal/mol T*S(tot)=    25.51 kcal/mol
 sn= 4  qrot/sn=   47515.5722 T*S(rot)=     7.27 kcal/mol T*S(tot)=    25.34 kcal/mol
 sn= 5  qrot/sn=   38012.4578 T*S(rot)=     7.14 kcal/mol T*S(tot)=    25.21 kcal/mol
 sn= 6  qrot/sn=   31677.0481 T*S(rot)=     7.03 kcal/mol T*S(tot)=    25.10 kcal/mol
 sn= 7  qrot/sn=   27151.7555 T*S(rot)=     6.94 kcal/mol T*S(tot)=    25.01 kcal/mol
 sn= 8  qrot/sn=   23757.7861 T*S(rot)=     6.86 kcal/mol T*S(tot)=    24.93 kcal/mol
 sn= 9  qrot/sn=   21118.0321 T*S(rot)=     6.79 kcal/mol T*S(tot)=    24.86 kcal/mol
 sn=10  qrot/sn=   19006.2289 T*S(rot)=     6.73 kcal/mol T*S(tot)=    24.80 kcal/mol
 sn=11  qrot/sn=   17278.3899 T*S(rot)=     6.67 kcal/mol T*S(tot)=    24.75 kcal/mol
 sn=12  qrot/sn=   15838.5241 T*S(rot)=     6.62 kcal/mol T*S(tot)=    24.69 kcal/mol

-------------------
GIBBS FREE ENTHALPY
-------------------

The Gibbs free enthalpy is G = H - T*S

Total enthalpy                    ...   -251.85889572 Eh
Total entropy correction          ...     -0.04066058 Eh    -25.51 kcal/mol
-----------------------------------------------------------------------
Final Gibbs free enthalpy         ...   -251.89955629 Eh

For completeness - the Gibbs free enthalpy minus the electronic energy
G-E(el)                           ...      0.13734176 Eh     86.18 kcal/mol

                             ****ORCA TERMINATED NORMALLY****
TOTAL RUN TIME: 0 days 0 hours 20 minutes 49 seconds 528 msec
