                         Program Version 3.0.3 - RELEASE   -
|  1> ! NORI PBE0 def2-TZVP UseSym TightOPT Freq TightSCF Grid3 FinalGrid5 XYZFile
|  2> % pal
|  3>     nprocs 8
|  4> end
|  5> %method
|  6>     SymThresh 5.0e-2
|  7> end
|  8> % geom
|  9>     MaxIter 10
| 10> end
| 11> % maxcore 2000
| 12> % output
| 13>     printlevel mini
| 14>     print[ P_Basis ] 0
| 15>     print[ P_SCFInfo ] 1
| 16>     print[ P_SCFIterInfo ] 1
| 17>     print[ P_OrbEn ] 0
| 18>     print[ P_Cartesian ] 0
| 19> end
| 20> % elprop
| 21>     Dipole false
| 22> end
| 23> *xyz 1 1
| 24>  C        3.4070906853     1.0886776780    -1.6556352698
| 25>  C        3.1095345291     0.6571386789    -0.2540682992
| 26>  C        2.5309458695     1.4470088224     0.6425062941
| 27>  C        3.4774277825    -0.7599605246     0.1131485360
| 28>  C        4.9792572655    -0.9197844118     0.2445835167
| 29>  N        5.3306281739    -2.3486457465     0.5834807419
| 30>  H        2.8958788032     0.4459081486    -2.3795276926
| 31>  H        4.4765112586     1.0458053266    -1.8887204554
| 32>  H        3.0793293109     2.1132519340    -1.8263182564
| 33>  H        2.2529092113     2.4653380712     0.3973874380
| 34>  H        2.3001769659     1.1054874727     1.6458079319
| 35>  H        3.1028948543    -1.4479041392    -0.6569597373
| 36>  H        2.9969122683    -1.0264581064     1.0600300113
| 37>  H        5.3825923559    -0.3017161710     1.0474679490
| 38>  H        5.5094325262    -0.6871797312    -0.6792969664
| 39>  H        4.8825539906    -2.6344783336     1.4570450680
| 40>  H        6.3385519957    -2.4795664600     0.6907453190
| 41>  H        5.0067321534    -2.9866725081    -0.1468861289
| 42> *
| 43>
| 44>                          ****END OF INPUT****
 Total Charge           Charge          ....    1
 Multiplicity           Mult            ....    1
 Number of Electrons    NEL             ....   48
FINAL SINGLE POINT ENERGY      -252.029059148187
FINAL SINGLE POINT ENERGY      -252.029060209537
FINAL SINGLE POINT ENERGY      -252.029061095393
FINAL SINGLE POINT ENERGY      -252.029061718285

CARTESIAN COORDINATES (ANGSTROEM)
---------------------------------
  C      1.296114   -0.007842   -1.685902
  C     -0.105447   -0.106095   -1.171617
  C     -1.172116    0.180662   -1.908505
  C     -0.274088   -0.578662    0.251994
  C      0.134492    0.500824    1.235472
  N      0.003710    0.001604    2.654482
  H      1.801001   -0.977902   -1.631474
  H      1.904100    0.699845   -1.112113
  H      1.309141    0.321147   -2.724089
  H     -1.072702    0.516916   -2.933788
  H     -2.181421    0.077760   -1.524576
  H      0.340705   -1.473647    0.416018
  H     -1.318882   -0.855279    0.424265
  H     -0.502621    1.381972    1.155548
  H      1.173896    0.805635    1.114576
  H     -0.959109   -0.279854    2.852665
  H      0.268553    0.714805    3.336923
  H      0.597131   -0.816600    2.808452

FINAL SINGLE POINT ENERGY      -252.029062458943
                    ***********************HURRAY********************
 Multiplicity           Mult            ....    1
 Number of Electrons    NEL             ....   48
 Basis Dimension        Dim             ....  258
FINAL SINGLE POINT ENERGY      -252.029062825235

VIBRATIONAL FREQUENCIES
-----------------------

   0:         0.00 cm**-1
   1:         0.00 cm**-1
   2:         0.00 cm**-1
   3:         0.00 cm**-1
   4:         0.00 cm**-1
   5:         0.00 cm**-1
   6:        48.94 cm**-1
   7:        89.75 cm**-1
   8:       172.94 cm**-1
   9:       184.50 cm**-1
  10:       222.93 cm**-1
  11:       318.82 cm**-1
  12:       396.78 cm**-1
  13:       452.98 cm**-1
  14:       531.83 cm**-1
  15:       724.58 cm**-1
  16:       774.12 cm**-1
  17:       846.65 cm**-1
  18:       899.69 cm**-1
  19:       912.03 cm**-1
  20:       967.88 cm**-1
  21:       973.54 cm**-1
  22:      1001.25 cm**-1
  23:      1014.60 cm**-1
  24:      1064.53 cm**-1
  25:      1116.06 cm**-1
  26:      1141.52 cm**-1
  27:      1278.18 cm**-1
  28:      1305.97 cm**-1
  29:      1340.77 cm**-1
  30:      1347.56 cm**-1
  31:      1402.48 cm**-1
  32:      1413.70 cm**-1
  33:      1447.82 cm**-1
  34:      1468.23 cm**-1
  35:      1476.28 cm**-1
  36:      1486.82 cm**-1
  37:      1500.28 cm**-1
  38:      1506.09 cm**-1
  39:      1657.26 cm**-1
  40:      1663.66 cm**-1
  41:      1736.93 cm**-1
  42:      3023.56 cm**-1
  43:      3038.86 cm**-1
  44:      3086.68 cm**-1
  45:      3091.43 cm**-1
  46:      3106.62 cm**-1
  47:      3155.72 cm**-1
  48:      3160.98 cm**-1
  49:      3168.10 cm**-1
  50:      3249.75 cm**-1
  51:      3421.11 cm**-1
  52:      3502.15 cm**-1
  53:      3508.50 cm**-1

IR SPECTRUM
-----------

 Mode    freq (cm**-1)   T**2         TX         TY         TZ
-------------------------------------------------------------------
   6:        48.94    0.047347  (  0.009090  -0.175544   0.128251)
   7:        89.75    6.226113  (  2.354310  -0.776268  -0.284160)
   8:       172.94    0.117157  (  0.291654  -0.021657  -0.177836)
   9:       184.50    5.858675  ( -0.691576  -2.263861   0.505303)
  10:       222.93    0.023372  ( -0.109740  -0.103566  -0.024559)
  11:       318.82   11.340153  ( -0.091641  -0.779577  -3.274754)
  12:       396.78    1.896181  ( -0.081309  -0.467022   1.292850)
  13:       452.98    1.453955  (  0.709662  -0.799316  -0.558058)
  14:       531.83   11.751998  (  0.495496   2.742665   1.996063)
  15:       724.58    0.116024  (  0.159518  -0.188914   0.234285)
  16:       774.12    5.693457  ( -2.255279   0.595511   0.502534)
  17:       846.65    7.729749  (  1.492086   1.108137   2.067719)
  18:       899.69   26.186153  (  0.797667   2.296493   4.502888)
  19:       912.03    6.911720  (  2.051062  -1.621534  -0.274761)
  20:       967.88    3.062987  (  0.129837   0.418295  -1.694450)
  21:       973.54   39.943592  ( -0.114831   6.127515   1.544008)
  22:      1001.25    3.379832  ( -0.593716  -1.475475   0.922120)
  23:      1014.60    0.940638  ( -0.496880  -0.717832   0.422452)
  24:      1064.53    1.088692  (  0.178299  -0.362534  -0.962014)
  25:      1116.06   10.218269  ( -2.512710   0.074017  -1.974609)
  26:      1141.52   12.444447  (  0.610054   2.203587   2.686352)
  27:      1278.18    3.842892  (  0.844311  -0.382629  -1.727317)
  28:      1305.97    0.492835  (  0.207840   0.262297   0.617120)
  29:      1340.77    2.771235  (  0.836787   1.094593  -0.934285)
  30:      1347.56    6.614000  ( -2.370516   0.379681   0.922223)
  31:      1402.48    6.594287  ( -0.580003   0.045954  -2.501154)
  32:      1413.70   11.667944  ( -2.567407  -0.171925   2.246510)
  33:      1447.82    0.339798  ( -0.518717  -0.013668   0.265600)
  34:      1468.23    5.442973  ( -0.154786  -0.580923  -2.254228)
  35:      1476.28   13.746678  ( -0.341558  -3.676321   0.338640)
  36:      1486.82   15.236028  ( -2.071477   0.598523  -3.253733)
  37:      1500.28   16.414914  (  1.146423   2.723344   2.772008)
  38:      1506.09  150.314067  (  1.246539   4.451450 -11.355387)
  39:      1657.26   51.489918  (  6.902751  -1.958476  -0.079481)
  40:      1663.66   38.297326  (  1.428089   5.457650   2.544002)
  41:      1736.93   11.368262  (  3.145145  -0.701803   0.991866)
  42:      3023.56   17.850344  (  0.296404  -2.887944   3.069571)
  43:      3038.86   15.577795  ( -3.525737  -0.054640  -1.773129)
  44:      3086.68    7.724447  ( -2.666353  -0.053844   0.782373)
  45:      3091.43   10.442545  (  0.026140   2.898025   1.429446)
  46:      3106.62    2.734141  ( -0.773126  -1.335551  -0.593902)
  47:      3155.72    4.472572  (  0.191552  -0.539903   2.035776)
  48:      3160.98    1.118102  ( -1.031464  -0.100843   0.209798)
  49:      3168.10    0.787765  (  0.856740   0.069548   0.221188)
  50:      3249.75    2.662830  ( -1.285915  -0.251349   0.972664)
  51:      3421.11   48.785583  (  0.239525   1.558654  -6.804323)
  52:      3502.15   89.103776  ( -9.150237   2.317474  -0.079095)
  53:      3508.50  100.036046  ( -2.307488  -8.922787  -3.885283)

--------------------------
THERMOCHEMISTRY AT 298.15K
--------------------------

Temperature         ... 298.15 K
Pressure            ... 1.00 atm
Total Mass          ... 86.16 AMU

Throughout the following assumptions are being made:
  (1) The electronic state is orbitally nondegenerate
  (2) There are no thermally accessible electronically excited states
  (3) Hindered rotations indicated by low frequency modes) are not
      treated as such but are treated as vibrations and this may
      case some error
  (4) All equations used are the standard statistical mechanics
      equations for an ideal gas
  (5) All vibrations are strinctly harmonic

------------
INNER ENERGY
------------

The inner energy is: U= E(el) + E(ZPE) + E(vib) + E(rot) + E(trans)
    E(el)   - is the total energy from the electronic structure calculation
              = E(kin-el) + E(nuc-el) + E(el-el) + E(nuc-nuc)
    E(ZPE)  - the the zero temperature vibrational energy from the frequency calculation
    E(vib)  - the the finite temperature correction to E(ZPE) due to population
              of excietd vibrational states
    E(rot)  - is the rotational thermal energy
    E(trans)- is the translational thermal energy

Summary of contributions to the inner energy U:
Electronic energy                ...   -252.02906283 Eh
Zero point energy                ...      0.16949895 Eh     106.36 kcal/mol
Thermal vibrational correction   ...      0.00516306 Eh       3.24 kcal/mol
Thermal rotational correction    ...      0.00141627 Eh       0.89 kcal/mol
Thermal translational correction ...      0.00141627 Eh       0.89 kcal/mol
-----------------------------------------------------------------------
Total thermal energy                   -251.85156827 Eh

Summary of corrections to the electronic energy:
(perhaps to be used in another calculation)
Total thermal correction                  0.00799561 Eh       5.02 kcal/mol
Non-thermal (ZPE) correction              0.16949895 Eh     106.36 kcal/mol
-----------------------------------------------------------------------
Total correction                          0.17749455 Eh     111.38 kcal/mol

--------
ENTHALPY
--------

The enthalpy is H = U + kB*T
                kB is Boltzmann's constant
Total free energy                 ...   -251.85156827 Eh
Thermal Enthalpy correction       ...      0.00094421 Eh       0.59 kcal/mol
-----------------------------------------------------------------------
Total Enthalpy                    ...   -251.85062406 Eh

-------
ENTROPY
-------

The entropy contributions are T*S = T*(S(el)+S(vib)+S(rot)+S(trans)
     S(el)   - electronic entropy
     S(vib)  - vibrational entropy
     S(rot)  - rotational entropy
     S(trans)- translational entropy
The entropies will be listed as mutliplied by the temperature to get
units of energy

Electronic entropy                ...      0.00000000 Eh      0.00 kcal/mol
Vibrational entropy               ...      0.00977097 Eh      6.13 kcal/mol
Rotational entropy                ...      0.01189059 Eh      7.46 kcal/mol
Translational entropy             ...      0.01866024 Eh     11.71 kcal/mol
-----------------------------------------------------------------------
Final entropy term                ...      0.04032180 Eh     25.30 kcal/mol

CAUTION: The rotational entropy is not quite correctly treated here
         because it includes a symmetry number that is not yet correctly
         implemented in ORCA!
For a nonlinear molecule the correct rotational entropy is:
    S(rot) = R*(ln(qrot/sn)+1.5)
    R    = 8.31441 J/mol/K = 1.987191683e-3 kcal/mol/K
    qrot = 197237.2301777
    sn is the rotational symmetry number. We have assumed 3 here
       if it is different for your molecule then you should correct
       the printed rotational entropy by manually evaluating the equation
       as given above

For convenience we print out the resulting values for sn=1 - 12:
 sn= 1  qrot/sn=  197237.2302 T*S(rot)=     8.11 kcal/mol T*S(tot)=    25.95 kcal/mol
 sn= 2  qrot/sn=   98618.6151 T*S(rot)=     7.70 kcal/mol T*S(tot)=    25.54 kcal/mol
 sn= 3  qrot/sn=   65745.7434 T*S(rot)=     7.46 kcal/mol T*S(tot)=    25.30 kcal/mol
 sn= 4  qrot/sn=   49309.3075 T*S(rot)=     7.29 kcal/mol T*S(tot)=    25.13 kcal/mol
 sn= 5  qrot/sn=   39447.4460 T*S(rot)=     7.16 kcal/mol T*S(tot)=    25.00 kcal/mol
 sn= 6  qrot/sn=   32872.8717 T*S(rot)=     7.05 kcal/mol T*S(tot)=    24.89 kcal/mol
 sn= 7  qrot/sn=   28176.7472 T*S(rot)=     6.96 kcal/mol T*S(tot)=    24.80 kcal/mol
 sn= 8  qrot/sn=   24654.6538 T*S(rot)=     6.88 kcal/mol T*S(tot)=    24.72 kcal/mol
 sn= 9  qrot/sn=   21915.2478 T*S(rot)=     6.81 kcal/mol T*S(tot)=    24.65 kcal/mol
 sn=10  qrot/sn=   19723.7230 T*S(rot)=     6.75 kcal/mol T*S(tot)=    24.59 kcal/mol
 sn=11  qrot/sn=   17930.6573 T*S(rot)=     6.69 kcal/mol T*S(tot)=    24.53 kcal/mol
 sn=12  qrot/sn=   16436.4358 T*S(rot)=     6.64 kcal/mol T*S(tot)=    24.48 kcal/mol

-------------------
GIBBS FREE ENTHALPY
-------------------

The Gibbs free enthalpy is G = H - T*S

Total enthalpy                    ...   -251.85062406 Eh
Total entropy correction          ...     -0.04032180 Eh    -25.30 kcal/mol
-----------------------------------------------------------------------
Final Gibbs free enthalpy         ...   -251.89094586 Eh

For completeness - the Gibbs free enthalpy minus the electronic energy
G-E(el)                           ...      0.13811697 Eh     86.67 kcal/mol

                             ****ORCA TERMINATED NORMALLY****
TOTAL RUN TIME: 0 days 0 hours 22 minutes 39 seconds 189 msec
