                         Program Version 3.0.3 - RELEASE   -
|  1> ! NORI PBE0 def2-TZVP UseSym TightOPT Freq TightSCF Grid3 FinalGrid5 XYZFile
|  2> % pal
|  3>     nprocs 8
|  4> end
|  5> %method
|  6>     SymThresh 5.0e-2
|  7> end
|  8> % geom
|  9>     MaxIter 10
| 10> end
| 11> % maxcore 2000
| 12> % output
| 13>     printlevel mini
| 14>     print[ P_Basis ] 0
| 15>     print[ P_SCFInfo ] 1
| 16>     print[ P_SCFIterInfo ] 1
| 17>     print[ P_OrbEn ] 0
| 18>     print[ P_Cartesian ] 0
| 19> end
| 20> % elprop
| 21>     Dipole false
| 22> end
| 23> *xyz 1 1
| 24>  C        0.9407604141    -0.0913520247     0.3175124198
| 25>  C        2.4339985555    -0.3015537407     0.1031542569
| 26>  C        2.7743651676    -1.7841876842     0.0505052050
| 27>  C        2.9379723309     0.3802157552    -1.1740099412
| 28>  C        2.7677258628     1.8808088979    -1.1457803690
| 29>  N        3.3318584155     2.4967515163    -2.4035427941
| 30>  H        0.6703762506     0.9573609340     0.4669277156
| 31>  H        0.6075801048    -0.6291450662     1.2065524939
| 32>  H        0.3653207711    -0.4766582017    -0.5303183520
| 33>  H        2.9745749066     0.1405363689     0.9501580562
| 34>  H        2.2593692687    -2.2758399397    -0.7798678487
| 35>  H        2.4633820306    -2.2813839949     0.9705572750
| 36>  H        3.8476765436    -1.9498971283    -0.0702021539
| 37>  H        3.9996114347     0.1378045362    -1.3070026901
| 38>  H        2.3990928947    -0.0376891274    -2.0343133944
| 39>  H        1.7223332735     2.1854933246    -1.1030135008
| 40>  H        3.3015877488     2.3415494701    -0.3131998351
| 41>  H        2.8562552023     2.1290755129    -3.2304580352
| 42>  H        4.3251397955     2.2749107139    -2.5020074686
| 43>  H        3.2338690281     3.5142498777    -2.4109510395
| 44> *
| 45>
| 46>                          ****END OF INPUT****
 Total Charge           Charge          ....    1
 Multiplicity           Mult            ....    1
 Number of Electrons    NEL             ....   50
FINAL SINGLE POINT ENERGY      -253.259916971022
FINAL SINGLE POINT ENERGY      -253.259917993052
FINAL SINGLE POINT ENERGY      -253.259918860322

CARTESIAN COORDINATES (ANGSTROEM)
---------------------------------
  C      1.299827    0.004085   -1.535739
  C     -0.148464    0.242982   -1.128938
  C     -1.106238   -0.434822   -2.098740
  C     -0.439176   -0.242892    0.295403
  C      0.378118    0.478421    1.341782
  N     -0.002518    0.001894    2.722790
  H      2.015353    0.561604   -0.925512
  H      1.457523    0.318079   -2.568652
  H      1.553744   -1.058801   -1.476085
  H     -0.344757    1.322626   -1.156519
  H     -0.948808   -1.517277   -2.112325
  H     -0.947707   -0.066185   -3.113206
  H     -2.150017   -0.247464   -1.836000
  H     -1.506100   -0.097670    0.505749
  H     -0.241877   -1.321536    0.349862
  H      1.447828    0.294959    1.242445
  H      0.204638    1.555823    1.330923
  H      0.159598   -1.003324    2.815015
  H     -0.995513    0.166503    2.901620
  H      0.532062    0.475103    3.453932

FINAL SINGLE POINT ENERGY      -253.259919134886
                    ***********************HURRAY********************
 Multiplicity           Mult            ....    1
 Number of Electrons    NEL             ....   50
 Basis Dimension        Dim             ....  270
FINAL SINGLE POINT ENERGY      -253.259919322264

VIBRATIONAL FREQUENCIES
-----------------------

   0:         0.00 cm**-1
   1:         0.00 cm**-1
   2:         0.00 cm**-1
   3:         0.00 cm**-1
   4:         0.00 cm**-1
   5:         0.00 cm**-1
   6:        76.81 cm**-1
   7:       104.11 cm**-1
   8:       173.66 cm**-1
   9:       220.37 cm**-1
  10:       232.22 cm**-1
  11:       253.63 cm**-1
  12:       319.81 cm**-1
  13:       373.63 cm**-1
  14:       435.33 cm**-1
  15:       450.22 cm**-1
  16:       771.74 cm**-1
  17:       836.27 cm**-1
  18:       891.44 cm**-1
  19:       905.00 cm**-1
  20:       930.90 cm**-1
  21:       956.29 cm**-1
  22:       973.98 cm**-1
  23:      1005.93 cm**-1
  24:      1030.34 cm**-1
  25:      1101.80 cm**-1
  26:      1182.24 cm**-1
  27:      1200.24 cm**-1
  28:      1206.38 cm**-1
  29:      1300.59 cm**-1
  30:      1311.77 cm**-1
  31:      1347.83 cm**-1
  32:      1365.06 cm**-1
  33:      1380.14 cm**-1
  34:      1404.39 cm**-1
  35:      1407.07 cm**-1
  36:      1424.50 cm**-1
  37:      1471.04 cm**-1
  38:      1479.91 cm**-1
  39:      1487.83 cm**-1
  40:      1496.97 cm**-1
  41:      1502.67 cm**-1
  42:      1504.81 cm**-1
  43:      1507.62 cm**-1
  44:      1656.84 cm**-1
  45:      1664.40 cm**-1
  46:      3018.64 cm**-1
  47:      3028.64 cm**-1
  48:      3044.61 cm**-1
  49:      3050.40 cm**-1
  50:      3067.90 cm**-1
  51:      3100.15 cm**-1
  52:      3113.60 cm**-1
  53:      3122.38 cm**-1
  54:      3136.30 cm**-1
  55:      3141.60 cm**-1
  56:      3162.78 cm**-1
  57:      3421.54 cm**-1
  58:      3503.27 cm**-1
  59:      3509.09 cm**-1

IR SPECTRUM
-----------

 Mode    freq (cm**-1)   T**2         TX         TY         TZ
-------------------------------------------------------------------
   6:        76.81    1.389154  (  0.799668  -0.865143   0.034832)
   7:       104.11    5.016989  (  1.619475  -1.336219  -0.780263)
   8:       173.66    5.326297  ( -1.774490  -1.426465  -0.377726)
   9:       220.37    0.196886  ( -0.269276  -0.173245  -0.307184)
  10:       232.22    0.074908  (  0.272128   0.028169  -0.007785)
  11:       253.63    0.069744  (  0.101948  -0.118280   0.212980)
  12:       319.81   10.670129  ( -0.412682  -0.392287  -3.216509)
  13:       373.63    0.348174  ( -0.406939  -0.425866  -0.034822)
  14:       435.33    0.645947  (  0.175992  -0.266681  -0.737465)
  15:       450.22    3.701974  (  0.474084   0.105777   1.861728)
  16:       771.74    6.469870  ( -1.884397   1.609267   0.573740)
  17:       836.27    3.433075  ( -0.812574  -0.840304  -1.437598)
  18:       891.44    8.891495  (  0.403420  -2.238074  -1.928671)
  19:       905.00   15.050807  ( -1.699808   0.429621  -3.460764)
  20:       930.90    3.174426  (  1.399063  -0.032925   1.102707)
  21:       956.29    3.712297  ( -0.993805   0.157244   1.643144)
  22:       973.98    0.493208  (  0.201494   0.434696  -0.513467)
  23:      1005.93    3.723895  ( -0.874598  -1.671378  -0.406778)
  24:      1030.34    3.083526  ( -1.580929   0.150149   0.749430)
  25:      1101.80   15.341866  ( -1.198418  -1.090534  -3.566006)
  26:      1182.24    8.618875  ( -1.854806  -0.578121  -2.200987)
  27:      1200.24    5.432074  ( -1.091056  -1.488655   1.423228)
  28:      1206.38    1.823764  ( -0.391738   1.266695  -0.256491)
  29:      1300.59    3.179354  (  0.562913  -0.981957  -1.377768)
  30:      1311.77    1.525455  ( -0.557586  -1.036937   0.373249)
  31:      1347.83    4.872117  (  1.668982  -1.063074  -0.978004)
  32:      1365.06    0.863429  (  0.631848  -0.499021  -0.463870)
  33:      1380.14    9.918383  ( -0.845168  -0.300775   3.018875)
  34:      1404.39   11.731199  ( -2.553116  -0.338670  -2.257897)
  35:      1407.07   10.672990  ( -1.560695  -0.417136   2.839580)
  36:      1424.50    5.286621  ( -0.817882   1.936105   0.932302)
  37:      1471.04    0.619796  (  0.495238   0.580615  -0.193449)
  38:      1479.91    1.344740  ( -0.915422   0.034111   0.711040)
  39:      1487.83    5.511281  ( -1.944291   0.390544  -1.256380)
  40:      1496.97    6.831382  (  0.092207   1.258778   2.288746)
  41:      1502.67   27.355565  ( -0.074762  -1.524434  -5.002607)
  42:      1504.81    9.072353  ( -1.300564   2.639812  -0.642089)
  43:      1507.62  141.385267  (  3.540466   5.183280 -10.098711)
  44:      1656.84   53.150304  ( -5.035923   5.252869   0.444016)
  45:      1664.40   36.594558  (  3.934016   3.571118   2.892264)
  46:      3018.64   11.048105  (  1.999112   0.803826  -2.530913)
  47:      3028.64   11.645158  ( -1.087435  -3.101610   0.917964)
  48:      3044.61   17.370760  (  3.849553  -0.542557   1.502443)
  49:      3050.40    9.498786  ( -1.542623  -2.573413  -0.704732)
  50:      3067.90   14.380376  ( -2.691775   2.559804   0.762973)
  51:      3100.15    0.617072  (  0.527804   0.533267   0.232641)
  52:      3113.60   25.619302  ( -2.422300  -3.796610  -2.310306)
  53:      3122.38   22.908059  (  2.676324  -3.880526  -0.828774)
  54:      3136.30    5.611212  (  1.278694  -0.621559   1.894682)
  55:      3141.60   14.787921  (  1.287593   1.608607  -3.246907)
  56:      3162.78    1.263835  ( -0.966597   0.471740  -0.327087)
  57:      3421.54   44.083946  (  1.129400   1.445219  -6.381202)
  58:      3503.27   88.963472  ( -6.686125   6.642688   0.365933)
  59:      3509.09   95.125320  ( -6.322267  -6.146158  -4.168813)

--------------------------
THERMOCHEMISTRY AT 298.15K
--------------------------

Temperature         ... 298.15 K
Pressure            ... 1.00 atm
Total Mass          ... 88.17 AMU

Throughout the following assumptions are being made:
  (1) The electronic state is orbitally nondegenerate
  (2) There are no thermally accessible electronically excited states
  (3) Hindered rotations indicated by low frequency modes) are not
      treated as such but are treated as vibrations and this may
      case some error
  (4) All equations used are the standard statistical mechanics
      equations for an ideal gas
  (5) All vibrations are strinctly harmonic

------------
INNER ENERGY
------------

The inner energy is: U= E(el) + E(ZPE) + E(vib) + E(rot) + E(trans)
    E(el)   - is the total energy from the electronic structure calculation
              = E(kin-el) + E(nuc-el) + E(el-el) + E(nuc-nuc)
    E(ZPE)  - the the zero temperature vibrational energy from the frequency calculation
    E(vib)  - the the finite temperature correction to E(ZPE) due to population
              of excietd vibrational states
    E(rot)  - is the rotational thermal energy
    E(trans)- is the translational thermal energy

Summary of contributions to the inner energy U:
Electronic energy                ...   -253.25991932 Eh
Zero point energy                ...      0.19311269 Eh     121.18 kcal/mol
Thermal vibrational correction   ...      0.00555577 Eh       3.49 kcal/mol
Thermal rotational correction    ...      0.00141627 Eh       0.89 kcal/mol
Thermal translational correction ...      0.00141627 Eh       0.89 kcal/mol
-----------------------------------------------------------------------
Total thermal energy                   -253.05841832 Eh

Summary of corrections to the electronic energy:
(perhaps to be used in another calculation)
Total thermal correction                  0.00838831 Eh       5.26 kcal/mol
Non-thermal (ZPE) correction              0.19311269 Eh     121.18 kcal/mol
-----------------------------------------------------------------------
Total correction                          0.20150100 Eh     126.44 kcal/mol

--------
ENTHALPY
--------

The enthalpy is H = U + kB*T
                kB is Boltzmann's constant
Total free energy                 ...   -253.05841832 Eh
Thermal Enthalpy correction       ...      0.00094421 Eh       0.59 kcal/mol
-----------------------------------------------------------------------
Total Enthalpy                    ...   -253.05747411 Eh

-------
ENTROPY
-------

The entropy contributions are T*S = T*(S(el)+S(vib)+S(rot)+S(trans)
     S(el)   - electronic entropy
     S(vib)  - vibrational entropy
     S(rot)  - rotational entropy
     S(trans)- translational entropy
The entropies will be listed as mutliplied by the temperature to get
units of energy

Electronic entropy                ...      0.00000000 Eh      0.00 kcal/mol
Vibrational entropy               ...      0.00994722 Eh      6.24 kcal/mol
Rotational entropy                ...      0.01197313 Eh      7.51 kcal/mol
Translational entropy             ...      0.01869299 Eh     11.73 kcal/mol
-----------------------------------------------------------------------
Final entropy term                ...      0.04061334 Eh     25.49 kcal/mol

CAUTION: The rotational entropy is not quite correctly treated here
         because it includes a symmetry number that is not yet correctly
         implemented in ORCA!
For a nonlinear molecule the correct rotational entropy is:
    S(rot) = R*(ln(qrot/sn)+1.5)
    R    = 8.31441 J/mol/K = 1.987191683e-3 kcal/mol/K
    qrot = 215255.6006284
    sn is the rotational symmetry number. We have assumed 3 here
       if it is different for your molecule then you should correct
       the printed rotational entropy by manually evaluating the equation
       as given above

For convenience we print out the resulting values for sn=1 - 12:
 sn= 1  qrot/sn=  215255.6006 T*S(rot)=     8.16 kcal/mol T*S(tot)=    26.14 kcal/mol
 sn= 2  qrot/sn=  107627.8003 T*S(rot)=     7.75 kcal/mol T*S(tot)=    25.73 kcal/mol
 sn= 3  qrot/sn=   71751.8669 T*S(rot)=     7.51 kcal/mol T*S(tot)=    25.49 kcal/mol
 sn= 4  qrot/sn=   53813.9002 T*S(rot)=     7.34 kcal/mol T*S(tot)=    25.31 kcal/mol
 sn= 5  qrot/sn=   43051.1201 T*S(rot)=     7.21 kcal/mol T*S(tot)=    25.18 kcal/mol
 sn= 6  qrot/sn=   35875.9334 T*S(rot)=     7.10 kcal/mol T*S(tot)=    25.07 kcal/mol
 sn= 7  qrot/sn=   30750.8001 T*S(rot)=     7.01 kcal/mol T*S(tot)=    24.98 kcal/mol
 sn= 8  qrot/sn=   26906.9501 T*S(rot)=     6.93 kcal/mol T*S(tot)=    24.90 kcal/mol
 sn= 9  qrot/sn=   23917.2890 T*S(rot)=     6.86 kcal/mol T*S(tot)=    24.83 kcal/mol
 sn=10  qrot/sn=   21525.5601 T*S(rot)=     6.80 kcal/mol T*S(tot)=    24.77 kcal/mol
 sn=11  qrot/sn=   19568.6910 T*S(rot)=     6.74 kcal/mol T*S(tot)=    24.72 kcal/mol
 sn=12  qrot/sn=   17937.9667 T*S(rot)=     6.69 kcal/mol T*S(tot)=    24.66 kcal/mol

-------------------
GIBBS FREE ENTHALPY
-------------------

The Gibbs free enthalpy is G = H - T*S

Total enthalpy                    ...   -253.05747411 Eh
Total entropy correction          ...     -0.04061334 Eh    -25.49 kcal/mol
-----------------------------------------------------------------------
Final Gibbs free enthalpy         ...   -253.09808745 Eh

For completeness - the Gibbs free enthalpy minus the electronic energy
G-E(el)                           ...      0.16183187 Eh    101.55 kcal/mol

                             ****ORCA TERMINATED NORMALLY****
TOTAL RUN TIME: 0 days 0 hours 25 minutes 1 seconds 598 msec
