                         Program Version 3.0.3 - RELEASE   -
|  1> ! NORI PBE0 def2-TZVP UseSym TightOPT Freq TightSCF Grid3 FinalGrid5 XYZFile
|  2> % pal
|  3>     nprocs 8
|  4> end
|  5> %method
|  6>     SymThresh 5.0e-2
|  7> end
|  8> % geom
|  9>     MaxIter 10
| 10> end
| 11> % maxcore 2000
| 12> % output
| 13>     printlevel mini
| 14>     print[ P_Basis ] 0
| 15>     print[ P_SCFInfo ] 1
| 16>     print[ P_SCFIterInfo ] 1
| 17>     print[ P_OrbEn ] 0
| 18>     print[ P_Cartesian ] 0
| 19> end
| 20> % elprop
| 21>     Dipole false
| 22> end
| 23> *xyz 1 1
| 24>  C        1.0466989321    -0.2181344055    -0.1862656538
| 25>  C        2.5300344358    -0.0575571356    -0.1734672805
| 26>  C        3.0432475435     1.0759606008    -0.9980650328
| 27>  C        3.2906311606    -0.9127012052     0.5259625999
| 28>  C        4.7695471029    -0.9031650481     0.5953039457
| 29>  N        5.2284009234    -0.3842865353     1.9577611636
| 30>  H        0.5611669878     0.6956359085     0.1688552176
| 31>  H        0.7123799165    -1.0544552385     0.4265470345
| 32>  H        0.6953916331    -0.3746761748    -1.2104646128
| 33>  H        2.5754322387     2.0109702838    -0.6771163210
| 34>  H        2.7501277466     0.9336527088    -2.0423834809
| 35>  H        4.1245707820     1.2120421486    -0.9723070096
| 36>  H        2.7995075188    -1.7224388120     1.0601510682
| 37>  H        5.2420395833    -0.2575422204    -0.1417111597
| 38>  H        5.1997952425    -1.9027438480     0.5121270180
| 39>  H        4.8902639426     0.5695095181     2.0987094525
| 40>  H        6.2462471978    -0.3895025967     2.0562548633
| 41>  H        4.8323071121    -0.9564879483     2.7058281878
| 42> *
| 43>
| 44>                          ****END OF INPUT****
 Total Charge           Charge          ....    1
 Multiplicity           Mult            ....    1
 Number of Electrons    NEL             ....   48
FINAL SINGLE POINT ENERGY      -252.039083873469

CARTESIAN COORDINATES (ANGSTROEM)
---------------------------------
  C      1.150350    0.000256   -2.086303
  C      0.161996   -0.116850   -0.974631
  C     -0.925466   -1.112658   -1.206931
  C      0.282281    0.658500    0.113208
  C     -0.644046    0.684653    1.267920
  N     -0.000734   -0.000065    2.473197
  H      1.623298   -0.967039   -2.279547
  H      1.926696    0.735633   -1.878111
  H      0.641166    0.284208   -3.012269
  H     -0.492195   -2.096086   -1.410645
  H     -1.489720   -0.838711   -2.103138
  H     -1.635412   -1.218586   -0.386942
  H      1.100679    1.373501    0.149917
  H     -1.581042    0.159404    1.094437
  H     -0.868186    1.699012    1.602963
  H      0.210359   -0.974061    2.248127
  H     -0.599022    0.022830    3.302072
  H      0.885091    0.452868    2.706250

FINAL SINGLE POINT ENERGY      -252.039084517846
                    ***********************HURRAY********************
 Multiplicity           Mult            ....    1
 Number of Electrons    NEL             ....   48
 Basis Dimension        Dim             ....  258
FINAL SINGLE POINT ENERGY      -252.039084699125

VIBRATIONAL FREQUENCIES
-----------------------

   0:         0.00 cm**-1
   1:         0.00 cm**-1
   2:         0.00 cm**-1
   3:         0.00 cm**-1
   4:         0.00 cm**-1
   5:         0.00 cm**-1
   6:        62.78 cm**-1
   7:       129.41 cm**-1
   8:       136.61 cm**-1
   9:       199.10 cm**-1
  10:       204.09 cm**-1
  11:       311.64 cm**-1
  12:       372.90 cm**-1
  13:       427.48 cm**-1
  14:       496.39 cm**-1
  15:       521.08 cm**-1
  16:       774.84 cm**-1
  17:       824.08 cm**-1
  18:       852.72 cm**-1
  19:       872.80 cm**-1
  20:       955.94 cm**-1
  21:       987.78 cm**-1
  22:       989.91 cm**-1
  23:      1076.65 cm**-1
  24:      1090.85 cm**-1
  25:      1096.06 cm**-1
  26:      1164.10 cm**-1
  27:      1257.92 cm**-1
  28:      1333.23 cm**-1
  29:      1364.87 cm**-1
  30:      1399.06 cm**-1
  31:      1411.86 cm**-1
  32:      1417.57 cm**-1
  33:      1452.58 cm**-1
  34:      1466.02 cm**-1
  35:      1477.88 cm**-1
  36:      1481.46 cm**-1
  37:      1489.37 cm**-1
  38:      1499.02 cm**-1
  39:      1649.35 cm**-1
  40:      1660.49 cm**-1
  41:      1722.35 cm**-1
  42:      3049.76 cm**-1
  43:      3055.86 cm**-1
  44:      3101.26 cm**-1
  45:      3109.37 cm**-1
  46:      3114.60 cm**-1
  47:      3147.35 cm**-1
  48:      3155.22 cm**-1
  49:      3158.29 cm**-1
  50:      3176.00 cm**-1
  51:      3416.77 cm**-1
  52:      3509.22 cm**-1
  53:      3512.03 cm**-1

IR SPECTRUM
-----------

 Mode    freq (cm**-1)   T**2         TX         TY         TZ
-------------------------------------------------------------------
   6:        62.78    9.827971  (  0.828407   2.502952   1.696155)
   7:       129.41    0.413640  (  0.576807  -0.038202   0.281911)
   8:       136.61    9.791791  (  2.674899  -1.393570  -0.833469)
   9:       199.10    1.421804  ( -0.079480   0.088120  -1.186474)
  10:       204.09    1.886376  (  0.541354   0.375108  -1.205241)
  11:       311.64    0.376278  ( -0.031284   0.368652   0.489280)
  12:       372.90    4.692700  ( -0.195337   1.230982  -1.771786)
  13:       427.48    8.582419  ( -0.384595   1.222111  -2.634568)
  14:       496.39    1.598392  (  0.649183  -0.963336  -0.498936)
  15:       521.08    2.581692  (  1.217533   0.896716   0.543329)
  16:       774.84    4.763084  ( -0.087914   1.951163   0.973817)
  17:       824.08    7.570059  (  2.060099  -1.417531  -1.147456)
  18:       852.72   68.067524  (  0.655205  -2.047388   7.965327)
  19:       872.80    9.077828  ( -1.378229  -2.417968  -1.154012)
  20:       955.94    0.781123  (  0.312237  -0.281924   0.777271)
  21:       987.78    1.537896  (  0.958764  -0.092010   0.781153)
  22:       989.91    8.995042  ( -1.559344   1.534767  -2.051336)
  23:      1076.65   18.879001  ( -3.145738   2.670750   1.360303)
  24:      1090.85    3.164862  (  0.066074  -0.029064  -1.777541)
  25:      1096.06    1.846283  ( -0.814389   0.652557  -0.870186)
  26:      1164.10   11.013208  (  2.275056  -0.436992  -2.376208)
  27:      1257.92    9.394314  (  1.904930   0.137456  -2.397219)
  28:      1333.23   10.316453  (  0.859639   2.695672   1.520140)
  29:      1364.87   33.726117  ( -0.702086   1.600155   5.538294)
  30:      1399.06    9.815305  ( -1.115037  -0.732663  -2.834643)
  31:      1411.86   26.270546  (  0.848118  -1.460405  -4.839262)
  32:      1417.57   19.400846  (  3.212128   2.911261  -0.779514)
  33:      1452.58    0.191642  ( -0.262085  -0.115187   0.331187)
  34:      1466.02    3.270836  ( -1.207791  -1.315362  -0.286182)
  35:      1477.88   43.607498  ( -4.079327   3.822344  -3.515149)
  36:      1481.46   35.563594  (  2.442780   1.003992   5.346814)
  37:      1489.37  119.598541  ( -2.912180   4.494454  -9.535074)
  38:      1499.02   25.309757  (  3.863868  -2.172782  -2.378929)
  39:      1649.35   47.966203  (  3.511167   5.872966   1.070600)
  40:      1660.49   38.607406  ( -3.862513   2.312962   4.282360)
  41:      1722.35   69.889650  ( -0.108141  -2.994064  -7.804712)
  42:      3049.76    2.046645  ( -0.963720  -0.150709   1.046507)
  43:      3055.86    1.545331  (  0.659930   1.053201  -0.024325)
  44:      3101.26    4.513777  ( -1.201373   0.627518   1.636062)
  45:      3109.37    0.461045  (  0.496997  -0.428605   0.174175)
  46:      3114.60    1.870111  ( -0.748682   1.115026  -0.257495)
  47:      3147.35   19.976176  ( -2.997980  -0.560558   3.267119)
  48:      3155.22    3.373911  (  1.371288   1.214731  -0.133824)
  49:      3158.29    4.083903  (  1.291843   1.426546   0.616449)
  50:      3176.00    3.439816  (  1.611371   0.483065  -0.780992)
  51:      3416.77   33.296902  ( -1.593113   1.738659  -5.266494)
  52:      3509.22   80.101196  ( -8.541668  -1.053498   2.455860)
  53:      3512.03   83.995793  (  1.065819   8.146818   4.060687)

--------------------------
THERMOCHEMISTRY AT 298.15K
--------------------------

Temperature         ... 298.15 K
Pressure            ... 1.00 atm
Total Mass          ... 86.16 AMU

Throughout the following assumptions are being made:
  (1) The electronic state is orbitally nondegenerate
  (2) There are no thermally accessible electronically excited states
  (3) Hindered rotations indicated by low frequency modes) are not
      treated as such but are treated as vibrations and this may
      case some error
  (4) All equations used are the standard statistical mechanics
      equations for an ideal gas
  (5) All vibrations are strinctly harmonic

------------
INNER ENERGY
------------

The inner energy is: U= E(el) + E(ZPE) + E(vib) + E(rot) + E(trans)
    E(el)   - is the total energy from the electronic structure calculation
              = E(kin-el) + E(nuc-el) + E(el-el) + E(nuc-nuc)
    E(ZPE)  - the the zero temperature vibrational energy from the frequency calculation
    E(vib)  - the the finite temperature correction to E(ZPE) due to population
              of excietd vibrational states
    E(rot)  - is the rotational thermal energy
    E(trans)- is the translational thermal energy

Summary of contributions to the inner energy U:
Electronic energy                ...   -252.03908470 Eh
Zero point energy                ...      0.16889417 Eh     105.98 kcal/mol
Thermal vibrational correction   ...      0.00532675 Eh       3.34 kcal/mol
Thermal rotational correction    ...      0.00141627 Eh       0.89 kcal/mol
Thermal translational correction ...      0.00141627 Eh       0.89 kcal/mol
-----------------------------------------------------------------------
Total thermal energy                   -251.86203123 Eh

Summary of corrections to the electronic energy:
(perhaps to be used in another calculation)
Total thermal correction                  0.00815930 Eh       5.12 kcal/mol
Non-thermal (ZPE) correction              0.16889417 Eh     105.98 kcal/mol
-----------------------------------------------------------------------
Total correction                          0.17705347 Eh     111.10 kcal/mol

--------
ENTHALPY
--------

The enthalpy is H = U + kB*T
                kB is Boltzmann's constant
Total free energy                 ...   -251.86203123 Eh
Thermal Enthalpy correction       ...      0.00094421 Eh       0.59 kcal/mol
-----------------------------------------------------------------------
Total Enthalpy                    ...   -251.86108702 Eh

-------
ENTROPY
-------

The entropy contributions are T*S = T*(S(el)+S(vib)+S(rot)+S(trans)
     S(el)   - electronic entropy
     S(vib)  - vibrational entropy
     S(rot)  - rotational entropy
     S(trans)- translational entropy
The entropies will be listed as mutliplied by the temperature to get
units of energy

Electronic entropy                ...      0.00000000 Eh      0.00 kcal/mol
Vibrational entropy               ...      0.00973602 Eh      6.11 kcal/mol
Rotational entropy                ...      0.01188290 Eh      7.46 kcal/mol
Translational entropy             ...      0.01866024 Eh     11.71 kcal/mol
-----------------------------------------------------------------------
Final entropy term                ...      0.04027916 Eh     25.28 kcal/mol

CAUTION: The rotational entropy is not quite correctly treated here
         because it includes a symmetry number that is not yet correctly
         implemented in ORCA!
For a nonlinear molecule the correct rotational entropy is:
    S(rot) = R*(ln(qrot/sn)+1.5)
    R    = 8.31441 J/mol/K = 1.987191683e-3 kcal/mol/K
    qrot = 195638.2503051
    sn is the rotational symmetry number. We have assumed 3 here
       if it is different for your molecule then you should correct
       the printed rotational entropy by manually evaluating the equation
       as given above

For convenience we print out the resulting values for sn=1 - 12:
 sn= 1  qrot/sn=  195638.2503 T*S(rot)=     8.11 kcal/mol T*S(tot)=    25.93 kcal/mol
 sn= 2  qrot/sn=   97819.1252 T*S(rot)=     7.70 kcal/mol T*S(tot)=    25.52 kcal/mol
 sn= 3  qrot/sn=   65212.7501 T*S(rot)=     7.46 kcal/mol T*S(tot)=    25.28 kcal/mol
 sn= 4  qrot/sn=   48909.5626 T*S(rot)=     7.29 kcal/mol T*S(tot)=    25.11 kcal/mol
 sn= 5  qrot/sn=   39127.6501 T*S(rot)=     7.15 kcal/mol T*S(tot)=    24.97 kcal/mol
 sn= 6  qrot/sn=   32606.3751 T*S(rot)=     7.05 kcal/mol T*S(tot)=    24.86 kcal/mol
 sn= 7  qrot/sn=   27948.3215 T*S(rot)=     6.95 kcal/mol T*S(tot)=    24.77 kcal/mol
 sn= 8  qrot/sn=   24454.7813 T*S(rot)=     6.88 kcal/mol T*S(tot)=    24.69 kcal/mol
 sn= 9  qrot/sn=   21737.5834 T*S(rot)=     6.81 kcal/mol T*S(tot)=    24.62 kcal/mol
 sn=10  qrot/sn=   19563.8250 T*S(rot)=     6.74 kcal/mol T*S(tot)=    24.56 kcal/mol
 sn=11  qrot/sn=   17785.2955 T*S(rot)=     6.69 kcal/mol T*S(tot)=    24.51 kcal/mol
 sn=12  qrot/sn=   16303.1875 T*S(rot)=     6.64 kcal/mol T*S(tot)=    24.45 kcal/mol

-------------------
GIBBS FREE ENTHALPY
-------------------

The Gibbs free enthalpy is G = H - T*S

Total enthalpy                    ...   -251.86108702 Eh
Total entropy correction          ...     -0.04027916 Eh    -25.28 kcal/mol
-----------------------------------------------------------------------
Final Gibbs free enthalpy         ...   -251.90136618 Eh

For completeness - the Gibbs free enthalpy minus the electronic energy
G-E(el)                           ...      0.13771852 Eh     86.42 kcal/mol

                             ****ORCA TERMINATED NORMALLY****
TOTAL RUN TIME: 0 days 0 hours 20 minutes 6 seconds 49 msec
