                         Program Version 3.0.3 - RELEASE   -
|  1> ! NORI PBE0 def2-TZVP UseSym TightOPT Freq TightSCF Grid3 FinalGrid5 XYZFile
|  2> % pal
|  3>     nprocs 8
|  4> end
|  5> %method
|  6>     SymThresh 5.0e-2
|  7> end
|  8> % geom
|  9>     MaxIter 10
| 10> end
| 11> % maxcore 2000
| 12> % output
| 13>     printlevel mini
| 14>     print[ P_Basis ] 0
| 15>     print[ P_SCFInfo ] 1
| 16>     print[ P_SCFIterInfo ] 1
| 17>     print[ P_OrbEn ] 0
| 18>     print[ P_Cartesian ] 0
| 19> end
| 20> % elprop
| 21>     Dipole false
| 22> end
| 23> *xyz 1 1
| 24>  C        1.0797260438    -0.0898198406     0.0154196480
| 25>  C        2.6059892733    -0.0301785336     0.0685540068
| 26>  C        3.0725528683     1.4189649316    -0.0639281094
| 27>  C        3.0998071753    -0.6334774944     1.3834817249
| 28>  C        3.0965789789    -0.8579201954    -1.1154198348
| 29>  N        4.6010560063    -0.8984198249    -1.1875741491
| 30>  H        0.6917700200     0.3263602680    -0.9177563456
| 31>  H        0.6567855944     0.4901268644     0.8371990301
| 32>  H        0.7150291088    -1.1155503482     0.1117073639
| 33>  H        2.7560672820     1.8613289690    -1.0125456412
| 34>  H        4.1593669787     1.5335857529     0.0321683484
| 35>  H        2.6417569331     2.0234191119     0.7357664068
| 36>  H        4.1854853485    -0.5493879866     1.5159749722
| 37>  H        2.8147793269    -1.6848087127     1.4809854978
| 38>  H        2.6584859632    -0.0981957341     2.2255350752
| 39>  H        2.7668971375    -1.8955939411    -1.0449627176
| 40>  H        2.7566901295    -0.4424164637    -2.0654166429
| 41>  H        4.9879267716    -1.3016250250    -0.3316490156
| 42>  H        4.9796464107     0.0465529626    -1.2800215511
| 43>  H        4.9299426492    -1.4528147601    -1.9792280668
| 44> *
| 45>
| 46>                          ****END OF INPUT****
 Total Charge           Charge          ....    1
 Multiplicity           Mult            ....    1
 Number of Electrons    NEL             ....   50
FINAL SINGLE POINT ENERGY      -253.262924008825

CARTESIAN COORDINATES (ANGSTROEM)
---------------------------------
  C     -1.634939    0.977450   -0.000000
  C     -0.466543   -0.008174    0.000000
  C     -0.523777   -0.877251    1.256122
  C     -0.523777   -0.877251   -1.256122
  C      0.798463    0.845020    0.000000
  N      2.045870   -0.000490   -0.000000
  H     -1.621318    1.617205    0.885980
  H     -2.580072    0.432308   -0.000000
  H     -1.621317    1.617205   -0.885980
  H     -0.446519   -0.278436    2.167803
  H      0.250208   -1.654036    1.279002
  H     -1.475491   -1.409367    1.296861
  H      0.250208   -1.654036   -1.279002
  H     -0.446519   -0.278436   -2.167803
  H     -1.475491   -1.409367   -1.296861
  H      0.857920    1.476455   -0.888035
  H      0.857920    1.476455    0.888035
  H      2.066816   -0.604839   -0.824301
  H      2.066816   -0.604839    0.824301
  H      2.892924    0.569409   -0.000000

FINAL SINGLE POINT ENERGY      -253.262924546203
                    ***********************HURRAY********************
 Multiplicity           Mult            ....    1
 Number of Electrons    NEL             ....   50
 Basis Dimension        Dim             ....  270
FINAL SINGLE POINT ENERGY      -253.262924641403

VIBRATIONAL FREQUENCIES
-----------------------

   0:         0.00 cm**-1
   1:         0.00 cm**-1
   2:         0.00 cm**-1
   3:         0.00 cm**-1
   4:         0.00 cm**-1
   5:         0.00 cm**-1
   6:        97.67 cm**-1
   7:       188.33 cm**-1
   8:       228.48 cm**-1
   9:       238.57 cm**-1
  10:       268.14 cm**-1
  11:       270.42 cm**-1
  12:       335.43 cm**-1
  13:       345.22 cm**-1
  14:       396.77 cm**-1
  15:       410.99 cm**-1
  16:       487.77 cm**-1
  17:       729.20 cm**-1
  18:       836.54 cm**-1
  19:       882.08 cm**-1
  20:       945.51 cm**-1
  21:       947.60 cm**-1
  22:       961.77 cm**-1
  23:       963.59 cm**-1
  24:       992.47 cm**-1
  25:      1013.18 cm**-1
  26:      1090.21 cm**-1
  27:      1098.27 cm**-1
  28:      1249.05 cm**-1
  29:      1277.52 cm**-1
  30:      1287.99 cm**-1
  31:      1359.69 cm**-1
  32:      1394.21 cm**-1
  33:      1402.82 cm**-1
  34:      1404.46 cm**-1
  35:      1439.68 cm**-1
  36:      1466.31 cm**-1
  37:      1469.66 cm**-1
  38:      1477.97 cm**-1
  39:      1483.14 cm**-1
  40:      1493.24 cm**-1
  41:      1504.24 cm**-1
  42:      1506.30 cm**-1
  43:      1517.08 cm**-1
  44:      1648.39 cm**-1
  45:      1663.82 cm**-1
  46:      3026.54 cm**-1
  47:      3031.59 cm**-1
  48:      3053.21 cm**-1
  49:      3091.88 cm**-1
  50:      3100.68 cm**-1
  51:      3103.47 cm**-1
  52:      3128.25 cm**-1
  53:      3138.00 cm**-1
  54:      3139.42 cm**-1
  55:      3143.85 cm**-1
  56:      3153.25 cm**-1
  57:      3422.93 cm**-1
  58:      3498.25 cm**-1
  59:      3517.13 cm**-1

IR SPECTRUM
-----------

 Mode    freq (cm**-1)   T**2         TX         TY         TZ
-------------------------------------------------------------------
   6:        97.67    6.537879  ( -0.000082  -0.000032   2.556928)
   7:       188.33    0.422889  (  0.000100   0.000065   0.650299)
   8:       228.48    0.995720  ( -0.000113  -0.000090   0.997858)
   9:       238.57   15.855603  (  3.263701   2.281197   0.000059)
  10:       268.14    0.805264  ( -0.521240  -0.730461   0.000041)
  11:       270.42    0.023265  (  0.000054   0.000046   0.152528)
  12:       335.43    0.114178  ( -0.000161  -0.000052  -0.337902)
  13:       345.22   10.567322  ( -3.196519  -0.591262   0.000018)
  14:       396.77    3.948311  (  1.986886   0.024376   0.000005)
  15:       410.99    0.028941  (  0.000084   0.000018   0.170122)
  16:       487.77    4.423795  ( -2.057210  -0.437814  -0.000006)
  17:       729.20    2.111753  (  1.248787   0.743158  -0.000001)
  18:       836.54    9.992609  ( -0.000007  -0.000022  -3.161109)
  19:       882.08    3.505311  (  1.723238   0.731958   0.000007)
  20:       945.51    0.425115  ( -0.000356   0.000148   0.652008)
  21:       947.60    7.998311  (  2.640799  -1.012171   0.000097)
  22:       961.77    0.453417  (  0.000052  -0.000007  -0.673363)
  23:       963.59    5.928687  ( -2.426368   0.203531  -0.000004)
  24:       992.47    4.055501  (  0.000044   0.000058   2.013827)
  25:      1013.18   16.281933  ( -3.374400  -2.212546   0.000025)
  26:      1090.21   23.342116  (  3.192109   3.626645   0.000036)
  27:      1098.27    1.267690  (  0.000137   0.000157  -1.125917)
  28:      1249.05    6.706517  ( -2.255714  -1.272113  -0.000000)
  29:      1277.52    0.004365  ( -0.000006  -0.000011  -0.066068)
  30:      1287.99    0.771805  (  0.465171   0.745266   0.000004)
  31:      1359.69    8.441569  ( -0.000008   0.000027  -2.905438)
  32:      1394.21    0.710292  ( -0.152323  -0.828909   0.000011)
  33:      1402.82   15.795571  (  0.000015  -0.000053  -3.974364)
  34:      1404.46    9.259212  (  0.763516  -2.945548   0.000017)
  35:      1439.68   15.358166  (  3.887140   0.498305  -0.000003)
  36:      1466.31    0.098302  ( -0.000161   0.000066   0.313531)
  37:      1469.66   15.220525  (  3.664173  -1.339538  -0.000013)
  38:      1477.97    0.195209  (  0.000049  -0.000035   0.441825)
  39:      1483.14   52.514288  (  6.362060  -3.469651   0.000029)
  40:      1493.24   87.682040  ( -9.322221   0.882180   0.000015)
  41:      1504.24   14.428320  ( -3.557576   1.331155   0.000136)
  42:      1506.30   11.757947  ( -0.000184   0.000022  -3.428986)
  43:      1517.08   53.223620  (  2.378367  -6.896883   0.000018)
  44:      1648.39   42.041585  ( -0.000026  -0.000014   6.483948)
  45:      1663.82   38.234661  (  4.953447   3.701084  -0.000002)
  46:      3026.54    6.583314  (  0.000078  -0.000046   2.565797)
  47:      3031.59   43.428205  (  5.441082  -3.717907  -0.000020)
  48:      3053.21    3.850536  ( -0.551562   1.883167   0.000015)
  49:      3091.88    2.769321  ( -1.192112  -1.161115  -0.000012)
  50:      3100.68    6.237040  ( -0.000020   0.000015   2.497407)
  51:      3103.47   27.227742  ( -3.452210   3.912798  -0.000013)
  52:      3128.25   10.547617  ( -0.000001   0.000001   3.247709)
  53:      3138.00    2.719210  (  0.000031   0.000011   1.649003)
  54:      3139.42    0.907367  ( -0.926531  -0.221152   0.000037)
  55:      3143.85    9.389122  ( -1.895921  -2.407199  -0.000005)
  56:      3153.25    2.878477  (  0.000003  -0.000019   1.696608)
  57:      3422.93   26.461704  ( -3.968193   3.273400   0.000046)
  58:      3498.25   87.783225  (  0.000267   0.000307  -9.369270)
  59:      3517.13  119.611434  ( -7.809844  -7.656225  -0.000347)

--------------------------
THERMOCHEMISTRY AT 298.15K
--------------------------

Temperature         ... 298.15 K
Pressure            ... 1.00 atm
Total Mass          ... 88.17 AMU

Throughout the following assumptions are being made:
  (1) The electronic state is orbitally nondegenerate
  (2) There are no thermally accessible electronically excited states
  (3) Hindered rotations indicated by low frequency modes) are not
      treated as such but are treated as vibrations and this may
      case some error
  (4) All equations used are the standard statistical mechanics
      equations for an ideal gas
  (5) All vibrations are strinctly harmonic

------------
INNER ENERGY
------------

The inner energy is: U= E(el) + E(ZPE) + E(vib) + E(rot) + E(trans)
    E(el)   - is the total energy from the electronic structure calculation
              = E(kin-el) + E(nuc-el) + E(el-el) + E(nuc-nuc)
    E(ZPE)  - the the zero temperature vibrational energy from the frequency calculation
    E(vib)  - the the finite temperature correction to E(ZPE) due to population
              of excietd vibrational states
    E(rot)  - is the rotational thermal energy
    E(trans)- is the translational thermal energy

Summary of contributions to the inner energy U:
Electronic energy                ...   -253.26292464 Eh
Zero point energy                ...      0.19210020 Eh     120.54 kcal/mol
Thermal vibrational correction   ...      0.00549636 Eh       3.45 kcal/mol
Thermal rotational correction    ...      0.00141627 Eh       0.89 kcal/mol
Thermal translational correction ...      0.00141627 Eh       0.89 kcal/mol
-----------------------------------------------------------------------
Total thermal energy                   -253.06249554 Eh

Summary of corrections to the electronic energy:
(perhaps to be used in another calculation)
Total thermal correction                  0.00832890 Eh       5.23 kcal/mol
Non-thermal (ZPE) correction              0.19210020 Eh     120.54 kcal/mol
-----------------------------------------------------------------------
Total correction                          0.20042910 Eh     125.77 kcal/mol

--------
ENTHALPY
--------

The enthalpy is H = U + kB*T
                kB is Boltzmann's constant
Total free energy                 ...   -253.06249554 Eh
Thermal Enthalpy correction       ...      0.00094421 Eh       0.59 kcal/mol
-----------------------------------------------------------------------
Total Enthalpy                    ...   -253.06155133 Eh

-------
ENTROPY
-------

The entropy contributions are T*S = T*(S(el)+S(vib)+S(rot)+S(trans)
     S(el)   - electronic entropy
     S(vib)  - vibrational entropy
     S(rot)  - rotational entropy
     S(trans)- translational entropy
The entropies will be listed as mutliplied by the temperature to get
units of energy

Electronic entropy                ...      0.00000000 Eh      0.00 kcal/mol
Vibrational entropy               ...      0.00917878 Eh      5.76 kcal/mol
Rotational entropy                ...      0.01173565 Eh      7.36 kcal/mol
Translational entropy             ...      0.01869299 Eh     11.73 kcal/mol
-----------------------------------------------------------------------
Final entropy term                ...      0.03960742 Eh     24.85 kcal/mol

CAUTION: The rotational entropy is not quite correctly treated here
         because it includes a symmetry number that is not yet correctly
         implemented in ORCA!
For a nonlinear molecule the correct rotational entropy is:
    S(rot) = R*(ln(qrot/sn)+1.5)
    R    = 8.31441 J/mol/K = 1.987191683e-3 kcal/mol/K
    qrot = 167386.2092560
    sn is the rotational symmetry number. We have assumed 3 here
       if it is different for your molecule then you should correct
       the printed rotational entropy by manually evaluating the equation
       as given above

For convenience we print out the resulting values for sn=1 - 12:
 sn= 1  qrot/sn=  167386.2093 T*S(rot)=     8.02 kcal/mol T*S(tot)=    25.50 kcal/mol
 sn= 2  qrot/sn=   83693.1046 T*S(rot)=     7.60 kcal/mol T*S(tot)=    25.09 kcal/mol
 sn= 3  qrot/sn=   55795.4031 T*S(rot)=     7.36 kcal/mol T*S(tot)=    24.85 kcal/mol
 sn= 4  qrot/sn=   41846.5523 T*S(rot)=     7.19 kcal/mol T*S(tot)=    24.68 kcal/mol
 sn= 5  qrot/sn=   33477.2419 T*S(rot)=     7.06 kcal/mol T*S(tot)=    24.55 kcal/mol
 sn= 6  qrot/sn=   27897.7015 T*S(rot)=     6.95 kcal/mol T*S(tot)=    24.44 kcal/mol
 sn= 7  qrot/sn=   23912.3156 T*S(rot)=     6.86 kcal/mol T*S(tot)=    24.35 kcal/mol
 sn= 8  qrot/sn=   20923.2762 T*S(rot)=     6.78 kcal/mol T*S(tot)=    24.27 kcal/mol
 sn= 9  qrot/sn=   18598.4677 T*S(rot)=     6.71 kcal/mol T*S(tot)=    24.20 kcal/mol
 sn=10  qrot/sn=   16738.6209 T*S(rot)=     6.65 kcal/mol T*S(tot)=    24.14 kcal/mol
 sn=11  qrot/sn=   15216.9281 T*S(rot)=     6.59 kcal/mol T*S(tot)=    24.08 kcal/mol
 sn=12  qrot/sn=   13948.8508 T*S(rot)=     6.54 kcal/mol T*S(tot)=    24.03 kcal/mol

-------------------
GIBBS FREE ENTHALPY
-------------------

The Gibbs free enthalpy is G = H - T*S

Total enthalpy                    ...   -253.06155133 Eh
Total entropy correction          ...     -0.03960742 Eh    -24.85 kcal/mol
-----------------------------------------------------------------------
Final Gibbs free enthalpy         ...   -253.10115875 Eh

For completeness - the Gibbs free enthalpy minus the electronic energy
G-E(el)                           ...      0.16176589 Eh    101.51 kcal/mol

                             ****ORCA TERMINATED NORMALLY****
TOTAL RUN TIME: 0 days 0 hours 27 minutes 17 seconds 638 msec
