                         Program Version 3.0.3 - RELEASE   -
|  1> ! NORI PBE0 def2-TZVP UseSym TightOPT Freq TightSCF Grid3 FinalGrid5 XYZFile
|  2> % pal
|  3>     nprocs 8
|  4> end
|  5> %method
|  6>     SymThresh 5.0e-2
|  7> end
|  8> % geom
|  9>     MaxIter 10
| 10> end
| 11> % maxcore 2000
| 12> % output
| 13>     printlevel mini
| 14>     print[ P_Basis ] 0
| 15>     print[ P_SCFInfo ] 1
| 16>     print[ P_SCFIterInfo ] 1
| 17>     print[ P_OrbEn ] 0
| 18>     print[ P_Cartesian ] 0
| 19> end
| 20> % elprop
| 21>     Dipole false
| 22> end
| 23> *xyz 1 1
| 24>  C        0.9309866534    -0.0903859099    -0.1115407398
| 25>  C        2.4510341028     0.0286507899    -0.0910915569
| 26>  C        2.9417358083     1.0901082901    -1.0682302284
| 27>  C        2.9816766102     0.2095965398     1.3322029578
| 28>  C        4.4847534685     0.2080446299     1.4879378506
| 29>  N        2.4464880932     1.5160163925     1.8942682650
| 30>  H        0.5905111476    -0.4058189746    -1.0982134815
| 31>  H        0.4287689805     0.8666946380     0.0784291096
| 32>  H        0.5651131698    -0.8259341612     0.6095996253
| 33>  H        2.8648146794    -0.9361070880    -0.4044860410
| 34>  H        2.5452872473     2.0876174061    -0.8416390235
| 35>  H        2.5892631505     0.8552656530    -2.0733452436
| 36>  H        4.0298271469     1.1529303849    -1.1167093440
| 37>  H        2.5395659693    -0.5586560864     1.9721030253
| 38>  H        4.9597313130     1.0250178075     0.9405456351
| 39>  H        4.8836068793    -0.7281607955     1.0951776364
| 40>  H        4.7832934166     0.2714117619     2.5372523056
| 41>  H        2.8173988970     2.3059940910     1.3618943077
| 42>  H        2.7150908226     1.6410809954     2.8711630186
| 43>  H        1.4265924438     1.5456236356     1.8297319218
| 44> *
| 45>
| 46>                          ****END OF INPUT****
 Total Charge           Charge          ....    1
 Multiplicity           Mult            ....    1
 Number of Electrons    NEL             ....   50
FINAL SINGLE POINT ENERGY      -253.266272401309
FINAL SINGLE POINT ENERGY      -253.266273918703
FINAL SINGLE POINT ENERGY      -253.266274928473

CARTESIAN COORDINATES (ANGSTROEM)
---------------------------------
  C      1.892742   -0.001660   -0.661839
  C      0.374920   -0.029697   -0.808207
  C     -0.139482   -1.448808   -1.019700
  C     -0.314650    0.710850    0.339492
  C     -1.815058    0.856442    0.230970
  N      0.000903    0.001055    1.645578
  H      2.366887   -0.367594   -1.573263
  H      2.252012   -0.658842    0.140223
  H      2.270986    1.007836   -0.480858
  H      0.115564    0.560191   -1.694031
  H      0.108012   -2.115303   -0.184625
  H      0.338439   -1.885235   -1.897632
  H     -1.216494   -1.489019   -1.187809
  H      0.148845    1.694846    0.450941
  H     -2.325522   -0.109028    0.221481
  H     -2.056591    1.366940   -0.701916
  H     -2.223994    1.459131    1.045623
  H     -0.401430   -0.938663    1.642211
  H     -0.382200    0.505000    2.446347
  H      1.010879   -0.090938    1.772503

FINAL SINGLE POINT ENERGY      -253.266275187786
                    ***********************HURRAY********************
 Multiplicity           Mult            ....    1
 Number of Electrons    NEL             ....   50
 Basis Dimension        Dim             ....  270
FINAL SINGLE POINT ENERGY      -253.266275343570

VIBRATIONAL FREQUENCIES
-----------------------

   0:         0.00 cm**-1
   1:         0.00 cm**-1
   2:         0.00 cm**-1
   3:         0.00 cm**-1
   4:         0.00 cm**-1
   5:         0.00 cm**-1
   6:        63.58 cm**-1
   7:       190.51 cm**-1
   8:       223.49 cm**-1
   9:       238.02 cm**-1
  10:       244.52 cm**-1
  11:       261.91 cm**-1
  12:       280.11 cm**-1
  13:       341.38 cm**-1
  14:       389.34 cm**-1
  15:       476.03 cm**-1
  16:       554.89 cm**-1
  17:       737.00 cm**-1
  18:       847.64 cm**-1
  19:       922.13 cm**-1
  20:       930.23 cm**-1
  21:       942.88 cm**-1
  22:       962.54 cm**-1
  23:       970.06 cm**-1
  24:      1032.58 cm**-1
  25:      1059.47 cm**-1
  26:      1153.51 cm**-1
  27:      1170.97 cm**-1
  28:      1206.06 cm**-1
  29:      1228.11 cm**-1
  30:      1323.73 cm**-1
  31:      1358.10 cm**-1
  32:      1381.04 cm**-1
  33:      1404.19 cm**-1
  34:      1407.25 cm**-1
  35:      1422.01 cm**-1
  36:      1427.84 cm**-1
  37:      1468.45 cm**-1
  38:      1476.52 cm**-1
  39:      1483.54 cm**-1
  40:      1487.68 cm**-1
  41:      1494.97 cm**-1
  42:      1502.67 cm**-1
  43:      1510.74 cm**-1
  44:      1647.38 cm**-1
  45:      1657.72 cm**-1
  46:      3025.61 cm**-1
  47:      3033.97 cm**-1
  48:      3061.05 cm**-1
  49:      3065.76 cm**-1
  50:      3089.64 cm**-1
  51:      3104.74 cm**-1
  52:      3119.58 cm**-1
  53:      3136.29 cm**-1
  54:      3144.53 cm**-1
  55:      3150.26 cm**-1
  56:      3155.35 cm**-1
  57:      3421.32 cm**-1
  58:      3501.99 cm**-1
  59:      3518.57 cm**-1

IR SPECTRUM
-----------

 Mode    freq (cm**-1)   T**2         TX         TY         TZ
-------------------------------------------------------------------
   6:        63.58    4.622046  (  1.404710   1.624200   0.103975)
   7:       190.51    0.504490  ( -0.409712  -0.579328   0.031714)
   8:       223.49    1.960511  ( -0.542922   0.550953   1.167132)
   9:       238.02    1.630847  (  0.863671   0.434892  -0.834139)
  10:       244.52    0.790025  ( -0.276823  -0.826038  -0.176224)
  11:       261.91   16.083139  (  1.432340  -1.233431  -3.536975)
  12:       280.11    4.958671  ( -0.721919   1.094492   1.799886)
  13:       341.38    3.970476  (  1.915134  -0.175744   0.521394)
  14:       389.34    3.146369  (  1.686206  -0.519722   0.181573)
  15:       476.03    1.061394  ( -0.728936  -0.725089   0.065514)
  16:       554.89    6.853451  (  0.007708   0.981291   2.427027)
  17:       737.00    1.385662  (  0.205777   1.105627   0.347717)
  18:       847.64    5.376413  (  1.418771  -0.594499   1.734956)
  19:       922.13    5.960695  ( -2.402202  -0.373806   0.224480)
  20:       930.23    0.021704  ( -0.054126   0.070984   0.117201)
  21:       942.88    4.758893  (  2.064474  -0.700456   0.078760)
  22:       962.54    5.738366  (  0.264131  -0.919858  -2.196011)
  23:       970.06    3.687348  (  1.733001  -0.195328  -0.803681)
  24:      1032.58    6.191230  (  0.280278   1.442859  -2.007693)
  25:      1059.47   10.200792  (  0.641984  -1.799245  -2.559563)
  26:      1153.51   26.120984  (  3.583632  -3.320148  -1.501726)
  27:      1170.97   10.074977  ( -1.999742  -0.241037   2.453143)
  28:      1206.06    1.371667  (  1.066720   0.466930  -0.125506)
  29:      1228.11    7.451290  ( -2.137064  -0.264724   1.677549)
  30:      1323.73    1.241301  ( -0.400350   0.451884   0.936388)
  31:      1358.10    0.976894  (  0.040549   0.703609   0.692953)
  32:      1381.04    1.010769  ( -0.036649   0.508449   0.866548)
  33:      1404.19    9.408016  ( -1.755827  -1.417378  -2.077530)
  34:      1407.25    6.112738  ( -1.549296  -1.923318   0.115180)
  35:      1422.01   30.965128  (  4.647014  -1.517125   2.658706)
  36:      1427.84   15.824632  (  0.436275  -1.917961  -3.457704)
  37:      1468.45    1.508257  ( -0.217896  -0.488014   1.105722)
  38:      1476.52  127.613853  (  0.389326  -3.260351  10.808903)
  39:      1483.54   22.773278  (  0.521866  -2.652310   3.932707)
  40:      1487.68   10.646997  ( -0.171872   1.944820   2.614409)
  41:      1494.97    7.526796  ( -2.262500  -1.551721   0.007336)
  42:      1502.67    6.305099  (  0.365329   2.403112  -0.629830)
  43:      1510.74   46.686411  ( -2.211051   4.404448  -4.732706)
  44:      1647.38   38.477613  (  4.804195   3.701777   1.301604)
  45:      1657.72   43.502140  ( -2.708611   3.625738   4.797873)
  46:      3025.61   15.425583  ( -1.842384   0.536021  -3.426935)
  47:      3033.97   18.339096  (  0.367038   2.598613  -3.384020)
  48:      3061.05    4.650970  ( -0.654709  -0.756817   1.910381)
  49:      3065.76    3.463397  ( -1.236072   1.164803  -0.760761)
  50:      3089.64    2.080238  ( -1.061409  -0.776878  -0.591700)
  51:      3104.74   14.353781  (  0.939279   3.356648  -1.484739)
  52:      3119.58   11.990582  (  1.905327  -1.377631   2.542134)
  53:      3136.29    6.847667  ( -0.410746   2.145760   1.440371)
  54:      3144.53    4.407011  (  0.306581   1.535950   1.397812)
  55:      3150.26    3.187417  ( -1.771276   0.220719  -0.035808)
  56:      3155.35    3.388912  (  1.738144   0.537554  -0.280720)
  57:      3421.32   23.992175  ( -1.998874   2.508987  -3.701575)
  58:      3501.99   77.960690  (  7.484003   4.656581   0.516365)
  59:      3518.57   98.444000  (  4.658803  -5.891472  -6.483064)

--------------------------
THERMOCHEMISTRY AT 298.15K
--------------------------

Temperature         ... 298.15 K
Pressure            ... 1.00 atm
Total Mass          ... 88.17 AMU

Throughout the following assumptions are being made:
  (1) The electronic state is orbitally nondegenerate
  (2) There are no thermally accessible electronically excited states
  (3) Hindered rotations indicated by low frequency modes) are not
      treated as such but are treated as vibrations and this may
      case some error
  (4) All equations used are the standard statistical mechanics
      equations for an ideal gas
  (5) All vibrations are strinctly harmonic

------------
INNER ENERGY
------------

The inner energy is: U= E(el) + E(ZPE) + E(vib) + E(rot) + E(trans)
    E(el)   - is the total energy from the electronic structure calculation
              = E(kin-el) + E(nuc-el) + E(el-el) + E(nuc-nuc)
    E(ZPE)  - the the zero temperature vibrational energy from the frequency calculation
    E(vib)  - the the finite temperature correction to E(ZPE) due to population
              of excietd vibrational states
    E(rot)  - is the rotational thermal energy
    E(trans)- is the translational thermal energy

Summary of contributions to the inner energy U:
Electronic energy                ...   -253.26627534 Eh
Zero point energy                ...      0.19229888 Eh     120.67 kcal/mol
Thermal vibrational correction   ...      0.00556096 Eh       3.49 kcal/mol
Thermal rotational correction    ...      0.00141627 Eh       0.89 kcal/mol
Thermal translational correction ...      0.00141627 Eh       0.89 kcal/mol
-----------------------------------------------------------------------
Total thermal energy                   -253.06558296 Eh

Summary of corrections to the electronic energy:
(perhaps to be used in another calculation)
Total thermal correction                  0.00839350 Eh       5.27 kcal/mol
Non-thermal (ZPE) correction              0.19229888 Eh     120.67 kcal/mol
-----------------------------------------------------------------------
Total correction                          0.20069239 Eh     125.94 kcal/mol

--------
ENTHALPY
--------

The enthalpy is H = U + kB*T
                kB is Boltzmann's constant
Total free energy                 ...   -253.06558296 Eh
Thermal Enthalpy correction       ...      0.00094421 Eh       0.59 kcal/mol
-----------------------------------------------------------------------
Total Enthalpy                    ...   -253.06463875 Eh

-------
ENTROPY
-------

The entropy contributions are T*S = T*(S(el)+S(vib)+S(rot)+S(trans)
     S(el)   - electronic entropy
     S(vib)  - vibrational entropy
     S(rot)  - rotational entropy
     S(trans)- translational entropy
The entropies will be listed as mutliplied by the temperature to get
units of energy

Electronic entropy                ...      0.00000000 Eh      0.00 kcal/mol
Vibrational entropy               ...      0.00965055 Eh      6.06 kcal/mol
Rotational entropy                ...      0.01177607 Eh      7.39 kcal/mol
Translational entropy             ...      0.01869299 Eh     11.73 kcal/mol
-----------------------------------------------------------------------
Final entropy term                ...      0.04011962 Eh     25.18 kcal/mol

CAUTION: The rotational entropy is not quite correctly treated here
         because it includes a symmetry number that is not yet correctly
         implemented in ORCA!
For a nonlinear molecule the correct rotational entropy is:
    S(rot) = R*(ln(qrot/sn)+1.5)
    R    = 8.31441 J/mol/K = 1.987191683e-3 kcal/mol/K
    qrot = 174708.5237240
    sn is the rotational symmetry number. We have assumed 3 here
       if it is different for your molecule then you should correct
       the printed rotational entropy by manually evaluating the equation
       as given above

For convenience we print out the resulting values for sn=1 - 12:
 sn= 1  qrot/sn=  174708.5237 T*S(rot)=     8.04 kcal/mol T*S(tot)=    25.83 kcal/mol
 sn= 2  qrot/sn=   87354.2619 T*S(rot)=     7.63 kcal/mol T*S(tot)=    25.42 kcal/mol
 sn= 3  qrot/sn=   58236.1746 T*S(rot)=     7.39 kcal/mol T*S(tot)=    25.18 kcal/mol
 sn= 4  qrot/sn=   43677.1309 T*S(rot)=     7.22 kcal/mol T*S(tot)=    25.00 kcal/mol
 sn= 5  qrot/sn=   34941.7047 T*S(rot)=     7.09 kcal/mol T*S(tot)=    24.87 kcal/mol
 sn= 6  qrot/sn=   29118.0873 T*S(rot)=     6.98 kcal/mol T*S(tot)=    24.76 kcal/mol
 sn= 7  qrot/sn=   24958.3605 T*S(rot)=     6.89 kcal/mol T*S(tot)=    24.67 kcal/mol
 sn= 8  qrot/sn=   21838.5655 T*S(rot)=     6.81 kcal/mol T*S(tot)=    24.59 kcal/mol
 sn= 9  qrot/sn=   19412.0582 T*S(rot)=     6.74 kcal/mol T*S(tot)=    24.52 kcal/mol
 sn=10  qrot/sn=   17470.8524 T*S(rot)=     6.68 kcal/mol T*S(tot)=    24.46 kcal/mol
 sn=11  qrot/sn=   15882.5931 T*S(rot)=     6.62 kcal/mol T*S(tot)=    24.41 kcal/mol
 sn=12  qrot/sn=   14559.0436 T*S(rot)=     6.57 kcal/mol T*S(tot)=    24.35 kcal/mol

-------------------
GIBBS FREE ENTHALPY
-------------------

The Gibbs free enthalpy is G = H - T*S

Total enthalpy                    ...   -253.06463875 Eh
Total entropy correction          ...     -0.04011962 Eh    -25.18 kcal/mol
-----------------------------------------------------------------------
Final Gibbs free enthalpy         ...   -253.10475836 Eh

For completeness - the Gibbs free enthalpy minus the electronic energy
G-E(el)                           ...      0.16151698 Eh    101.35 kcal/mol

                             ****ORCA TERMINATED NORMALLY****
TOTAL RUN TIME: 0 days 0 hours 27 minutes 55 seconds 599 msec
