                         Program Version 3.0.3 - RELEASE   -
|  1> ! NORI PBE0 def2-TZVP UseSym TightOPT Freq TightSCF Grid3 FinalGrid5 XYZFile
|  2> % pal
|  3>     nprocs 8
|  4> end
|  5> %method
|  6>     SymThresh 5.0e-2
|  7> end
|  8> % geom
|  9>     MaxIter 10
| 10> end
| 11> % maxcore 2000
| 12> % output
| 13>     printlevel mini
| 14>     print[ P_Basis ] 0
| 15>     print[ P_SCFInfo ] 1
| 16>     print[ P_SCFIterInfo ] 1
| 17>     print[ P_OrbEn ] 0
| 18>     print[ P_Cartesian ] 0
| 19> end
| 20> % elprop
| 21>     Dipole false
| 22> end
| 23> *xyz 1 1
| 24>  C        1.3808171234     0.3975843734     0.1263895109
| 25>  C        2.7536184031     0.0873441941    -0.2024971738
| 26>  C        3.8916343241    -0.1767603512    -0.4909267274
| 27>  C        5.2493138511    -0.5202984735    -0.8487866600
| 28>  C        5.5744520050    -1.9986173437    -0.7507962627
| 29>  N        6.1798881443     0.2486713138     0.0926820692
| 30>  H        1.3295671621     1.2727201360     0.7782028836
| 31>  H        0.9062043262    -0.4426716808     0.6377541844
| 32>  H        0.8144187674     0.6157586600    -0.7817173628
| 33>  H        5.4955713624    -0.1399209297    -1.8452257658
| 34>  H        5.3727739366    -2.3812330242     0.2519543259
| 35>  H        6.6136961503    -2.1999859019    -1.0217131311
| 36>  H        4.9355515072    -2.5409131187    -1.4468548270
| 37>  H        6.0074166868    -0.0435153593     1.0576725772
| 38>  H        5.9941980752     1.2522369984     0.0355964195
| 39>  H        7.1639081749     0.0793605073    -0.1275140599
| 40> *
| 41>
| 42>                          ****END OF INPUT****
 Total Charge           Charge          ....    1
 Multiplicity           Mult            ....    1
 Number of Electrons    NEL             ....   46
FINAL SINGLE POINT ENERGY      -250.789521317626

CARTESIAN COORDINATES (ANGSTROEM)
---------------------------------
  C      1.795903   -0.000011   -2.400199
  C      0.907044   -0.114978   -1.266307
  C      0.156644   -0.219361   -0.331452
  C     -0.768078   -0.339435    0.772977
  C     -1.982885    0.564517    0.682192
  N      0.000191   -0.000157    2.053160
  H      2.835873    0.051569   -2.070289
  H      1.571626    0.899004   -2.977860
  H      1.688914   -0.868413   -3.054135
  H     -1.076207   -1.380965    0.908762
  H     -1.689495    1.612143    0.588273
  H     -2.641011    0.440514    1.545679
  H     -2.547436    0.297495   -0.210580
  H      0.334944    0.965012    2.005274
  H      0.817390   -0.606173    2.149484
  H     -0.587267   -0.099758    2.883802

FINAL SINGLE POINT ENERGY      -250.789521804490
                    ***********************HURRAY********************
 Multiplicity           Mult            ....    1
 Number of Electrons    NEL             ....   46
 Basis Dimension        Dim             ....  246
FINAL SINGLE POINT ENERGY      -250.789521917748

VIBRATIONAL FREQUENCIES
-----------------------

   0:         0.00 cm**-1
   1:         0.00 cm**-1
   2:         0.00 cm**-1
   3:         0.00 cm**-1
   4:         0.00 cm**-1
   5:         0.00 cm**-1
   6:       -14.23 cm**-1
   7:       109.37 cm**-1
   8:       136.50 cm**-1
   9:       219.60 cm**-1
  10:       258.37 cm**-1
  11:       322.89 cm**-1
  12:       333.86 cm**-1
  13:       380.40 cm**-1
  14:       511.94 cm**-1
  15:       531.43 cm**-1
  16:       698.25 cm**-1
  17:       815.81 cm**-1
  18:       936.76 cm**-1
  19:       955.88 cm**-1
  20:      1036.76 cm**-1
  21:      1040.54 cm**-1
  22:      1076.85 cm**-1
  23:      1085.21 cm**-1
  24:      1172.06 cm**-1
  25:      1230.05 cm**-1
  26:      1365.15 cm**-1
  27:      1384.63 cm**-1
  28:      1404.42 cm**-1
  29:      1415.94 cm**-1
  30:      1454.17 cm**-1
  31:      1456.99 cm**-1
  32:      1473.90 cm**-1
  33:      1487.17 cm**-1
  34:      1488.83 cm**-1
  35:      1642.17 cm**-1
  36:      1654.54 cm**-1
  37:      2369.09 cm**-1
  38:      3060.13 cm**-1
  39:      3060.54 cm**-1
  40:      3076.72 cm**-1
  41:      3136.20 cm**-1
  42:      3139.67 cm**-1
  43:      3143.16 cm**-1
  44:      3165.23 cm**-1
  45:      3413.81 cm**-1
  46:      3505.20 cm**-1
  47:      3513.68 cm**-1

IR SPECTRUM
-----------

 Mode    freq (cm**-1)   T**2         TX         TY         TZ
-------------------------------------------------------------------
   7:       109.37    8.404097  ( -2.858943  -0.006305   0.480105)
   8:       136.50   11.313722  (  0.869160   3.235426  -0.300504)
   9:       219.60    0.238087  ( -0.315444   0.313791   0.200293)
  10:       258.37    3.227761  ( -0.120538  -1.788590   0.119067)
  11:       322.89    8.938625  (  2.253560  -1.953912  -0.205715)
  12:       333.86    7.637226  ( -0.795297  -0.255112  -2.634321)
  13:       380.40    3.918868  (  1.571810  -0.610647   1.037011)
  14:       511.94    3.414626  ( -0.574874   1.018362   1.430764)
  15:       531.43   14.454858  ( -1.181266   0.137980  -3.611153)
  16:       698.25    1.192710  (  0.000802  -0.138625   1.083279)
  17:       815.81   17.888715  ( -0.079678  -0.294038   4.218520)
  18:       936.76    8.640103  (  2.187103  -1.883153  -0.557152)
  19:       955.88    9.416453  ( -0.123206  -0.431945   3.035572)
  20:      1036.76    2.702714  (  0.820519   1.267709   0.649905)
  21:      1040.54    3.129663  ( -1.294670   0.914450  -0.785669)
  22:      1076.85   20.199066  ( -2.359633  -0.066512   3.824497)
  23:      1085.21   24.708205  ( -3.841400  -1.139488  -2.941669)
  24:      1172.06    7.383092  ( -0.545196   2.661114   0.065786)
  25:      1230.05   14.221788  (  2.279216  -1.644346  -2.514575)
  26:      1365.15    8.739012  (  2.582173  -1.435295   0.106396)
  27:      1384.63   74.716736  ( -3.957023  -1.452661   7.546422)
  28:      1404.42    1.062382  ( -0.318022   0.131922  -0.971515)
  29:      1415.94   22.462734  ( -3.844120   1.697979  -2.191425)
  30:      1454.17   14.255000  ( -1.094284   3.605879  -0.234894)
  31:      1456.99   14.114382  (  3.029502   0.981262   1.993396)
  32:      1473.90    5.286903  (  1.642765   1.581660  -0.294239)
  33:      1487.17  134.358317  ( -4.770477  -3.481309  -9.974034)
  34:      1488.83   27.168645  (  1.872467  -0.261546   4.857376)
  35:      1642.17   48.356999  ( -1.615402   6.692870  -0.976202)
  36:      1654.54   39.823777  ( -4.796675  -1.600121   3.775619)
  37:      2369.09  149.872545  (  6.739137   0.290377 -10.216274)
  38:      3060.13    1.690578  ( -0.348789   0.284854   1.219747)
  39:      3060.54    4.758338  ( -0.303427   0.602464   2.074441)
  40:      3076.72    1.244384  ( -0.457223  -0.256615   0.984622)
  41:      3136.20    0.213292  ( -0.194921  -0.294274  -0.297826)
  42:      3139.67    0.271084  (  0.244795  -0.413179  -0.201104)
  43:      3143.16    5.432750  (  1.614176   0.951359  -1.386399)
  44:      3165.23    1.252740  ( -1.035210   0.414581  -0.095937)
  45:      3413.81   39.213797  (  2.660096   1.085877   5.564041)
  46:      3505.20   86.713024  ( -1.080469  -8.651496   3.270660)
  47:      3513.68   78.449251  (  7.802105  -2.951015  -2.977905)

--------------------------
THERMOCHEMISTRY AT 298.15K
--------------------------

Temperature         ... 298.15 K
Pressure            ... 1.00 atm
Total Mass          ... 84.14 AMU

Throughout the following assumptions are being made:
  (1) The electronic state is orbitally nondegenerate
  (2) There are no thermally accessible electronically excited states
  (3) Hindered rotations indicated by low frequency modes) are not
      treated as such but are treated as vibrations and this may
      case some error
  (4) All equations used are the standard statistical mechanics
      equations for an ideal gas
  (5) All vibrations are strinctly harmonic

------------
INNER ENERGY
------------

The inner energy is: U= E(el) + E(ZPE) + E(vib) + E(rot) + E(trans)
    E(el)   - is the total energy from the electronic structure calculation
              = E(kin-el) + E(nuc-el) + E(el-el) + E(nuc-nuc)
    E(ZPE)  - the the zero temperature vibrational energy from the frequency calculation
    E(vib)  - the the finite temperature correction to E(ZPE) due to population
              of excietd vibrational states
    E(rot)  - is the rotational thermal energy
    E(trans)- is the translational thermal energy

Summary of contributions to the inner energy U:
Electronic energy                ...   -250.78952192 Eh
Zero point energy                ...      0.14503702 Eh      91.01 kcal/mol
Thermal vibrational correction   ...      0.00440020 Eh       2.76 kcal/mol
Thermal rotational correction    ...      0.00141627 Eh       0.89 kcal/mol
Thermal translational correction ...      0.00141627 Eh       0.89 kcal/mol
-----------------------------------------------------------------------
Total thermal energy                   -250.63725215 Eh

Summary of corrections to the electronic energy:
(perhaps to be used in another calculation)
Total thermal correction                  0.00723274 Eh       4.54 kcal/mol
Non-thermal (ZPE) correction              0.14503702 Eh      91.01 kcal/mol
-----------------------------------------------------------------------
Total correction                          0.15226977 Eh      95.55 kcal/mol

--------
ENTHALPY
--------

The enthalpy is H = U + kB*T
                kB is Boltzmann's constant
Total free energy                 ...   -250.63725215 Eh
Thermal Enthalpy correction       ...      0.00094421 Eh       0.59 kcal/mol
-----------------------------------------------------------------------
Total Enthalpy                    ...   -250.63630794 Eh

-------
ENTROPY
-------

The entropy contributions are T*S = T*(S(el)+S(vib)+S(rot)+S(trans)
     S(el)   - electronic entropy
     S(vib)  - vibrational entropy
     S(rot)  - rotational entropy
     S(trans)- translational entropy
The entropies will be listed as mutliplied by the temperature to get
units of energy

Electronic entropy                ...      0.00000000 Eh      0.00 kcal/mol
Vibrational entropy               ...      0.00751742 Eh      4.72 kcal/mol
Rotational entropy                ...      0.01190757 Eh      7.47 kcal/mol
Translational entropy             ...      0.01862670 Eh     11.69 kcal/mol
-----------------------------------------------------------------------
Final entropy term                ...      0.03805169 Eh     23.88 kcal/mol

CAUTION: The rotational entropy is not quite correctly treated here
         because it includes a symmetry number that is not yet correctly
         implemented in ORCA!
For a nonlinear molecule the correct rotational entropy is:
    S(rot) = R*(ln(qrot/sn)+1.5)
    R    = 8.31441 J/mol/K = 1.987191683e-3 kcal/mol/K
    qrot = 200816.0491929
    sn is the rotational symmetry number. We have assumed 3 here
       if it is different for your molecule then you should correct
       the printed rotational entropy by manually evaluating the equation
       as given above

For convenience we print out the resulting values for sn=1 - 12:
 sn= 1  qrot/sn=  200816.0492 T*S(rot)=     8.12 kcal/mol T*S(tot)=    24.53 kcal/mol
 sn= 2  qrot/sn=  100408.0246 T*S(rot)=     7.71 kcal/mol T*S(tot)=    24.12 kcal/mol
 sn= 3  qrot/sn=   66938.6831 T*S(rot)=     7.47 kcal/mol T*S(tot)=    23.88 kcal/mol
 sn= 4  qrot/sn=   50204.0123 T*S(rot)=     7.30 kcal/mol T*S(tot)=    23.71 kcal/mol
 sn= 5  qrot/sn=   40163.2098 T*S(rot)=     7.17 kcal/mol T*S(tot)=    23.58 kcal/mol
 sn= 6  qrot/sn=   33469.3415 T*S(rot)=     7.06 kcal/mol T*S(tot)=    23.47 kcal/mol
 sn= 7  qrot/sn=   28688.0070 T*S(rot)=     6.97 kcal/mol T*S(tot)=    23.38 kcal/mol
 sn= 8  qrot/sn=   25102.0061 T*S(rot)=     6.89 kcal/mol T*S(tot)=    23.30 kcal/mol
 sn= 9  qrot/sn=   22312.8944 T*S(rot)=     6.82 kcal/mol T*S(tot)=    23.23 kcal/mol
 sn=10  qrot/sn=   20081.6049 T*S(rot)=     6.76 kcal/mol T*S(tot)=    23.16 kcal/mol
 sn=11  qrot/sn=   18256.0045 T*S(rot)=     6.70 kcal/mol T*S(tot)=    23.11 kcal/mol
 sn=12  qrot/sn=   16734.6708 T*S(rot)=     6.65 kcal/mol T*S(tot)=    23.06 kcal/mol

-------------------
GIBBS FREE ENTHALPY
-------------------

The Gibbs free enthalpy is G = H - T*S

Total enthalpy                    ...   -250.63630794 Eh
Total entropy correction          ...     -0.03805169 Eh    -23.88 kcal/mol
-----------------------------------------------------------------------
Final Gibbs free enthalpy         ...   -250.67435963 Eh

For completeness - the Gibbs free enthalpy minus the electronic energy
G-E(el)                           ...      0.11516229 Eh     72.27 kcal/mol

                             ****ORCA TERMINATED NORMALLY****
TOTAL RUN TIME: 0 days 0 hours 15 minutes 21 seconds 979 msec
