                         Program Version 3.0.3 - RELEASE   -
|  1> ! NORI PBE0 def2-TZVP UseSym TightOPT Freq TightSCF Grid3 FinalGrid5 XYZFile
|  2> % pal
|  3>     nprocs 8
|  4> end
|  5> %method
|  6>     SymThresh 5.0e-2
|  7> end
|  8> % geom
|  9>     MaxIter 10
| 10> end
| 11> % maxcore 2000
| 12> % output
| 13>     printlevel mini
| 14>     print[ P_Basis ] 0
| 15>     print[ P_SCFInfo ] 1
| 16>     print[ P_SCFIterInfo ] 1
| 17>     print[ P_OrbEn ] 0
| 18>     print[ P_Cartesian ] 0
| 19> end
| 20> % elprop
| 21>     Dipole false
| 22> end
| 23> *xyz 1 1
| 24>  C        2.3922516401    -1.2504991306     0.8591556575
| 25>  C        3.0818292039    -0.2790526328    -0.0958230021
| 26>  C        3.2379875656     1.0753512079     0.4924987224
| 27>  C        4.3881427781     1.7339462898     0.6304697467
| 28>  C        4.4604227911     3.1037328829     1.1934410934
| 29>  N        5.1249678948     3.0771178405     2.5663299863
| 30>  H        2.2540788224    -2.2191722356     0.3779837242
| 31>  H        1.4073743685    -0.8847998494     1.1572197241
| 32>  H        2.9853025217    -1.4065011628     1.7625730597
| 33>  H        4.0541174983    -0.6674723968    -0.4083791587
| 34>  H        2.4734083689    -0.1812571108    -1.0029528296
| 35>  H        2.3175642238     1.5586382232     0.8239631536
| 36>  H        5.3179890183     1.2909006971     0.2795570904
| 37>  H        3.4737924457     3.5412489053     1.3451716888
| 38>  H        5.0650803270     3.7867155321     0.5935387805
| 39>  H        4.5948055148     2.4718651134     3.1967503826
| 40>  H        5.1899379951     4.0080013714     2.9842878140
| 41>  H        6.0695070221     2.6925564549     2.5008643661
| 42> *
| 43>
| 44>                          ****END OF INPUT****
 Total Charge           Charge          ....    1
 Multiplicity           Mult            ....    1
 Number of Electrons    NEL             ....   48
FINAL SINGLE POINT ENERGY      -252.033222847371

CARTESIAN COORDINATES (ANGSTROEM)
---------------------------------
  C      1.566136   -0.000918   -2.441388
  C      0.134083    0.306981   -2.011115
  C     -0.206301   -0.306479   -0.702422
  C     -0.655064    0.347946    0.368108
  C     -1.011215   -0.340083    1.632218
  N     -0.000797    0.000966    2.722503
  H      1.764991    0.426013   -3.424884
  H      1.740385   -1.077462   -2.505695
  H      2.290224    0.420011   -1.740597
  H     -0.036918    1.385884   -1.976451
  H     -0.556348   -0.099167   -2.760176
  H     -0.081303   -1.388700   -0.637583
  H     -0.821304    1.422408    0.322815
  H     -0.991573   -1.425249    1.532527
  H     -1.980702   -0.036008    2.031960
  H      0.936394   -0.281140    2.427626
  H     -0.216852   -0.458977    3.609728
  H      0.024304    1.009367    2.886223

FINAL SINGLE POINT ENERGY      -252.033223840280
                    ***********************HURRAY********************
 Multiplicity           Mult            ....    1
 Number of Electrons    NEL             ....   48
 Basis Dimension        Dim             ....  258
FINAL SINGLE POINT ENERGY      -252.033224430197

VIBRATIONAL FREQUENCIES
-----------------------

   0:         0.00 cm**-1
   1:         0.00 cm**-1
   2:         0.00 cm**-1
   3:         0.00 cm**-1
   4:         0.00 cm**-1
   5:         0.00 cm**-1
   6:        62.17 cm**-1
   7:       130.13 cm**-1
   8:       147.04 cm**-1
   9:       181.51 cm**-1
  10:       229.16 cm**-1
  11:       271.67 cm**-1
  12:       406.96 cm**-1
  13:       412.75 cm**-1
  14:       501.83 cm**-1
  15:       777.33 cm**-1
  16:       825.04 cm**-1
  17:       843.62 cm**-1
  18:       867.18 cm**-1
  19:       922.98 cm**-1
  20:       980.70 cm**-1
  21:      1011.29 cm**-1
  22:      1045.43 cm**-1
  23:      1078.55 cm**-1
  24:      1094.78 cm**-1
  25:      1142.08 cm**-1
  26:      1199.11 cm**-1
  27:      1270.79 cm**-1
  28:      1307.42 cm**-1
  29:      1326.86 cm**-1
  30:      1340.86 cm**-1
  31:      1372.97 cm**-1
  32:      1402.36 cm**-1
  33:      1409.32 cm**-1
  34:      1468.80 cm**-1
  35:      1487.15 cm**-1
  36:      1491.47 cm**-1
  37:      1492.50 cm**-1
  38:      1496.29 cm**-1
  39:      1650.81 cm**-1
  40:      1661.56 cm**-1
  41:      1729.79 cm**-1
  42:      3042.77 cm**-1
  43:      3057.32 cm**-1
  44:      3092.93 cm**-1
  45:      3095.84 cm**-1
  46:      3127.13 cm**-1
  47:      3134.01 cm**-1
  48:      3147.05 cm**-1
  49:      3150.91 cm**-1
  50:      3165.88 cm**-1
  51:      3416.51 cm**-1
  52:      3507.53 cm**-1
  53:      3509.53 cm**-1

IR SPECTRUM
-----------

 Mode    freq (cm**-1)   T**2         TX         TY         TZ
-------------------------------------------------------------------
   6:        62.17    8.924128  ( -2.270546   0.879714   1.730564)
   7:       130.13    8.312105  ( -1.818862  -1.054336   1.972872)
   8:       147.04    2.043552  (  0.102761   1.158176   0.831637)
   9:       181.51    0.699187  (  0.171860   0.801565  -0.164754)
  10:       229.16    0.241202  (  0.351510   0.233727  -0.251027)
  11:       271.67    0.681062  (  0.074325  -0.804133   0.170022)
  12:       406.96   10.894252  (  1.452723  -0.321007   2.946320)
  13:       412.75    0.997304  (  0.965516   0.255108  -0.001769)
  14:       501.83    1.980532  ( -0.738372   0.275274  -1.166003)
  15:       777.33    3.834608  (  0.700205  -1.359950  -1.222644)
  16:       825.04    7.871584  (  1.490530  -1.235299  -2.030748)
  17:       843.62    7.902697  (  0.811050  -2.360372   1.293653)
  18:       867.18   54.506192  (  1.634613  -0.164513   7.197720)
  19:       922.98    6.437450  (  0.616427  -0.752022  -2.343487)
  20:       980.70   10.343391  (  2.097059   1.824059   1.618192)
  21:      1011.29   28.525457  ( -4.766568  -0.565125  -2.342205)
  22:      1045.43   15.631876  (  2.774150   0.622590  -2.747426)
  23:      1078.55    7.634401  ( -2.721126  -0.479450  -0.001414)
  24:      1094.78    4.145901  (  1.829749   0.071125   0.890426)
  25:      1142.08   14.942444  ( -1.415876  -2.388090   2.689752)
  26:      1199.11    6.752544  (  0.887729   0.754783  -2.322668)
  27:      1270.79    3.579590  (  0.427841   0.294619  -1.819270)
  28:      1307.42    3.258699  (  0.564016  -1.714475   0.034039)
  29:      1326.86   16.044522  ( -1.134708   1.182907   3.654817)
  30:      1340.86    1.428508  ( -0.674379   0.915145   0.369094)
  31:      1372.97    6.286780  (  1.199585   0.278816  -2.184041)
  32:      1402.36   37.759963  ( -0.748627   0.494007   6.079102)
  33:      1409.32    2.841552  ( -1.516636   0.532113  -0.508157)
  34:      1468.80    8.390152  ( -2.154145   1.639157   1.031007)
  35:      1487.15   13.172629  ( -1.426982  -2.532837   2.172807)
  36:      1491.47    4.680795  ( -0.281716  -1.841594  -1.099983)
  37:      1492.50  154.771094  (  7.610740   2.942524   9.390915)
  38:      1496.29   12.128778  (  1.092014  -2.363552   2.312986)
  39:      1650.81   48.803372  ( -3.451132   6.029763   0.731451)
  40:      1661.56   40.725063  ( -3.373753  -2.200882   4.949644)
  41:      1729.79   54.981293  ( -1.611567   0.584251   7.214069)
  42:      3042.77    2.729059  ( -1.439592   0.810278   0.009093)
  43:      3057.32   16.471569  ( -3.824788   1.197039   0.640051)
  44:      3092.93    4.578054  ( -0.621357  -0.899146   1.839431)
  45:      3095.84    2.086803  (  1.120646  -0.910242   0.049152)
  46:      3127.13    3.559237  (  0.708296  -0.455785   1.688139)
  47:      3134.01   23.672063  (  1.241386   4.659575   0.647598)
  48:      3147.05    8.879970  ( -0.651244   1.392937  -2.552563)
  49:      3150.91    1.021889  (  0.081076   0.860088  -0.524942)
  50:      3165.88    1.513357  ( -0.057783  -1.219452   0.151510)
  51:      3416.51   35.582011  ( -3.100882  -0.846619  -5.024916)
  52:      3507.53   85.556848  ( -6.901586   1.810533   5.886164)
  53:      3509.53   88.821330  ( -0.186187  -9.250930   1.790800)

--------------------------
THERMOCHEMISTRY AT 298.15K
--------------------------

Temperature         ... 298.15 K
Pressure            ... 1.00 atm
Total Mass          ... 86.16 AMU

Throughout the following assumptions are being made:
  (1) The electronic state is orbitally nondegenerate
  (2) There are no thermally accessible electronically excited states
  (3) Hindered rotations indicated by low frequency modes) are not
      treated as such but are treated as vibrations and this may
      case some error
  (4) All equations used are the standard statistical mechanics
      equations for an ideal gas
  (5) All vibrations are strinctly harmonic

------------
INNER ENERGY
------------

The inner energy is: U= E(el) + E(ZPE) + E(vib) + E(rot) + E(trans)
    E(el)   - is the total energy from the electronic structure calculation
              = E(kin-el) + E(nuc-el) + E(el-el) + E(nuc-nuc)
    E(ZPE)  - the the zero temperature vibrational energy from the frequency calculation
    E(vib)  - the the finite temperature correction to E(ZPE) due to population
              of excietd vibrational states
    E(rot)  - is the rotational thermal energy
    E(trans)- is the translational thermal energy

Summary of contributions to the inner energy U:
Electronic energy                ...   -252.03322443 Eh
Zero point energy                ...      0.16969546 Eh     106.49 kcal/mol
Thermal vibrational correction   ...      0.00515204 Eh       3.23 kcal/mol
Thermal rotational correction    ...      0.00141627 Eh       0.89 kcal/mol
Thermal translational correction ...      0.00141627 Eh       0.89 kcal/mol
-----------------------------------------------------------------------
Total thermal energy                   -251.85554439 Eh

Summary of corrections to the electronic energy:
(perhaps to be used in another calculation)
Total thermal correction                  0.00798458 Eh       5.01 kcal/mol
Non-thermal (ZPE) correction              0.16969546 Eh     106.49 kcal/mol
-----------------------------------------------------------------------
Total correction                          0.17768004 Eh     111.50 kcal/mol

--------
ENTHALPY
--------

The enthalpy is H = U + kB*T
                kB is Boltzmann's constant
Total free energy                 ...   -251.85554439 Eh
Thermal Enthalpy correction       ...      0.00094421 Eh       0.59 kcal/mol
-----------------------------------------------------------------------
Total Enthalpy                    ...   -251.85460018 Eh

-------
ENTROPY
-------

The entropy contributions are T*S = T*(S(el)+S(vib)+S(rot)+S(trans)
     S(el)   - electronic entropy
     S(vib)  - vibrational entropy
     S(rot)  - rotational entropy
     S(trans)- translational entropy
The entropies will be listed as mutliplied by the temperature to get
units of energy

Electronic entropy                ...      0.00000000 Eh      0.00 kcal/mol
Vibrational entropy               ...      0.00947501 Eh      5.95 kcal/mol
Rotational entropy                ...      0.01198761 Eh      7.52 kcal/mol
Translational entropy             ...      0.01866024 Eh     11.71 kcal/mol
-----------------------------------------------------------------------
Final entropy term                ...      0.04012285 Eh     25.18 kcal/mol

CAUTION: The rotational entropy is not quite correctly treated here
         because it includes a symmetry number that is not yet correctly
         implemented in ORCA!
For a nonlinear molecule the correct rotational entropy is:
    S(rot) = R*(ln(qrot/sn)+1.5)
    R    = 8.31441 J/mol/K = 1.987191683e-3 kcal/mol/K
    qrot = 218581.3263697
    sn is the rotational symmetry number. We have assumed 3 here
       if it is different for your molecule then you should correct
       the printed rotational entropy by manually evaluating the equation
       as given above

For convenience we print out the resulting values for sn=1 - 12:
 sn= 1  qrot/sn=  218581.3264 T*S(rot)=     8.17 kcal/mol T*S(tot)=    25.83 kcal/mol
 sn= 2  qrot/sn=  109290.6632 T*S(rot)=     7.76 kcal/mol T*S(tot)=    25.42 kcal/mol
 sn= 3  qrot/sn=   72860.4421 T*S(rot)=     7.52 kcal/mol T*S(tot)=    25.18 kcal/mol
 sn= 4  qrot/sn=   54645.3316 T*S(rot)=     7.35 kcal/mol T*S(tot)=    25.01 kcal/mol
 sn= 5  qrot/sn=   43716.2653 T*S(rot)=     7.22 kcal/mol T*S(tot)=    24.87 kcal/mol
 sn= 6  qrot/sn=   36430.2211 T*S(rot)=     7.11 kcal/mol T*S(tot)=    24.77 kcal/mol
 sn= 7  qrot/sn=   31225.9038 T*S(rot)=     7.02 kcal/mol T*S(tot)=    24.68 kcal/mol
 sn= 8  qrot/sn=   27322.6658 T*S(rot)=     6.94 kcal/mol T*S(tot)=    24.60 kcal/mol
 sn= 9  qrot/sn=   24286.8140 T*S(rot)=     6.87 kcal/mol T*S(tot)=    24.53 kcal/mol
 sn=10  qrot/sn=   21858.1326 T*S(rot)=     6.81 kcal/mol T*S(tot)=    24.46 kcal/mol
 sn=11  qrot/sn=   19871.0297 T*S(rot)=     6.75 kcal/mol T*S(tot)=    24.41 kcal/mol
 sn=12  qrot/sn=   18215.1105 T*S(rot)=     6.70 kcal/mol T*S(tot)=    24.36 kcal/mol

-------------------
GIBBS FREE ENTHALPY
-------------------

The Gibbs free enthalpy is G = H - T*S

Total enthalpy                    ...   -251.85460018 Eh
Total entropy correction          ...     -0.04012285 Eh    -25.18 kcal/mol
-----------------------------------------------------------------------
Final Gibbs free enthalpy         ...   -251.89472304 Eh

For completeness - the Gibbs free enthalpy minus the electronic energy
G-E(el)                           ...      0.13850139 Eh     86.91 kcal/mol

                             ****ORCA TERMINATED NORMALLY****
TOTAL RUN TIME: 0 days 0 hours 18 minutes 26 seconds 989 msec
