                         Program Version 3.0.3 - RELEASE   -
|  1> ! NORI PBE0 def2-TZVP UseSym TightOPT Freq TightSCF Grid3 FinalGrid5 XYZFile
|  2> % pal
|  3>     nprocs 8
|  4> end
|  5> %method
|  6>     SymThresh 5.0e-2
|  7> end
|  8> % geom
|  9>     MaxIter 10
| 10> end
| 11> % maxcore 2000
| 12> % output
| 13>     printlevel mini
| 14>     print[ P_Basis ] 0
| 15>     print[ P_SCFInfo ] 1
| 16>     print[ P_SCFIterInfo ] 1
| 17>     print[ P_OrbEn ] 0
| 18>     print[ P_Cartesian ] 0
| 19> end
| 20> % elprop
| 21>     Dipole false
| 22> end
| 23> *xyz 1 1
| 24>  C        3.2877669958    -0.6597571101    -1.3251365307
| 25>  C        2.9562700147    -0.0108199749     0.0166815758
| 26>  C        3.0417624734     1.4897663611    -0.0167220484
| 27>  C        1.9793053556     2.2887292462    -0.0479595528
| 28>  C        4.4089023202     2.0978263979    -0.0558938955
| 29>  N        5.0514508645     1.9865865195     1.3157719720
| 30>  H        3.2086577072    -1.7453407054    -1.2506527432
| 31>  H        4.3018284794    -0.4309030162    -1.6622539925
| 32>  H        2.5949636246    -0.3210486945    -2.0969140590
| 33>  H        3.6222301533    -0.4258064893     0.7883491105
| 34>  H        1.9483786885    -0.2947271018     0.3245647858
| 35>  H        2.0698075672     3.3678016213    -0.1224538449
| 36>  H        0.9731821059     1.8859788179    -0.0229703250
| 37>  H        4.3867705006     3.1593704956    -0.2984028323
| 38>  H        5.0856327530     1.5866499526    -0.7428886814
| 39>  H        4.4932680524     2.4953846424     2.0048097226
| 40>  H        6.0033376081     2.3583232924     1.3296771988
| 41>  H        5.0861647355     1.0093757454     1.6140641403
| 42> *
| 43>
| 44>                          ****END OF INPUT****
 Total Charge           Charge          ....    1
 Multiplicity           Mult            ....    1
 Number of Electrons    NEL             ....   48
FINAL SINGLE POINT ENERGY      -252.028861438306
FINAL SINGLE POINT ENERGY      -252.028866425858
FINAL SINGLE POINT ENERGY      -252.028870545159
FINAL SINGLE POINT ENERGY      -252.028872405816
FINAL SINGLE POINT ENERGY      -252.028874433012

CARTESIAN COORDINATES (ANGSTROEM)
---------------------------------
  C      1.616347    0.000668   -1.621249
  C      0.598861   -0.838299   -0.851323
  C     -0.513865   -0.021518   -0.255322
  C     -1.758592   -0.017682   -0.723242
  C     -0.173383    0.859515    0.905640
  N      0.017761    0.011773    2.150935
  H      2.397356   -0.637986   -2.035727
  H      2.109541    0.745414   -0.991125
  H      1.134931    0.526930   -2.446887
  H      1.124533   -1.412955   -0.073745
  H      0.161393   -1.587692   -1.513486
  H     -2.531923    0.616788   -0.302617
  H     -2.043578   -0.638097   -1.565197
  H     -0.966838    1.568560    1.137625
  H      0.763951    1.401759    0.769890
  H     -0.843812   -0.495909    2.363702
  H      0.273662    0.573493    2.965494
  H      0.751871   -0.683649    2.001154

FINAL SINGLE POINT ENERGY      -252.028875214412
                    ***********************HURRAY********************
 Multiplicity           Mult            ....    1
 Number of Electrons    NEL             ....   48
 Basis Dimension        Dim             ....  258
FINAL SINGLE POINT ENERGY      -252.028875631274

VIBRATIONAL FREQUENCIES
-----------------------

   0:         0.00 cm**-1
   1:         0.00 cm**-1
   2:         0.00 cm**-1
   3:         0.00 cm**-1
   4:         0.00 cm**-1
   5:         0.00 cm**-1
   6:        38.53 cm**-1
   7:       102.96 cm**-1
   8:       194.85 cm**-1
   9:       203.88 cm**-1
  10:       236.95 cm**-1
  11:       273.39 cm**-1
  12:       422.60 cm**-1
  13:       428.15 cm**-1
  14:       625.24 cm**-1
  15:       729.20 cm**-1
  16:       773.70 cm**-1
  17:       790.24 cm**-1
  18:       854.70 cm**-1
  19:       884.12 cm**-1
  20:       954.74 cm**-1
  21:      1003.32 cm**-1
  22:      1020.78 cm**-1
  23:      1038.20 cm**-1
  24:      1080.92 cm**-1
  25:      1107.69 cm**-1
  26:      1118.64 cm**-1
  27:      1262.74 cm**-1
  28:      1310.73 cm**-1
  29:      1332.23 cm**-1
  30:      1348.25 cm**-1
  31:      1396.70 cm**-1
  32:      1412.49 cm**-1
  33:      1455.89 cm**-1
  34:      1472.76 cm**-1
  35:      1486.65 cm**-1
  36:      1491.68 cm**-1
  37:      1496.39 cm**-1
  38:      1502.07 cm**-1
  39:      1649.31 cm**-1
  40:      1662.49 cm**-1
  41:      1727.89 cm**-1
  42:      2994.60 cm**-1
  43:      3057.98 cm**-1
  44:      3100.60 cm**-1
  45:      3108.24 cm**-1
  46:      3133.37 cm**-1
  47:      3150.72 cm**-1
  48:      3159.64 cm**-1
  49:      3166.75 cm**-1
  50:      3250.39 cm**-1
  51:      3418.18 cm**-1
  52:      3502.55 cm**-1
  53:      3509.84 cm**-1

IR SPECTRUM
-----------

 Mode    freq (cm**-1)   T**2         TX         TY         TZ
-------------------------------------------------------------------
   6:        38.53    6.752607  (  2.267575   0.179147  -1.256430)
   7:       102.96    2.672080  (  1.541341  -0.347785  -0.418799)
   8:       194.85    3.714003  (  0.242477  -0.702007  -1.778312)
   9:       203.88    4.197855  ( -0.567179  -1.672761  -1.038284)
  10:       236.95    2.527263  (  0.589588   1.112297   0.970796)
  11:       273.39   10.242672  (  0.302385  -0.785281  -3.087810)
  12:       422.60    1.792260  ( -0.468598  -0.187580   1.239956)
  13:       428.15    2.578275  (  0.584818   0.023757   1.495225)
  14:       625.24   18.206836  ( -0.815129  -1.610880   3.866195)
  15:       729.20    0.694128  (  0.053442  -0.121632   0.822483)
  16:       773.70    0.487358  ( -0.012334   0.000906  -0.698001)
  17:       790.24    2.451176  (  0.889200   0.842290   0.975217)
  18:       854.70   10.897281  (  3.216864  -0.443760   0.593418)
  19:       884.12   22.302229  ( -0.229612   0.842872   4.641021)
  20:       954.74    9.702820  (  1.347247  -1.798108   2.157441)
  21:      1003.32   31.939998  ( -1.644088  -4.532310   2.948752)
  22:      1020.78    6.491536  (  1.202271   0.174263  -2.239579)
  23:      1038.20    6.118872  ( -1.075542   1.042908   1.968356)
  24:      1080.92    8.741248  (  2.249124   0.976587   1.651958)
  25:      1107.69   18.511563  (  0.217986   4.113594   1.241928)
  26:      1118.64    3.216848  ( -1.080602  -0.923250  -1.093964)
  27:      1262.74    1.464333  (  1.076399   0.509852   0.213893)
  28:      1310.73    0.698611  (  0.475767  -0.685383   0.050073)
  29:      1332.23    9.137144  ( -2.886178   0.433023   0.787153)
  30:      1348.25    2.277895  (  1.216089   0.035308   0.893183)
  31:      1396.70   18.464023  ( -2.588030  -0.225159  -3.422780)
  32:      1412.49    3.143729  (  0.837120   1.276952  -0.901306)
  33:      1455.89   12.573410  ( -2.504201   0.095674  -2.508631)
  34:      1472.76   21.892099  ( -2.519661  -0.075621  -3.941788)
  35:      1486.65   19.266164  ( -2.349103   3.178594  -1.909036)
  36:      1491.68   86.885514  ( -0.153128   4.341219  -8.247174)
  37:      1496.39   27.438595  ( -0.782468  -2.714278  -4.411239)
  38:      1502.07   60.495661  ( -0.100664   5.561971  -5.435991)
  39:      1649.31   47.800023  (  6.632814  -1.329935  -1.427260)
  40:      1662.49   33.506766  (  1.334539   4.248626   3.697966)
  41:      1727.89    3.619437  (  1.561285  -0.149331  -1.076814)
  42:      2994.60   39.612084  ( -1.636221   3.587146  -4.905838)
  43:      3057.98   12.377521  ( -2.431700  -2.531026  -0.241380)
  44:      3100.60    3.048324  (  0.742225   1.150112   1.083821)
  45:      3108.24    0.480892  ( -0.449604  -0.429630   0.306865)
  46:      3133.37   19.384451  (  1.013028   2.261165   3.639418)
  47:      3150.72    5.825270  (  1.782746  -1.432759   0.770902)
  48:      3159.64    0.615681  (  0.046306  -0.505446  -0.598382)
  49:      3166.75    0.325764  (  0.553304  -0.121079  -0.070420)
  50:      3250.39    0.751510  (  0.709590  -0.405427  -0.289174)
  51:      3418.18   32.528914  ( -0.745512   2.644655  -4.997892)
  52:      3502.55   90.155065  ( -8.719072   1.534375   3.431989)
  53:      3509.84   96.704993  ( -2.808955  -7.658660  -5.491785)

--------------------------
THERMOCHEMISTRY AT 298.15K
--------------------------

Temperature         ... 298.15 K
Pressure            ... 1.00 atm
Total Mass          ... 86.16 AMU

Throughout the following assumptions are being made:
  (1) The electronic state is orbitally nondegenerate
  (2) There are no thermally accessible electronically excited states
  (3) Hindered rotations indicated by low frequency modes) are not
      treated as such but are treated as vibrations and this may
      case some error
  (4) All equations used are the standard statistical mechanics
      equations for an ideal gas
  (5) All vibrations are strinctly harmonic

------------
INNER ENERGY
------------

The inner energy is: U= E(el) + E(ZPE) + E(vib) + E(rot) + E(trans)
    E(el)   - is the total energy from the electronic structure calculation
              = E(kin-el) + E(nuc-el) + E(el-el) + E(nuc-nuc)
    E(ZPE)  - the the zero temperature vibrational energy from the frequency calculation
    E(vib)  - the the finite temperature correction to E(ZPE) due to population
              of excietd vibrational states
    E(rot)  - is the rotational thermal energy
    E(trans)- is the translational thermal energy

Summary of contributions to the inner energy U:
Electronic energy                ...   -252.02887563 Eh
Zero point energy                ...      0.16959580 Eh     106.42 kcal/mol
Thermal vibrational correction   ...      0.00509554 Eh       3.20 kcal/mol
Thermal rotational correction    ...      0.00141627 Eh       0.89 kcal/mol
Thermal translational correction ...      0.00141627 Eh       0.89 kcal/mol
-----------------------------------------------------------------------
Total thermal energy                   -251.85135176 Eh

Summary of corrections to the electronic energy:
(perhaps to be used in another calculation)
Total thermal correction                  0.00792808 Eh       4.97 kcal/mol
Non-thermal (ZPE) correction              0.16959580 Eh     106.42 kcal/mol
-----------------------------------------------------------------------
Total correction                          0.17752388 Eh     111.40 kcal/mol

--------
ENTHALPY
--------

The enthalpy is H = U + kB*T
                kB is Boltzmann's constant
Total free energy                 ...   -251.85135176 Eh
Thermal Enthalpy correction       ...      0.00094421 Eh       0.59 kcal/mol
-----------------------------------------------------------------------
Total Enthalpy                    ...   -251.85040755 Eh

-------
ENTROPY
-------

The entropy contributions are T*S = T*(S(el)+S(vib)+S(rot)+S(trans)
     S(el)   - electronic entropy
     S(vib)  - vibrational entropy
     S(rot)  - rotational entropy
     S(trans)- translational entropy
The entropies will be listed as mutliplied by the temperature to get
units of energy

Electronic entropy                ...      0.00000000 Eh      0.00 kcal/mol
Vibrational entropy               ...      0.00968750 Eh      6.08 kcal/mol
Rotational entropy                ...      0.01185327 Eh      7.44 kcal/mol
Translational entropy             ...      0.01866024 Eh     11.71 kcal/mol
-----------------------------------------------------------------------
Final entropy term                ...      0.04020101 Eh     25.23 kcal/mol

CAUTION: The rotational entropy is not quite correctly treated here
         because it includes a symmetry number that is not yet correctly
         implemented in ORCA!
For a nonlinear molecule the correct rotational entropy is:
    S(rot) = R*(ln(qrot/sn)+1.5)
    R    = 8.31441 J/mol/K = 1.987191683e-3 kcal/mol/K
    qrot = 189593.3791135
    sn is the rotational symmetry number. We have assumed 3 here
       if it is different for your molecule then you should correct
       the printed rotational entropy by manually evaluating the equation
       as given above

For convenience we print out the resulting values for sn=1 - 12:
 sn= 1  qrot/sn=  189593.3791 T*S(rot)=     8.09 kcal/mol T*S(tot)=    25.88 kcal/mol
 sn= 2  qrot/sn=   94796.6896 T*S(rot)=     7.68 kcal/mol T*S(tot)=    25.47 kcal/mol
 sn= 3  qrot/sn=   63197.7930 T*S(rot)=     7.44 kcal/mol T*S(tot)=    25.23 kcal/mol
 sn= 4  qrot/sn=   47398.3448 T*S(rot)=     7.27 kcal/mol T*S(tot)=    25.06 kcal/mol
 sn= 5  qrot/sn=   37918.6758 T*S(rot)=     7.14 kcal/mol T*S(tot)=    24.92 kcal/mol
 sn= 6  qrot/sn=   31598.8965 T*S(rot)=     7.03 kcal/mol T*S(tot)=    24.82 kcal/mol
 sn= 7  qrot/sn=   27084.7684 T*S(rot)=     6.94 kcal/mol T*S(tot)=    24.72 kcal/mol
 sn= 8  qrot/sn=   23699.1724 T*S(rot)=     6.86 kcal/mol T*S(tot)=    24.65 kcal/mol
 sn= 9  qrot/sn=   21065.9310 T*S(rot)=     6.79 kcal/mol T*S(tot)=    24.58 kcal/mol
 sn=10  qrot/sn=   18959.3379 T*S(rot)=     6.72 kcal/mol T*S(tot)=    24.51 kcal/mol
 sn=11  qrot/sn=   17235.7617 T*S(rot)=     6.67 kcal/mol T*S(tot)=    24.46 kcal/mol
 sn=12  qrot/sn=   15799.4483 T*S(rot)=     6.62 kcal/mol T*S(tot)=    24.41 kcal/mol

-------------------
GIBBS FREE ENTHALPY
-------------------

The Gibbs free enthalpy is G = H - T*S

Total enthalpy                    ...   -251.85040755 Eh
Total entropy correction          ...     -0.04020101 Eh    -25.23 kcal/mol
-----------------------------------------------------------------------
Final Gibbs free enthalpy         ...   -251.89060856 Eh

For completeness - the Gibbs free enthalpy minus the electronic energy
G-E(el)                           ...      0.13826708 Eh     86.76 kcal/mol

                             ****ORCA TERMINATED NORMALLY****
TOTAL RUN TIME: 0 days 0 hours 24 minutes 37 seconds 923 msec
