                         Program Version 3.0.3 - RELEASE   -
|  1> ! NORI PBE0 def2-TZVP UseSym TightOPT Freq TightSCF Grid3 FinalGrid5 XYZFile
|  2> % pal
|  3>     nprocs 8
|  4> end
|  5> %method
|  6>     SymThresh 5.0e-2
|  7> end
|  8> % geom
|  9>     MaxIter 10
| 10> end
| 11> % maxcore 2000
| 12> % output
| 13>     printlevel mini
| 14>     print[ P_Basis ] 0
| 15>     print[ P_SCFInfo ] 1
| 16>     print[ P_SCFIterInfo ] 1
| 17>     print[ P_OrbEn ] 0
| 18>     print[ P_Cartesian ] 0
| 19> end
| 20> % elprop
| 21>     Dipole false
| 22> end
| 23> *xyz 1 1
| 24>  C        1.4304137887    -0.1285357290     0.3810573526
| 25>  C        2.8446949886     0.4257108494     0.3557752371
| 26>  C        3.1771494754     1.2255065998    -0.9085352059
| 27>  C        2.3623481716     2.5081528279    -1.0196384066
| 28>  C        4.6687091833     1.5062432207    -0.8986863070
| 29>  N        5.1010711181     2.2370816943    -2.1451459577
| 30>  H        1.2856655539    -0.7490150002     1.2665095630
| 31>  H        1.2319299371    -0.7530969008    -0.4939679358
| 32>  H        0.6757065386     0.6588946226     0.4158723076
| 33>  H        3.0097832574     1.0636691997     1.2320750246
| 34>  H        3.5523526851    -0.4057910999     0.4429106521
| 35>  H        2.9571526458     0.5831685412    -1.7734071343
| 36>  H        2.5897373464     3.1924449503    -0.1964383541
| 37>  H        1.2957503600     2.2889347387    -0.9792332648
| 38>  H        2.5092495444     3.0427605081    -1.9658501944
| 39>  H        4.9521238907     2.1444891320    -0.0592055468
| 40>  H        5.2585514479     0.5902228982    -0.8593361859
| 41>  H        4.5857009018     3.1151602193    -2.2363260576
| 42>  H        4.9046780851     1.6796349403    -2.9793708094
| 43>  H        6.0996010803     2.4520637872    -2.1372987765
| 44> *
| 45>
| 46>                          ****END OF INPUT****
 Total Charge           Charge          ....    1
 Multiplicity           Mult            ....    1
 Number of Electrons    NEL             ....   50
FINAL SINGLE POINT ENERGY      -253.260395566169
FINAL SINGLE POINT ENERGY      -253.260398575512
FINAL SINGLE POINT ENERGY      -253.260400715679

CARTESIAN COORDINATES (ANGSTROEM)
---------------------------------
  C      0.599765   -0.000247   -2.550371
  C      0.164111   -0.729480   -1.290622
  C      0.177345    0.143329   -0.030732
  C     -0.843492    1.272966   -0.090175
  C     -0.059167   -0.765402    1.161837
  N     -0.006533    0.000534    2.460123
  H      0.637564   -0.693275   -3.391606
  H      1.596638    0.432576   -2.435027
  H     -0.088628    0.800641   -2.824573
  H     -0.843878   -1.138614   -1.426935
  H      0.825441   -1.588112   -1.130523
  H      1.184901    0.573821    0.063390
  H     -1.864047    0.881732   -0.145523
  H     -0.681740    1.889420   -0.973684
  H     -0.781627    1.964695    0.758110
  H     -1.046217   -1.230868    1.123580
  H      0.696092   -1.548673    1.236817
  H     -0.703780    0.748335    2.458381
  H      0.908920    0.437049    2.587440
  H     -0.184662   -0.600332    3.266547

FINAL SINGLE POINT ENERGY      -253.260401104458
                    ***********************HURRAY********************
 Multiplicity           Mult            ....    1
 Number of Electrons    NEL             ....   50
 Basis Dimension        Dim             ....  270
FINAL SINGLE POINT ENERGY      -253.260401333186

VIBRATIONAL FREQUENCIES
-----------------------

   0:         0.00 cm**-1
   1:         0.00 cm**-1
   2:         0.00 cm**-1
   3:         0.00 cm**-1
   4:         0.00 cm**-1
   5:         0.00 cm**-1
   6:        76.89 cm**-1
   7:        95.07 cm**-1
   8:       193.65 cm**-1
   9:       196.87 cm**-1
  10:       220.35 cm**-1
  11:       258.65 cm**-1
  12:       314.85 cm**-1
  13:       382.86 cm**-1
  14:       429.24 cm**-1
  15:       461.99 cm**-1
  16:       777.00 cm**-1
  17:       802.01 cm**-1
  18:       851.65 cm**-1
  19:       889.38 cm**-1
  20:       953.28 cm**-1
  21:       969.32 cm**-1
  22:       989.30 cm**-1
  23:      1010.45 cm**-1
  24:      1060.88 cm**-1
  25:      1071.77 cm**-1
  26:      1173.51 cm**-1
  27:      1193.26 cm**-1
  28:      1206.08 cm**-1
  29:      1293.04 cm**-1
  30:      1326.03 cm**-1
  31:      1337.93 cm**-1
  32:      1378.54 cm**-1
  33:      1384.25 cm**-1
  34:      1407.95 cm**-1
  35:      1416.81 cm**-1
  36:      1419.78 cm**-1
  37:      1470.30 cm**-1
  38:      1482.72 cm**-1
  39:      1490.97 cm**-1
  40:      1491.16 cm**-1
  41:      1495.84 cm**-1
  42:      1500.24 cm**-1
  43:      1513.66 cm**-1
  44:      1652.60 cm**-1
  45:      1664.47 cm**-1
  46:      3011.36 cm**-1
  47:      3032.03 cm**-1
  48:      3037.24 cm**-1
  49:      3060.49 cm**-1
  50:      3076.30 cm**-1
  51:      3092.22 cm**-1
  52:      3098.93 cm**-1
  53:      3134.91 cm**-1
  54:      3145.60 cm**-1
  55:      3154.20 cm**-1
  56:      3154.97 cm**-1
  57:      3422.70 cm**-1
  58:      3500.55 cm**-1
  59:      3514.28 cm**-1

IR SPECTRUM
-----------

 Mode    freq (cm**-1)   T**2         TX         TY         TZ
-------------------------------------------------------------------
   6:        76.89    0.614578  (  0.665755   0.297979  -0.287325)
   7:        95.07    6.375670  (  2.488296  -0.281723   0.323548)
   8:       193.65    5.189668  (  0.172263  -1.543981   1.666168)
   9:       196.87    1.169297  (  0.156780   1.005056  -0.366852)
  10:       220.35    2.337091  (  0.296342  -1.248249   0.831352)
  11:       258.65    0.270006  (  0.067388  -0.186763   0.480193)
  12:       314.85    8.919342  (  0.309504  -1.376637   2.632189)
  13:       382.86    6.820831  (  0.259473   0.359082  -2.573823)
  14:       429.24    3.085517  (  0.510568  -0.031475   1.680430)
  15:       461.99    1.791178  (  0.422305   0.084649  -1.267151)
  16:       777.00    3.538949  (  1.515443  -1.069882   0.312625)
  17:       802.01    5.890319  ( -1.210780   1.241945  -1.697617)
  18:       851.65    6.650391  (  2.505793  -0.522637  -0.313438)
  19:       889.38    3.724903  (  0.621473  -0.684936   1.693971)
  20:       953.28   15.773415  ( -1.119882  -0.509008   3.776267)
  21:       969.32    7.148691  (  1.355103   1.153085   1.995691)
  22:       989.30    7.522755  ( -1.316396   2.374167   0.391394)
  23:      1010.45    8.708734  (  1.089469   2.089512  -1.776438)
  24:      1060.88   18.398945  (  0.063692   1.498297  -4.018705)
  25:      1071.77    1.831612  ( -0.439530   0.188654   1.266031)
  26:      1173.51    2.955459  ( -0.113468  -1.106879   1.310498)
  27:      1193.26    4.406984  (  0.197035   1.943587  -0.768524)
  28:      1206.08    1.700485  (  0.947803   0.895439  -0.018518)
  29:      1293.04    1.481726  ( -0.937927  -0.559335   0.537739)
  30:      1326.03    2.555264  ( -0.781531   0.802468  -1.140402)
  31:      1337.93    4.220162  ( -1.921317   0.564206   0.458665)
  32:      1378.54    0.924778  (  0.052597   0.078357   0.957012)
  33:      1384.25    0.405839  ( -0.019191  -0.110345   0.627132)
  34:      1407.95    4.655636  ( -0.525092   1.631970   1.310186)
  35:      1416.81    2.630815  ( -1.363539  -0.117045   0.870561)
  36:      1419.78   11.450490  ( -1.630509   2.251643  -1.929257)
  37:      1470.30    9.345686  (  0.157155  -0.474457  -3.015938)
  38:      1482.72   27.876642  ( -1.854934   1.500594   4.709998)
  39:      1490.97    9.110648  ( -2.576034   0.804468  -1.351861)
  40:      1491.16    2.646861  ( -0.695041  -1.460072   0.178797)
  41:      1495.84   86.392058  ( -0.114739   1.284195   9.204876)
  42:      1500.24   29.774761  ( -2.664193  -3.669559  -3.034991)
  43:      1513.66   58.811519  (  0.953422   5.936826   4.759896)
  44:      1652.60   48.530207  ( -6.906390   0.588389   0.696986)
  45:      1664.47   37.851788  ( -0.301272   4.509385  -4.174503)
  46:      3011.36    8.442628  (  2.625029   0.307955   1.207068)
  47:      3032.03   29.012078  (  1.442234  -2.834414  -4.347199)
  48:      3037.24   16.041684  (  1.630532   3.391041  -1.372548)
  49:      3060.49   12.397722  (  1.193647   2.631549  -2.011933)
  50:      3076.30   10.810307  ( -3.110405   1.034733  -0.254978)
  51:      3092.22    2.804663  (  0.335859   1.260960  -1.049687)
  52:      3098.93   20.615116  ( -2.329955  -2.477006  -3.008466)
  53:      3134.91   18.681828  (  4.083222  -0.225874   1.399322)
  54:      3145.60    9.180985  (  1.130279  -2.489386  -1.306298)
  55:      3154.20    2.762576  ( -1.204760   0.991796  -0.572251)
  56:      3154.97    1.917221  ( -0.575092  -1.159037   0.493076)
  57:      3422.70   33.570674  ( -0.079346   2.912419   5.008212)
  58:      3500.55   96.102227  ( -8.663640   3.196835  -3.289955)
  59:      3514.28  104.984309  ( -3.479818  -7.562943   5.973029)

--------------------------
THERMOCHEMISTRY AT 298.15K
--------------------------

Temperature         ... 298.15 K
Pressure            ... 1.00 atm
Total Mass          ... 88.17 AMU

Throughout the following assumptions are being made:
  (1) The electronic state is orbitally nondegenerate
  (2) There are no thermally accessible electronically excited states
  (3) Hindered rotations indicated by low frequency modes) are not
      treated as such but are treated as vibrations and this may
      case some error
  (4) All equations used are the standard statistical mechanics
      equations for an ideal gas
  (5) All vibrations are strinctly harmonic

------------
INNER ENERGY
------------

The inner energy is: U= E(el) + E(ZPE) + E(vib) + E(rot) + E(trans)
    E(el)   - is the total energy from the electronic structure calculation
              = E(kin-el) + E(nuc-el) + E(el-el) + E(nuc-nuc)
    E(ZPE)  - the the zero temperature vibrational energy from the frequency calculation
    E(vib)  - the the finite temperature correction to E(ZPE) due to population
              of excietd vibrational states
    E(rot)  - is the rotational thermal energy
    E(trans)- is the translational thermal energy

Summary of contributions to the inner energy U:
Electronic energy                ...   -253.26040133 Eh
Zero point energy                ...      0.19305277 Eh     121.14 kcal/mol
Thermal vibrational correction   ...      0.00559013 Eh       3.51 kcal/mol
Thermal rotational correction    ...      0.00141627 Eh       0.89 kcal/mol
Thermal translational correction ...      0.00141627 Eh       0.89 kcal/mol
-----------------------------------------------------------------------
Total thermal energy                   -253.05892589 Eh

Summary of corrections to the electronic energy:
(perhaps to be used in another calculation)
Total thermal correction                  0.00842267 Eh       5.29 kcal/mol
Non-thermal (ZPE) correction              0.19305277 Eh     121.14 kcal/mol
-----------------------------------------------------------------------
Total correction                          0.20147544 Eh     126.43 kcal/mol

--------
ENTHALPY
--------

The enthalpy is H = U + kB*T
                kB is Boltzmann's constant
Total free energy                 ...   -253.05892589 Eh
Thermal Enthalpy correction       ...      0.00094421 Eh       0.59 kcal/mol
-----------------------------------------------------------------------
Total Enthalpy                    ...   -253.05798168 Eh

-------
ENTROPY
-------

The entropy contributions are T*S = T*(S(el)+S(vib)+S(rot)+S(trans)
     S(el)   - electronic entropy
     S(vib)  - vibrational entropy
     S(rot)  - rotational entropy
     S(trans)- translational entropy
The entropies will be listed as mutliplied by the temperature to get
units of energy

Electronic entropy                ...      0.00000000 Eh      0.00 kcal/mol
Vibrational entropy               ...      0.01006251 Eh      6.31 kcal/mol
Rotational entropy                ...      0.01189040 Eh      7.46 kcal/mol
Translational entropy             ...      0.01869299 Eh     11.73 kcal/mol
-----------------------------------------------------------------------
Final entropy term                ...      0.04064591 Eh     25.51 kcal/mol

CAUTION: The rotational entropy is not quite correctly treated here
         because it includes a symmetry number that is not yet correctly
         implemented in ORCA!
For a nonlinear molecule the correct rotational entropy is:
    S(rot) = R*(ln(qrot/sn)+1.5)
    R    = 8.31441 J/mol/K = 1.987191683e-3 kcal/mol/K
    qrot = 197198.5458928
    sn is the rotational symmetry number. We have assumed 3 here
       if it is different for your molecule then you should correct
       the printed rotational entropy by manually evaluating the equation
       as given above

For convenience we print out the resulting values for sn=1 - 12:
 sn= 1  qrot/sn=  197198.5459 T*S(rot)=     8.11 kcal/mol T*S(tot)=    26.16 kcal/mol
 sn= 2  qrot/sn=   98599.2729 T*S(rot)=     7.70 kcal/mol T*S(tot)=    25.75 kcal/mol
 sn= 3  qrot/sn=   65732.8486 T*S(rot)=     7.46 kcal/mol T*S(tot)=    25.51 kcal/mol
 sn= 4  qrot/sn=   49299.6365 T*S(rot)=     7.29 kcal/mol T*S(tot)=    25.34 kcal/mol
 sn= 5  qrot/sn=   39439.7092 T*S(rot)=     7.16 kcal/mol T*S(tot)=    25.20 kcal/mol
 sn= 6  qrot/sn=   32866.4243 T*S(rot)=     7.05 kcal/mol T*S(tot)=    25.09 kcal/mol
 sn= 7  qrot/sn=   28171.2208 T*S(rot)=     6.96 kcal/mol T*S(tot)=    25.00 kcal/mol
 sn= 8  qrot/sn=   24649.8182 T*S(rot)=     6.88 kcal/mol T*S(tot)=    24.92 kcal/mol
 sn= 9  qrot/sn=   21910.9495 T*S(rot)=     6.81 kcal/mol T*S(tot)=    24.85 kcal/mol
 sn=10  qrot/sn=   19719.8546 T*S(rot)=     6.75 kcal/mol T*S(tot)=    24.79 kcal/mol
 sn=11  qrot/sn=   17927.1405 T*S(rot)=     6.69 kcal/mol T*S(tot)=    24.74 kcal/mol
 sn=12  qrot/sn=   16433.2122 T*S(rot)=     6.64 kcal/mol T*S(tot)=    24.68 kcal/mol

-------------------
GIBBS FREE ENTHALPY
-------------------

The Gibbs free enthalpy is G = H - T*S

Total enthalpy                    ...   -253.05798168 Eh
Total entropy correction          ...     -0.04064591 Eh    -25.51 kcal/mol
-----------------------------------------------------------------------
Final Gibbs free enthalpy         ...   -253.09862759 Eh

For completeness - the Gibbs free enthalpy minus the electronic energy
G-E(el)                           ...      0.16177374 Eh    101.51 kcal/mol

                             ****ORCA TERMINATED NORMALLY****
TOTAL RUN TIME: 0 days 0 hours 26 minutes 7 seconds 264 msec
