                         Program Version 3.0.3 - RELEASE   -
|  1> ! NORI PBE0 def2-TZVP UseSym TightOPT Freq TightSCF Grid3 FinalGrid5 XYZFile
|  2> % pal
|  3>     nprocs 8
|  4> end
|  5> %method
|  6>     SymThresh 5.0e-2
|  7> end
|  8> % geom
|  9>     MaxIter 10
| 10> end
| 11> % maxcore 2000
| 12> % output
| 13>     printlevel mini
| 14>     print[ P_Basis ] 0
| 15>     print[ P_SCFInfo ] 1
| 16>     print[ P_SCFIterInfo ] 1
| 17>     print[ P_OrbEn ] 0
| 18>     print[ P_Cartesian ] 0
| 19> end
| 20> % elprop
| 21>     Dipole false
| 22> end
| 23> *xyz 1 1
| 24>  C        3.6516764526    -0.6202796456    -0.9718051378
| 25>  C        2.8862030553     0.1036523852     0.1248991310
| 26>  C        3.1248400787    -0.3732639875     1.5576088755
| 27>  C        2.3996020044     0.5055277264     2.5592509456
| 28>  C        2.8116223252    -1.8434714235     1.7691967754
| 29>  N        4.6206729020    -0.2056027810     1.8389433842
| 30>  H        3.3699568142    -0.2134070663    -1.9435011379
| 31>  H        3.4341626499    -1.6894783285    -0.9984169238
| 32>  H        4.7385028807    -0.4910938574    -0.9025215547
| 33>  H        1.8119914797     0.0021519808    -0.0516490246
| 34>  H        3.0892197021     1.1803800044     0.0753073429
| 35>  H        1.3245427991     0.4229293887     2.3935446695
| 36>  H        2.6671092856     1.5600930700     2.4474022731
| 37>  H        2.5945573135     0.1961857401     3.5898286907
| 38>  H        3.3981927597    -2.4950587299     1.1185678511
| 39>  H        1.7581424213    -2.0189119932     1.5473291101
| 40>  H        2.9798527009    -2.1427229911     2.8071440125
| 41>  H        5.1730786136    -0.7577151587     1.1799699573
| 42>  H        4.8510898694    -0.5128738569     2.7854581630
| 43>  H        4.9013338918     0.7724895240     1.7456025968
| 44> *
| 45>
| 46>                          ****END OF INPUT****
 Total Charge           Charge          ....    1
 Multiplicity           Mult            ....    1
 Number of Electrons    NEL             ....   50
FINAL SINGLE POINT ENERGY      -253.270486545609
FINAL SINGLE POINT ENERGY      -253.270489471962
FINAL SINGLE POINT ENERGY      -253.270491546253
FINAL SINGLE POINT ENERGY      -253.270492567946

CARTESIAN COORDINATES (ANGSTROEM)
---------------------------------
  C      2.066645   -0.005391   -0.672763
  C      0.702074    0.661832   -0.747310
  C     -0.429201    0.002137    0.041996
  C     -1.704200    0.821765   -0.034964
  C     -0.668898   -1.448626   -0.333435
  N     -0.003293    0.004201    1.513613
  H      2.776753    0.545261   -1.290504
  H      2.050595   -1.031840   -1.041792
  H      2.494338   -0.008820    0.336338
  H      0.367065    0.691516   -1.787369
  H      0.778998    1.710191   -0.435470
  H     -2.051803    0.843317   -1.068242
  H     -1.541781    1.857121    0.276569
  H     -2.505711    0.389277    0.569667
  H      0.217544   -2.070249   -0.192968
  H     -0.943615   -1.501831   -1.387543
  H     -1.493144   -1.880303    0.240295
  H      0.874363   -0.505168    1.633472
  H     -0.713331   -0.438526    2.099230
  H      0.136194    0.958707    1.850466

FINAL SINGLE POINT ENERGY      -253.270493207668
                    ***********************HURRAY********************
 Multiplicity           Mult            ....    1
 Number of Electrons    NEL             ....   50
 Basis Dimension        Dim             ....  270
FINAL SINGLE POINT ENERGY      -253.270493489143

VIBRATIONAL FREQUENCIES
-----------------------

   0:         0.00 cm**-1
   1:         0.00 cm**-1
   2:         0.00 cm**-1
   3:         0.00 cm**-1
   4:         0.00 cm**-1
   5:         0.00 cm**-1
   6:        78.63 cm**-1
   7:       195.78 cm**-1
   8:       235.81 cm**-1
   9:       245.12 cm**-1
  10:       252.88 cm**-1
  11:       277.24 cm**-1
  12:       327.53 cm**-1
  13:       352.41 cm**-1
  14:       405.51 cm**-1
  15:       416.15 cm**-1
  16:       489.63 cm**-1
  17:       696.28 cm**-1
  18:       775.19 cm**-1
  19:       843.16 cm**-1
  20:       912.23 cm**-1
  21:       940.06 cm**-1
  22:       954.86 cm**-1
  23:       984.97 cm**-1
  24:      1011.42 cm**-1
  25:      1039.60 cm**-1
  26:      1099.49 cm**-1
  27:      1102.81 cm**-1
  28:      1195.47 cm**-1
  29:      1274.49 cm**-1
  30:      1291.39 cm**-1
  31:      1343.57 cm**-1
  32:      1384.04 cm**-1
  33:      1414.25 cm**-1
  34:      1421.42 cm**-1
  35:      1425.64 cm**-1
  36:      1466.10 cm**-1
  37:      1467.79 cm**-1
  38:      1475.45 cm**-1
  39:      1484.70 cm**-1
  40:      1494.02 cm**-1
  41:      1497.74 cm**-1
  42:      1498.97 cm**-1
  43:      1506.75 cm**-1
  44:      1647.86 cm**-1
  45:      1653.92 cm**-1
  46:      3039.78 cm**-1
  47:      3045.81 cm**-1
  48:      3052.72 cm**-1
  49:      3060.35 cm**-1
  50:      3102.21 cm**-1
  51:      3123.45 cm**-1
  52:      3127.48 cm**-1
  53:      3135.02 cm**-1
  54:      3150.49 cm**-1
  55:      3152.82 cm**-1
  56:      3155.63 cm**-1
  57:      3419.84 cm**-1
  58:      3509.27 cm**-1
  59:      3515.94 cm**-1

IR SPECTRUM
-----------

 Mode    freq (cm**-1)   T**2         TX         TY         TZ
-------------------------------------------------------------------
   6:        78.63    1.948017  ( -0.972099   0.611951   0.792817)
   7:       195.78    0.466223  ( -0.467777   0.213918   0.449051)
   8:       235.81    3.540734  ( -1.069071  -0.609650   1.423429)
   9:       245.12    2.292335  (  1.073486   0.361956  -1.004465)
  10:       252.88    2.721012  ( -0.985042  -1.096058   0.741190)
  11:       277.24    0.876946  (  0.684434  -0.070611  -0.635225)
  12:       327.53    5.066008  ( -2.043993   0.278491   0.900302)
  13:       352.41    4.038800  (  0.910751  -1.575920  -0.851944)
  14:       405.51    3.756584  ( -1.114655  -1.247616  -0.978562)
  15:       416.15    4.633253  (  0.595885  -0.928621   1.848198)
  16:       489.63    2.774331  (  1.448032   0.230108  -0.790308)
  17:       696.28    0.257751  ( -0.483216  -0.148089   0.048189)
  18:       775.19    1.379564  (  0.166941   0.946436   0.675243)
  19:       843.16    6.998803  ( -0.887482  -0.013332  -2.492188)
  20:       912.23    6.371535  (  1.960974   0.342280  -1.552082)
  21:       940.06    4.789400  (  1.334642  -1.683027  -0.418987)
  22:       954.86    3.419857  (  1.439406  -1.079435  -0.427536)
  23:       984.97    5.808989  (  1.903641   1.017889   1.071934)
  24:      1011.42    3.681179  (  1.439061   0.693783  -1.062520)
  25:      1039.60    6.537836  ( -1.470257  -1.929788   0.807528)
  26:      1099.49    5.342542  (  0.716452   1.866163  -1.160463)
  27:      1102.81    3.455453  (  0.811749  -1.192566  -1.172307)
  28:      1195.47   24.621906  (  1.511241   0.082573   4.725594)
  29:      1274.49   15.982361  ( -3.611470   1.501302   0.828093)
  30:      1291.39    9.376635  ( -1.572111  -1.459714   2.185026)
  31:      1343.57    7.934944  ( -1.836027  -2.131480  -0.144026)
  32:      1384.04    4.660313  ( -2.064421  -0.091604   0.624571)
  33:      1414.25   23.976415  (  1.704902  -4.587898  -0.144630)
  34:      1421.42    7.877202  ( -2.373935   0.759472   1.290286)
  35:      1425.64   41.658466  ( -3.771535  -1.433846  -5.037666)
  36:      1466.10   11.301844  (  0.842445  -0.512930   3.213881)
  37:      1467.79    0.351945  (  0.498423  -0.000865  -0.321744)
  38:      1475.45  104.112048  (  0.501299  -1.967891   9.999408)
  39:      1484.70    3.498714  (  1.613225  -0.875967  -0.359028)
  40:      1494.02   10.060748  ( -0.088403  -0.923061   3.033297)
  41:      1497.74   18.813084  ( -2.675904  -1.130358  -3.221011)
  42:      1498.97   33.186964  (  0.626891   0.806718   5.669495)
  43:      1506.75   16.666238  ( -1.296058  -2.900357  -2.564059)
  44:      1647.86   41.031122  ( -1.270118   6.268393  -0.353789)
  45:      1653.92   48.647393  ( -6.191193  -1.646301   2.757936)
  46:      3039.78   18.143726  ( -1.501836   0.923387  -3.877573)
  47:      3045.81   10.334437  (  1.074659  -3.008321   0.359930)
  48:      3052.72    6.059476  ( -1.012860   1.829561   1.298575)
  49:      3060.35    4.519541  (  0.318066   0.689478  -1.985697)
  50:      3102.21    0.997932  (  0.976150  -0.041434  -0.208198)
  51:      3123.45   10.474780  ( -0.706786  -1.099526  -2.960790)
  52:      3127.48    8.337816  (  1.426779   2.503376   0.187683)
  53:      3135.02    8.866492  (  2.752676   0.221766  -1.113591)
  54:      3150.49    0.900795  ( -0.860580  -0.332494  -0.222813)
  55:      3152.82    5.580868  ( -0.553528   2.080283   0.973087)
  56:      3155.63    1.921171  ( -0.086758  -1.215480   0.660494)
  57:      3419.84   26.583058  ( -1.923579  -0.172918  -4.780481)
  58:      3509.27   72.513048  ( -5.836381   5.547566   2.770237)
  59:      3515.94   69.629179  ( -5.712152  -5.652427   2.247347)

--------------------------
THERMOCHEMISTRY AT 298.15K
--------------------------

Temperature         ... 298.15 K
Pressure            ... 1.00 atm
Total Mass          ... 88.17 AMU

Throughout the following assumptions are being made:
  (1) The electronic state is orbitally nondegenerate
  (2) There are no thermally accessible electronically excited states
  (3) Hindered rotations indicated by low frequency modes) are not
      treated as such but are treated as vibrations and this may
      case some error
  (4) All equations used are the standard statistical mechanics
      equations for an ideal gas
  (5) All vibrations are strinctly harmonic

------------
INNER ENERGY
------------

The inner energy is: U= E(el) + E(ZPE) + E(vib) + E(rot) + E(trans)
    E(el)   - is the total energy from the electronic structure calculation
              = E(kin-el) + E(nuc-el) + E(el-el) + E(nuc-nuc)
    E(ZPE)  - the the zero temperature vibrational energy from the frequency calculation
    E(vib)  - the the finite temperature correction to E(ZPE) due to population
              of excietd vibrational states
    E(rot)  - is the rotational thermal energy
    E(trans)- is the translational thermal energy

Summary of contributions to the inner energy U:
Electronic energy                ...   -253.27049349 Eh
Zero point energy                ...      0.19175590 Eh     120.33 kcal/mol
Thermal vibrational correction   ...      0.00554130 Eh       3.48 kcal/mol
Thermal rotational correction    ...      0.00141627 Eh       0.89 kcal/mol
Thermal translational correction ...      0.00141627 Eh       0.89 kcal/mol
-----------------------------------------------------------------------
Total thermal energy                   -253.07036374 Eh

Summary of corrections to the electronic energy:
(perhaps to be used in another calculation)
Total thermal correction                  0.00837385 Eh       5.25 kcal/mol
Non-thermal (ZPE) correction              0.19175590 Eh     120.33 kcal/mol
-----------------------------------------------------------------------
Total correction                          0.20012975 Eh     125.58 kcal/mol

--------
ENTHALPY
--------

The enthalpy is H = U + kB*T
                kB is Boltzmann's constant
Total free energy                 ...   -253.07036374 Eh
Thermal Enthalpy correction       ...      0.00094421 Eh       0.59 kcal/mol
-----------------------------------------------------------------------
Total Enthalpy                    ...   -253.06941953 Eh

-------
ENTROPY
-------

The entropy contributions are T*S = T*(S(el)+S(vib)+S(rot)+S(trans)
     S(el)   - electronic entropy
     S(vib)  - vibrational entropy
     S(rot)  - rotational entropy
     S(trans)- translational entropy
The entropies will be listed as mutliplied by the temperature to get
units of energy

Electronic entropy                ...      0.00000000 Eh      0.00 kcal/mol
Vibrational entropy               ...      0.00935715 Eh      5.87 kcal/mol
Rotational entropy                ...      0.01173886 Eh      7.37 kcal/mol
Translational entropy             ...      0.01869299 Eh     11.73 kcal/mol
-----------------------------------------------------------------------
Final entropy term                ...      0.03978901 Eh     24.97 kcal/mol

CAUTION: The rotational entropy is not quite correctly treated here
         because it includes a symmetry number that is not yet correctly
         implemented in ORCA!
For a nonlinear molecule the correct rotational entropy is:
    S(rot) = R*(ln(qrot/sn)+1.5)
    R    = 8.31441 J/mol/K = 1.987191683e-3 kcal/mol/K
    qrot = 167957.3295213
    sn is the rotational symmetry number. We have assumed 3 here
       if it is different for your molecule then you should correct
       the printed rotational entropy by manually evaluating the equation
       as given above

For convenience we print out the resulting values for sn=1 - 12:
 sn= 1  qrot/sn=  167957.3295 T*S(rot)=     8.02 kcal/mol T*S(tot)=    25.62 kcal/mol
 sn= 2  qrot/sn=   83978.6648 T*S(rot)=     7.61 kcal/mol T*S(tot)=    25.21 kcal/mol
 sn= 3  qrot/sn=   55985.7765 T*S(rot)=     7.37 kcal/mol T*S(tot)=    24.97 kcal/mol
 sn= 4  qrot/sn=   41989.3324 T*S(rot)=     7.20 kcal/mol T*S(tot)=    24.80 kcal/mol
 sn= 5  qrot/sn=   33591.4659 T*S(rot)=     7.06 kcal/mol T*S(tot)=    24.67 kcal/mol
 sn= 6  qrot/sn=   27992.8883 T*S(rot)=     6.96 kcal/mol T*S(tot)=    24.56 kcal/mol
 sn= 7  qrot/sn=   23993.9042 T*S(rot)=     6.86 kcal/mol T*S(tot)=    24.47 kcal/mol
 sn= 8  qrot/sn=   20994.6662 T*S(rot)=     6.79 kcal/mol T*S(tot)=    24.39 kcal/mol
 sn= 9  qrot/sn=   18661.9255 T*S(rot)=     6.72 kcal/mol T*S(tot)=    24.32 kcal/mol
 sn=10  qrot/sn=   16795.7330 T*S(rot)=     6.65 kcal/mol T*S(tot)=    24.25 kcal/mol
 sn=11  qrot/sn=   15268.8481 T*S(rot)=     6.60 kcal/mol T*S(tot)=    24.20 kcal/mol
 sn=12  qrot/sn=   13996.4441 T*S(rot)=     6.54 kcal/mol T*S(tot)=    24.15 kcal/mol

-------------------
GIBBS FREE ENTHALPY
-------------------

The Gibbs free enthalpy is G = H - T*S

Total enthalpy                    ...   -253.06941953 Eh
Total entropy correction          ...     -0.03978901 Eh    -24.97 kcal/mol
-----------------------------------------------------------------------
Final Gibbs free enthalpy         ...   -253.10920854 Eh

For completeness - the Gibbs free enthalpy minus the electronic energy
G-E(el)                           ...      0.16128495 Eh    101.21 kcal/mol

                             ****ORCA TERMINATED NORMALLY****
TOTAL RUN TIME: 0 days 0 hours 29 minutes 26 seconds 792 msec
