                         Program Version 3.0.3 - RELEASE   -
|  1> ! NORI PBE0 def2-TZVP UseSym TightOPT Freq TightSCF Grid3 FinalGrid5 XYZFile
|  2> % pal
|  3>     nprocs 8
|  4> end
|  5> %method
|  6>     SymThresh 5.0e-2
|  7> end
|  8> % geom
|  9>     MaxIter 10
| 10> end
| 11> % maxcore 2000
| 12> % output
| 13>     printlevel mini
| 14>     print[ P_Basis ] 0
| 15>     print[ P_SCFInfo ] 1
| 16>     print[ P_SCFIterInfo ] 1
| 17>     print[ P_OrbEn ] 0
| 18>     print[ P_Cartesian ] 0
| 19> end
| 20> % elprop
| 21>     Dipole false
| 22> end
| 23> *xyz 1 1
| 24>  C        1.1126139251     0.2156967320    -0.0150976206
| 25>  C        2.6283428781     0.1267538676    -0.0826909950
| 26>  C        3.1443584310    -1.2371724739     0.3609383403
| 27>  C        4.6517960407    -1.3474532748     0.4879740655
| 28>  C        5.1460481033    -2.7095803173     0.9167114789
| 29>  N        5.2795420380    -1.0128874207    -0.8563469799
| 30>  H        0.7626397258     1.1953724936    -0.3414532818
| 31>  H        0.7597757835     0.0588485356     1.0065602443
| 32>  H        0.6419001432    -0.5364259832    -0.6519851267
| 33>  H        3.0698480027     0.9069676720     0.5484024898
| 34>  H        2.9357919025     0.3441351448    -1.1157158879
| 35>  H        2.7732588240    -2.0257922987    -0.3058709257
| 36>  H        2.7370235743    -1.4718071557     1.3488385540
| 37>  H        5.0279253233    -0.5704692441     1.1597214187
| 38>  H        4.8064776367    -3.4919240178     0.2320994015
| 39>  H        4.7423619014    -2.9406116739     1.9027266914
| 40>  H        6.2355206847    -2.7510217969     0.9928606428
| 41>  H        5.0084515033    -1.7060592283    -1.5578700420
| 42>  H        6.2994368430    -1.0055288048    -0.8022019375
| 43>  H        4.9636667354    -0.0976207556    -1.1843905303
| 44> *
| 45>
| 46>                          ****END OF INPUT****
 Total Charge           Charge          ....    1
 Multiplicity           Mult            ....    1
 Number of Electrons    NEL             ....   50
FINAL SINGLE POINT ENERGY      -253.266854138471
FINAL SINGLE POINT ENERGY      -253.266856263781
FINAL SINGLE POINT ENERGY      -253.266857995783

CARTESIAN COORDINATES (ANGSTROEM)
---------------------------------
  C      1.870203    0.000755   -2.155298
  C      1.257101    0.409262   -0.825414
  C     -0.105549   -0.233889   -0.596564
  C     -0.853756    0.258889    0.627593
  C     -2.204413   -0.384160    0.838574
  N     -0.000323   -0.005983    1.857596
  H      2.847426    0.464235   -2.293457
  H      1.234172    0.308005   -2.988160
  H      2.002348   -1.081996   -2.215386
  H      1.156263    1.500354   -0.787929
  H      1.961875    0.130299   -0.028433
  H     -0.014959   -1.327105   -0.556077
  H     -0.751139   -0.023681   -1.454333
  H     -0.946268    1.348231    0.595271
  H     -2.124408   -1.472627    0.907161
  H     -2.844138   -0.156433   -0.014505
  H     -2.708412   -0.007654    1.732099
  H      0.124568   -1.011892    1.992993
  H     -0.431689    0.371729    2.702605
  H      0.926560    0.411467    1.749466

FINAL SINGLE POINT ENERGY      -253.266858211144
                    ***********************HURRAY********************
 Multiplicity           Mult            ....    1
 Number of Electrons    NEL             ....   50
 Basis Dimension        Dim             ....  270
FINAL SINGLE POINT ENERGY      -253.266858312904

VIBRATIONAL FREQUENCIES
-----------------------

   0:         0.00 cm**-1
   1:         0.00 cm**-1
   2:         0.00 cm**-1
   3:         0.00 cm**-1
   4:         0.00 cm**-1
   5:         0.00 cm**-1
   6:        76.87 cm**-1
   7:       119.40 cm**-1
   8:       172.70 cm**-1
   9:       210.96 cm**-1
  10:       242.22 cm**-1
  11:       249.35 cm**-1
  12:       312.82 cm**-1
  13:       370.20 cm**-1
  14:       442.43 cm**-1
  15:       452.17 cm**-1
  16:       738.41 cm**-1
  17:       790.12 cm**-1
  18:       868.96 cm**-1
  19:       901.99 cm**-1
  20:       933.31 cm**-1
  21:       960.93 cm**-1
  22:       976.47 cm**-1
  23:      1023.40 cm**-1
  24:      1060.18 cm**-1
  25:      1085.88 cm**-1
  26:      1156.19 cm**-1
  27:      1208.46 cm**-1
  28:      1214.91 cm**-1
  29:      1284.28 cm**-1
  30:      1299.45 cm**-1
  31:      1337.89 cm**-1
  32:      1370.02 cm**-1
  33:      1400.87 cm**-1
  34:      1409.94 cm**-1
  35:      1418.66 cm**-1
  36:      1423.84 cm**-1
  37:      1467.46 cm**-1
  38:      1478.49 cm**-1
  39:      1482.91 cm**-1
  40:      1488.85 cm**-1
  41:      1490.01 cm**-1
  42:      1493.06 cm**-1
  43:      1499.58 cm**-1
  44:      1648.24 cm**-1
  45:      1657.91 cm**-1
  46:      2997.89 cm**-1
  47:      3034.61 cm**-1
  48:      3054.54 cm**-1
  49:      3057.65 cm**-1
  50:      3061.24 cm**-1
  51:      3086.77 cm**-1
  52:      3102.71 cm**-1
  53:      3131.34 cm**-1
  54:      3134.21 cm**-1
  55:      3148.90 cm**-1
  56:      3154.83 cm**-1
  57:      3416.87 cm**-1
  58:      3499.14 cm**-1
  59:      3514.61 cm**-1

IR SPECTRUM
-----------

 Mode    freq (cm**-1)   T**2         TX         TY         TZ
-------------------------------------------------------------------
   6:        76.87    2.161772  ( -0.088497  -1.427660   0.340187)
   7:       119.40    2.956743  ( -0.860837  -0.287250   1.460544)
   8:       172.70    6.419274  (  1.043879  -0.060544  -2.307797)
   9:       210.96    0.418098  ( -0.154815   0.417502  -0.468852)
  10:       242.22    0.652844  ( -0.245766  -0.764816   0.086596)
  11:       249.35    0.042187  ( -0.052809  -0.056272   0.190345)
  12:       312.82   14.271097  (  2.321499  -0.141440  -2.976866)
  13:       370.20    5.319991  ( -1.382498  -0.758813  -1.683120)
  14:       442.43    2.926327  ( -0.965488  -1.249642  -0.657689)
  15:       452.17    2.897395  ( -1.058381   0.289048   1.301413)
  16:       738.41    4.261830  ( -0.269377   1.369546  -1.521055)
  17:       790.12    2.962079  ( -1.220794  -0.560567  -1.075875)
  18:       868.96    4.019774  ( -0.908395   1.532729   0.919421)
  19:       901.99    0.467319  (  0.130651   0.420481  -0.522920)
  20:       933.31    6.747560  ( -1.946150  -1.204664   1.228351)
  21:       960.93    7.180544  ( -2.097784  -0.669030  -1.527169)
  22:       976.47   16.738353  ( -3.129294   0.149745   2.631245)
  23:      1023.40    1.505137  ( -0.173498   1.209955  -0.105096)
  24:      1060.18    7.067291  (  0.095305  -0.113575  -2.654300)
  25:      1085.88    1.188418  (  0.706427  -0.641651   0.526938)
  26:      1156.19   10.567026  ( -2.396167   0.657368  -2.096015)
  27:      1208.46   12.936624  ( -1.964293  -1.540870   2.589189)
  28:      1214.91   12.499578  ( -2.368597   0.818624   2.493829)
  29:      1284.28    5.416246  ( -1.614301   1.209458   1.160815)
  30:      1299.45    0.989549  ( -0.796585   0.579708  -0.137620)
  31:      1337.89    1.507227  ( -0.493145  -0.759101   0.829337)
  32:      1370.02    0.627192  (  0.128854  -0.115575  -0.772807)
  33:      1400.87   12.554099  (  1.431301   1.877184   2.642282)
  34:      1409.94    9.310767  ( -1.964067   0.372238   2.305352)
  35:      1418.66    2.188435  (  1.174102  -0.062303   0.897796)
  36:      1423.84   28.303883  (  4.400712   1.779942   2.401963)
  37:      1467.46    7.438889  (  1.284230   0.886063   2.237082)
  38:      1478.49   38.733930  ( -1.187734   0.605900  -6.079153)
  39:      1482.91   16.573055  (  1.874382  -2.255764   2.823344)
  40:      1488.85   44.488357  ( -4.007671   2.478106  -4.720797)
  41:      1490.01   68.049190  (  3.482018   0.881945   7.426097)
  42:      1493.06   25.611452  (  2.485431  -2.963020   3.264138)
  43:      1499.58    6.172330  ( -0.547904  -2.317130   0.709252)
  44:      1648.24   53.062220  (  0.826315   6.819294   2.424179)
  45:      1657.91   38.369816  ( -4.503171   0.259068   4.245486)
  46:      2997.89   45.623054  ( -2.076803  -0.622315  -6.397083)
  47:      3034.61    4.106419  (  1.252418   1.559652  -0.324581)
  48:      3054.54    4.041690  (  0.248712   0.807899  -1.824043)
  49:      3057.65    9.445487  (  0.125394  -2.504237   1.777235)
  50:      3061.24   14.466542  (  0.916539  -2.945705  -2.224706)
  51:      3086.77    2.684509  ( -1.088786  -1.210723  -0.182222)
  52:      3102.71    4.890227  (  0.886015  -1.808955   0.912627)
  53:      3131.34    7.679787  (  1.122803  -2.080408  -1.446030)
  54:      3134.21   16.799273  (  1.582359  -3.393923   1.666344)
  55:      3148.90    8.672425  (  2.546787   1.417562   0.420498)
  56:      3154.83    1.320599  (  0.682288   0.604906  -0.699407)
  57:      3416.87   26.484806  ( -3.708419   0.793280  -3.478957)
  58:      3499.14   85.094710  (  4.686041   7.381795  -2.940210)
  59:      3514.61   95.776156  (  5.771929  -4.114004  -6.748034)

--------------------------
THERMOCHEMISTRY AT 298.15K
--------------------------

Temperature         ... 298.15 K
Pressure            ... 1.00 atm
Total Mass          ... 88.17 AMU

Throughout the following assumptions are being made:
  (1) The electronic state is orbitally nondegenerate
  (2) There are no thermally accessible electronically excited states
  (3) Hindered rotations indicated by low frequency modes) are not
      treated as such but are treated as vibrations and this may
      case some error
  (4) All equations used are the standard statistical mechanics
      equations for an ideal gas
  (5) All vibrations are strinctly harmonic

------------
INNER ENERGY
------------

The inner energy is: U= E(el) + E(ZPE) + E(vib) + E(rot) + E(trans)
    E(el)   - is the total energy from the electronic structure calculation
              = E(kin-el) + E(nuc-el) + E(el-el) + E(nuc-nuc)
    E(ZPE)  - the the zero temperature vibrational energy from the frequency calculation
    E(vib)  - the the finite temperature correction to E(ZPE) due to population
              of excietd vibrational states
    E(rot)  - is the rotational thermal energy
    E(trans)- is the translational thermal energy

Summary of contributions to the inner energy U:
Electronic energy                ...   -253.26685831 Eh
Zero point energy                ...      0.19276724 Eh     120.96 kcal/mol
Thermal vibrational correction   ...      0.00556455 Eh       3.49 kcal/mol
Thermal rotational correction    ...      0.00141627 Eh       0.89 kcal/mol
Thermal translational correction ...      0.00141627 Eh       0.89 kcal/mol
-----------------------------------------------------------------------
Total thermal energy                   -253.06569398 Eh

Summary of corrections to the electronic energy:
(perhaps to be used in another calculation)
Total thermal correction                  0.00839709 Eh       5.27 kcal/mol
Non-thermal (ZPE) correction              0.19276724 Eh     120.96 kcal/mol
-----------------------------------------------------------------------
Total correction                          0.20116433 Eh     126.23 kcal/mol

--------
ENTHALPY
--------

The enthalpy is H = U + kB*T
                kB is Boltzmann's constant
Total free energy                 ...   -253.06569398 Eh
Thermal Enthalpy correction       ...      0.00094421 Eh       0.59 kcal/mol
-----------------------------------------------------------------------
Total Enthalpy                    ...   -253.06474977 Eh

-------
ENTROPY
-------

The entropy contributions are T*S = T*(S(el)+S(vib)+S(rot)+S(trans)
     S(el)   - electronic entropy
     S(vib)  - vibrational entropy
     S(rot)  - rotational entropy
     S(trans)- translational entropy
The entropies will be listed as mutliplied by the temperature to get
units of energy

Electronic entropy                ...      0.00000000 Eh      0.00 kcal/mol
Vibrational entropy               ...      0.00988691 Eh      6.20 kcal/mol
Rotational entropy                ...      0.01195535 Eh      7.50 kcal/mol
Translational entropy             ...      0.01869299 Eh     11.73 kcal/mol
-----------------------------------------------------------------------
Final entropy term                ...      0.04053525 Eh     25.44 kcal/mol

CAUTION: The rotational entropy is not quite correctly treated here
         because it includes a symmetry number that is not yet correctly
         implemented in ORCA!
For a nonlinear molecule the correct rotational entropy is:
    S(rot) = R*(ln(qrot/sn)+1.5)
    R    = 8.31441 J/mol/K = 1.987191683e-3 kcal/mol/K
    qrot = 211239.5492786
    sn is the rotational symmetry number. We have assumed 3 here
       if it is different for your molecule then you should correct
       the printed rotational entropy by manually evaluating the equation
       as given above

For convenience we print out the resulting values for sn=1 - 12:
 sn= 1  qrot/sn=  211239.5493 T*S(rot)=     8.15 kcal/mol T*S(tot)=    26.09 kcal/mol
 sn= 2  qrot/sn=  105619.7746 T*S(rot)=     7.74 kcal/mol T*S(tot)=    25.68 kcal/mol
 sn= 3  qrot/sn=   70413.1831 T*S(rot)=     7.50 kcal/mol T*S(tot)=    25.44 kcal/mol
 sn= 4  qrot/sn=   52809.8873 T*S(rot)=     7.33 kcal/mol T*S(tot)=    25.27 kcal/mol
 sn= 5  qrot/sn=   42247.9099 T*S(rot)=     7.20 kcal/mol T*S(tot)=    25.13 kcal/mol
 sn= 6  qrot/sn=   35206.5915 T*S(rot)=     7.09 kcal/mol T*S(tot)=    25.03 kcal/mol
 sn= 7  qrot/sn=   30177.0785 T*S(rot)=     7.00 kcal/mol T*S(tot)=    24.93 kcal/mol
 sn= 8  qrot/sn=   26404.9437 T*S(rot)=     6.92 kcal/mol T*S(tot)=    24.86 kcal/mol
 sn= 9  qrot/sn=   23471.0610 T*S(rot)=     6.85 kcal/mol T*S(tot)=    24.79 kcal/mol
 sn=10  qrot/sn=   21123.9549 T*S(rot)=     6.79 kcal/mol T*S(tot)=    24.72 kcal/mol
 sn=11  qrot/sn=   19203.5954 T*S(rot)=     6.73 kcal/mol T*S(tot)=    24.67 kcal/mol
 sn=12  qrot/sn=   17603.2958 T*S(rot)=     6.68 kcal/mol T*S(tot)=    24.61 kcal/mol

-------------------
GIBBS FREE ENTHALPY
-------------------

The Gibbs free enthalpy is G = H - T*S

Total enthalpy                    ...   -253.06474977 Eh
Total entropy correction          ...     -0.04053525 Eh    -25.44 kcal/mol
-----------------------------------------------------------------------
Final Gibbs free enthalpy         ...   -253.10528502 Eh

For completeness - the Gibbs free enthalpy minus the electronic energy
G-E(el)                           ...      0.16157329 Eh    101.39 kcal/mol

                             ****ORCA TERMINATED NORMALLY****
TOTAL RUN TIME: 0 days 0 hours 24 minutes 56 seconds 140 msec
