                         Program Version 3.0.3 - RELEASE   -
|  1> ! NORI PBE0 def2-TZVP UseSym TightOPT Freq TightSCF Grid3 FinalGrid5 XYZFile
|  2> % pal
|  3>     nprocs 8
|  4> end
|  5> %method
|  6>     SymThresh 5.0e-2
|  7> end
|  8> % geom
|  9>     MaxIter 10
| 10> end
| 11> % maxcore 2000
| 12> % output
| 13>     printlevel mini
| 14>     print[ P_Basis ] 0
| 15>     print[ P_SCFInfo ] 1
| 16>     print[ P_SCFIterInfo ] 1
| 17>     print[ P_OrbEn ] 0
| 18>     print[ P_Cartesian ] 0
| 19> end
| 20> % elprop
| 21>     Dipole false
| 22> end
| 23> *xyz 1 1
| 24>  C        0.9304886235    -0.1653788032     0.1029639891
| 25>  C        2.4480526645    -0.1250676338     0.0843966274
| 26>  C        2.9828027256     1.1946003597    -0.4622236621
| 27>  C        4.4941884338     1.2180424294    -0.4718311023
| 28>  N        5.0165695064     2.5195345120    -1.0094003469
| 29>  C        6.4994252460     2.6251179243    -1.0530791739
| 30>  H        0.5739266453    -1.1184203593     0.4949916664
| 31>  H        0.5168640774    -0.0459176132    -0.9013711151
| 32>  H        0.5185774788     0.6263731479     0.7332750931
| 33>  H        2.8362897247    -0.2790277128     1.0968015759
| 34>  H        2.8336568342    -0.9497372210    -0.5240151279
| 35>  H        2.6017193340     1.3468630797    -1.4798014771
| 36>  H        2.6012156563     2.0207568151     0.1501776109
| 37>  H        4.9120167622     1.1082377427     0.5307951528
| 38>  H        4.9118974218     0.4330596739    -1.1048095600
| 39>  H        4.6348381604     2.6588159519    -1.9472656066
| 40>  H        4.6357314900     3.2797031629    -0.4423325804
| 41>  H        6.8863256840     1.8327052419    -1.6904495569
| 42>  H        6.8858807346     2.5110491197    -0.0423393717
| 43>  H        6.7790827966     3.5981201822    -1.4532030348
| 44> *
| 45>
| 46>                          ****END OF INPUT****
 Total Charge           Charge          ....    1
 Multiplicity           Mult            ....    1
 Number of Electrons    NEL             ....   50
FINAL SINGLE POINT ENERGY      -253.259510704922

CARTESIAN COORDINATES (ANGSTROEM)
---------------------------------
  C     -3.029572   -1.064258   -0.000000
  C     -1.974764    0.028033    0.000000
  C     -0.558586   -0.538229    0.000000
  C      0.477926    0.562206    0.000000
  N      1.870751    0.000037    0.000000
  C      2.953969    1.019395   -0.000000
  H     -4.031433   -0.633697   -0.000000
  H     -2.943334   -1.701100    0.883745
  H     -2.943334   -1.701100   -0.883745
  H     -2.105814    0.670533   -0.877186
  H     -2.105814    0.670533    0.877186
  H     -0.423940   -1.176707    0.881908
  H     -0.423940   -1.176707   -0.881908
  H      0.401656    1.197091   -0.884851
  H      0.401656    1.197091    0.884851
  H      1.973631   -0.609371    0.814082
  H      1.973631   -0.609371   -0.814082
  H      2.851921    1.635359    0.891170
  H      2.851921    1.635359   -0.891170
  H      3.919892    0.517371   -0.000000

FINAL SINGLE POINT ENERGY      -253.259510955901
                    ***********************HURRAY********************
 Multiplicity           Mult            ....    1
 Number of Electrons    NEL             ....   50
 Basis Dimension        Dim             ....  270
FINAL SINGLE POINT ENERGY      -253.259511038949

VIBRATIONAL FREQUENCIES
-----------------------

   0:         0.00 cm**-1
   1:         0.00 cm**-1
   2:         0.00 cm**-1
   3:         0.00 cm**-1
   4:         0.00 cm**-1
   5:         0.00 cm**-1
   6:        68.40 cm**-1
   7:       100.04 cm**-1
   8:       129.09 cm**-1
   9:       137.15 cm**-1
  10:       229.67 cm**-1
  11:       249.60 cm**-1
  12:       299.92 cm**-1
  13:       366.59 cm**-1
  14:       461.93 cm**-1
  15:       743.93 cm**-1
  16:       782.50 cm**-1
  17:       831.51 cm**-1
  18:       900.62 cm**-1
  19:       935.27 cm**-1
  20:       950.07 cm**-1
  21:      1026.49 cm**-1
  22:      1055.57 cm**-1
  23:      1059.88 cm**-1
  24:      1082.06 cm**-1
  25:      1107.92 cm**-1
  26:      1190.86 cm**-1
  27:      1215.87 cm**-1
  28:      1287.85 cm**-1
  29:      1295.71 cm**-1
  30:      1329.02 cm**-1
  31:      1338.87 cm**-1
  32:      1370.87 cm**-1
  33:      1398.53 cm**-1
  34:      1402.71 cm**-1
  35:      1417.43 cm**-1
  36:      1425.12 cm**-1
  37:      1460.25 cm**-1
  38:      1479.82 cm**-1
  39:      1482.68 cm**-1
  40:      1491.59 cm**-1
  41:      1492.98 cm**-1
  42:      1493.53 cm**-1
  43:      1498.80 cm**-1
  44:      1508.24 cm**-1
  45:      1658.21 cm**-1
  46:      3024.86 cm**-1
  47:      3045.74 cm**-1
  48:      3056.77 cm**-1
  49:      3062.07 cm**-1
  50:      3088.33 cm**-1
  51:      3088.69 cm**-1
  52:      3092.88 cm**-1
  53:      3128.98 cm**-1
  54:      3145.80 cm**-1
  55:      3147.48 cm**-1
  56:      3192.77 cm**-1
  57:      3196.10 cm**-1
  58:      3441.07 cm**-1
  59:      3489.13 cm**-1

IR SPECTRUM
-----------

 Mode    freq (cm**-1)   T**2         TX         TY         TZ
-------------------------------------------------------------------
   6:        68.40    1.165961  (  0.000029  -0.000008   1.079797)
   7:       100.04    1.441834  ( -0.000096  -0.000003   1.200764)
   8:       129.09    1.008494  (  1.001432   0.075022   0.000224)
   9:       137.15    1.320087  ( -0.000114   0.000002   1.148950)
  10:       229.67    1.570727  (  0.000010   0.000002  -1.253287)
  11:       249.60    0.195351  ( -0.000014  -0.000032   0.441985)
  12:       299.92    1.237356  (  0.159239   1.100908   0.000026)
  13:       366.59    6.252350  (  2.500410  -0.017367  -0.000006)
  14:       461.93    0.116175  ( -0.314943  -0.130331  -0.000010)
  15:       743.93    5.867291  ( -0.000006  -0.000003  -2.422249)
  16:       782.50    4.658616  (  0.000016  -0.000003  -2.158383)
  17:       831.51    8.927907  ( -0.000001  -0.000003  -2.987960)
  18:       900.62    5.702311  (  2.145701  -1.047989  -0.000017)
  19:       935.27    7.563547  (  2.749328   0.068883   0.000031)
  20:       950.07    0.262191  ( -0.000025  -0.000025   0.512046)
  21:      1026.49   14.080478  ( -3.486093  -1.388392   0.000022)
  22:      1055.57   10.285255  ( -2.910950  -1.345966   0.000101)
  23:      1059.88    0.644818  ( -0.000577  -0.000220  -0.803006)
  24:      1082.06    0.712215  (  0.555746  -0.635108  -0.000008)
  25:      1107.92   21.793203  (  4.647440  -0.441023   0.000008)
  26:      1190.86    2.184371  (  1.139288   0.941484   0.000018)
  27:      1215.87    0.167213  (  0.000013   0.000009  -0.408917)
  28:      1287.85    0.602312  (  0.000018   0.000017   0.776088)
  29:      1295.71    0.821846  (  0.903656   0.072470  -0.000034)
  30:      1329.02    0.046601  (  0.000118   0.000005   0.215874)
  31:      1338.87    2.899811  ( -0.000028   0.000004   1.702883)
  32:      1370.87   14.074700  ( -3.700743  -0.615791  -0.000024)
  33:      1398.53    0.005612  ( -0.000477  -0.000075  -0.074913)
  34:      1402.71    2.519378  ( -1.544271   0.366885  -0.000003)
  35:      1417.43    5.253590  (  1.465673   1.762213  -0.000001)
  36:      1425.12   55.880094  ( -7.449457  -0.621039   0.000001)
  37:      1460.25    3.273506  (  1.515928   0.987659   0.000058)
  38:      1479.82    6.663166  ( -2.553164  -0.380155  -0.000008)
  39:      1482.68    0.127811  (  0.342912  -0.101106  -0.000027)
  40:      1491.59   24.346721  (  4.817267  -1.068015  -0.000332)
  41:      1492.98   28.284832  ( -0.000197   0.000048  -5.318349)
  42:      1493.53    8.338658  ( -0.000074   0.000024  -2.887674)
  43:      1498.80    0.797783  (  0.765701  -0.459875   0.000022)
  44:      1508.24   24.758662  ( -1.206673   4.827277  -0.000053)
  45:      1658.21   44.187809  ( -0.876709   6.589324  -0.000003)
  46:      3024.86    9.701668  ( -2.475257   1.890707  -0.000000)
  47:      3045.74   15.318742  ( -0.925398   3.802944  -0.000007)
  48:      3056.77   19.362596  (  1.431606   4.160901  -0.000010)
  49:      3062.07    1.730408  (  0.000006  -0.000091   1.315450)
  50:      3088.33   11.741362  (  0.000044   0.000086  -3.426567)
  51:      3088.69    3.876863  ( -0.523209  -1.898187  -0.000233)
  52:      3092.88    0.541909  (  0.302612   0.671070   0.000009)
  53:      3128.98   23.869854  ( -0.000001   0.000006   4.885678)
  54:      3145.80    9.705802  ( -2.324174   2.074613  -0.000006)
  55:      3147.48    3.211915  (  0.000001   0.000000   1.792182)
  56:      3192.77    0.197012  ( -0.045461  -0.441526   0.000010)
  57:      3196.10    0.032178  ( -0.000000  -0.000004   0.179382)
  58:      3441.07   39.317238  (  1.761097  -6.017954   0.000197)
  59:      3489.13   67.438464  (  0.000044  -0.000142  -8.212093)

--------------------------
THERMOCHEMISTRY AT 298.15K
--------------------------

Temperature         ... 298.15 K
Pressure            ... 1.00 atm
Total Mass          ... 88.17 AMU

Throughout the following assumptions are being made:
  (1) The electronic state is orbitally nondegenerate
  (2) There are no thermally accessible electronically excited states
  (3) Hindered rotations indicated by low frequency modes) are not
      treated as such but are treated as vibrations and this may
      case some error
  (4) All equations used are the standard statistical mechanics
      equations for an ideal gas
  (5) All vibrations are strinctly harmonic

------------
INNER ENERGY
------------

The inner energy is: U= E(el) + E(ZPE) + E(vib) + E(rot) + E(trans)
    E(el)   - is the total energy from the electronic structure calculation
              = E(kin-el) + E(nuc-el) + E(el-el) + E(nuc-nuc)
    E(ZPE)  - the the zero temperature vibrational energy from the frequency calculation
    E(vib)  - the the finite temperature correction to E(ZPE) due to population
              of excietd vibrational states
    E(rot)  - is the rotational thermal energy
    E(trans)- is the translational thermal energy

Summary of contributions to the inner energy U:
Electronic energy                ...   -253.25951104 Eh
Zero point energy                ...      0.19354816 Eh     121.45 kcal/mol
Thermal vibrational correction   ...      0.00559308 Eh       3.51 kcal/mol
Thermal rotational correction    ...      0.00141627 Eh       0.89 kcal/mol
Thermal translational correction ...      0.00141627 Eh       0.89 kcal/mol
-----------------------------------------------------------------------
Total thermal energy                   -253.05753726 Eh

Summary of corrections to the electronic energy:
(perhaps to be used in another calculation)
Total thermal correction                  0.00842562 Eh       5.29 kcal/mol
Non-thermal (ZPE) correction              0.19354816 Eh     121.45 kcal/mol
-----------------------------------------------------------------------
Total correction                          0.20197378 Eh     126.74 kcal/mol

--------
ENTHALPY
--------

The enthalpy is H = U + kB*T
                kB is Boltzmann's constant
Total free energy                 ...   -253.05753726 Eh
Thermal Enthalpy correction       ...      0.00094421 Eh       0.59 kcal/mol
-----------------------------------------------------------------------
Total Enthalpy                    ...   -253.05659305 Eh

-------
ENTROPY
-------

The entropy contributions are T*S = T*(S(el)+S(vib)+S(rot)+S(trans)
     S(el)   - electronic entropy
     S(vib)  - vibrational entropy
     S(rot)  - rotational entropy
     S(trans)- translational entropy
The entropies will be listed as mutliplied by the temperature to get
units of energy

Electronic entropy                ...      0.00000000 Eh      0.00 kcal/mol
Vibrational entropy               ...      0.01050991 Eh      6.60 kcal/mol
Rotational entropy                ...      0.01189843 Eh      7.47 kcal/mol
Translational entropy             ...      0.01869299 Eh     11.73 kcal/mol
-----------------------------------------------------------------------
Final entropy term                ...      0.04110134 Eh     25.79 kcal/mol

CAUTION: The rotational entropy is not quite correctly treated here
         because it includes a symmetry number that is not yet correctly
         implemented in ORCA!
For a nonlinear molecule the correct rotational entropy is:
    S(rot) = R*(ln(qrot/sn)+1.5)
    R    = 8.31441 J/mol/K = 1.987191683e-3 kcal/mol/K
    qrot = 198882.6162091
    sn is the rotational symmetry number. We have assumed 3 here
       if it is different for your molecule then you should correct
       the printed rotational entropy by manually evaluating the equation
       as given above

For convenience we print out the resulting values for sn=1 - 12:
 sn= 1  qrot/sn=  198882.6162 T*S(rot)=     8.12 kcal/mol T*S(tot)=    26.44 kcal/mol
 sn= 2  qrot/sn=   99441.3081 T*S(rot)=     7.71 kcal/mol T*S(tot)=    26.03 kcal/mol
 sn= 3  qrot/sn=   66294.2054 T*S(rot)=     7.47 kcal/mol T*S(tot)=    25.79 kcal/mol
 sn= 4  qrot/sn=   49720.6541 T*S(rot)=     7.30 kcal/mol T*S(tot)=    25.62 kcal/mol
 sn= 5  qrot/sn=   39776.5232 T*S(rot)=     7.16 kcal/mol T*S(tot)=    25.49 kcal/mol
 sn= 6  qrot/sn=   33147.1027 T*S(rot)=     7.06 kcal/mol T*S(tot)=    25.38 kcal/mol
 sn= 7  qrot/sn=   28411.8023 T*S(rot)=     6.96 kcal/mol T*S(tot)=    25.29 kcal/mol
 sn= 8  qrot/sn=   24860.3270 T*S(rot)=     6.89 kcal/mol T*S(tot)=    25.21 kcal/mol
 sn= 9  qrot/sn=   22098.0685 T*S(rot)=     6.82 kcal/mol T*S(tot)=    25.14 kcal/mol
 sn=10  qrot/sn=   19888.2616 T*S(rot)=     6.75 kcal/mol T*S(tot)=    25.08 kcal/mol
 sn=11  qrot/sn=   18080.2378 T*S(rot)=     6.70 kcal/mol T*S(tot)=    25.02 kcal/mol
 sn=12  qrot/sn=   16573.5514 T*S(rot)=     6.65 kcal/mol T*S(tot)=    24.97 kcal/mol

-------------------
GIBBS FREE ENTHALPY
-------------------

The Gibbs free enthalpy is G = H - T*S

Total enthalpy                    ...   -253.05659305 Eh
Total entropy correction          ...     -0.04110134 Eh    -25.79 kcal/mol
-----------------------------------------------------------------------
Final Gibbs free enthalpy         ...   -253.09769439 Eh

For completeness - the Gibbs free enthalpy minus the electronic energy
G-E(el)                           ...      0.16181665 Eh    101.54 kcal/mol

                             ****ORCA TERMINATED NORMALLY****
TOTAL RUN TIME: 0 days 0 hours 21 minutes 9 seconds 174 msec
