                         Program Version 3.0.3 - RELEASE   -
|  1> ! NORI PBE0 def2-TZVP UseSym TightOPT Freq TightSCF Grid3 FinalGrid5 XYZFile
|  2> % pal
|  3>     nprocs 8
|  4> end
|  5> %method
|  6>     SymThresh 5.0e-2
|  7> end
|  8> % geom
|  9>     MaxIter 10
| 10> end
| 11> % maxcore 2000
| 12> % output
| 13>     printlevel mini
| 14>     print[ P_Basis ] 0
| 15>     print[ P_SCFInfo ] 1
| 16>     print[ P_SCFIterInfo ] 1
| 17>     print[ P_OrbEn ] 0
| 18>     print[ P_Cartesian ] 0
| 19> end
| 20> % elprop
| 21>     Dipole false
| 22> end
| 23> *xyz 1 1
| 24>  C        1.0146758632    -0.7669776895    -0.2597211695
| 25>  C        2.0795486407     0.2989621220    -0.4678168234
| 26>  C        2.9806648418     0.0770149342    -1.6728424117
| 27>  C        4.0520205068     1.1319864214    -1.8258524358
| 28>  N        2.1148094987     0.0380909374    -2.9173352024
| 29>  C        2.7582076925    -0.4757702800    -4.1539865764
| 30>  H        0.4940504654    -0.5991283593     0.6834248225
| 31>  H        1.4486600155    -1.7689916824    -0.2184518497
| 32>  H        0.2316016995    -0.7614874562    -1.0277433517
| 33>  H        1.6264216380     1.2956346133    -0.5303527017
| 34>  H        2.7384105031     0.3295981382     0.4036019604
| 35>  H        3.4261119417    -0.9211154005    -1.6200846210
| 36>  H        3.6167520352     2.1288486047    -1.9439180809
| 37>  H        4.7255749834     0.9364586151    -2.6607996062
| 38>  H        4.6602254572     1.1500137211    -0.9207937677
| 39>  H        1.2980665082    -0.5371278530    -2.6995016130
| 40>  H        1.7583300387     0.9817499567    -3.0841399993
| 41>  H        3.1291693021    -1.4802392467    -3.9609371459
| 42>  H        3.5796582461     0.1790841129    -4.4314739375
| 43>  H        2.0193401224    -0.4996742094    -4.9535654891
| 44> *
| 45>
| 46>                          ****END OF INPUT****
 Total Charge           Charge          ....    1
 Multiplicity           Mult            ....    1
 Number of Electrons    NEL             ....   50
FINAL SINGLE POINT ENERGY      -253.263729788679
FINAL SINGLE POINT ENERGY      -253.263731516182

CARTESIAN COORDINATES (ANGSTROEM)
---------------------------------
  C      2.124243    0.001459   -1.030347
  C      0.723968    0.566974   -1.212759
  C     -0.358099   -0.123137   -0.396412
  C     -1.740603    0.438122   -0.637840
  N      0.000282   -0.001252    1.072578
  C     -0.758791   -0.866390    2.012292
  H      2.813330    0.468466   -1.734436
  H      2.151948   -1.075771   -1.213612
  H      2.549504    0.193388   -0.037970
  H      0.707713    1.643468   -1.003758
  H      0.426109    0.466747   -2.259296
  H     -0.338066   -1.199585   -0.592591
  H     -1.789229    1.501481   -0.385198
  H     -2.519530   -0.093654   -0.090423
  H     -1.976232    0.346308   -1.698522
  H      0.998172   -0.207131    1.157963
  H     -0.109270    0.978281    1.344691
  H     -0.631438   -1.903757    1.708947
  H     -1.810356   -0.594775    1.983168
  H     -0.368859   -0.722581    3.018584

FINAL SINGLE POINT ENERGY      -253.263732271672
                    ***********************HURRAY********************
 Multiplicity           Mult            ....    1
 Number of Electrons    NEL             ....   50
 Basis Dimension        Dim             ....  270
FINAL SINGLE POINT ENERGY      -253.263732578635

VIBRATIONAL FREQUENCIES
-----------------------

   0:         0.00 cm**-1
   1:         0.00 cm**-1
   2:         0.00 cm**-1
   3:         0.00 cm**-1
   4:         0.00 cm**-1
   5:         0.00 cm**-1
   6:        62.78 cm**-1
   7:       102.30 cm**-1
   8:       197.75 cm**-1
   9:       211.46 cm**-1
  10:       228.31 cm**-1
  11:       256.29 cm**-1
  12:       294.37 cm**-1
  13:       389.93 cm**-1
  14:       447.37 cm**-1
  15:       474.60 cm**-1
  16:       744.05 cm**-1
  17:       806.87 cm**-1
  18:       840.52 cm**-1
  19:       876.90 cm**-1
  20:       974.23 cm**-1
  21:      1004.41 cm**-1
  22:      1032.61 cm**-1
  23:      1044.64 cm**-1
  24:      1066.50 cm**-1
  25:      1097.28 cm**-1
  26:      1165.96 cm**-1
  27:      1208.36 cm**-1
  28:      1217.78 cm**-1
  29:      1298.35 cm**-1
  30:      1320.19 cm**-1
  31:      1352.93 cm**-1
  32:      1384.12 cm**-1
  33:      1407.97 cm**-1
  34:      1413.74 cm**-1
  35:      1421.69 cm**-1
  36:      1432.38 cm**-1
  37:      1457.28 cm**-1
  38:      1468.57 cm**-1
  39:      1485.06 cm**-1
  40:      1488.34 cm**-1
  41:      1490.16 cm**-1
  42:      1495.29 cm**-1
  43:      1502.69 cm**-1
  44:      1509.17 cm**-1
  45:      1647.16 cm**-1
  46:      3032.04 cm**-1
  47:      3045.72 cm**-1
  48:      3058.32 cm**-1
  49:      3082.53 cm**-1
  50:      3096.61 cm**-1
  51:      3098.17 cm**-1
  52:      3117.66 cm**-1
  53:      3140.79 cm**-1
  54:      3147.70 cm**-1
  55:      3156.47 cm**-1
  56:      3190.06 cm**-1
  57:      3206.91 cm**-1
  58:      3428.14 cm**-1
  59:      3479.07 cm**-1

IR SPECTRUM
-----------

 Mode    freq (cm**-1)   T**2         TX         TY         TZ
-------------------------------------------------------------------
   6:        62.78    2.098348  (  0.811295  -1.198871  -0.053453)
   7:       102.30    1.475066  (  0.691886  -0.449641  -0.891170)
   8:       197.75    0.434614  (  0.366672   0.355765  -0.416650)
   9:       211.46    1.281630  ( -0.523965  -0.609508   0.797240)
  10:       228.31    4.886024  ( -1.108408   0.101854   1.909733)
  11:       256.29    3.270100  (  1.244286  -0.832872  -1.013990)
  12:       294.37    1.524960  (  0.594175   0.363227  -1.019795)
  13:       389.93    2.570936  ( -1.482082   0.390919  -0.470691)
  14:       447.37    2.734864  ( -0.214582   1.131588  -1.186729)
  15:       474.60    1.421226  ( -0.754750  -0.185779   0.903916)
  16:       744.05    1.686252  (  0.609073  -1.146852   0.003460)
  17:       806.87   10.450534  ( -1.879150   0.982571  -2.440058)
  18:       840.52    7.415492  ( -1.923854   1.622790   1.039630)
  19:       876.90    4.685349  (  0.817779  -0.609968   1.909064)
  20:       974.23    5.719016  (  1.606604   1.744886   0.305306)
  21:      1004.41    2.955761  ( -0.736655   0.296008   1.524952)
  22:      1032.61    1.739443  ( -0.559058  -0.534188   1.068429)
  23:      1044.64   15.506710  ( -0.894547  -1.777290   3.398196)
  24:      1066.50    9.320508  ( -0.134979  -0.024167  -3.049870)
  25:      1097.28   13.003043  (  0.007963   0.328897  -3.590934)
  26:      1165.96    1.587091  (  0.668505   0.620098   0.869293)
  27:      1208.36    5.819434  ( -1.645126  -0.282271   1.741642)
  28:      1217.78    3.863743  (  1.302607  -0.151266  -1.464266)
  29:      1298.35    0.879116  (  0.412284  -0.069888   0.839199)
  30:      1320.19    1.246832  ( -0.691717  -0.298482   0.824177)
  31:      1352.93   10.137495  (  0.751004   1.270300  -2.821317)
  32:      1384.12   20.216392  ( -1.811517  -0.111196   4.113689)
  33:      1407.97    3.583134  ( -0.932206  -0.280999   1.623320)
  34:      1413.74   57.643767  ( -0.453742  -2.752400   7.061316)
  35:      1421.69   15.444288  (  3.698839  -1.327426   0.028641)
  36:      1432.38    9.265384  (  2.980797  -0.045015  -0.614986)
  37:      1457.28    7.683330  ( -1.047330  -1.018638   2.355590)
  38:      1468.57    1.847094  ( -1.228229   0.301837   0.497436)
  39:      1485.06    4.203217  ( -1.164621   0.675413   1.546187)
  40:      1488.34    7.704221  (  1.269127  -1.156379  -2.180900)
  41:      1490.16   26.979630  ( -1.159866   4.785856  -1.652249)
  42:      1495.29   20.737489  (  2.094295   1.697738   3.670028)
  43:      1502.69   12.687313  ( -1.786451   1.321482   2.783809)
  44:      1509.17   27.736528  (  2.065847   2.942268   3.848619)
  45:      1647.16   42.390924  (  5.047439   3.765846   1.653084)
  46:      3032.04   21.912367  (  1.114982  -0.916040   4.453095)
  47:      3045.72    6.337604  (  1.283934  -2.164871   0.049494)
  48:      3058.32    3.250262  (  0.585161  -0.836389  -1.486035)
  49:      3082.53    6.288422  (  1.256483  -2.167362   0.110520)
  50:      3096.61    0.272935  ( -0.308319  -0.039619   0.419887)
  51:      3098.17    4.942728  ( -0.591455   1.302790   1.701660)
  52:      3117.66   10.906307  ( -0.366561  -2.008087  -2.596060)
  53:      3140.79    6.080900  (  1.017182   2.235290  -0.222974)
  54:      3147.70    2.393292  (  0.448278   1.440218  -0.343674)
  55:      3156.47    3.320234  ( -1.423090  -0.492389   1.025964)
  56:      3190.06    0.056636  ( -0.155829  -0.179869  -0.000542)
  57:      3206.91    0.161180  (  0.181302   0.156892  -0.322017)
  58:      3428.14   44.202065  ( -5.818096  -3.210406  -0.212403)
  59:      3479.07   72.501460  (  6.064487  -5.300329  -2.762241)

--------------------------
THERMOCHEMISTRY AT 298.15K
--------------------------

Temperature         ... 298.15 K
Pressure            ... 1.00 atm
Total Mass          ... 88.17 AMU

Throughout the following assumptions are being made:
  (1) The electronic state is orbitally nondegenerate
  (2) There are no thermally accessible electronically excited states
  (3) Hindered rotations indicated by low frequency modes) are not
      treated as such but are treated as vibrations and this may
      case some error
  (4) All equations used are the standard statistical mechanics
      equations for an ideal gas
  (5) All vibrations are strinctly harmonic

------------
INNER ENERGY
------------

The inner energy is: U= E(el) + E(ZPE) + E(vib) + E(rot) + E(trans)
    E(el)   - is the total energy from the electronic structure calculation
              = E(kin-el) + E(nuc-el) + E(el-el) + E(nuc-nuc)
    E(ZPE)  - the the zero temperature vibrational energy from the frequency calculation
    E(vib)  - the the finite temperature correction to E(ZPE) due to population
              of excietd vibrational states
    E(rot)  - is the rotational thermal energy
    E(trans)- is the translational thermal energy

Summary of contributions to the inner energy U:
Electronic energy                ...   -253.26373258 Eh
Zero point energy                ...      0.19273420 Eh     120.94 kcal/mol
Thermal vibrational correction   ...      0.00555203 Eh       3.48 kcal/mol
Thermal rotational correction    ...      0.00141627 Eh       0.89 kcal/mol
Thermal translational correction ...      0.00141627 Eh       0.89 kcal/mol
-----------------------------------------------------------------------
Total thermal energy                   -253.06261380 Eh

Summary of corrections to the electronic energy:
(perhaps to be used in another calculation)
Total thermal correction                  0.00838457 Eh       5.26 kcal/mol
Non-thermal (ZPE) correction              0.19273420 Eh     120.94 kcal/mol
-----------------------------------------------------------------------
Total correction                          0.20111877 Eh     126.20 kcal/mol

--------
ENTHALPY
--------

The enthalpy is H = U + kB*T
                kB is Boltzmann's constant
Total free energy                 ...   -253.06261380 Eh
Thermal Enthalpy correction       ...      0.00094421 Eh       0.59 kcal/mol
-----------------------------------------------------------------------
Total Enthalpy                    ...   -253.06166960 Eh

-------
ENTROPY
-------

The entropy contributions are T*S = T*(S(el)+S(vib)+S(rot)+S(trans)
     S(el)   - electronic entropy
     S(vib)  - vibrational entropy
     S(rot)  - rotational entropy
     S(trans)- translational entropy
The entropies will be listed as mutliplied by the temperature to get
units of energy

Electronic entropy                ...      0.00000000 Eh      0.00 kcal/mol
Vibrational entropy               ...      0.01006901 Eh      6.32 kcal/mol
Rotational entropy                ...      0.01191043 Eh      7.47 kcal/mol
Translational entropy             ...      0.01869299 Eh     11.73 kcal/mol
-----------------------------------------------------------------------
Final entropy term                ...      0.04067244 Eh     25.52 kcal/mol

CAUTION: The rotational entropy is not quite correctly treated here
         because it includes a symmetry number that is not yet correctly
         implemented in ORCA!
For a nonlinear molecule the correct rotational entropy is:
    S(rot) = R*(ln(qrot/sn)+1.5)
    R    = 8.31441 J/mol/K = 1.987191683e-3 kcal/mol/K
    qrot = 201425.6601097
    sn is the rotational symmetry number. We have assumed 3 here
       if it is different for your molecule then you should correct
       the printed rotational entropy by manually evaluating the equation
       as given above

For convenience we print out the resulting values for sn=1 - 12:
 sn= 1  qrot/sn=  201425.6601 T*S(rot)=     8.12 kcal/mol T*S(tot)=    26.17 kcal/mol
 sn= 2  qrot/sn=  100712.8301 T*S(rot)=     7.71 kcal/mol T*S(tot)=    25.76 kcal/mol
 sn= 3  qrot/sn=   67141.8867 T*S(rot)=     7.47 kcal/mol T*S(tot)=    25.52 kcal/mol
 sn= 4  qrot/sn=   50356.4150 T*S(rot)=     7.30 kcal/mol T*S(tot)=    25.35 kcal/mol
 sn= 5  qrot/sn=   40285.1320 T*S(rot)=     7.17 kcal/mol T*S(tot)=    25.22 kcal/mol
 sn= 6  qrot/sn=   33570.9434 T*S(rot)=     7.06 kcal/mol T*S(tot)=    25.11 kcal/mol
 sn= 7  qrot/sn=   28775.0943 T*S(rot)=     6.97 kcal/mol T*S(tot)=    25.02 kcal/mol
 sn= 8  qrot/sn=   25178.2075 T*S(rot)=     6.89 kcal/mol T*S(tot)=    24.94 kcal/mol
 sn= 9  qrot/sn=   22380.6289 T*S(rot)=     6.82 kcal/mol T*S(tot)=    24.87 kcal/mol
 sn=10  qrot/sn=   20142.5660 T*S(rot)=     6.76 kcal/mol T*S(tot)=    24.81 kcal/mol
 sn=11  qrot/sn=   18311.4236 T*S(rot)=     6.70 kcal/mol T*S(tot)=    24.75 kcal/mol
 sn=12  qrot/sn=   16785.4717 T*S(rot)=     6.65 kcal/mol T*S(tot)=    24.70 kcal/mol

-------------------
GIBBS FREE ENTHALPY
-------------------

The Gibbs free enthalpy is G = H - T*S

Total enthalpy                    ...   -253.06166960 Eh
Total entropy correction          ...     -0.04067244 Eh    -25.52 kcal/mol
-----------------------------------------------------------------------
Final Gibbs free enthalpy         ...   -253.10234203 Eh

For completeness - the Gibbs free enthalpy minus the electronic energy
G-E(el)                           ...      0.16139054 Eh    101.27 kcal/mol

                             ****ORCA TERMINATED NORMALLY****
TOTAL RUN TIME: 0 days 0 hours 28 minutes 6 seconds 871 msec
