                         Program Version 3.0.3 - RELEASE   -
|  1> ! NORI PBE0 def2-TZVP UseSym TightOPT Freq TightSCF Grid3 FinalGrid5 XYZFile
|  2> % pal
|  3>     nprocs 8
|  4> end
|  5> %method
|  6>     SymThresh 5.0e-2
|  7> end
|  8> % geom
|  9>     MaxIter 10
| 10> end
| 11> % maxcore 2000
| 12> % output
| 13>     printlevel mini
| 14>     print[ P_Basis ] 0
| 15>     print[ P_SCFInfo ] 1
| 16>     print[ P_SCFIterInfo ] 1
| 17>     print[ P_OrbEn ] 0
| 18>     print[ P_Cartesian ] 0
| 19> end
| 20> % elprop
| 21>     Dipole false
| 22> end
| 23> *xyz 1 1
| 24>  C        1.0937142894     0.3312227067     0.3581325835
| 25>  C        2.5131756544     0.0298278127    -0.0021091904
| 26>  C        3.2572038954    -0.9997797797     0.4593802526
| 27>  C        3.1686230178     0.8391048274    -0.9494586699
| 28>  N        4.3448225978     1.0854772030    -1.5646378079
| 29>  N        3.0186546205     1.8412987681    -1.7906351172
| 30>  H        1.0192768903     1.2725773343     0.9079624976
| 31>  H        0.6864311999    -0.4604306200     0.9853574150
| 32>  H        0.4744385793     0.4142921308    -0.5376737158
| 33>  H        4.2738680039    -1.1660719138     0.1186227410
| 34>  H        2.8505585376    -1.7088478003     1.1731113686
| 35>  H        5.0250805521     1.5553484199    -0.9559372629
| 36>  H        2.8822221616     2.7886909110    -1.4285150943
| 37> *
| 38>
| 39>                          ****END OF INPUT****
 Total Charge           Charge          ....    1
 Multiplicity           Mult            ....    1
 Number of Electrons    NEL             ....   44
FINAL SINGLE POINT ENERGY      -265.524721894019

CARTESIAN COORDINATES (ANGSTROEM)
---------------------------------
  C      0.435780    0.079517   -1.999496
  C     -0.409331   -0.021846   -0.770087
  C     -1.751326   -0.176824   -0.728984
  C      0.211521   -0.011502    0.493375
  N     -0.000175    0.000830    1.826732
  N      1.370658   -0.000665    1.118537
  H      0.894695    1.067779   -2.080475
  H     -0.169528   -0.086665   -2.889089
  H      1.236346   -0.663496   -1.983583
  H     -2.285056   -0.276803    0.210499
  H     -2.337124   -0.228939   -1.640782
  H     -0.319088    0.912874    2.173955
  H      1.951641    0.841405    1.090871

FINAL SINGLE POINT ENERGY      -265.524722407742
                    ***********************HURRAY********************
 Multiplicity           Mult            ....    1
 Number of Electrons    NEL             ....   44
 Basis Dimension        Dim             ....  228
FINAL SINGLE POINT ENERGY      -265.524722806464

VIBRATIONAL FREQUENCIES
-----------------------

   0:         0.00 cm**-1
   1:         0.00 cm**-1
   2:         0.00 cm**-1
   3:         0.00 cm**-1
   4:         0.00 cm**-1
   5:         0.00 cm**-1
   6:       104.72 cm**-1
   7:       129.60 cm**-1
   8:       186.51 cm**-1
   9:       272.87 cm**-1
  10:       354.20 cm**-1
  11:       461.81 cm**-1
  12:       538.53 cm**-1
  13:       581.90 cm**-1
  14:       645.83 cm**-1
  15:       691.23 cm**-1
  16:       849.70 cm**-1
  17:       972.06 cm**-1
  18:       990.04 cm**-1
  19:      1017.91 cm**-1
  20:      1055.37 cm**-1
  21:      1079.09 cm**-1
  22:      1085.39 cm**-1
  23:      1097.11 cm**-1
  24:      1290.55 cm**-1
  25:      1405.11 cm**-1
  26:      1416.38 cm**-1
  27:      1441.41 cm**-1
  28:      1469.40 cm**-1
  29:      1481.79 cm**-1
  30:      1643.87 cm**-1
  31:      1745.66 cm**-1
  32:      3065.50 cm**-1
  33:      3134.02 cm**-1
  34:      3163.73 cm**-1
  35:      3171.54 cm**-1
  36:      3263.97 cm**-1
  37:      3412.77 cm**-1
  38:      3459.80 cm**-1

IR SPECTRUM
-----------

 Mode    freq (cm**-1)   T**2         TX         TY         TZ
-------------------------------------------------------------------
   6:       104.72    1.490526  ( -1.137242  -0.136831   0.422474)
   7:       129.60   14.459327  (  3.368566  -1.208551  -1.285105)
   8:       186.51    1.953318  ( -1.377671  -0.163657  -0.168991)
   9:       272.87   15.987634  ( -1.036971   1.002044  -3.729374)
  10:       354.20    0.003068  (  0.008249  -0.034039   0.042905)
  11:       461.81  150.220928  ( 12.006104  -0.617146  -2.386109)
  12:       538.53   31.595070  ( -1.584503  -3.105597  -4.409046)
  13:       581.90  106.647815  ( 10.124186  -2.012789  -0.312012)
  14:       645.83   10.118855  (  2.946826   0.376010   1.137404)
  15:       691.23   24.106457  ( -1.902448   1.379279   4.311002)
  16:       849.70    7.928432  ( -2.105159   0.007914  -1.869940)
  17:       972.06   25.921869  (  3.883425  -0.642914   3.229170)
  18:       990.04   43.288016  ( -3.130090   3.308369  -4.748184)
  19:      1017.91   11.881093  (  2.521411   0.950068  -2.149639)
  20:      1055.37   30.285359  ( -1.453534  -1.963453  -4.931273)
  21:      1079.09  127.357554  (  3.432041  -2.452794  10.467209)
  22:      1085.39   17.584067  ( -0.006475   3.611946   2.130228)
  23:      1097.11   45.870686  ( -4.888857  -0.059667  -4.686811)
  24:      1290.55    4.487974  ( -2.081071  -0.327232  -0.223688)
  25:      1405.11    2.311882  (  1.013270   0.121424   1.127130)
  26:      1416.38   27.179761  (  5.151769   0.696387  -0.392537)
  27:      1441.41    8.077464  ( -2.100747   0.044790  -1.913719)
  28:      1469.40   16.676855  (  0.353947  -4.056019  -0.316680)
  29:      1481.79   29.690375  (  4.951539   0.726401   2.155221)
  30:      1643.87   98.045370  (  5.807558   0.656004   7.992953)
  31:      1745.66  380.867543  ( 14.166434   1.611841  13.325977)
  32:      3065.50    0.508492  (  0.574839  -0.246539  -0.342447)
  33:      3134.02    0.021270  ( -0.051082  -0.100270   0.092770)
  34:      3163.73    4.810863  ( -2.156795  -0.358804  -0.174240)
  35:      3171.54    0.214866  ( -0.460078   0.019192  -0.053158)
  36:      3263.97    6.384337  ( -0.591429   0.040601  -2.456196)
  37:      3412.77   75.349592  ( -3.366953   4.837970   6.372383)
  38:      3459.80  173.404404  (  9.821910   8.001089   3.594031)

--------------------------
THERMOCHEMISTRY AT 298.15K
--------------------------

Temperature         ... 298.15 K
Pressure            ... 1.00 atm
Total Mass          ... 83.11 AMU

Throughout the following assumptions are being made:
  (1) The electronic state is orbitally nondegenerate
  (2) There are no thermally accessible electronically excited states
  (3) Hindered rotations indicated by low frequency modes) are not
      treated as such but are treated as vibrations and this may
      case some error
  (4) All equations used are the standard statistical mechanics
      equations for an ideal gas
  (5) All vibrations are strinctly harmonic

------------
INNER ENERGY
------------

The inner energy is: U= E(el) + E(ZPE) + E(vib) + E(rot) + E(trans)
    E(el)   - is the total energy from the electronic structure calculation
              = E(kin-el) + E(nuc-el) + E(el-el) + E(nuc-nuc)
    E(ZPE)  - the the zero temperature vibrational energy from the frequency calculation
    E(vib)  - the the finite temperature correction to E(ZPE) due to population
              of excietd vibrational states
    E(rot)  - is the rotational thermal energy
    E(trans)- is the translational thermal energy

Summary of contributions to the inner energy U:
Electronic energy                ...   -265.52472281 Eh
Zero point energy                ...      0.10634346 Eh      66.73 kcal/mol
Thermal vibrational correction   ...      0.00400808 Eh       2.52 kcal/mol
Thermal rotational correction    ...      0.00141627 Eh       0.89 kcal/mol
Thermal translational correction ...      0.00141627 Eh       0.89 kcal/mol
-----------------------------------------------------------------------
Total thermal energy                   -265.41153872 Eh

Summary of corrections to the electronic energy:
(perhaps to be used in another calculation)
Total thermal correction                  0.00684062 Eh       4.29 kcal/mol
Non-thermal (ZPE) correction              0.10634346 Eh      66.73 kcal/mol
-----------------------------------------------------------------------
Total correction                          0.11318409 Eh      71.02 kcal/mol

--------
ENTHALPY
--------

The enthalpy is H = U + kB*T
                kB is Boltzmann's constant
Total free energy                 ...   -265.41153872 Eh
Thermal Enthalpy correction       ...      0.00094421 Eh       0.59 kcal/mol
-----------------------------------------------------------------------
Total Enthalpy                    ...   -265.41059451 Eh

-------
ENTROPY
-------

The entropy contributions are T*S = T*(S(el)+S(vib)+S(rot)+S(trans)
     S(el)   - electronic entropy
     S(vib)  - vibrational entropy
     S(rot)  - rotational entropy
     S(trans)- translational entropy
The entropies will be listed as mutliplied by the temperature to get
units of energy

Electronic entropy                ...      0.00000000 Eh      0.00 kcal/mol
Vibrational entropy               ...      0.00696328 Eh      4.37 kcal/mol
Rotational entropy                ...      0.01152905 Eh      7.23 kcal/mol
Translational entropy             ...      0.01860929 Eh     11.68 kcal/mol
-----------------------------------------------------------------------
Final entropy term                ...      0.03710162 Eh     23.28 kcal/mol

CAUTION: The rotational entropy is not quite correctly treated here
         because it includes a symmetry number that is not yet correctly
         implemented in ORCA!
For a nonlinear molecule the correct rotational entropy is:
    S(rot) = R*(ln(qrot/sn)+1.5)
    R    = 8.31441 J/mol/K = 1.987191683e-3 kcal/mol/K
    qrot = 134490.6489837
    sn is the rotational symmetry number. We have assumed 3 here
       if it is different for your molecule then you should correct
       the printed rotational entropy by manually evaluating the equation
       as given above

For convenience we print out the resulting values for sn=1 - 12:
 sn= 1  qrot/sn=  134490.6490 T*S(rot)=     7.89 kcal/mol T*S(tot)=    23.93 kcal/mol
 sn= 2  qrot/sn=   67245.3245 T*S(rot)=     7.47 kcal/mol T*S(tot)=    23.52 kcal/mol
 sn= 3  qrot/sn=   44830.2163 T*S(rot)=     7.23 kcal/mol T*S(tot)=    23.28 kcal/mol
 sn= 4  qrot/sn=   33622.6622 T*S(rot)=     7.06 kcal/mol T*S(tot)=    23.11 kcal/mol
 sn= 5  qrot/sn=   26898.1298 T*S(rot)=     6.93 kcal/mol T*S(tot)=    22.98 kcal/mol
 sn= 6  qrot/sn=   22415.1082 T*S(rot)=     6.82 kcal/mol T*S(tot)=    22.87 kcal/mol
 sn= 7  qrot/sn=   19212.9499 T*S(rot)=     6.73 kcal/mol T*S(tot)=    22.78 kcal/mol
 sn= 8  qrot/sn=   16811.3311 T*S(rot)=     6.65 kcal/mol T*S(tot)=    22.70 kcal/mol
 sn= 9  qrot/sn=   14943.4054 T*S(rot)=     6.58 kcal/mol T*S(tot)=    22.63 kcal/mol
 sn=10  qrot/sn=   13449.0649 T*S(rot)=     6.52 kcal/mol T*S(tot)=    22.57 kcal/mol
 sn=11  qrot/sn=   12226.4226 T*S(rot)=     6.46 kcal/mol T*S(tot)=    22.51 kcal/mol
 sn=12  qrot/sn=   11207.5541 T*S(rot)=     6.41 kcal/mol T*S(tot)=    22.46 kcal/mol

-------------------
GIBBS FREE ENTHALPY
-------------------

The Gibbs free enthalpy is G = H - T*S

Total enthalpy                    ...   -265.41059451 Eh
Total entropy correction          ...     -0.03710162 Eh    -23.28 kcal/mol
-----------------------------------------------------------------------
Final Gibbs free enthalpy         ...   -265.44769613 Eh

For completeness - the Gibbs free enthalpy minus the electronic energy
G-E(el)                           ...      0.07702667 Eh     48.33 kcal/mol

                             ****ORCA TERMINATED NORMALLY****
TOTAL RUN TIME: 0 days 0 hours 13 minutes 23 seconds 772 msec
