                         Program Version 3.0.3 - RELEASE   -
|  1> ! NORI PBE0 def2-TZVP UseSym TightOPT Freq TightSCF Grid3 FinalGrid5 XYZFile
|  2> % pal
|  3>     nprocs 8
|  4> end
|  5> %method
|  6>     SymThresh 5.0e-2
|  7> end
|  8> % geom
|  9>     MaxIter 10
| 10> end
| 11> % maxcore 2000
| 12> % output
| 13>     printlevel mini
| 14>     print[ P_Basis ] 0
| 15>     print[ P_SCFInfo ] 1
| 16>     print[ P_SCFIterInfo ] 1
| 17>     print[ P_OrbEn ] 0
| 18>     print[ P_Cartesian ] 0
| 19> end
| 20> % elprop
| 21>     Dipole false
| 22> end
| 23> *xyz 1 1
| 24>  C        1.0959739791     0.0547991441    -0.0891804851
| 25>  C        2.6481164078     0.0339303874     0.0728943332
| 26>  C        3.0909599316     0.4855019407     1.4601738259
| 27>  C        3.0212511022    -1.3291351734    -0.2132258357
| 28>  N        3.3843446533    -2.1802765142    -1.1578333716
| 29>  N        3.1340855775    -2.5344271476     0.3170256177
| 30>  H        0.7799217142    -0.2288161082    -1.0931839723
| 31>  H        0.7867771351     1.0848837488     0.0921226321
| 32>  H        0.6165885173    -0.5907586362     0.6468316604
| 33>  H        3.0745712868     0.6520430498    -0.7239803769
| 34>  H        2.6526802753    -0.1407070844     2.2393104867
| 35>  H        2.7478344095     1.5078877735     1.6197800486
| 36>  H        4.1771514254     0.4756930964     1.5601125326
| 37>  H        2.6914369337    -2.6048572904    -1.7762630262
| 38>  H        3.9902466513    -2.8096511864     0.8014759306
| 39> *
| 40>
| 41>                          ****END OF INPUT****
 Total Charge           Charge          ....    1
 Multiplicity           Mult            ....    1
 Number of Electrons    NEL             ....   46
FINAL SINGLE POINT ENERGY      -266.753544019676

CARTESIAN COORDINATES (ANGSTROEM)
---------------------------------
  C     -0.832691    1.289117   -1.114221
  C     -0.657079   -0.193657   -0.658756
  C      0.048011   -1.042816   -1.710524
  C      0.086309   -0.105389    0.573546
  N      0.000106    0.000325    1.888908
  N      1.304379   -0.000018    1.075354
  H     -1.372356    1.887187   -0.379787
  H     -1.420662    1.256063   -2.032206
  H      0.131625    1.748975   -1.330666
  H     -1.648046   -0.582992   -0.402621
  H      1.031840   -0.636871   -1.953381
  H     -0.550912   -1.037300   -2.621382
  H      0.157015   -2.078335   -1.386086
  H     -0.173848    0.903367    2.332862
  H      1.868686   -0.834115    1.246073

FINAL SINGLE POINT ENERGY      -266.753544462834
                    ***********************HURRAY********************
 Multiplicity           Mult            ....    1
 Number of Electrons    NEL             ....   46
 Basis Dimension        Dim             ....  240
FINAL SINGLE POINT ENERGY      -266.753544689224

VIBRATIONAL FREQUENCIES
-----------------------

   0:         0.00 cm**-1
   1:         0.00 cm**-1
   2:         0.00 cm**-1
   3:         0.00 cm**-1
   4:         0.00 cm**-1
   5:         0.00 cm**-1
   6:        50.46 cm**-1
   7:       153.83 cm**-1
   8:       193.63 cm**-1
   9:       199.00 cm**-1
  10:       259.11 cm**-1
  11:       329.25 cm**-1
  12:       482.24 cm**-1
  13:       531.76 cm**-1
  14:       619.25 cm**-1
  15:       690.57 cm**-1
  16:       831.59 cm**-1
  17:       879.77 cm**-1
  18:       945.59 cm**-1
  19:       966.54 cm**-1
  20:       980.28 cm**-1
  21:      1004.31 cm**-1
  22:      1095.57 cm**-1
  23:      1108.29 cm**-1
  24:      1170.73 cm**-1
  25:      1205.51 cm**-1
  26:      1251.48 cm**-1
  27:      1314.53 cm**-1
  28:      1383.52 cm**-1
  29:      1395.84 cm**-1
  30:      1420.14 cm**-1
  31:      1469.39 cm**-1
  32:      1473.65 cm**-1
  33:      1489.96 cm**-1
  34:      1498.55 cm**-1
  35:      1747.47 cm**-1
  36:      3068.78 cm**-1
  37:      3070.57 cm**-1
  38:      3080.91 cm**-1
  39:      3153.19 cm**-1
  40:      3160.87 cm**-1
  41:      3162.84 cm**-1
  42:      3169.43 cm**-1
  43:      3474.64 cm**-1
  44:      3480.75 cm**-1

IR SPECTRUM
-----------

 Mode    freq (cm**-1)   T**2         TX         TY         TZ
-------------------------------------------------------------------
   6:        50.46    0.140293  (  0.363350  -0.069530  -0.058615)
   7:       153.83    1.945532  ( -0.799247   0.519489  -1.018267)
   8:       193.63    0.705550  (  0.706786  -0.143007   0.430757)
   9:       199.00    0.135596  (  0.311261  -0.095859   0.171823)
  10:       259.11    1.509110  ( -0.573563   0.264035  -1.053765)
  11:       329.25    0.403218  (  0.594267   0.083108  -0.207745)
  12:       482.24   55.912200  ( -5.479176  -1.521621   4.855460)
  13:       531.76    2.343868  (  1.479976   0.103276   0.377987)
  14:       619.25  237.189737  (-12.944161  -3.322506   7.655024)
  15:       690.57   68.068518  (  5.955705   1.807683  -5.415752)
  16:       831.59    3.014711  ( -0.811225  -1.200496   0.956783)
  17:       879.77  154.832790  (  5.796009  -2.084904  10.811671)
  18:       945.59    4.561851  (  0.517056   1.608952   1.306053)
  19:       966.54  100.217077  ( -4.364362  -1.231797  -8.924802)
  20:       980.28  107.575991  ( -5.818455  -0.362812  -8.578458)
  21:      1004.31    2.627115  (  0.984133   0.276791  -1.257770)
  22:      1095.57    2.873516  (  1.627293  -0.409018  -0.241117)
  23:      1108.29    7.051759  ( -0.872859   1.110116  -2.248892)
  24:      1170.73    0.051251  (  0.134454   0.046167  -0.176188)
  25:      1205.51    0.963604  ( -0.039962   0.766130  -0.612415)
  26:      1251.48   10.865049  ( -1.451985   1.885196  -2.280971)
  27:      1314.53    5.170434  (  0.876176   0.744330   1.961816)
  28:      1383.52    4.317894  ( -0.799217   1.523929   1.164812)
  29:      1395.84    7.186190  ( -1.946028  -0.766698  -1.676705)
  30:      1420.14    3.750950  ( -1.881239   0.084119   0.452563)
  31:      1469.39   12.251137  ( -2.858883   1.884410   0.725894)
  32:      1473.65    1.055586  (  0.289328   0.925501  -0.339593)
  33:      1489.96   16.993211  ( -1.943659  -2.477119   2.660691)
  34:      1498.55   13.492344  ( -3.207114  -1.151344  -1.371558)
  35:      1747.47  218.061489  (  7.099764  -1.301398  12.882593)
  36:      3068.78    1.882610  ( -1.329455   0.017703  -0.338889)
  37:      3070.57    1.314768  ( -0.010561   0.779895   0.840488)
  38:      3080.91    4.687192  ( -1.572826  -1.163275  -0.927471)
  39:      3153.19    1.366008  ( -0.560196  -0.989068   0.271905)
  40:      3160.87    1.354610  ( -0.376859   1.099322   0.063867)
  41:      3162.84    5.469636  (  1.296183  -1.557780   1.167418)
  42:      3169.43    1.899706  ( -0.427496   0.153151   1.301345)
  43:      3474.64  208.153409  ( -8.996954  11.074400   2.136798)
  44:      3480.75  108.012263  ( -3.600243  -2.337070  -9.465126)

--------------------------
THERMOCHEMISTRY AT 298.15K
--------------------------

Temperature         ... 298.15 K
Pressure            ... 1.00 atm
Total Mass          ... 85.13 AMU

Throughout the following assumptions are being made:
  (1) The electronic state is orbitally nondegenerate
  (2) There are no thermally accessible electronically excited states
  (3) Hindered rotations indicated by low frequency modes) are not
      treated as such but are treated as vibrations and this may
      case some error
  (4) All equations used are the standard statistical mechanics
      equations for an ideal gas
  (5) All vibrations are strinctly harmonic

------------
INNER ENERGY
------------

The inner energy is: U= E(el) + E(ZPE) + E(vib) + E(rot) + E(trans)
    E(el)   - is the total energy from the electronic structure calculation
              = E(kin-el) + E(nuc-el) + E(el-el) + E(nuc-nuc)
    E(ZPE)  - the the zero temperature vibrational energy from the frequency calculation
    E(vib)  - the the finite temperature correction to E(ZPE) due to population
              of excietd vibrational states
    E(rot)  - is the rotational thermal energy
    E(trans)- is the translational thermal energy

Summary of contributions to the inner energy U:
Electronic energy                ...   -266.75354469 Eh
Zero point energy                ...      0.12977309 Eh      81.43 kcal/mol
Thermal vibrational correction   ...      0.00461346 Eh       2.89 kcal/mol
Thermal rotational correction    ...      0.00141627 Eh       0.89 kcal/mol
Thermal translational correction ...      0.00141627 Eh       0.89 kcal/mol
-----------------------------------------------------------------------
Total thermal energy                   -266.61632560 Eh

Summary of corrections to the electronic energy:
(perhaps to be used in another calculation)
Total thermal correction                  0.00744600 Eh       4.67 kcal/mol
Non-thermal (ZPE) correction              0.12977309 Eh      81.43 kcal/mol
-----------------------------------------------------------------------
Total correction                          0.13721909 Eh      86.11 kcal/mol

--------
ENTHALPY
--------

The enthalpy is H = U + kB*T
                kB is Boltzmann's constant
Total free energy                 ...   -266.61632560 Eh
Thermal Enthalpy correction       ...      0.00094421 Eh       0.59 kcal/mol
-----------------------------------------------------------------------
Total Enthalpy                    ...   -266.61538139 Eh

-------
ENTROPY
-------

The entropy contributions are T*S = T*(S(el)+S(vib)+S(rot)+S(trans)
     S(el)   - electronic entropy
     S(vib)  - vibrational entropy
     S(rot)  - rotational entropy
     S(trans)- translational entropy
The entropies will be listed as mutliplied by the temperature to get
units of energy

Electronic entropy                ...      0.00000000 Eh      0.00 kcal/mol
Vibrational entropy               ...      0.00847776 Eh      5.32 kcal/mol
Rotational entropy                ...      0.01160168 Eh      7.28 kcal/mol
Translational entropy             ...      0.01864324 Eh     11.70 kcal/mol
-----------------------------------------------------------------------
Final entropy term                ...      0.03872267 Eh     24.30 kcal/mol

CAUTION: The rotational entropy is not quite correctly treated here
         because it includes a symmetry number that is not yet correctly
         implemented in ORCA!
For a nonlinear molecule the correct rotational entropy is:
    S(rot) = R*(ln(qrot/sn)+1.5)
    R    = 8.31441 J/mol/K = 1.987191683e-3 kcal/mol/K
    qrot = 145244.5654936
    sn is the rotational symmetry number. We have assumed 3 here
       if it is different for your molecule then you should correct
       the printed rotational entropy by manually evaluating the equation
       as given above

For convenience we print out the resulting values for sn=1 - 12:
 sn= 1  qrot/sn=  145244.5655 T*S(rot)=     7.93 kcal/mol T*S(tot)=    24.95 kcal/mol
 sn= 2  qrot/sn=   72622.2827 T*S(rot)=     7.52 kcal/mol T*S(tot)=    24.54 kcal/mol
 sn= 3  qrot/sn=   48414.8552 T*S(rot)=     7.28 kcal/mol T*S(tot)=    24.30 kcal/mol
 sn= 4  qrot/sn=   36311.1414 T*S(rot)=     7.11 kcal/mol T*S(tot)=    24.13 kcal/mol
 sn= 5  qrot/sn=   29048.9131 T*S(rot)=     6.98 kcal/mol T*S(tot)=    24.00 kcal/mol
 sn= 6  qrot/sn=   24207.4276 T*S(rot)=     6.87 kcal/mol T*S(tot)=    23.89 kcal/mol
 sn= 7  qrot/sn=   20749.2236 T*S(rot)=     6.78 kcal/mol T*S(tot)=    23.80 kcal/mol
 sn= 8  qrot/sn=   18155.5707 T*S(rot)=     6.70 kcal/mol T*S(tot)=    23.72 kcal/mol
 sn= 9  qrot/sn=   16138.2851 T*S(rot)=     6.63 kcal/mol T*S(tot)=    23.65 kcal/mol
 sn=10  qrot/sn=   14524.4565 T*S(rot)=     6.57 kcal/mol T*S(tot)=    23.59 kcal/mol
 sn=11  qrot/sn=   13204.0514 T*S(rot)=     6.51 kcal/mol T*S(tot)=    23.53 kcal/mol
 sn=12  qrot/sn=   12103.7138 T*S(rot)=     6.46 kcal/mol T*S(tot)=    23.48 kcal/mol

-------------------
GIBBS FREE ENTHALPY
-------------------

The Gibbs free enthalpy is G = H - T*S

Total enthalpy                    ...   -266.61538139 Eh
Total entropy correction          ...     -0.03872267 Eh    -24.30 kcal/mol
-----------------------------------------------------------------------
Final Gibbs free enthalpy         ...   -266.65410406 Eh

For completeness - the Gibbs free enthalpy minus the electronic energy
G-E(el)                           ...      0.09944063 Eh     62.40 kcal/mol

                             ****ORCA TERMINATED NORMALLY****
TOTAL RUN TIME: 0 days 0 hours 17 minutes 35 seconds 728 msec
