                         Program Version 3.0.3 - RELEASE   -
|  1> ! NORI PBE0 def2-TZVP UseSym TightOPT Freq TightSCF Grid3 FinalGrid5 XYZFile
|  2> % pal
|  3>     nprocs 8
|  4> end
|  5> %method
|  6>     SymThresh 5.0e-2
|  7> end
|  8> % geom
|  9>     MaxIter 10
| 10> end
| 11> % maxcore 2000
| 12> % output
| 13>     printlevel mini
| 14>     print[ P_Basis ] 0
| 15>     print[ P_SCFInfo ] 1
| 16>     print[ P_SCFIterInfo ] 1
| 17>     print[ P_OrbEn ] 0
| 18>     print[ P_Cartesian ] 0
| 19> end
| 20> % elprop
| 21>     Dipole false
| 22> end
| 23> *xyz 1 1
| 24>  C        1.7231341197    -0.2370525494     0.7253583421
| 25>  C        3.1554558067     0.0705923298     0.3300540625
| 26>  C        3.4505995151    -0.5539083754    -1.0840647993
| 27>  C        4.8146810423    -0.2574062472    -1.4034450018
| 28>  N        6.0689062267    -0.6092382208    -1.1701463086
| 29>  N        5.6191584871     0.6015807299    -2.0029531710
| 30>  H        1.5235834224     0.1999775390     1.7053801102
| 31>  H        1.5484081219    -1.3120161705     0.7953354620
| 32>  H        1.0097199582     0.1873571754     0.0169326072
| 33>  H        3.3205222521     1.1494025559     0.2810418551
| 34>  H        3.8594045984    -0.3464545332     1.0529538588
| 35>  H        3.3019008391    -1.6348399317    -1.0369982405
| 36>  H        2.7956901209    -0.0969319351    -1.8286365390
| 37>  H        6.5170130735    -1.3250284454    -1.7452943910
| 38>  H        5.8678324159     1.4891660786    -1.5634478465
| 39> *
| 40>
| 41>                          ****END OF INPUT****
 Total Charge           Charge          ....    1
 Multiplicity           Mult            ....    1
 Number of Electrons    NEL             ....   46
FINAL SINGLE POINT ENERGY      -266.752372914496

CARTESIAN COORDINATES (ANGSTROEM)
---------------------------------
  C     -1.106640    0.308662   -2.580370
  C     -0.564001    0.638625   -1.202481
  C     -0.105720   -0.688592   -0.492137
  C      0.374351   -0.330673    0.808601
  N     -0.000873   -0.000412    2.033980
  N      1.443772    0.000404    1.509403
  H     -1.420523    1.232899   -3.068843
  H     -1.973689   -0.351663   -2.522571
  H     -0.349609   -0.163339   -3.208976
  H      0.291568    1.314051   -1.274615
  H     -1.325493    1.122424   -0.587512
  H     -0.960663   -1.362542   -0.404845
  H      0.702791   -1.148220   -1.064110
  H     -0.152749   -0.725505    2.737567
  H      1.838524    0.940927    1.459795

FINAL SINGLE POINT ENERGY      -266.752373285702
                    ***********************HURRAY********************
 Multiplicity           Mult            ....    1
 Number of Electrons    NEL             ....   46
 Basis Dimension        Dim             ....  240
FINAL SINGLE POINT ENERGY      -266.752373537219

VIBRATIONAL FREQUENCIES
-----------------------

   0:         0.00 cm**-1
   1:         0.00 cm**-1
   2:         0.00 cm**-1
   3:         0.00 cm**-1
   4:         0.00 cm**-1
   5:         0.00 cm**-1
   6:        59.09 cm**-1
   7:        80.41 cm**-1
   8:       134.06 cm**-1
   9:       253.30 cm**-1
  10:       326.09 cm**-1
  11:       383.49 cm**-1
  12:       507.09 cm**-1
  13:       604.77 cm**-1
  14:       703.16 cm**-1
  15:       760.54 cm**-1
  16:       839.01 cm**-1
  17:       891.38 cm**-1
  18:       942.25 cm**-1
  19:       976.62 cm**-1
  20:       996.48 cm**-1
  21:      1027.61 cm**-1
  22:      1096.81 cm**-1
  23:      1101.82 cm**-1
  24:      1208.69 cm**-1
  25:      1218.24 cm**-1
  26:      1242.35 cm**-1
  27:      1304.60 cm**-1
  28:      1336.08 cm**-1
  29:      1383.59 cm**-1
  30:      1411.00 cm**-1
  31:      1466.50 cm**-1
  32:      1479.39 cm**-1
  33:      1483.94 cm**-1
  34:      1493.73 cm**-1
  35:      1758.03 cm**-1
  36:      3063.05 cm**-1
  37:      3073.84 cm**-1
  38:      3085.35 cm**-1
  39:      3121.76 cm**-1
  40:      3146.69 cm**-1
  41:      3149.42 cm**-1
  42:      3158.56 cm**-1
  43:      3471.91 cm**-1
  44:      3479.38 cm**-1

IR SPECTRUM
-----------

 Mode    freq (cm**-1)   T**2         TX         TY         TZ
-------------------------------------------------------------------
   6:        59.09    0.259127  ( -0.479369  -0.032383   0.168177)
   7:        80.41    0.542267  ( -0.654751  -0.062375   0.331175)
   8:       134.06    3.276772  ( -0.474394  -0.191989  -1.736336)
   9:       253.30    0.039020  ( -0.145764  -0.039124   0.127445)
  10:       326.09    5.614647  (  0.597036  -0.268461   2.277306)
  11:       383.49    8.952037  (  2.905504  -0.574597  -0.424175)
  12:       507.09    1.307273  (  0.840742  -0.418121   0.652381)
  13:       604.77  340.112503  ( 17.501371  -3.675364  -4.506241)
  14:       703.16   20.491294  (  2.644036   0.149227   3.671253)
  15:       760.54   11.275925  (  3.273384   0.175132  -0.728156)
  16:       839.01   61.419987  ( -3.344719   0.384940  -7.077052)
  17:       891.38   14.338392  (  2.806317  -0.051522   2.541716)
  18:       942.25  198.811254  ( -4.600621  -0.487492 -13.319456)
  19:       976.62  157.969262  (  4.902911   1.914023  11.413467)
  20:       996.48   17.930709  ( -1.029535   3.860768   1.401869)
  21:      1027.61    2.001236  (  1.180662   0.697305   0.347908)
  22:      1096.81   25.980280  (  1.509418  -3.021610   3.817304)
  23:      1101.82   11.631059  (  3.069597  -0.783153  -1.263052)
  24:      1208.69    3.157169  ( -0.382041   1.159226  -1.291282)
  25:      1218.24    1.013554  ( -0.451094   0.526319  -0.730108)
  26:      1242.35   24.523600  ( -1.891398   2.463698  -3.856995)
  27:      1304.60    2.104693  (  1.311818   0.405445  -0.468445)
  28:      1336.08   25.300900  ( -2.081546   1.297396  -4.391450)
  29:      1383.59    2.872950  (  0.833251   1.142964  -0.933958)
  30:      1411.00    1.141103  ( -0.002678  -1.058991  -0.140118)
  31:      1466.50    3.422983  ( -0.613444   1.434997  -0.993708)
  32:      1479.39   15.809765  ( -3.626217  -0.394004   1.582742)
  33:      1483.94    3.348471  ( -0.793861   0.685385  -1.499501)
  34:      1493.73   17.935280  (  0.525324   3.518490   2.297726)
  35:      1758.03  277.282269  (  6.067061   1.346767  15.448601)
  36:      3063.05    1.627453  ( -0.192955  -0.904493  -0.878701)
  37:      3073.84    9.479414  ( -0.549191  -2.788184  -1.184834)
  38:      3085.35    1.512417  ( -0.007762  -0.371428  -1.172347)
  39:      3121.76    1.006679  (  0.973694   0.183284  -0.158132)
  40:      3146.69    5.354831  (  0.972771   1.377362   1.584747)
  41:      3149.42   12.847510  (  3.213416   0.144921  -1.581285)
  42:      3158.56    0.101336  ( -0.168005   0.215453   0.163371)
  43:      3471.91  212.650705  (  5.681090   9.750486  -9.236014)
  44:      3479.38  114.893079  ( -5.905146  -5.396997  -7.134056)

--------------------------
THERMOCHEMISTRY AT 298.15K
--------------------------

Temperature         ... 298.15 K
Pressure            ... 1.00 atm
Total Mass          ... 85.13 AMU

Throughout the following assumptions are being made:
  (1) The electronic state is orbitally nondegenerate
  (2) There are no thermally accessible electronically excited states
  (3) Hindered rotations indicated by low frequency modes) are not
      treated as such but are treated as vibrations and this may
      case some error
  (4) All equations used are the standard statistical mechanics
      equations for an ideal gas
  (5) All vibrations are strinctly harmonic

------------
INNER ENERGY
------------

The inner energy is: U= E(el) + E(ZPE) + E(vib) + E(rot) + E(trans)
    E(el)   - is the total energy from the electronic structure calculation
              = E(kin-el) + E(nuc-el) + E(el-el) + E(nuc-nuc)
    E(ZPE)  - the the zero temperature vibrational energy from the frequency calculation
    E(vib)  - the the finite temperature correction to E(ZPE) due to population
              of excietd vibrational states
    E(rot)  - is the rotational thermal energy
    E(trans)- is the translational thermal energy

Summary of contributions to the inner energy U:
Electronic energy                ...   -266.75237354 Eh
Zero point energy                ...      0.13035692 Eh      81.80 kcal/mol
Thermal vibrational correction   ...      0.00446989 Eh       2.80 kcal/mol
Thermal rotational correction    ...      0.00141627 Eh       0.89 kcal/mol
Thermal translational correction ...      0.00141627 Eh       0.89 kcal/mol
-----------------------------------------------------------------------
Total thermal energy                   -266.61471418 Eh

Summary of corrections to the electronic energy:
(perhaps to be used in another calculation)
Total thermal correction                  0.00730243 Eh       4.58 kcal/mol
Non-thermal (ZPE) correction              0.13035692 Eh      81.80 kcal/mol
-----------------------------------------------------------------------
Total correction                          0.13765936 Eh      86.38 kcal/mol

--------
ENTHALPY
--------

The enthalpy is H = U + kB*T
                kB is Boltzmann's constant
Total free energy                 ...   -266.61471418 Eh
Thermal Enthalpy correction       ...      0.00094421 Eh       0.59 kcal/mol
-----------------------------------------------------------------------
Total Enthalpy                    ...   -266.61376997 Eh

-------
ENTROPY
-------

The entropy contributions are T*S = T*(S(el)+S(vib)+S(rot)+S(trans)
     S(el)   - electronic entropy
     S(vib)  - vibrational entropy
     S(rot)  - rotational entropy
     S(trans)- translational entropy
The entropies will be listed as mutliplied by the temperature to get
units of energy

Electronic entropy                ...      0.00000000 Eh      0.00 kcal/mol
Vibrational entropy               ...      0.00855037 Eh      5.37 kcal/mol
Rotational entropy                ...      0.01164903 Eh      7.31 kcal/mol
Translational entropy             ...      0.01864324 Eh     11.70 kcal/mol
-----------------------------------------------------------------------
Final entropy term                ...      0.03884263 Eh     24.37 kcal/mol

CAUTION: The rotational entropy is not quite correctly treated here
         because it includes a symmetry number that is not yet correctly
         implemented in ORCA!
For a nonlinear molecule the correct rotational entropy is:
    S(rot) = R*(ln(qrot/sn)+1.5)
    R    = 8.31441 J/mol/K = 1.987191683e-3 kcal/mol/K
    qrot = 152713.5016669
    sn is the rotational symmetry number. We have assumed 3 here
       if it is different for your molecule then you should correct
       the printed rotational entropy by manually evaluating the equation
       as given above

For convenience we print out the resulting values for sn=1 - 12:
 sn= 1  qrot/sn=  152713.5017 T*S(rot)=     7.96 kcal/mol T*S(tot)=    25.02 kcal/mol
 sn= 2  qrot/sn=   76356.7508 T*S(rot)=     7.55 kcal/mol T*S(tot)=    24.61 kcal/mol
 sn= 3  qrot/sn=   50904.5006 T*S(rot)=     7.31 kcal/mol T*S(tot)=    24.37 kcal/mol
 sn= 4  qrot/sn=   38178.3754 T*S(rot)=     7.14 kcal/mol T*S(tot)=    24.20 kcal/mol
 sn= 5  qrot/sn=   30542.7003 T*S(rot)=     7.01 kcal/mol T*S(tot)=    24.07 kcal/mol
 sn= 6  qrot/sn=   25452.2503 T*S(rot)=     6.90 kcal/mol T*S(tot)=    23.96 kcal/mol
 sn= 7  qrot/sn=   21816.2145 T*S(rot)=     6.81 kcal/mol T*S(tot)=    23.87 kcal/mol
 sn= 8  qrot/sn=   19089.1877 T*S(rot)=     6.73 kcal/mol T*S(tot)=    23.79 kcal/mol
 sn= 9  qrot/sn=   16968.1669 T*S(rot)=     6.66 kcal/mol T*S(tot)=    23.72 kcal/mol
 sn=10  qrot/sn=   15271.3502 T*S(rot)=     6.60 kcal/mol T*S(tot)=    23.66 kcal/mol
 sn=11  qrot/sn=   13883.0456 T*S(rot)=     6.54 kcal/mol T*S(tot)=    23.60 kcal/mol
 sn=12  qrot/sn=   12726.1251 T*S(rot)=     6.49 kcal/mol T*S(tot)=    23.55 kcal/mol

-------------------
GIBBS FREE ENTHALPY
-------------------

The Gibbs free enthalpy is G = H - T*S

Total enthalpy                    ...   -266.61376997 Eh
Total entropy correction          ...     -0.03884263 Eh    -24.37 kcal/mol
-----------------------------------------------------------------------
Final Gibbs free enthalpy         ...   -266.65261261 Eh

For completeness - the Gibbs free enthalpy minus the electronic energy
G-E(el)                           ...      0.09976093 Eh     62.60 kcal/mol

                             ****ORCA TERMINATED NORMALLY****
TOTAL RUN TIME: 0 days 0 hours 16 minutes 5 seconds 774 msec
