                         Program Version 3.0.3 - RELEASE   -
|  1> ! NORI PBE0 def2-TZVP UseSym TightOPT Freq TightSCF Grid3 FinalGrid5 XYZFile
|  2> % pal
|  3>     nprocs 8
|  4> end
|  5> %method
|  6>     SymThresh 5.0e-2
|  7> end
|  8> % geom
|  9>     MaxIter 10
| 10> end
| 11> % maxcore 2000
| 12> % output
| 13>     printlevel mini
| 14>     print[ P_Basis ] 0
| 15>     print[ P_SCFInfo ] 1
| 16>     print[ P_SCFIterInfo ] 1
| 17>     print[ P_OrbEn ] 0
| 18>     print[ P_Cartesian ] 0
| 19> end
| 20> % elprop
| 21>     Dipole false
| 22> end
| 23> *xyz 1 1
| 24>  C        0.9455797513    -0.5845631303    -0.3875548359
| 25>  C        2.4608695959    -0.5583122188    -0.2635024607
| 26>  C        2.8854247485     0.0658216665     1.0483866637
| 27>  N        4.3609909684     0.1058524498     1.1789133663
| 28>  C        5.0257398212     0.2183382811     2.4927879687
| 29>  C        5.1208562932    -1.0348336698     1.7278787008
| 30>  H        0.6513998872    -1.0317817692    -1.3368961044
| 31>  H        0.5234262990     0.4220552029    -0.3517223342
| 32>  H        0.4893116395    -1.1735137949     0.4112208311
| 33>  H        2.8896364341     0.0122955742    -1.0946358004
| 34>  H        2.8608478467    -1.5749002361    -0.3331293981
| 35>  H        2.5102941802    -0.4975389282     1.9058001085
| 36>  H        2.5342478112     1.0963396569     1.1405741324
| 37>  H        4.8212171321     0.5972595695     0.4186164282
| 38>  H        4.3360620290     0.2807014720     3.3246782938
| 39>  H        5.8710074921     0.8937107552     2.5216408911
| 40>  H        6.0360422688    -1.2724671199     1.2016891147
| 41>  H        4.5009058015    -1.8757937610     2.0107144345
| 42> *
| 43>
| 44>                          ****END OF INPUT****
 Total Charge           Charge          ....    1
 Multiplicity           Mult            ....    1
 Number of Electrons    NEL             ....   48
FINAL SINGLE POINT ENERGY      -252.019026605813
FINAL SINGLE POINT ENERGY      -252.019027684777

CARTESIAN COORDINATES (ANGSTROEM)
---------------------------------
  C      1.064149   -0.001396   -2.644356
  C      0.797044   -0.552469   -1.252040
  C      0.256942    0.525414   -0.336750
  N      0.000644    0.001908    1.025680
  C     -0.932282    0.667503    1.956730
  C     -1.281981   -0.639624    1.378173
  H      1.456531   -0.785229   -3.291865
  H      1.797825    0.807241   -2.620131
  H      0.150683    0.381985   -3.104306
  H      1.724205   -0.957359   -0.831057
  H      0.082381   -1.379998   -1.306970
  H     -0.691294    0.928913   -0.699822
  H      0.958947    1.355542   -0.227616
  H      0.818898   -0.415153    1.459497
  H     -1.384525    1.563643    1.551912
  H     -0.590758    0.725400    2.982091
  H     -1.196788   -1.532797    1.983306
  H     -1.986212   -0.683603    0.557384

FINAL SINGLE POINT ENERGY      -252.019028195310
                    ***********************HURRAY********************
 Multiplicity           Mult            ....    1
 Number of Electrons    NEL             ....   48
 Basis Dimension        Dim             ....  258
FINAL SINGLE POINT ENERGY      -252.019028267280

VIBRATIONAL FREQUENCIES
-----------------------

   0:         0.00 cm**-1
   1:         0.00 cm**-1
   2:         0.00 cm**-1
   3:         0.00 cm**-1
   4:         0.00 cm**-1
   5:         0.00 cm**-1
   6:        92.11 cm**-1
   7:        98.05 cm**-1
   8:       169.35 cm**-1
   9:       239.07 cm**-1
  10:       324.77 cm**-1
  11:       383.36 cm**-1
  12:       432.79 cm**-1
  13:       756.56 cm**-1
  14:       783.53 cm**-1
  15:       828.81 cm**-1
  16:       876.36 cm**-1
  17:       899.75 cm**-1
  18:       918.73 cm**-1
  19:       954.93 cm**-1
  20:      1016.82 cm**-1
  21:      1065.83 cm**-1
  22:      1104.24 cm**-1
  23:      1151.08 cm**-1
  24:      1153.19 cm**-1
  25:      1157.91 cm**-1
  26:      1178.95 cm**-1
  27:      1217.49 cm**-1
  28:      1223.93 cm**-1
  29:      1274.75 cm**-1
  30:      1303.03 cm**-1
  31:      1330.74 cm**-1
  32:      1342.60 cm**-1
  33:      1401.51 cm**-1
  34:      1419.91 cm**-1
  35:      1460.79 cm**-1
  36:      1475.79 cm**-1
  37:      1482.80 cm**-1
  38:      1487.51 cm**-1
  39:      1493.82 cm**-1
  40:      1504.14 cm**-1
  41:      1521.52 cm**-1
  42:      3043.59 cm**-1
  43:      3062.67 cm**-1
  44:      3079.96 cm**-1
  45:      3084.41 cm**-1
  46:      3133.30 cm**-1
  47:      3139.95 cm**-1
  48:      3154.87 cm**-1
  49:      3173.12 cm**-1
  50:      3174.94 cm**-1
  51:      3270.66 cm**-1
  52:      3280.87 cm**-1
  53:      3537.07 cm**-1

IR SPECTRUM
-----------

 Mode    freq (cm**-1)   T**2         TX         TY         TZ
-------------------------------------------------------------------
   6:        92.11    0.497406  ( -0.546061  -0.347493  -0.280128)
   7:        98.05    0.403489  ( -0.364413  -0.509126  -0.107155)
   8:       169.35    0.554605  ( -0.041100  -0.005329  -0.743564)
   9:       239.07    0.132298  ( -0.334951  -0.110216  -0.089210)
  10:       324.77    1.648716  ( -0.756469   0.038259   1.036826)
  11:       383.36    0.776854  ( -0.581892   0.564610  -0.345646)
  12:       432.79    1.335030  (  0.182491   0.139147  -1.132416)
  13:       756.56    6.325869  (  2.449566   0.507423   0.260802)
  14:       783.53    0.583567  (  0.299348   0.378478  -0.592209)
  15:       828.81    4.725170  ( -2.131234   0.122963   0.409746)
  16:       876.36    2.187265  (  1.105370   0.566021   0.803145)
  17:       899.75    1.145735  ( -0.624225   0.673877  -0.549515)
  18:       918.73    2.383909  (  0.949562   0.254194  -1.190641)
  19:       954.93   22.380268  (  0.746000   4.070854   2.291703)
  20:      1016.82   64.263030  ( -5.702564   0.210545   5.630228)
  21:      1065.83    5.809352  ( -0.902612  -0.439211   2.191287)
  22:      1104.24    0.401214  ( -0.187683  -0.604762  -0.015865)
  23:      1151.08    6.063592  ( -1.095176  -1.982526  -0.966320)
  24:      1153.19    1.553129  ( -0.773989   0.812028  -0.542844)
  25:      1157.91    5.046573  (  0.284250   1.219687   1.864977)
  26:      1178.95    0.830477  ( -0.033698   0.716526   0.562079)
  27:      1217.49    9.321471  (  0.841281   2.465819   1.591682)
  28:      1223.93    1.341578  (  0.220825  -0.171763  -1.123972)
  29:      1274.75   14.856689  (  3.017770  -0.351210  -2.372004)
  30:      1303.03    1.180303  (  0.146699  -0.725948   0.794847)
  31:      1330.74    1.020950  ( -0.713596   0.556335  -0.449691)
  32:      1342.60    4.382590  (  1.761138  -0.060249   1.130201)
  33:      1401.51    0.991235  (  0.652923   0.510678  -0.551484)
  34:      1419.91    1.561546  ( -0.222196   0.872838  -0.866215)
  35:      1460.79   39.576831  (  3.715259   1.395746  -4.881145)
  36:      1475.79   19.622542  ( -0.634114   3.438921   2.719240)
  37:      1482.80    4.639972  (  1.558390   1.153930  -0.937996)
  38:      1487.51    3.271058  ( -1.442440  -0.920825  -0.585241)
  39:      1493.82   11.585327  ( -3.066474  -0.783409  -1.252332)
  40:      1504.14   15.162109  ( -1.543528   3.420423   1.039392)
  41:      1521.52    8.541642  (  0.256057  -1.904815   2.201762)
  42:      3043.59   10.680436  (  0.280313  -2.278259   2.326241)
  43:      3062.67   10.121603  ( -0.093101  -2.034387   2.444219)
  44:      3079.96    4.722356  ( -0.933928   1.918428  -0.412030)
  45:      3084.41    4.022042  ( -1.610049  -1.133908  -0.379519)
  46:      3133.30    2.715456  ( -1.391770  -0.419408  -0.776227)
  47:      3139.95   13.947573  (  3.603535   0.762497   0.617017)
  48:      3154.87    4.495873  ( -0.585114   1.974741   0.503899)
  49:      3173.12    3.579940  ( -0.459279  -1.706162  -0.676766)
  50:      3174.94    1.873143  ( -0.969442  -0.038239   0.965331)
  51:      3270.66    0.008221  ( -0.017860  -0.086402   0.020893)
  52:      3280.87   10.715370  (  1.429273  -1.553105   2.502082)
  53:      3537.07   77.716993  (  7.682332  -3.163821   2.947712)

--------------------------
THERMOCHEMISTRY AT 298.15K
--------------------------

Temperature         ... 298.15 K
Pressure            ... 1.00 atm
Total Mass          ... 86.16 AMU

Throughout the following assumptions are being made:
  (1) The electronic state is orbitally nondegenerate
  (2) There are no thermally accessible electronically excited states
  (3) Hindered rotations indicated by low frequency modes) are not
      treated as such but are treated as vibrations and this may
      case some error
  (4) All equations used are the standard statistical mechanics
      equations for an ideal gas
  (5) All vibrations are strinctly harmonic

------------
INNER ENERGY
------------

The inner energy is: U= E(el) + E(ZPE) + E(vib) + E(rot) + E(trans)
    E(el)   - is the total energy from the electronic structure calculation
              = E(kin-el) + E(nuc-el) + E(el-el) + E(nuc-nuc)
    E(ZPE)  - the the zero temperature vibrational energy from the frequency calculation
    E(vib)  - the the finite temperature correction to E(ZPE) due to population
              of excietd vibrational states
    E(rot)  - is the rotational thermal energy
    E(trans)- is the translational thermal energy

Summary of contributions to the inner energy U:
Electronic energy                ...   -252.01902827 Eh
Zero point energy                ...      0.17009239 Eh     106.73 kcal/mol
Thermal vibrational correction   ...      0.00433853 Eh       2.72 kcal/mol
Thermal rotational correction    ...      0.00141627 Eh       0.89 kcal/mol
Thermal translational correction ...      0.00141627 Eh       0.89 kcal/mol
-----------------------------------------------------------------------
Total thermal energy                   -251.84176480 Eh

Summary of corrections to the electronic energy:
(perhaps to be used in another calculation)
Total thermal correction                  0.00717108 Eh       4.50 kcal/mol
Non-thermal (ZPE) correction              0.17009239 Eh     106.73 kcal/mol
-----------------------------------------------------------------------
Total correction                          0.17726347 Eh     111.23 kcal/mol

--------
ENTHALPY
--------

The enthalpy is H = U + kB*T
                kB is Boltzmann's constant
Total free energy                 ...   -251.84176480 Eh
Thermal Enthalpy correction       ...      0.00094421 Eh       0.59 kcal/mol
-----------------------------------------------------------------------
Total Enthalpy                    ...   -251.84082059 Eh

-------
ENTROPY
-------

The entropy contributions are T*S = T*(S(el)+S(vib)+S(rot)+S(trans)
     S(el)   - electronic entropy
     S(vib)  - vibrational entropy
     S(rot)  - rotational entropy
     S(trans)- translational entropy
The entropies will be listed as mutliplied by the temperature to get
units of energy

Electronic entropy                ...      0.00000000 Eh      0.00 kcal/mol
Vibrational entropy               ...      0.00780400 Eh      4.90 kcal/mol
Rotational entropy                ...      0.01171768 Eh      7.35 kcal/mol
Translational entropy             ...      0.01866024 Eh     11.71 kcal/mol
-----------------------------------------------------------------------
Final entropy term                ...      0.03818192 Eh     23.96 kcal/mol

CAUTION: The rotational entropy is not quite correctly treated here
         because it includes a symmetry number that is not yet correctly
         implemented in ORCA!
For a nonlinear molecule the correct rotational entropy is:
    S(rot) = R*(ln(qrot/sn)+1.5)
    R    = 8.31441 J/mol/K = 1.987191683e-3 kcal/mol/K
    qrot = 164231.9939551
    sn is the rotational symmetry number. We have assumed 3 here
       if it is different for your molecule then you should correct
       the printed rotational entropy by manually evaluating the equation
       as given above

For convenience we print out the resulting values for sn=1 - 12:
 sn= 1  qrot/sn=  164231.9940 T*S(rot)=     8.00 kcal/mol T*S(tot)=    24.61 kcal/mol
 sn= 2  qrot/sn=   82115.9970 T*S(rot)=     7.59 kcal/mol T*S(tot)=    24.20 kcal/mol
 sn= 3  qrot/sn=   54743.9980 T*S(rot)=     7.35 kcal/mol T*S(tot)=    23.96 kcal/mol
 sn= 4  qrot/sn=   41057.9985 T*S(rot)=     7.18 kcal/mol T*S(tot)=    23.79 kcal/mol
 sn= 5  qrot/sn=   32846.3988 T*S(rot)=     7.05 kcal/mol T*S(tot)=    23.66 kcal/mol
 sn= 6  qrot/sn=   27371.9990 T*S(rot)=     6.94 kcal/mol T*S(tot)=    23.55 kcal/mol
 sn= 7  qrot/sn=   23461.7134 T*S(rot)=     6.85 kcal/mol T*S(tot)=    23.46 kcal/mol
 sn= 8  qrot/sn=   20528.9992 T*S(rot)=     6.77 kcal/mol T*S(tot)=    23.38 kcal/mol
 sn= 9  qrot/sn=   18247.9993 T*S(rot)=     6.70 kcal/mol T*S(tot)=    23.31 kcal/mol
 sn=10  qrot/sn=   16423.1994 T*S(rot)=     6.64 kcal/mol T*S(tot)=    23.25 kcal/mol
 sn=11  qrot/sn=   14930.1813 T*S(rot)=     6.58 kcal/mol T*S(tot)=    23.19 kcal/mol
 sn=12  qrot/sn=   13685.9995 T*S(rot)=     6.53 kcal/mol T*S(tot)=    23.14 kcal/mol

-------------------
GIBBS FREE ENTHALPY
-------------------

The Gibbs free enthalpy is G = H - T*S

Total enthalpy                    ...   -251.84082059 Eh
Total entropy correction          ...     -0.03818192 Eh    -23.96 kcal/mol
-----------------------------------------------------------------------
Final Gibbs free enthalpy         ...   -251.87900251 Eh

For completeness - the Gibbs free enthalpy minus the electronic energy
G-E(el)                           ...      0.14002575 Eh     87.87 kcal/mol

                             ****ORCA TERMINATED NORMALLY****
TOTAL RUN TIME: 0 days 0 hours 20 minutes 38 seconds 620 msec
