                         Program Version 3.0.3 - RELEASE   -
|  1> ! NORI PBE0 def2-TZVP UseSym TightOPT Freq TightSCF Grid3 FinalGrid5 XYZFile
|  2> % pal
|  3>     nprocs 8
|  4> end
|  5> %method
|  6>     SymThresh 5.0e-2
|  7> end
|  8> % geom
|  9>     MaxIter 10
| 10> end
| 11> % maxcore 2000
| 12> % output
| 13>     printlevel mini
| 14>     print[ P_Basis ] 0
| 15>     print[ P_SCFInfo ] 1
| 16>     print[ P_SCFIterInfo ] 1
| 17>     print[ P_OrbEn ] 0
| 18>     print[ P_Cartesian ] 0
| 19> end
| 20> % elprop
| 21>     Dipole false
| 22> end
| 23> *xyz 1 1
| 24>  C        1.6222180634     1.1629349868    -0.6651321874
| 25>  C        2.4240871031     0.2646838496    -0.1127091948
| 26>  C        2.9936017250    -0.8834648855    -0.8704989058
| 27>  N        4.4821537618    -0.8116331494    -0.9093890093
| 28>  C        5.2667995705    -1.4331133811    -1.9950444925
| 29>  C        5.1812600435     0.0333528563    -1.8955631111
| 30>  H        1.1966944568     1.9704426685    -0.0820165430
| 31>  H        1.3394397905     1.1141674964    -1.7121189878
| 32>  H        2.6621786120     0.3206139121     0.9470417359
| 33>  H        2.7502756771    -1.8477708542    -0.4160058829
| 34>  H        2.6510563420    -0.8922274334    -1.9066175262
| 35>  H        4.9146133109    -0.8425942459     0.0090882220
| 36>  H        6.1673641540    -1.9417790972    -1.6762251602
| 37>  H        4.6612947934    -1.9499271803    -2.7285876569
| 38>  H        4.5130211336     0.5736517279    -2.5537036396
| 39>  H        6.0210914624     0.5931727296    -1.5053376603
| 40> *
| 41>
| 42>                          ****END OF INPUT****
 Total Charge           Charge          ....    1
 Multiplicity           Mult            ....    1
 Number of Electrons    NEL             ....   46
FINAL SINGLE POINT ENERGY      -250.782265142509
FINAL SINGLE POINT ENERGY      -250.782268080710
FINAL SINGLE POINT ENERGY      -250.782271057930
FINAL SINGLE POINT ENERGY      -250.782271600322

CARTESIAN COORDINATES (ANGSTROEM)
---------------------------------
  C      0.862172   -0.009206   -2.401723
  C      1.167081    0.359146   -1.166216
  C      0.158409    0.896968   -0.212027
  N      0.001411   -0.002746    0.966708
  C     -1.247228   -0.043450    1.754658
  C     -0.872883   -1.188880    0.908709
  H      1.622578   -0.366888   -3.085127
  H     -0.150915    0.054321   -2.786969
  H      2.197072    0.315723   -0.820213
  H      0.442259    1.873528    0.189617
  H     -0.826533    0.984261   -0.673532
  H      0.855724   -0.126369    1.501604
  H     -1.109842   -0.100651    2.826785
  H     -2.003934    0.647884    1.406766
  H     -1.356704   -1.322876   -0.050134
  H     -0.465498   -2.081446    1.365389

FINAL SINGLE POINT ENERGY      -250.782271879080
                    ***********************HURRAY********************
 Multiplicity           Mult            ....    1
 Number of Electrons    NEL             ....   46
 Basis Dimension        Dim             ....  246
FINAL SINGLE POINT ENERGY      -250.782271936265

VIBRATIONAL FREQUENCIES
-----------------------

   0:         0.00 cm**-1
   1:         0.00 cm**-1
   2:         0.00 cm**-1
   3:         0.00 cm**-1
   4:         0.00 cm**-1
   5:         0.00 cm**-1
   6:        74.77 cm**-1
   7:        94.70 cm**-1
   8:       216.46 cm**-1
   9:       360.41 cm**-1
  10:       397.32 cm**-1
  11:       428.01 cm**-1
  12:       638.38 cm**-1
  13:       782.70 cm**-1
  14:       837.89 cm**-1
  15:       877.82 cm**-1
  16:       920.00 cm**-1
  17:       940.21 cm**-1
  18:      1001.01 cm**-1
  19:      1005.87 cm**-1
  20:      1018.69 cm**-1
  21:      1030.52 cm**-1
  22:      1112.21 cm**-1
  23:      1148.81 cm**-1
  24:      1152.91 cm**-1
  25:      1175.98 cm**-1
  26:      1214.59 cm**-1
  27:      1216.80 cm**-1
  28:      1268.76 cm**-1
  29:      1313.33 cm**-1
  30:      1329.35 cm**-1
  31:      1370.83 cm**-1
  32:      1455.61 cm**-1
  33:      1461.40 cm**-1
  34:      1475.26 cm**-1
  35:      1483.63 cm**-1
  36:      1520.29 cm**-1
  37:      1725.70 cm**-1
  38:      3078.36 cm**-1
  39:      3139.27 cm**-1
  40:      3160.10 cm**-1
  41:      3169.88 cm**-1
  42:      3173.07 cm**-1
  43:      3175.39 cm**-1
  44:      3256.79 cm**-1
  45:      3270.35 cm**-1
  46:      3280.49 cm**-1
  47:      3540.39 cm**-1

IR SPECTRUM
-----------

 Mode    freq (cm**-1)   T**2         TX         TY         TZ
-------------------------------------------------------------------
   6:        74.77    0.749440  (  0.325701   0.699639   0.392254)
   7:        94.70    1.313538  (  0.321816  -0.730647  -0.822270)
   8:       216.46    0.532459  ( -0.081927  -0.451438   0.567406)
   9:       360.41    1.040878  (  0.893701   0.267831   0.412847)
  10:       397.32    0.681611  ( -0.392248   0.651121   0.322170)
  11:       428.01    1.413557  ( -0.046463  -0.381663   1.125047)
  12:       638.38   16.442143  ( -1.500922  -3.526031   1.325323)
  13:       782.70    0.588784  (  0.676009   0.347966  -0.103511)
  14:       837.89    4.753560  (  1.480473  -0.235073   1.583193)
  15:       877.82    3.593458  (  0.155614   0.450206   1.834818)
  16:       920.00    6.937755  ( -0.847038  -2.370980  -0.773781)
  17:       940.21    8.919287  ( -1.928776   0.709627   2.166920)
  18:      1001.01  100.888505  ( -6.233787  -4.401119   6.531351)
  19:      1005.87    6.221481  ( -0.155236  -2.480727  -0.208270)
  20:      1018.69   52.307266  ( -0.401088  -7.024860   1.672645)
  21:      1030.52    1.830745  ( -0.098067   1.196573  -0.623972)
  22:      1112.21    0.657640  ( -0.346692  -0.357560  -0.639996)
  23:      1148.81    1.892597  (  1.063863  -0.828209   0.273612)
  24:      1152.91   13.587229  (  0.124280  -2.030141  -3.074136)
  25:      1175.98    0.901976  (  0.392443  -0.497305  -0.707568)
  26:      1214.59   11.551687  (  0.402166  -2.644478  -2.096827)
  27:      1216.80    1.110503  (  0.253530  -0.140995  -1.013087)
  28:      1268.76   18.334280  ( -2.995423  -1.291830   2.773607)
  29:      1313.33    4.692764  ( -1.382815   0.021035  -1.667376)
  30:      1329.35    6.060728  ( -1.120878  -0.293532  -2.172142)
  31:      1370.83    3.090052  (  0.957934  -0.137064  -1.467524)
  32:      1455.61   14.656106  ( -2.636151  -2.767763   0.215175)
  33:      1461.40   38.814205  (  2.835558   0.658752  -5.508163)
  34:      1475.26   20.218593  (  2.559720  -3.657770  -0.535860)
  35:      1483.63   10.052063  ( -1.184226  -1.166953  -2.699610)
  36:      1520.29    7.727510  (  0.348377  -1.668625   2.195868)
  37:      1725.70    1.554565  (  0.994282   0.206185  -0.723502)
  38:      3078.36    1.978639  (  0.967417  -0.688266  -0.754343)
  39:      3139.27    0.280015  (  0.471315   0.063205  -0.232125)
  40:      3160.10    2.033925  (  1.381990  -0.281406  -0.211751)
  41:      3169.88    0.451703  (  0.591972  -0.028283   0.316972)
  42:      3173.07    3.519652  (  0.805732  -1.120300  -1.270974)
  43:      3175.39    1.795707  (  0.449041   1.245690  -0.205730)
  44:      3256.79    0.262552  ( -0.165833  -0.118257  -0.470177)
  45:      3270.35    0.076161  (  0.200758  -0.113949   0.151239)
  46:      3280.49   10.746820  ( -1.492634   1.366079  -2.579281)
  47:      3540.39   83.549503  ( -7.995428   0.254725  -4.422415)

--------------------------
THERMOCHEMISTRY AT 298.15K
--------------------------

Temperature         ... 298.15 K
Pressure            ... 1.00 atm
Total Mass          ... 84.14 AMU

Throughout the following assumptions are being made:
  (1) The electronic state is orbitally nondegenerate
  (2) There are no thermally accessible electronically excited states
  (3) Hindered rotations indicated by low frequency modes) are not
      treated as such but are treated as vibrations and this may
      case some error
  (4) All equations used are the standard statistical mechanics
      equations for an ideal gas
  (5) All vibrations are strinctly harmonic

------------
INNER ENERGY
------------

The inner energy is: U= E(el) + E(ZPE) + E(vib) + E(rot) + E(trans)
    E(el)   - is the total energy from the electronic structure calculation
              = E(kin-el) + E(nuc-el) + E(el-el) + E(nuc-nuc)
    E(ZPE)  - the the zero temperature vibrational energy from the frequency calculation
    E(vib)  - the the finite temperature correction to E(ZPE) due to population
              of excietd vibrational states
    E(rot)  - is the rotational thermal energy
    E(trans)- is the translational thermal energy

Summary of contributions to the inner energy U:
Electronic energy                ...   -250.78227194 Eh
Zero point energy                ...      0.14647322 Eh      91.91 kcal/mol
Thermal vibrational correction   ...      0.00378091 Eh       2.37 kcal/mol
Thermal rotational correction    ...      0.00141627 Eh       0.89 kcal/mol
Thermal translational correction ...      0.00141627 Eh       0.89 kcal/mol
-----------------------------------------------------------------------
Total thermal energy                   -250.62918527 Eh

Summary of corrections to the electronic energy:
(perhaps to be used in another calculation)
Total thermal correction                  0.00661345 Eh       4.15 kcal/mol
Non-thermal (ZPE) correction              0.14647322 Eh      91.91 kcal/mol
-----------------------------------------------------------------------
Total correction                          0.15308667 Eh      96.06 kcal/mol

--------
ENTHALPY
--------

The enthalpy is H = U + kB*T
                kB is Boltzmann's constant
Total free energy                 ...   -250.62918527 Eh
Thermal Enthalpy correction       ...      0.00094421 Eh       0.59 kcal/mol
-----------------------------------------------------------------------
Total Enthalpy                    ...   -250.62824106 Eh

-------
ENTROPY
-------

The entropy contributions are T*S = T*(S(el)+S(vib)+S(rot)+S(trans)
     S(el)   - electronic entropy
     S(vib)  - vibrational entropy
     S(rot)  - rotational entropy
     S(trans)- translational entropy
The entropies will be listed as mutliplied by the temperature to get
units of energy

Electronic entropy                ...      0.00000000 Eh      0.00 kcal/mol
Vibrational entropy               ...      0.00690287 Eh      4.33 kcal/mol
Rotational entropy                ...      0.01161957 Eh      7.29 kcal/mol
Translational entropy             ...      0.01862670 Eh     11.69 kcal/mol
-----------------------------------------------------------------------
Final entropy term                ...      0.03714914 Eh     23.31 kcal/mol

CAUTION: The rotational entropy is not quite correctly treated here
         because it includes a symmetry number that is not yet correctly
         implemented in ORCA!
For a nonlinear molecule the correct rotational entropy is:
    S(rot) = R*(ln(qrot/sn)+1.5)
    R    = 8.31441 J/mol/K = 1.987191683e-3 kcal/mol/K
    qrot = 148022.4013405
    sn is the rotational symmetry number. We have assumed 3 here
       if it is different for your molecule then you should correct
       the printed rotational entropy by manually evaluating the equation
       as given above

For convenience we print out the resulting values for sn=1 - 12:
 sn= 1  qrot/sn=  148022.4013 T*S(rot)=     7.94 kcal/mol T*S(tot)=    23.96 kcal/mol
 sn= 2  qrot/sn=   74011.2007 T*S(rot)=     7.53 kcal/mol T*S(tot)=    23.55 kcal/mol
 sn= 3  qrot/sn=   49340.8004 T*S(rot)=     7.29 kcal/mol T*S(tot)=    23.31 kcal/mol
 sn= 4  qrot/sn=   37005.6003 T*S(rot)=     7.12 kcal/mol T*S(tot)=    23.14 kcal/mol
 sn= 5  qrot/sn=   29604.4803 T*S(rot)=     6.99 kcal/mol T*S(tot)=    23.01 kcal/mol
 sn= 6  qrot/sn=   24670.4002 T*S(rot)=     6.88 kcal/mol T*S(tot)=    22.90 kcal/mol
 sn= 7  qrot/sn=   21146.0573 T*S(rot)=     6.79 kcal/mol T*S(tot)=    22.81 kcal/mol
 sn= 8  qrot/sn=   18502.8002 T*S(rot)=     6.71 kcal/mol T*S(tot)=    22.73 kcal/mol
 sn= 9  qrot/sn=   16446.9335 T*S(rot)=     6.64 kcal/mol T*S(tot)=    22.66 kcal/mol
 sn=10  qrot/sn=   14802.2401 T*S(rot)=     6.58 kcal/mol T*S(tot)=    22.60 kcal/mol
 sn=11  qrot/sn=   13456.5819 T*S(rot)=     6.52 kcal/mol T*S(tot)=    22.54 kcal/mol
 sn=12  qrot/sn=   12335.2001 T*S(rot)=     6.47 kcal/mol T*S(tot)=    22.49 kcal/mol

-------------------
GIBBS FREE ENTHALPY
-------------------

The Gibbs free enthalpy is G = H - T*S

Total enthalpy                    ...   -250.62824106 Eh
Total entropy correction          ...     -0.03714914 Eh    -23.31 kcal/mol
-----------------------------------------------------------------------
Final Gibbs free enthalpy         ...   -250.66539020 Eh

For completeness - the Gibbs free enthalpy minus the electronic energy
G-E(el)                           ...      0.11688174 Eh     73.34 kcal/mol

                             ****ORCA TERMINATED NORMALLY****
TOTAL RUN TIME: 0 days 0 hours 18 minutes 35 seconds 814 msec
