                         Program Version 3.0.3 - RELEASE   -
|  1> ! NORI PBE0 def2-TZVP UseSym TightOPT Freq TightSCF Grid3 FinalGrid5 XYZFile
|  2> % pal
|  3>     nprocs 8
|  4> end
|  5> %method
|  6>     SymThresh 5.0e-2
|  7> end
|  8> % geom
|  9>     MaxIter 10
| 10> end
| 11> % maxcore 2000
| 12> % output
| 13>     printlevel mini
| 14>     print[ P_Basis ] 0
| 15>     print[ P_SCFInfo ] 1
| 16>     print[ P_SCFIterInfo ] 1
| 17>     print[ P_OrbEn ] 0
| 18>     print[ P_Cartesian ] 0
| 19> end
| 20> % elprop
| 21>     Dipole false
| 22> end
| 23> *xyz 1 1
| 24>  C        4.3204412558     2.2969424909     0.8666912506
| 25>  C        3.8777126410     1.2680376076     0.4424089024
| 26>  C        3.3364208142     0.0273371240    -0.0619614463
| 27>  N        3.9825066149    -1.1326494885     0.6063637996
| 28>  C        4.0384527483    -2.4639354835    -0.0326849987
| 29>  C        5.2696327720    -1.6724585788     0.1229316022
| 30>  H        4.7075151651     3.2205052359     1.2372291958
| 31>  H        3.5079176930    -0.0832583309    -1.1365159665
| 32>  H        2.2608516940    -0.0507213139     0.1208148063
| 33>  H        3.8692457074    -1.1252479841     1.6162712746
| 34>  H        3.8451483041    -3.2944281938     0.6339237942
| 35>  H        3.5534904222    -2.5045741796    -0.9994748572
| 36>  H        5.6712575941    -1.1396079777    -0.7295230613
| 37>  H        5.9756765739    -1.9263509276     0.9031657043
| 38> *
| 39>
| 40>                          ****END OF INPUT****
 Total Charge           Charge          ....    1
 Multiplicity           Mult            ....    1
 Number of Electrons    NEL             ....   44
FINAL SINGLE POINT ENERGY      -249.523303647792

CARTESIAN COORDINATES (ANGSTROEM)
---------------------------------
  C      1.455886   -0.000243   -2.292785
  C      0.758607    0.406842   -1.408175
  C     -0.074318    0.903263   -0.337470
  N      0.000053    0.000085    0.840721
  C     -1.087194   -0.063142    1.839577
  C     -0.853380   -1.201481    0.936132
  H      2.074190   -0.353498   -3.088573
  H     -1.125256    0.960463   -0.633477
  H      0.240112    1.896386   -0.005164
  H      0.944330   -0.111213    1.199358
  H     -0.754473   -0.115637    2.868221
  H     -1.906585    0.614796    1.636606
  H     -1.500743   -1.343477    0.080135
  H     -0.350783   -2.085576    1.306247

FINAL SINGLE POINT ENERGY      -249.523304297489
                    ***********************HURRAY********************
 Multiplicity           Mult            ....    1
 Number of Electrons    NEL             ....   44
 Basis Dimension        Dim             ....  234
FINAL SINGLE POINT ENERGY      -249.523304409899

VIBRATIONAL FREQUENCIES
-----------------------

   0:         0.00 cm**-1
   1:         0.00 cm**-1
   2:         0.00 cm**-1
   3:         0.00 cm**-1
   4:         0.00 cm**-1
   5:         0.00 cm**-1
   6:        72.56 cm**-1
   7:       143.90 cm**-1
   8:       311.11 cm**-1
   9:       329.72 cm**-1
  10:       358.63 cm**-1
  11:       511.10 cm**-1
  12:       727.17 cm**-1
  13:       774.60 cm**-1
  14:       779.71 cm**-1
  15:       826.61 cm**-1
  16:       875.09 cm**-1
  17:       948.32 cm**-1
  18:       965.70 cm**-1
  19:      1014.21 cm**-1
  20:      1028.17 cm**-1
  21:      1148.18 cm**-1
  22:      1153.67 cm**-1
  23:      1174.55 cm**-1
  24:      1180.94 cm**-1
  25:      1214.13 cm**-1
  26:      1271.05 cm**-1
  27:      1308.84 cm**-1
  28:      1376.57 cm**-1
  29:      1460.53 cm**-1
  30:      1467.42 cm**-1
  31:      1480.96 cm**-1
  32:      1519.05 cm**-1
  33:      2259.56 cm**-1
  34:      3074.19 cm**-1
  35:      3122.45 cm**-1
  36:      3172.33 cm**-1
  37:      3174.82 cm**-1
  38:      3270.05 cm**-1
  39:      3280.33 cm**-1
  40:      3454.50 cm**-1
  41:      3533.92 cm**-1

IR SPECTRUM
-----------

 Mode    freq (cm**-1)   T**2         TX         TY         TZ
-------------------------------------------------------------------
   6:        72.56    0.405216  ( -0.200508  -0.543021  -0.264840)
   7:       143.90    1.310202  (  0.716360  -0.773550  -0.445703)
   8:       311.11   10.605297  (  1.605888   2.830081  -0.130634)
   9:       329.72   13.538205  (  3.042746   0.183393   2.060648)
  10:       358.63    1.196833  (  0.164779   0.689989   0.832824)
  11:       511.10   17.923461  ( -0.037772  -2.747465   3.220787)
  12:       727.17   41.228224  ( -4.866968  -3.571987  -2.186722)
  13:       774.60   26.697874  (  1.866680  -4.089207   2.547895)
  14:       779.71    2.716444  (  0.490914  -1.187833   1.031746)
  15:       826.61    6.436221  (  2.145819   0.290741   1.321799)
  16:       875.09    4.424999  ( -0.510298  -0.726765  -1.906937)
  17:       948.32    8.736079  (  1.113425  -2.465251  -1.191176)
  18:       965.70   27.689361  (  2.529253   2.958033  -3.541508)
  19:      1014.21   15.167718  (  0.724732   3.755917   0.731828)
  20:      1028.17   57.728537  ( -4.679779  -1.890205   5.679377)
  21:      1148.18    0.639117  (  0.557646  -0.572831  -0.003624)
  22:      1153.67   13.565450  (  0.303878  -2.156112  -2.970571)
  23:      1174.55    1.101107  (  0.280355  -0.829333   0.578545)
  24:      1180.94    1.577643  (  0.129061  -0.077878  -1.246965)
  25:      1214.13   10.518496  ( -0.264572   2.157178   2.407298)
  26:      1271.05   17.111617  (  2.688934   1.512239  -2.755791)
  27:      1308.84    5.567304  ( -2.163175   0.206777  -0.919360)
  28:      1376.57   18.382823  (  2.895545  -1.295429  -2.884529)
  29:      1460.53   53.178789  ( -4.310343  -2.481175   5.333245)
  30:      1467.42   18.081988  ( -2.300520   3.477064   0.836432)
  31:      1480.96   11.444217  (  0.120399   2.394692   2.386456)
  32:      1519.05    7.631281  ( -0.003330  -1.694095   2.182043)
  33:      2259.56   34.856751  ( -3.190318   1.040966   4.857470)
  34:      3074.19    2.293438  (  0.900749   0.248557  -1.191767)
  35:      3122.45    1.581751  (  0.514071   0.622488   0.964361)
  36:      3172.33    4.976748  (  0.765543  -1.214087  -1.707830)
  37:      3174.82    2.981260  (  0.758017   1.543250  -0.158273)
  38:      3270.05    0.103234  (  0.161879  -0.149795   0.233647)
  39:      3280.33   13.539329  ( -2.237637   1.431493  -2.546201)
  40:      3454.50   92.397254  ( -5.561073   2.822606   7.314685)
  41:      3533.92   94.118495  (  9.259981  -0.138412   2.889998)

--------------------------
THERMOCHEMISTRY AT 298.15K
--------------------------

Temperature         ... 298.15 K
Pressure            ... 1.00 atm
Total Mass          ... 82.13 AMU

Throughout the following assumptions are being made:
  (1) The electronic state is orbitally nondegenerate
  (2) There are no thermally accessible electronically excited states
  (3) Hindered rotations indicated by low frequency modes) are not
      treated as such but are treated as vibrations and this may
      case some error
  (4) All equations used are the standard statistical mechanics
      equations for an ideal gas
  (5) All vibrations are strinctly harmonic

------------
INNER ENERGY
------------

The inner energy is: U= E(el) + E(ZPE) + E(vib) + E(rot) + E(trans)
    E(el)   - is the total energy from the electronic structure calculation
              = E(kin-el) + E(nuc-el) + E(el-el) + E(nuc-nuc)
    E(ZPE)  - the the zero temperature vibrational energy from the frequency calculation
    E(vib)  - the the finite temperature correction to E(ZPE) due to population
              of excietd vibrational states
    E(rot)  - is the rotational thermal energy
    E(trans)- is the translational thermal energy

Summary of contributions to the inner energy U:
Electronic energy                ...   -249.52330441 Eh
Zero point energy                ...      0.12248488 Eh      76.86 kcal/mol
Thermal vibrational correction   ...      0.00350558 Eh       2.20 kcal/mol
Thermal rotational correction    ...      0.00141627 Eh       0.89 kcal/mol
Thermal translational correction ...      0.00141627 Eh       0.89 kcal/mol
-----------------------------------------------------------------------
Total thermal energy                   -249.39448140 Eh

Summary of corrections to the electronic energy:
(perhaps to be used in another calculation)
Total thermal correction                  0.00633813 Eh       3.98 kcal/mol
Non-thermal (ZPE) correction              0.12248488 Eh      76.86 kcal/mol
-----------------------------------------------------------------------
Total correction                          0.12882301 Eh      80.84 kcal/mol

--------
ENTHALPY
--------

The enthalpy is H = U + kB*T
                kB is Boltzmann's constant
Total free energy                 ...   -249.39448140 Eh
Thermal Enthalpy correction       ...      0.00094421 Eh       0.59 kcal/mol
-----------------------------------------------------------------------
Total Enthalpy                    ...   -249.39353719 Eh

-------
ENTROPY
-------

The entropy contributions are T*S = T*(S(el)+S(vib)+S(rot)+S(trans)
     S(el)   - electronic entropy
     S(vib)  - vibrational entropy
     S(rot)  - rotational entropy
     S(trans)- translational entropy
The entropies will be listed as mutliplied by the temperature to get
units of energy

Electronic entropy                ...      0.00000000 Eh      0.00 kcal/mol
Vibrational entropy               ...      0.00619329 Eh      3.89 kcal/mol
Rotational entropy                ...      0.01153093 Eh      7.24 kcal/mol
Translational entropy             ...      0.01859236 Eh     11.67 kcal/mol
-----------------------------------------------------------------------
Final entropy term                ...      0.03631657 Eh     22.79 kcal/mol

CAUTION: The rotational entropy is not quite correctly treated here
         because it includes a symmetry number that is not yet correctly
         implemented in ORCA!
For a nonlinear molecule the correct rotational entropy is:
    S(rot) = R*(ln(qrot/sn)+1.5)
    R    = 8.31441 J/mol/K = 1.987191683e-3 kcal/mol/K
    qrot = 134758.5973322
    sn is the rotational symmetry number. We have assumed 3 here
       if it is different for your molecule then you should correct
       the printed rotational entropy by manually evaluating the equation
       as given above

For convenience we print out the resulting values for sn=1 - 12:
 sn= 1  qrot/sn=  134758.5973 T*S(rot)=     7.89 kcal/mol T*S(tot)=    23.44 kcal/mol
 sn= 2  qrot/sn=   67379.2987 T*S(rot)=     7.48 kcal/mol T*S(tot)=    23.03 kcal/mol
 sn= 3  qrot/sn=   44919.5324 T*S(rot)=     7.24 kcal/mol T*S(tot)=    22.79 kcal/mol
 sn= 4  qrot/sn=   33689.6493 T*S(rot)=     7.07 kcal/mol T*S(tot)=    22.62 kcal/mol
 sn= 5  qrot/sn=   26951.7195 T*S(rot)=     6.93 kcal/mol T*S(tot)=    22.49 kcal/mol
 sn= 6  qrot/sn=   22459.7662 T*S(rot)=     6.83 kcal/mol T*S(tot)=    22.38 kcal/mol
 sn= 7  qrot/sn=   19251.2282 T*S(rot)=     6.73 kcal/mol T*S(tot)=    22.29 kcal/mol
 sn= 8  qrot/sn=   16844.8247 T*S(rot)=     6.65 kcal/mol T*S(tot)=    22.21 kcal/mol
 sn= 9  qrot/sn=   14973.1775 T*S(rot)=     6.58 kcal/mol T*S(tot)=    22.14 kcal/mol
 sn=10  qrot/sn=   13475.8597 T*S(rot)=     6.52 kcal/mol T*S(tot)=    22.08 kcal/mol
 sn=11  qrot/sn=   12250.7816 T*S(rot)=     6.47 kcal/mol T*S(tot)=    22.02 kcal/mol
 sn=12  qrot/sn=   11229.8831 T*S(rot)=     6.41 kcal/mol T*S(tot)=    21.97 kcal/mol

-------------------
GIBBS FREE ENTHALPY
-------------------

The Gibbs free enthalpy is G = H - T*S

Total enthalpy                    ...   -249.39353719 Eh
Total entropy correction          ...     -0.03631657 Eh    -22.79 kcal/mol
-----------------------------------------------------------------------
Final Gibbs free enthalpy         ...   -249.42985376 Eh

For completeness - the Gibbs free enthalpy minus the electronic energy
G-E(el)                           ...      0.09345065 Eh     58.64 kcal/mol

                             ****ORCA TERMINATED NORMALLY****
TOTAL RUN TIME: 0 days 0 hours 15 minutes 0 seconds 435 msec
