                         Program Version 3.0.3 - RELEASE   -
|  1> ! NORI PBE0 def2-TZVP UseSym TightOPT Freq TightSCF Grid3 FinalGrid5 XYZFile
|  2> % pal
|  3>     nprocs 8
|  4> end
|  5> %method
|  6>     SymThresh 5.0e-2
|  7> end
|  8> % geom
|  9>     MaxIter 10
| 10> end
| 11> % maxcore 2000
| 12> % output
| 13>     printlevel mini
| 14>     print[ P_Basis ] 0
| 15>     print[ P_SCFInfo ] 1
| 16>     print[ P_SCFIterInfo ] 1
| 17>     print[ P_OrbEn ] 0
| 18>     print[ P_Cartesian ] 0
| 19> end
| 20> % elprop
| 21>     Dipole false
| 22> end
| 23> *xyz 1 1
| 24>  C        0.9923258069    -0.0412679102    -0.0045877723
| 25>  C        2.5050336048     0.0265612553     0.0052386387
| 26>  C        3.1459520780    -1.1891562237     0.6336640874
| 27>  N        2.9593180449     0.2500230026    -1.4139128904
| 28>  C        4.3637426176     0.2102685951    -1.8626679849
| 29>  C        3.4150096214    -0.8101205008    -2.3361555818
| 30>  H        0.5424304248     0.8586287257    -0.4320012395
| 31>  H        0.6313892664    -0.1268819537     1.0206802457
| 32>  H        0.6364832120    -0.9134789001    -0.5579952810
| 33>  H        2.8371688694     0.9291345615     0.5269310786
| 34>  H        2.7658335720    -2.1195417168     0.2081676907
| 35>  H        2.8845201380    -1.1920213809     1.6926656045
| 36>  H        4.2365740825    -1.1832239154     0.5818954691
| 37>  H        2.4060753456     0.9721857974    -1.8653004348
| 38>  H        4.6526938445     1.0230410070    -2.5165025041
| 39>  H        5.0708179315    -0.0518099304    -1.0874144792
| 40>  H        3.4511336990    -1.7965786808    -1.8959983464
| 41>  H        3.0097978411    -0.7462318319    -3.3374763003
| 42> *
| 43>
| 44>                          ****END OF INPUT****
 Total Charge           Charge          ....    1
 Multiplicity           Mult            ....    1
 Number of Electrons    NEL             ....   48
FINAL SINGLE POINT ENERGY      -252.020846689929
FINAL SINGLE POINT ENERGY      -252.020848213656
FINAL SINGLE POINT ENERGY      -252.020849650618
FINAL SINGLE POINT ENERGY      -252.020850515403

CARTESIAN COORDINATES (ANGSTROEM)
---------------------------------
  C      1.953633   -0.006342   -0.663362
  C      0.574888    0.590876   -0.471370
  C     -0.327407    0.388859   -1.667062
  N     -0.000330    0.006173    0.792378
  C     -1.394796    0.177368    1.240000
  C     -0.910549   -1.156503    0.851495
  H      2.603293    0.173870    0.196890
  H      2.428064    0.456850   -1.529033
  H      1.898910   -1.081724   -0.848372
  H      0.655452    1.658744   -0.248151
  H     -0.368368   -0.656125   -1.980477
  H      0.093244    0.955199   -2.498871
  H     -1.341019    0.764382   -1.517079
  H      0.677203    0.030345    1.548256
  H     -1.505870    0.426518    2.287333
  H     -2.019549    0.729299    0.551371
  H     -1.190982   -1.551184   -0.114854
  H     -0.666893   -1.884743    1.614020

FINAL SINGLE POINT ENERGY      -252.020851407550
                    ***********************HURRAY********************
 Multiplicity           Mult            ....    1
 Number of Electrons    NEL             ....   48
 Basis Dimension        Dim             ....  258
FINAL SINGLE POINT ENERGY      -252.020851766938

VIBRATIONAL FREQUENCIES
-----------------------

   0:         0.00 cm**-1
   1:         0.00 cm**-1
   2:         0.00 cm**-1
   3:         0.00 cm**-1
   4:         0.00 cm**-1
   5:         0.00 cm**-1
   6:        54.25 cm**-1
   7:       215.50 cm**-1
   8:       254.39 cm**-1
   9:       267.29 cm**-1
  10:       287.56 cm**-1
  11:       362.85 cm**-1
  12:       437.43 cm**-1
  13:       521.78 cm**-1
  14:       705.34 cm**-1
  15:       798.11 cm**-1
  16:       877.09 cm**-1
  17:       903.65 cm**-1
  18:       928.35 cm**-1
  19:       947.39 cm**-1
  20:       954.62 cm**-1
  21:       994.72 cm**-1
  22:      1114.82 cm**-1
  23:      1135.62 cm**-1
  24:      1148.05 cm**-1
  25:      1158.25 cm**-1
  26:      1176.07 cm**-1
  27:      1193.43 cm**-1
  28:      1221.46 cm**-1
  29:      1228.81 cm**-1
  30:      1278.67 cm**-1
  31:      1359.05 cm**-1
  32:      1379.06 cm**-1
  33:      1411.50 cm**-1
  34:      1424.42 cm**-1
  35:      1457.74 cm**-1
  36:      1469.70 cm**-1
  37:      1471.40 cm**-1
  38:      1489.71 cm**-1
  39:      1497.43 cm**-1
  40:      1503.47 cm**-1
  41:      1522.92 cm**-1
  42:      3057.24 cm**-1
  43:      3067.62 cm**-1
  44:      3081.65 cm**-1
  45:      3134.41 cm**-1
  46:      3147.85 cm**-1
  47:      3150.08 cm**-1
  48:      3155.88 cm**-1
  49:      3179.23 cm**-1
  50:      3182.49 cm**-1
  51:      3276.95 cm**-1
  52:      3287.77 cm**-1
  53:      3537.77 cm**-1

IR SPECTRUM
-----------

 Mode    freq (cm**-1)   T**2         TX         TY         TZ
-------------------------------------------------------------------
   6:        54.25    0.597705  (  0.054095   0.748917   0.184124)
   7:       215.50    0.091297  ( -0.192255  -0.097245   0.211845)
   8:       254.39    0.414214  ( -0.297803   0.220615   0.526172)
   9:       267.29    0.346720  (  0.234835   0.519397  -0.147647)
  10:       287.56    0.554518  ( -0.491343  -0.215139   0.516541)
  11:       362.85    1.431906  ( -0.773603  -0.241502   0.880410)
  12:       437.43    0.622880  ( -0.750482   0.200636   0.139293)
  13:       521.78    1.223664  ( -0.503297  -0.959306  -0.223802)
  14:       705.34    1.399235  ( -0.381507  -0.677681  -0.891311)
  15:       798.11    3.131912  ( -0.173425   0.179609  -1.752021)
  16:       877.09    1.913713  (  1.245614  -0.341540  -0.495488)
  17:       903.65    3.461419  (  1.846359  -0.141351   0.179992)
  18:       928.35    8.936930  ( -0.889684   2.751179   0.759215)
  19:       947.39    2.642061  ( -0.126252   1.149005   1.142764)
  20:       954.62    9.333025  ( -2.048463  -2.006879   1.053216)
  21:       994.72   41.224299  (  5.641123   1.495830  -2.676662)
  22:      1114.82    1.498625  (  0.853714   0.851546  -0.211344)
  23:      1135.62   31.869173  (  3.150230   3.307311  -3.317667)
  24:      1148.05    4.080466  ( -0.298574  -0.252066   1.981863)
  25:      1158.25    8.859609  ( -1.447459   2.247065   1.309644)
  26:      1176.07    2.267848  (  1.074414  -0.257751  -1.023253)
  27:      1193.43    5.336675  ( -1.762115   1.088936   1.022665)
  28:      1221.46    9.516852  (  1.034775  -2.640909  -1.213133)
  29:      1228.81    3.623950  (  0.796991  -0.176573   1.719761)
  30:      1278.67   22.071950  (  3.869478   1.524089  -2.185462)
  31:      1359.05    7.200235  ( -1.514160  -1.125495   1.908092)
  32:      1379.06   21.203528  ( -2.781967  -0.718706   3.598285)
  33:      1411.50   18.912593  (  1.971273  -1.222966   3.678455)
  34:      1424.42   19.660968  (  3.006036  -0.659503  -3.192142)
  35:      1457.74   23.909578  (  3.822651   3.020542   0.416224)
  36:      1469.70    7.315044  (  2.524895  -0.822260  -0.513651)
  37:      1471.40    3.479900  ( -0.171283   1.689310   0.772524)
  38:      1489.71   10.170635  ( -0.400063   2.881813  -1.306038)
  39:      1497.43    7.538087  (  0.154309   2.739262  -0.103543)
  40:      1503.47   22.481873  ( -1.611595   3.974847   2.021195)
  41:      1522.92    4.855499  ( -0.563208  -1.319334   1.672619)
  42:      3057.24    3.458496  ( -0.929319   0.914367  -1.326196)
  43:      3067.62    4.099432  ( -1.726493  -0.869675   0.601931)
  44:      3081.65    1.305190  (  0.248664   1.111501   0.088998)
  45:      3134.41    6.605030  (  1.297707   1.296456   1.800052)
  46:      3147.85    7.440414  (  1.568492  -2.048709  -0.884894)
  47:      3150.08    1.853866  ( -1.267401   0.054514  -0.494559)
  48:      3155.88    1.596536  (  0.066374   1.255022  -0.130581)
  49:      3179.23    1.625714  (  0.727377  -0.783876  -0.694387)
  50:      3182.49    1.316572  (  0.318261   1.084529  -0.197682)
  51:      3276.95    0.325190  (  0.113393  -0.179648   0.529206)
  52:      3287.77    9.729532  (  0.609892  -0.604745   2.998641)
  53:      3537.77   68.601348  (  6.202119   0.766816   5.435720)

--------------------------
THERMOCHEMISTRY AT 298.15K
--------------------------

Temperature         ... 298.15 K
Pressure            ... 1.00 atm
Total Mass          ... 86.16 AMU

Throughout the following assumptions are being made:
  (1) The electronic state is orbitally nondegenerate
  (2) There are no thermally accessible electronically excited states
  (3) Hindered rotations indicated by low frequency modes) are not
      treated as such but are treated as vibrations and this may
      case some error
  (4) All equations used are the standard statistical mechanics
      equations for an ideal gas
  (5) All vibrations are strinctly harmonic

------------
INNER ENERGY
------------

The inner energy is: U= E(el) + E(ZPE) + E(vib) + E(rot) + E(trans)
    E(el)   - is the total energy from the electronic structure calculation
              = E(kin-el) + E(nuc-el) + E(el-el) + E(nuc-nuc)
    E(ZPE)  - the the zero temperature vibrational energy from the frequency calculation
    E(vib)  - the the finite temperature correction to E(ZPE) due to population
              of excietd vibrational states
    E(rot)  - is the rotational thermal energy
    E(trans)- is the translational thermal energy

Summary of contributions to the inner energy U:
Electronic energy                ...   -252.02085177 Eh
Zero point energy                ...      0.16952034 Eh     106.38 kcal/mol
Thermal vibrational correction   ...      0.00428001 Eh       2.69 kcal/mol
Thermal rotational correction    ...      0.00141627 Eh       0.89 kcal/mol
Thermal translational correction ...      0.00141627 Eh       0.89 kcal/mol
-----------------------------------------------------------------------
Total thermal energy                   -251.84421888 Eh

Summary of corrections to the electronic energy:
(perhaps to be used in another calculation)
Total thermal correction                  0.00711255 Eh       4.46 kcal/mol
Non-thermal (ZPE) correction              0.16952034 Eh     106.38 kcal/mol
-----------------------------------------------------------------------
Total correction                          0.17663289 Eh     110.84 kcal/mol

--------
ENTHALPY
--------

The enthalpy is H = U + kB*T
                kB is Boltzmann's constant
Total free energy                 ...   -251.84421888 Eh
Thermal Enthalpy correction       ...      0.00094421 Eh       0.59 kcal/mol
-----------------------------------------------------------------------
Total Enthalpy                    ...   -251.84327467 Eh

-------
ENTROPY
-------

The entropy contributions are T*S = T*(S(el)+S(vib)+S(rot)+S(trans)
     S(el)   - electronic entropy
     S(vib)  - vibrational entropy
     S(rot)  - rotational entropy
     S(trans)- translational entropy
The entropies will be listed as mutliplied by the temperature to get
units of energy

Electronic entropy                ...      0.00000000 Eh      0.00 kcal/mol
Vibrational entropy               ...      0.00751656 Eh      4.72 kcal/mol
Rotational entropy                ...      0.01161949 Eh      7.29 kcal/mol
Translational entropy             ...      0.01866024 Eh     11.71 kcal/mol
-----------------------------------------------------------------------
Final entropy term                ...      0.03779629 Eh     23.72 kcal/mol

CAUTION: The rotational entropy is not quite correctly treated here
         because it includes a symmetry number that is not yet correctly
         implemented in ORCA!
For a nonlinear molecule the correct rotational entropy is:
    S(rot) = R*(ln(qrot/sn)+1.5)
    R    = 8.31441 J/mol/K = 1.987191683e-3 kcal/mol/K
    qrot = 148009.8642913
    sn is the rotational symmetry number. We have assumed 3 here
       if it is different for your molecule then you should correct
       the printed rotational entropy by manually evaluating the equation
       as given above

For convenience we print out the resulting values for sn=1 - 12:
 sn= 1  qrot/sn=  148009.8643 T*S(rot)=     7.94 kcal/mol T*S(tot)=    24.37 kcal/mol
 sn= 2  qrot/sn=   74004.9321 T*S(rot)=     7.53 kcal/mol T*S(tot)=    23.96 kcal/mol
 sn= 3  qrot/sn=   49336.6214 T*S(rot)=     7.29 kcal/mol T*S(tot)=    23.72 kcal/mol
 sn= 4  qrot/sn=   37002.4661 T*S(rot)=     7.12 kcal/mol T*S(tot)=    23.55 kcal/mol
 sn= 5  qrot/sn=   29601.9729 T*S(rot)=     6.99 kcal/mol T*S(tot)=    23.41 kcal/mol
 sn= 6  qrot/sn=   24668.3107 T*S(rot)=     6.88 kcal/mol T*S(tot)=    23.31 kcal/mol
 sn= 7  qrot/sn=   21144.2663 T*S(rot)=     6.79 kcal/mol T*S(tot)=    23.22 kcal/mol
 sn= 8  qrot/sn=   18501.2330 T*S(rot)=     6.71 kcal/mol T*S(tot)=    23.14 kcal/mol
 sn= 9  qrot/sn=   16445.5405 T*S(rot)=     6.64 kcal/mol T*S(tot)=    23.07 kcal/mol
 sn=10  qrot/sn=   14800.9864 T*S(rot)=     6.58 kcal/mol T*S(tot)=    23.00 kcal/mol
 sn=11  qrot/sn=   13455.4422 T*S(rot)=     6.52 kcal/mol T*S(tot)=    22.95 kcal/mol
 sn=12  qrot/sn=   12334.1554 T*S(rot)=     6.47 kcal/mol T*S(tot)=    22.90 kcal/mol

-------------------
GIBBS FREE ENTHALPY
-------------------

The Gibbs free enthalpy is G = H - T*S

Total enthalpy                    ...   -251.84327467 Eh
Total entropy correction          ...     -0.03779629 Eh    -23.72 kcal/mol
-----------------------------------------------------------------------
Final Gibbs free enthalpy         ...   -251.88107095 Eh

For completeness - the Gibbs free enthalpy minus the electronic energy
G-E(el)                           ...      0.13978081 Eh     87.71 kcal/mol

                             ****ORCA TERMINATED NORMALLY****
TOTAL RUN TIME: 0 days 0 hours 26 minutes 19 seconds 330 msec
