                         Program Version 3.0.3 - RELEASE   -
|  1> ! NORI PBE0 def2-TZVP UseSym TightOPT Freq TightSCF Grid3 FinalGrid5 XYZFile
|  2> % pal
|  3>     nprocs 8
|  4> end
|  5> %method
|  6>     SymThresh 5.0e-2
|  7> end
|  8> % geom
|  9>     MaxIter 10
| 10> end
| 11> % maxcore 2000
| 12> % output
| 13>     printlevel mini
| 14>     print[ P_Basis ] 0
| 15>     print[ P_SCFInfo ] 1
| 16>     print[ P_SCFIterInfo ] 1
| 17>     print[ P_OrbEn ] 0
| 18>     print[ P_Cartesian ] 0
| 19> end
| 20> % elprop
| 21>     Dipole false
| 22> end
| 23> *xyz 1 1
| 24>  C        0.9642484443     0.1224129714     0.2629938130
| 25>  C        2.4801054845     0.0737424738     0.1530676689
| 26>  C        2.9115228029    -0.5761725856    -1.1436831885
| 27>  N        4.4042720247    -0.6247342649    -1.2637258770
| 28>  C        4.9259780540    -1.2545918394    -2.5202389255
| 29>  C        6.4341904886    -1.2552290105    -2.5453386850
| 30>  H        0.6678946574     0.5901889010     1.2016950140
| 31>  H        0.5296124684    -0.8791890302     0.2408996187
| 32>  H        0.5239977454     0.7032021553    -0.5504106601
| 33>  H        2.8868018887     1.0896889538     0.2087335215
| 34>  H        2.8940370642    -0.4845761039     1.0003684051
| 35>  H        2.5594909178    -1.6067713961    -1.2180889218
| 36>  H        2.5463642540    -0.0275130817    -2.0138418475
| 37>  H        4.7733255749     0.3260787227    -1.1909639762
| 38>  H        4.7850254776    -1.1261336705    -0.4579310632
| 39>  H        4.5133138844    -2.2635325920    -2.5525498742
| 40>  H        4.5011474646    -0.6858954639    -3.3483935405
| 41>  H        6.8563781478    -1.8331912656    -1.7198030181
| 42>  H        6.8438713681    -0.2427684820    -2.5160271562
| 43>  H        6.7748817878    -1.7164353918    -3.4729913074
| 44> *
| 45>
| 46>                          ****END OF INPUT****
 Total Charge           Charge          ....    1
 Multiplicity           Mult            ....    1
 Number of Electrons    NEL             ....   50
FINAL SINGLE POINT ENERGY      -253.265661037658

CARTESIAN COORDINATES (ANGSTROEM)
---------------------------------
  C     -2.929363    1.224849    0.000000
  C     -1.410810    1.307649   -0.000000
  C     -0.789871   -0.072439   -0.000000
  N      0.706809   -0.000481   -0.000000
  C      1.412371   -1.323372   -0.000000
  C      2.910151   -1.143401    0.000000
  H     -3.362519    2.224852   -0.000000
  H     -3.300389    0.702818    0.884578
  H     -3.300389    0.702818   -0.884578
  H     -1.071573    1.864098   -0.881173
  H     -1.071573    1.864098    0.881173
  H     -1.074213   -0.645805    0.884304
  H     -1.074213   -0.645805   -0.884304
  H      1.012069    0.538784   -0.813409
  H      1.012069    0.538784    0.813409
  H      1.062221   -1.858522    0.883629
  H      1.062221   -1.858521   -0.883629
  H      3.257886   -0.612336    0.889290
  H      3.257886   -0.612336   -0.889290
  H      3.386541   -2.124354    0.000000

FINAL SINGLE POINT ENERGY      -253.265661551960
                    ***********************HURRAY********************
 Multiplicity           Mult            ....    1
 Number of Electrons    NEL             ....   50
 Basis Dimension        Dim             ....  270
FINAL SINGLE POINT ENERGY      -253.265661750920

VIBRATIONAL FREQUENCIES
-----------------------

   0:         0.00 cm**-1
   1:         0.00 cm**-1
   2:         0.00 cm**-1
   3:         0.00 cm**-1
   4:         0.00 cm**-1
   5:         0.00 cm**-1
   6:        69.60 cm**-1
   7:        85.92 cm**-1
   8:       130.58 cm**-1
   9:       144.94 cm**-1
  10:       237.66 cm**-1
  11:       252.35 cm**-1
  12:       294.96 cm**-1
  13:       368.74 cm**-1
  14:       469.74 cm**-1
  15:       757.01 cm**-1
  16:       779.97 cm**-1
  17:       829.90 cm**-1
  18:       888.31 cm**-1
  19:       918.39 cm**-1
  20:       922.76 cm**-1
  21:      1002.63 cm**-1
  22:      1047.11 cm**-1
  23:      1064.73 cm**-1
  24:      1071.06 cm**-1
  25:      1093.08 cm**-1
  26:      1174.83 cm**-1
  27:      1221.11 cm**-1
  28:      1256.74 cm**-1
  29:      1305.08 cm**-1
  30:      1327.93 cm**-1
  31:      1363.52 cm**-1
  32:      1368.99 cm**-1
  33:      1397.40 cm**-1
  34:      1409.30 cm**-1
  35:      1418.02 cm**-1
  36:      1427.41 cm**-1
  37:      1433.32 cm**-1
  38:      1480.01 cm**-1
  39:      1483.28 cm**-1
  40:      1489.19 cm**-1
  41:      1490.60 cm**-1
  42:      1494.00 cm**-1
  43:      1502.26 cm**-1
  44:      1511.98 cm**-1
  45:      1655.77 cm**-1
  46:      3036.45 cm**-1
  47:      3059.56 cm**-1
  48:      3063.63 cm**-1
  49:      3076.04 cm**-1
  50:      3089.67 cm**-1
  51:      3098.83 cm**-1
  52:      3129.39 cm**-1
  53:      3136.85 cm**-1
  54:      3148.88 cm**-1
  55:      3154.11 cm**-1
  56:      3155.69 cm**-1
  57:      3159.28 cm**-1
  58:      3433.08 cm**-1
  59:      3482.88 cm**-1

IR SPECTRUM
-----------

 Mode    freq (cm**-1)   T**2         TX         TY         TZ
-------------------------------------------------------------------
   6:        69.60    1.877892  ( -0.000006  -0.000004   1.370362)
   7:        85.92    2.255926  ( -0.000023  -0.000021  -1.501974)
   8:       130.58    2.178346  ( -0.837776  -1.215104   0.000032)
   9:       144.94    3.695798  (  0.000006   0.000006  -1.922446)
  10:       237.66    0.017834  (  0.000024   0.000071   0.133543)
  11:       252.35    0.882301  (  0.000013   0.000014   0.939309)
  12:       294.96    0.886510  (  0.298297  -0.893045   0.000007)
  13:       368.74    2.192471  ( -0.987783   1.103067   0.000018)
  14:       469.74    7.651756  ( -2.681624   0.678712   0.000011)
  15:       757.01    6.285496  (  0.000024   0.000008  -2.507089)
  16:       779.97   10.783388  ( -0.000013  -0.000007  -3.283807)
  17:       829.90    0.029419  ( -0.000012   0.000004   0.171520)
  18:       888.31    0.158672  (  0.170724   0.359897   0.000019)
  19:       918.39    1.536271  (  0.000024   0.000004   1.239464)
  20:       922.76    2.168399  (  1.210237   0.838883  -0.000032)
  21:      1002.63   17.244242  (  3.783173  -1.712263  -0.000012)
  22:      1047.11   31.359682  (  4.167827  -3.740173  -0.000049)
  23:      1064.73    0.806342  (  0.000169  -0.000105   0.897966)
  24:      1071.06    3.110947  (  1.750966   0.212289  -0.000010)
  25:      1093.08   17.977973  (  2.603336  -3.346732  -0.000003)
  26:      1174.83    1.110857  (  0.246917   1.024641   0.000015)
  27:      1221.11    0.405896  ( -0.000006  -0.000012   0.637100)
  28:      1256.74    0.211067  ( -0.000005   0.000005   0.459420)
  29:      1305.08   10.553441  ( -3.061983   1.085221  -0.000013)
  30:      1327.93    0.189719  (  0.000038  -0.000026  -0.435567)
  31:      1363.52    8.932121  ( -0.000026   0.000039  -2.988665)
  32:      1368.99    4.436076  (  1.831954  -1.039240  -0.000066)
  33:      1397.40    1.790489  ( -0.000074  -0.000014  -1.338092)
  34:      1409.30   19.122647  (  4.027462  -1.703584  -0.000057)
  35:      1418.02    7.969211  (  1.325397  -2.492495   0.000033)
  36:      1427.41   65.995178  (  7.620621  -2.814483  -0.000003)
  37:      1433.32   27.250838  ( -4.728119   2.212629  -0.000058)
  38:      1480.01   11.104930  ( -2.619819   2.059485  -0.000171)
  39:      1483.28    0.240243  ( -0.168793  -0.460165  -0.000250)
  40:      1489.19   18.639290  (  0.000051   0.000049  -4.317324)
  41:      1490.60    1.212944  ( -0.522550  -0.969477   0.000487)
  42:      1494.00   10.510745  (  0.000033   0.000120   3.242028)
  43:      1502.26    1.811862  ( -1.084682   0.797074   0.000307)
  44:      1511.98   25.204267  (  2.060866   4.577892   0.000099)
  45:      1655.77   39.304391  (  3.014720   5.496895   0.000007)
  46:      3036.45   13.611499  (  3.195864   1.843353   0.000009)
  47:      3059.56    3.258754  (  0.438393   1.751161   0.000005)
  48:      3063.63    9.426686  (  2.814028   1.227979  -0.000014)
  49:      3076.04    5.600913  (  0.000025   0.000018  -2.366625)
  50:      3089.67    2.825569  ( -0.073022  -1.679356   0.000004)
  51:      3098.83    3.738091  ( -1.575605  -1.120518   0.000000)
  52:      3129.39    2.851924  (  0.000004   0.000012   1.688764)
  53:      3136.85   10.105687  (  0.000035  -0.000001   3.178944)
  54:      3148.88    4.472459  ( -0.000011   0.000013  -2.114819)
  55:      3154.11    0.715305  ( -0.722671  -0.439376   0.000087)
  56:      3155.69    4.392251  ( -0.008950   2.095751   0.000062)
  57:      3159.28    3.055322  (  0.000028   0.000015   1.747948)
  58:      3433.08   28.205785  ( -2.727962  -4.556754   0.000065)
  59:      3482.88   53.123822  ( -0.000028  -0.000063  -7.288609)

--------------------------
THERMOCHEMISTRY AT 298.15K
--------------------------

Temperature         ... 298.15 K
Pressure            ... 1.00 atm
Total Mass          ... 88.17 AMU

Throughout the following assumptions are being made:
  (1) The electronic state is orbitally nondegenerate
  (2) There are no thermally accessible electronically excited states
  (3) Hindered rotations indicated by low frequency modes) are not
      treated as such but are treated as vibrations and this may
      case some error
  (4) All equations used are the standard statistical mechanics
      equations for an ideal gas
  (5) All vibrations are strinctly harmonic

------------
INNER ENERGY
------------

The inner energy is: U= E(el) + E(ZPE) + E(vib) + E(rot) + E(trans)
    E(el)   - is the total energy from the electronic structure calculation
              = E(kin-el) + E(nuc-el) + E(el-el) + E(nuc-nuc)
    E(ZPE)  - the the zero temperature vibrational energy from the frequency calculation
    E(vib)  - the the finite temperature correction to E(ZPE) due to population
              of excietd vibrational states
    E(rot)  - is the rotational thermal energy
    E(trans)- is the translational thermal energy

Summary of contributions to the inner energy U:
Electronic energy                ...   -253.26566175 Eh
Zero point energy                ...      0.19333545 Eh     121.32 kcal/mol
Thermal vibrational correction   ...      0.00559890 Eh       3.51 kcal/mol
Thermal rotational correction    ...      0.00141627 Eh       0.89 kcal/mol
Thermal translational correction ...      0.00141627 Eh       0.89 kcal/mol
-----------------------------------------------------------------------
Total thermal energy                   -253.06389485 Eh

Summary of corrections to the electronic energy:
(perhaps to be used in another calculation)
Total thermal correction                  0.00843144 Eh       5.29 kcal/mol
Non-thermal (ZPE) correction              0.19333545 Eh     121.32 kcal/mol
-----------------------------------------------------------------------
Total correction                          0.20176690 Eh     126.61 kcal/mol

--------
ENTHALPY
--------

The enthalpy is H = U + kB*T
                kB is Boltzmann's constant
Total free energy                 ...   -253.06389485 Eh
Thermal Enthalpy correction       ...      0.00094421 Eh       0.59 kcal/mol
-----------------------------------------------------------------------
Total Enthalpy                    ...   -253.06295064 Eh

-------
ENTROPY
-------

The entropy contributions are T*S = T*(S(el)+S(vib)+S(rot)+S(trans)
     S(el)   - electronic entropy
     S(vib)  - vibrational entropy
     S(rot)  - rotational entropy
     S(trans)- translational entropy
The entropies will be listed as mutliplied by the temperature to get
units of energy

Electronic entropy                ...      0.00000000 Eh      0.00 kcal/mol
Vibrational entropy               ...      0.01055338 Eh      6.62 kcal/mol
Rotational entropy                ...      0.01188427 Eh      7.46 kcal/mol
Translational entropy             ...      0.01869299 Eh     11.73 kcal/mol
-----------------------------------------------------------------------
Final entropy term                ...      0.04113064 Eh     25.81 kcal/mol

CAUTION: The rotational entropy is not quite correctly treated here
         because it includes a symmetry number that is not yet correctly
         implemented in ORCA!
For a nonlinear molecule the correct rotational entropy is:
    S(rot) = R*(ln(qrot/sn)+1.5)
    R    = 8.31441 J/mol/K = 1.987191683e-3 kcal/mol/K
    qrot = 195921.8796641
    sn is the rotational symmetry number. We have assumed 3 here
       if it is different for your molecule then you should correct
       the printed rotational entropy by manually evaluating the equation
       as given above

For convenience we print out the resulting values for sn=1 - 12:
 sn= 1  qrot/sn=  195921.8797 T*S(rot)=     8.11 kcal/mol T*S(tot)=    26.46 kcal/mol
 sn= 2  qrot/sn=   97960.9398 T*S(rot)=     7.70 kcal/mol T*S(tot)=    26.05 kcal/mol
 sn= 3  qrot/sn=   65307.2932 T*S(rot)=     7.46 kcal/mol T*S(tot)=    25.81 kcal/mol
 sn= 4  qrot/sn=   48980.4699 T*S(rot)=     7.29 kcal/mol T*S(tot)=    25.64 kcal/mol
 sn= 5  qrot/sn=   39184.3759 T*S(rot)=     7.15 kcal/mol T*S(tot)=    25.51 kcal/mol
 sn= 6  qrot/sn=   32653.6466 T*S(rot)=     7.05 kcal/mol T*S(tot)=    25.40 kcal/mol
 sn= 7  qrot/sn=   27988.8400 T*S(rot)=     6.96 kcal/mol T*S(tot)=    25.31 kcal/mol
 sn= 8  qrot/sn=   24490.2350 T*S(rot)=     6.88 kcal/mol T*S(tot)=    25.23 kcal/mol
 sn= 9  qrot/sn=   21769.0977 T*S(rot)=     6.81 kcal/mol T*S(tot)=    25.16 kcal/mol
 sn=10  qrot/sn=   19592.1880 T*S(rot)=     6.74 kcal/mol T*S(tot)=    25.10 kcal/mol
 sn=11  qrot/sn=   17811.0800 T*S(rot)=     6.69 kcal/mol T*S(tot)=    25.04 kcal/mol
 sn=12  qrot/sn=   16326.8233 T*S(rot)=     6.64 kcal/mol T*S(tot)=    24.99 kcal/mol

-------------------
GIBBS FREE ENTHALPY
-------------------

The Gibbs free enthalpy is G = H - T*S

Total enthalpy                    ...   -253.06295064 Eh
Total entropy correction          ...     -0.04113064 Eh    -25.81 kcal/mol
-----------------------------------------------------------------------
Final Gibbs free enthalpy         ...   -253.10408129 Eh

For completeness - the Gibbs free enthalpy minus the electronic energy
G-E(el)                           ...      0.16158046 Eh    101.39 kcal/mol

                             ****ORCA TERMINATED NORMALLY****
TOTAL RUN TIME: 0 days 0 hours 21 minutes 52 seconds 7 msec
