                         Program Version 3.0.3 - RELEASE   -
|  1> ! NORI PBE0 def2-TZVP UseSym TightOPT Freq TightSCF Grid3 FinalGrid5 XYZFile
|  2> % pal
|  3>     nprocs 8
|  4> end
|  5> %method
|  6>     SymThresh 5.0e-2
|  7> end
|  8> % geom
|  9>     MaxIter 10
| 10> end
| 11> % maxcore 2000
| 12> % output
| 13>     printlevel mini
| 14>     print[ P_Basis ] 0
| 15>     print[ P_SCFInfo ] 1
| 16>     print[ P_SCFIterInfo ] 1
| 17>     print[ P_OrbEn ] 0
| 18>     print[ P_Cartesian ] 0
| 19> end
| 20> % elprop
| 21>     Dipole false
| 22> end
| 23> *xyz 1 1
| 24>  C        0.8943821047    -0.1591258447     0.0838814987
| 25>  C        2.3973198561    -0.0015731907    -0.0821324492
| 26>  C        2.8568703787     1.4150583320     0.1951905063
| 27>  N        3.0462373248    -0.8861770297     1.0011221747
| 28>  C        2.8597995854    -0.5778155598    -1.3920074634
| 29>  C        3.6134844760     0.0438995491    -2.2855019317
| 30>  H        0.3916248903     0.4554164845    -0.6628995471
| 31>  H        0.5568502701     0.1721683241     1.0697532545
| 32>  H        0.5748429262    -1.1924592475    -0.0744335974
| 33>  H        2.4222163130     2.0858662128    -0.5453137986
| 34>  H        3.9432172827     1.5188420920     0.1449571134
| 35>  H        2.5165510869     1.7520213376     1.1772830975
| 36>  H        2.7737914171    -1.8639847049     0.8829775304
| 37>  H        2.7643209676    -0.5887326557     1.9375234238
| 38>  H        4.0649812733    -0.8345684289     0.9358966185
| 39>  H        2.4901790269    -1.5792128013    -1.6094406368
| 40>  H        3.9846308979     1.0522840045    -2.1438370845
| 41>  H        3.8735899222    -0.4401968733    -3.2189287090
| 42> *
| 43>
| 44>                          ****END OF INPUT****
 Total Charge           Charge          ....    1
 Multiplicity           Mult            ....    1
 Number of Electrons    NEL             ....   48
FINAL SINGLE POINT ENERGY      -252.034605617435
FINAL SINGLE POINT ENERGY      -252.034606775901

CARTESIAN COORDINATES (ANGSTROEM)
---------------------------------
  C      1.773987   -0.000310   -0.038346
  C      0.271650   -0.152050    0.140976
  C     -0.211458   -1.536848   -0.238901
  N     -0.000404    0.000318    1.650775
  C     -0.469257    0.983375   -0.509957
  C     -1.479546    0.860704   -1.357189
  H      2.013578   -0.102877   -1.096864
  H      2.327407   -0.771187    0.504609
  H      2.124715    0.984283    0.281856
  H     -0.035246   -1.701079   -1.301812
  H     -1.279025   -1.671421   -0.050949
  H      0.340927   -2.307715    0.304315
  H      0.305121    0.916566    1.984192
  H      0.494209   -0.714698    2.188303
  H     -1.001094   -0.084297    1.839485
  H     -0.089846    1.976558   -0.271900
  H     -1.881892   -0.099411   -1.659624
  H     -1.935297    1.737463   -1.801037

FINAL SINGLE POINT ENERGY      -252.034607602389
                    ***********************HURRAY********************
 Multiplicity           Mult            ....    1
 Number of Electrons    NEL             ....   48
 Basis Dimension        Dim             ....  258
FINAL SINGLE POINT ENERGY      -252.034607816833

VIBRATIONAL FREQUENCIES
-----------------------

   0:         0.00 cm**-1
   1:         0.00 cm**-1
   2:         0.00 cm**-1
   3:         0.00 cm**-1
   4:         0.00 cm**-1
   5:         0.00 cm**-1
   6:       100.41 cm**-1
   7:       212.43 cm**-1
   8:       254.49 cm**-1
   9:       279.40 cm**-1
  10:       291.89 cm**-1
  11:       313.70 cm**-1
  12:       351.26 cm**-1
  13:       384.65 cm**-1
  14:       403.17 cm**-1
  15:       520.68 cm**-1
  16:       680.85 cm**-1
  17:       709.01 cm**-1
  18:       834.90 cm**-1
  19:       918.09 cm**-1
  20:       940.47 cm**-1
  21:       955.87 cm**-1
  22:      1008.44 cm**-1
  23:      1021.86 cm**-1
  24:      1030.34 cm**-1
  25:      1041.93 cm**-1
  26:      1084.77 cm**-1
  27:      1163.68 cm**-1
  28:      1276.83 cm**-1
  29:      1324.89 cm**-1
  30:      1352.82 cm**-1
  31:      1411.00 cm**-1
  32:      1421.97 cm**-1
  33:      1449.03 cm**-1
  34:      1466.51 cm**-1
  35:      1480.59 cm**-1
  36:      1481.50 cm**-1
  37:      1493.29 cm**-1
  38:      1504.63 cm**-1
  39:      1646.29 cm**-1
  40:      1651.41 cm**-1
  41:      1724.69 cm**-1
  42:      3052.65 cm**-1
  43:      3060.50 cm**-1
  44:      3128.55 cm**-1
  45:      3134.12 cm**-1
  46:      3142.94 cm**-1
  47:      3156.09 cm**-1
  48:      3161.05 cm**-1
  49:      3174.04 cm**-1
  50:      3261.85 cm**-1
  51:      3415.19 cm**-1
  52:      3511.10 cm**-1
  53:      3513.15 cm**-1

IR SPECTRUM
-----------

 Mode    freq (cm**-1)   T**2         TX         TY         TZ
-------------------------------------------------------------------
   6:       100.41    3.146494  (  1.555515  -0.587622   0.617711)
   7:       212.43    0.055092  ( -0.133382  -0.166837   0.097296)
   8:       254.49    0.205750  ( -0.422708  -0.053707  -0.155510)
   9:       279.40    0.319900  ( -0.433430   0.031682  -0.361987)
  10:       291.89    0.535829  (  0.706654   0.170489   0.086041)
  11:       313.70    3.903512  (  0.690237  -1.806468   0.404672)
  12:       351.26    4.879096  ( -2.137262  -0.479838   0.284540)
  13:       384.65    2.638472  (  0.866911   0.402626   1.313328)
  14:       403.17    3.418763  (  0.008373  -1.818406  -0.334802)
  15:       520.68    1.737956  ( -0.787776   0.310056   1.010560)
  16:       680.85    6.430779  ( -1.593817  -0.169209   1.965170)
  17:       709.01    7.616969  ( -1.021297   0.134692   2.560426)
  18:       834.90   12.469180  ( -0.513881  -0.144410   3.490595)
  19:       918.09    8.284976  ( -1.726941   1.434185  -1.801600)
  20:       940.47    3.758835  (  1.322517   1.405788   0.183147)
  21:       955.87    2.650284  ( -1.145996  -1.150159  -0.118796)
  22:      1008.44    6.080979  (  1.566760  -1.695151   0.867587)
  23:      1021.86   50.273625  ( -4.724129   0.140385   5.285501)
  24:      1030.34    0.207130  ( -0.133503   0.433813  -0.033372)
  25:      1041.93   15.967003  ( -1.716558   1.558809   3.254312)
  26:      1084.77    2.989204  (  0.534714   1.639590   0.122591)
  27:      1163.68   43.437385  ( -0.281634  -0.486921   6.566656)
  28:      1276.83   20.364550  ( -4.435045   0.457969  -0.696557)
  29:      1324.89   14.051718  ( -1.594295   3.231857  -1.032010)
  30:      1352.82    4.890783  (  0.820289  -1.624706   1.256280)
  31:      1411.00   20.429213  ( -3.019886  -3.309395   0.597833)
  32:      1421.97   36.250496  (  3.398964  -3.094554  -3.888609)
  33:      1449.03   59.226314  (  3.116775   0.523435   7.016983)
  34:      1466.51    1.698237  ( -0.696126  -0.402830  -1.025365)
  35:      1480.59   78.463138  (  1.628562   0.210691  -8.704397)
  36:      1481.50   24.762122  (  0.373114  -0.614456  -4.923957)
  37:      1493.29   29.357391  ( -2.084729   0.993202   4.901515)
  38:      1504.63    5.283320  ( -0.459037  -1.980718   1.072083)
  39:      1646.29   42.730149  (  4.215035   4.989816   0.255674)
  40:      1651.41   44.758695  ( -4.809732   4.424327  -1.431959)
  41:      1724.69    0.436405  ( -0.418737   0.131263   0.493796)
  42:      3052.65    3.838389  ( -1.179582  -0.413009  -1.508774)
  43:      3060.50    4.149811  ( -0.395517  -0.856608   1.805436)
  44:      3128.55    4.792664  (  0.018249   2.163581  -0.333536)
  45:      3134.12    7.783713  ( -2.243489   1.529480  -0.641218)
  46:      3142.94    3.195046  ( -0.544909  -1.547157  -0.710229)
  47:      3156.09    2.176051  (  1.338801   0.556983   0.270985)
  48:      3161.05    0.699631  ( -0.065735   0.757123  -0.349393)
  49:      3174.04    0.804079  ( -0.363040   0.710465  -0.409292)
  50:      3261.85    0.188731  ( -0.289900   0.100904  -0.307421)
  51:      3415.19   35.298183  ( -0.771791   0.390119   5.877953)
  52:      3511.10   63.961368  (  3.536839  -7.132660   0.759803)
  53:      3513.15   69.215342  ( -7.324287  -3.844541  -0.888635)

--------------------------
THERMOCHEMISTRY AT 298.15K
--------------------------

Temperature         ... 298.15 K
Pressure            ... 1.00 atm
Total Mass          ... 86.16 AMU

Throughout the following assumptions are being made:
  (1) The electronic state is orbitally nondegenerate
  (2) There are no thermally accessible electronically excited states
  (3) Hindered rotations indicated by low frequency modes) are not
      treated as such but are treated as vibrations and this may
      case some error
  (4) All equations used are the standard statistical mechanics
      equations for an ideal gas
  (5) All vibrations are strinctly harmonic

------------
INNER ENERGY
------------

The inner energy is: U= E(el) + E(ZPE) + E(vib) + E(rot) + E(trans)
    E(el)   - is the total energy from the electronic structure calculation
              = E(kin-el) + E(nuc-el) + E(el-el) + E(nuc-nuc)
    E(ZPE)  - the the zero temperature vibrational energy from the frequency calculation
    E(vib)  - the the finite temperature correction to E(ZPE) due to population
              of excietd vibrational states
    E(rot)  - is the rotational thermal energy
    E(trans)- is the translational thermal energy

Summary of contributions to the inner energy U:
Electronic energy                ...   -252.03460782 Eh
Zero point energy                ...      0.16835430 Eh     105.64 kcal/mol
Thermal vibrational correction   ...      0.00493924 Eh       3.10 kcal/mol
Thermal rotational correction    ...      0.00141627 Eh       0.89 kcal/mol
Thermal translational correction ...      0.00141627 Eh       0.89 kcal/mol
-----------------------------------------------------------------------
Total thermal energy                   -251.85848173 Eh

Summary of corrections to the electronic energy:
(perhaps to be used in another calculation)
Total thermal correction                  0.00777178 Eh       4.88 kcal/mol
Non-thermal (ZPE) correction              0.16835430 Eh     105.64 kcal/mol
-----------------------------------------------------------------------
Total correction                          0.17612608 Eh     110.52 kcal/mol

--------
ENTHALPY
--------

The enthalpy is H = U + kB*T
                kB is Boltzmann's constant
Total free energy                 ...   -251.85848173 Eh
Thermal Enthalpy correction       ...      0.00094421 Eh       0.59 kcal/mol
-----------------------------------------------------------------------
Total Enthalpy                    ...   -251.85753752 Eh

-------
ENTROPY
-------

The entropy contributions are T*S = T*(S(el)+S(vib)+S(rot)+S(trans)
     S(el)   - electronic entropy
     S(vib)  - vibrational entropy
     S(rot)  - rotational entropy
     S(trans)- translational entropy
The entropies will be listed as mutliplied by the temperature to get
units of energy

Electronic entropy                ...      0.00000000 Eh      0.00 kcal/mol
Vibrational entropy               ...      0.00811317 Eh      5.09 kcal/mol
Rotational entropy                ...      0.01167444 Eh      7.33 kcal/mol
Translational entropy             ...      0.01866024 Eh     11.71 kcal/mol
-----------------------------------------------------------------------
Final entropy term                ...      0.03844785 Eh     24.13 kcal/mol

CAUTION: The rotational entropy is not quite correctly treated here
         because it includes a symmetry number that is not yet correctly
         implemented in ORCA!
For a nonlinear molecule the correct rotational entropy is:
    S(rot) = R*(ln(qrot/sn)+1.5)
    R    = 8.31441 J/mol/K = 1.987191683e-3 kcal/mol/K
    qrot = 156880.3919891
    sn is the rotational symmetry number. We have assumed 3 here
       if it is different for your molecule then you should correct
       the printed rotational entropy by manually evaluating the equation
       as given above

For convenience we print out the resulting values for sn=1 - 12:
 sn= 1  qrot/sn=  156880.3920 T*S(rot)=     7.98 kcal/mol T*S(tot)=    24.78 kcal/mol
 sn= 2  qrot/sn=   78440.1960 T*S(rot)=     7.57 kcal/mol T*S(tot)=    24.37 kcal/mol
 sn= 3  qrot/sn=   52293.4640 T*S(rot)=     7.33 kcal/mol T*S(tot)=    24.13 kcal/mol
 sn= 4  qrot/sn=   39220.0980 T*S(rot)=     7.16 kcal/mol T*S(tot)=    23.96 kcal/mol
 sn= 5  qrot/sn=   31376.0784 T*S(rot)=     7.02 kcal/mol T*S(tot)=    23.82 kcal/mol
 sn= 6  qrot/sn=   26146.7320 T*S(rot)=     6.92 kcal/mol T*S(tot)=    23.72 kcal/mol
 sn= 7  qrot/sn=   22411.4846 T*S(rot)=     6.82 kcal/mol T*S(tot)=    23.62 kcal/mol
 sn= 8  qrot/sn=   19610.0490 T*S(rot)=     6.74 kcal/mol T*S(tot)=    23.55 kcal/mol
 sn= 9  qrot/sn=   17431.1547 T*S(rot)=     6.67 kcal/mol T*S(tot)=    23.48 kcal/mol
 sn=10  qrot/sn=   15688.0392 T*S(rot)=     6.61 kcal/mol T*S(tot)=    23.41 kcal/mol
 sn=11  qrot/sn=   14261.8538 T*S(rot)=     6.56 kcal/mol T*S(tot)=    23.36 kcal/mol
 sn=12  qrot/sn=   13073.3660 T*S(rot)=     6.50 kcal/mol T*S(tot)=    23.30 kcal/mol

-------------------
GIBBS FREE ENTHALPY
-------------------

The Gibbs free enthalpy is G = H - T*S

Total enthalpy                    ...   -251.85753752 Eh
Total entropy correction          ...     -0.03844785 Eh    -24.13 kcal/mol
-----------------------------------------------------------------------
Final Gibbs free enthalpy         ...   -251.89598537 Eh

For completeness - the Gibbs free enthalpy minus the electronic energy
G-E(el)                           ...      0.13862244 Eh     86.99 kcal/mol

                             ****ORCA TERMINATED NORMALLY****
TOTAL RUN TIME: 0 days 0 hours 23 minutes 44 seconds 457 msec
