                         Program Version 3.0.3 - RELEASE   -
|  1> ! NORI PBE0 def2-TZVP UseSym TightOPT Freq TightSCF Grid3 FinalGrid5 XYZFile
|  2> % pal
|  3>     nprocs 8
|  4> end
|  5> %method
|  6>     SymThresh 5.0e-2
|  7> end
|  8> % geom
|  9>     MaxIter 10
| 10> end
| 11> % maxcore 2000
| 12> % output
| 13>     printlevel mini
| 14>     print[ P_Basis ] 0
| 15>     print[ P_SCFInfo ] 1
| 16>     print[ P_SCFIterInfo ] 1
| 17>     print[ P_OrbEn ] 0
| 18>     print[ P_Cartesian ] 0
| 19> end
| 20> % elprop
| 21>     Dipole false
| 22> end
| 23> *xyz 1 1
| 24>  C        0.9369792358     0.0366648219     0.0924969984
| 25>  C        2.4569497120    -0.0239263394     0.0428016201
| 26>  C        3.0096158912     0.2706322452    -1.3445617335
| 27>  N        2.9838753799     1.0759003972     0.9803370221
| 28>  C        2.9726583435    -1.2732489870     0.5826149733
| 29>  C        3.3972744507    -2.3028069428     1.0251652621
| 30>  H        0.5355299553    -0.7459829171    -0.5503677680
| 31>  H        0.5696872771     0.9975282242    -0.2771685950
| 32>  H        0.5585955828    -0.1387377176     1.1012995368
| 33>  H        2.6698299216    -0.5066894527    -2.0284842751
| 34>  H        4.1016056271     0.2639605406    -1.3542881643
| 35>  H        2.6430750401     1.2306361247    -1.7167758316
| 36>  H        2.6677508204     1.9987357735     0.6744156258
| 37>  H        4.0061374759     1.0694685102     0.9964823622
| 38>  H        2.6547088538     0.9177852376     1.9352181037
| 39>  H        3.7703264329    -3.2254295184     1.4124848631
| 40> *
| 41>
| 42>                          ****END OF INPUT****
 Total Charge           Charge          ....    1
 Multiplicity           Mult            ....    1
 Number of Electrons    NEL             ....   46
FINAL SINGLE POINT ENERGY      -250.777387599761

CARTESIAN COORDINATES (ANGSTROEM)
---------------------------------
  C     -0.197315    1.124503    1.266565
  C      0.085140    0.328872   -0.000000
  C     -0.197315    1.124503   -1.266565
  N      1.587947   -0.000084    0.000000
  C     -0.593121   -0.958833    0.000000
  C     -1.153178   -2.018330    0.000000
  H     -1.261480    1.355459    1.303657
  H      0.352716    2.069057    1.267312
  H      0.047902    0.554468    2.164791
  H     -1.261480    1.355459   -1.303657
  H      0.047903    0.554468   -2.164791
  H      0.352716    2.069057   -1.267312
  H      2.148629    0.854905   -0.000000
  H      1.831444   -0.550644   -0.826287
  H      1.831444   -0.550643    0.826287
  H     -1.661465   -2.957680    0.000000

FINAL SINGLE POINT ENERGY      -250.777387919429
                    ***********************HURRAY********************
 Multiplicity           Mult            ....    1
 Number of Electrons    NEL             ....   46
 Basis Dimension        Dim             ....  246
FINAL SINGLE POINT ENERGY      -250.777388096619

VIBRATIONAL FREQUENCIES
-----------------------

   0:         0.00 cm**-1
   1:         0.00 cm**-1
   2:         0.00 cm**-1
   3:         0.00 cm**-1
   4:         0.00 cm**-1
   5:         0.00 cm**-1
   6:       169.04 cm**-1
   7:       172.24 cm**-1
   8:       209.51 cm**-1
   9:       252.90 cm**-1
  10:       277.45 cm**-1
  11:       350.72 cm**-1
  12:       356.36 cm**-1
  13:       384.91 cm**-1
  14:       541.80 cm**-1
  15:       545.79 cm**-1
  16:       686.29 cm**-1
  17:       729.79 cm**-1
  18:       771.11 cm**-1
  19:       844.95 cm**-1
  20:       927.69 cm**-1
  21:       948.34 cm**-1
  22:       954.88 cm**-1
  23:      1042.03 cm**-1
  24:      1049.74 cm**-1
  25:      1165.12 cm**-1
  26:      1278.77 cm**-1
  27:      1313.29 cm**-1
  28:      1408.42 cm**-1
  29:      1423.79 cm**-1
  30:      1460.13 cm**-1
  31:      1477.38 cm**-1
  32:      1484.15 cm**-1
  33:      1488.36 cm**-1
  34:      1498.71 cm**-1
  35:      1641.24 cm**-1
  36:      1650.13 cm**-1
  37:      2249.45 cm**-1
  38:      3058.66 cm**-1
  39:      3061.52 cm**-1
  40:      3141.08 cm**-1
  41:      3143.38 cm**-1
  42:      3163.15 cm**-1
  43:      3166.97 cm**-1
  44:      3412.44 cm**-1
  45:      3451.91 cm**-1
  46:      3508.17 cm**-1
  47:      3510.12 cm**-1

IR SPECTRUM
-----------

 Mode    freq (cm**-1)   T**2         TX         TY         TZ
-------------------------------------------------------------------
   6:       169.04    5.896292  ( -0.089624   2.426574   0.000384)
   7:       172.24    1.364395  (  0.000013  -0.000835   1.168073)
   8:       209.51    0.006445  (  0.000023  -0.000114   0.080283)
   9:       252.90    0.027553  (  0.000006  -0.000217   0.165991)
  10:       277.45    0.919362  ( -0.160239  -0.945349  -0.000017)
  11:       350.72    0.122952  (  0.028372  -0.349495   0.000373)
  12:       356.36   13.730886  (  0.000017   0.000005   3.705521)
  13:       384.91    4.372168  (  0.280643  -2.072054   0.000006)
  14:       541.80    7.426095  (  0.000753  -0.000100  -2.725086)
  15:       545.79   22.771018  ( -4.686575   0.898348  -0.000412)
  16:       686.29    0.264518  ( -0.456271   0.237350  -0.000010)
  17:       729.79   38.539834  (  0.000005  -0.000014   6.208046)
  18:       771.11   29.053683  ( -4.404248   3.107455   0.000002)
  19:       844.95   14.498383  ( -3.771651  -0.522525  -0.000016)
  20:       927.69    5.544331  ( -1.080161  -2.092267   0.000063)
  21:       948.34    7.063033  ( -0.000000   0.000039   2.657637)
  22:       954.88    0.192800  (  0.000060   0.000098  -0.439090)
  23:      1042.03   11.220133  (  2.163811  -2.556962   0.000079)
  24:      1049.74    0.861425  (  0.000110  -0.000224  -0.928130)
  25:      1165.12   46.396191  (  6.809659  -0.157281  -0.000020)
  26:      1278.77   22.814157  (  0.000050  -0.000011   4.776417)
  27:      1313.29   63.188631  ( -3.082053  -7.327317  -0.000003)
  28:      1408.42   18.559465  ( -0.000146   0.000150   4.308070)
  29:      1423.79   36.763661  ( -4.987295   3.448268  -0.000197)
  30:      1460.13    0.058910  ( -0.000180   0.000065   0.242715)
  31:      1477.38    3.310902  (  0.000918  -0.000040  -1.819588)
  32:      1484.15   22.274284  ( -4.701758  -0.409581  -0.000152)
  33:      1488.36  135.061808  ( 11.484747  -1.778310   0.000043)
  34:      1498.71    2.342396  ( -0.256868   1.508779   0.000041)
  35:      1641.24   43.109343  (  0.000079   0.000377   6.565771)
  36:      1650.13   43.844521  ( -1.471829  -6.455869   0.000383)
  37:      2249.45   26.189571  ( -3.233118  -3.966928  -0.000000)
  38:      3058.66    0.367801  ( -0.000289  -0.000082  -0.606466)
  39:      3061.52    7.427416  (  2.581706   0.873046  -0.000060)
  40:      3141.08    1.454951  ( -0.000059  -0.000292   1.206213)
  41:      3143.38    6.455963  ( -0.399147  -2.509312  -0.000121)
  42:      3163.15    1.718048  ( -0.000008   0.000039   1.310743)
  43:      3166.97    0.715096  ( -0.299466   0.790833  -0.000040)
  44:      3412.44   43.040766  (  6.502500  -0.870780   0.000021)
  45:      3451.91   97.961688  (  4.425650   8.852983  -0.000000)
  46:      3508.17   81.527888  ( -0.000148  -0.000897   9.029279)
  47:      3510.12   71.524356  ( -1.328281  -8.352247  -0.000950)

--------------------------
THERMOCHEMISTRY AT 298.15K
--------------------------

Temperature         ... 298.15 K
Pressure            ... 1.00 atm
Total Mass          ... 84.14 AMU

Throughout the following assumptions are being made:
  (1) The electronic state is orbitally nondegenerate
  (2) There are no thermally accessible electronically excited states
  (3) Hindered rotations indicated by low frequency modes) are not
      treated as such but are treated as vibrations and this may
      case some error
  (4) All equations used are the standard statistical mechanics
      equations for an ideal gas
  (5) All vibrations are strinctly harmonic

------------
INNER ENERGY
------------

The inner energy is: U= E(el) + E(ZPE) + E(vib) + E(rot) + E(trans)
    E(el)   - is the total energy from the electronic structure calculation
              = E(kin-el) + E(nuc-el) + E(el-el) + E(nuc-nuc)
    E(ZPE)  - the the zero temperature vibrational energy from the frequency calculation
    E(vib)  - the the finite temperature correction to E(ZPE) due to population
              of excietd vibrational states
    E(rot)  - is the rotational thermal energy
    E(trans)- is the translational thermal energy

Summary of contributions to the inner energy U:
Electronic energy                ...   -250.77738810 Eh
Zero point energy                ...      0.14437163 Eh      90.59 kcal/mol
Thermal vibrational correction   ...      0.00478087 Eh       3.00 kcal/mol
Thermal rotational correction    ...      0.00141627 Eh       0.89 kcal/mol
Thermal translational correction ...      0.00141627 Eh       0.89 kcal/mol
-----------------------------------------------------------------------
Total thermal energy                   -250.62540305 Eh

Summary of corrections to the electronic energy:
(perhaps to be used in another calculation)
Total thermal correction                  0.00761341 Eh       4.78 kcal/mol
Non-thermal (ZPE) correction              0.14437163 Eh      90.59 kcal/mol
-----------------------------------------------------------------------
Total correction                          0.15198504 Eh      95.37 kcal/mol

--------
ENTHALPY
--------

The enthalpy is H = U + kB*T
                kB is Boltzmann's constant
Total free energy                 ...   -250.62540305 Eh
Thermal Enthalpy correction       ...      0.00094421 Eh       0.59 kcal/mol
-----------------------------------------------------------------------
Total Enthalpy                    ...   -250.62445885 Eh

-------
ENTROPY
-------

The entropy contributions are T*S = T*(S(el)+S(vib)+S(rot)+S(trans)
     S(el)   - electronic entropy
     S(vib)  - vibrational entropy
     S(rot)  - rotational entropy
     S(trans)- translational entropy
The entropies will be listed as mutliplied by the temperature to get
units of energy

Electronic entropy                ...      0.00000000 Eh      0.00 kcal/mol
Vibrational entropy               ...      0.00775562 Eh      4.87 kcal/mol
Rotational entropy                ...      0.01164972 Eh      7.31 kcal/mol
Translational entropy             ...      0.01862670 Eh     11.69 kcal/mol
-----------------------------------------------------------------------
Final entropy term                ...      0.03803205 Eh     23.87 kcal/mol

CAUTION: The rotational entropy is not quite correctly treated here
         because it includes a symmetry number that is not yet correctly
         implemented in ORCA!
For a nonlinear molecule the correct rotational entropy is:
    S(rot) = R*(ln(qrot/sn)+1.5)
    R    = 8.31441 J/mol/K = 1.987191683e-3 kcal/mol/K
    qrot = 152826.1985097
    sn is the rotational symmetry number. We have assumed 3 here
       if it is different for your molecule then you should correct
       the printed rotational entropy by manually evaluating the equation
       as given above

For convenience we print out the resulting values for sn=1 - 12:
 sn= 1  qrot/sn=  152826.1985 T*S(rot)=     7.96 kcal/mol T*S(tot)=    24.52 kcal/mol
 sn= 2  qrot/sn=   76413.0993 T*S(rot)=     7.55 kcal/mol T*S(tot)=    24.11 kcal/mol
 sn= 3  qrot/sn=   50942.0662 T*S(rot)=     7.31 kcal/mol T*S(tot)=    23.87 kcal/mol
 sn= 4  qrot/sn=   38206.5496 T*S(rot)=     7.14 kcal/mol T*S(tot)=    23.69 kcal/mol
 sn= 5  qrot/sn=   30565.2397 T*S(rot)=     7.01 kcal/mol T*S(tot)=    23.56 kcal/mol
 sn= 6  qrot/sn=   25471.0331 T*S(rot)=     6.90 kcal/mol T*S(tot)=    23.45 kcal/mol
 sn= 7  qrot/sn=   21832.3141 T*S(rot)=     6.81 kcal/mol T*S(tot)=    23.36 kcal/mol
 sn= 8  qrot/sn=   19103.2748 T*S(rot)=     6.73 kcal/mol T*S(tot)=    23.28 kcal/mol
 sn= 9  qrot/sn=   16980.6887 T*S(rot)=     6.66 kcal/mol T*S(tot)=    23.21 kcal/mol
 sn=10  qrot/sn=   15282.6199 T*S(rot)=     6.60 kcal/mol T*S(tot)=    23.15 kcal/mol
 sn=11  qrot/sn=   13893.2908 T*S(rot)=     6.54 kcal/mol T*S(tot)=    23.10 kcal/mol
 sn=12  qrot/sn=   12735.5165 T*S(rot)=     6.49 kcal/mol T*S(tot)=    23.04 kcal/mol

-------------------
GIBBS FREE ENTHALPY
-------------------

The Gibbs free enthalpy is G = H - T*S

Total enthalpy                    ...   -250.62445885 Eh
Total entropy correction          ...     -0.03803205 Eh    -23.87 kcal/mol
-----------------------------------------------------------------------
Final Gibbs free enthalpy         ...   -250.66249089 Eh

For completeness - the Gibbs free enthalpy minus the electronic energy
G-E(el)                           ...      0.11489720 Eh     72.10 kcal/mol

                             ****ORCA TERMINATED NORMALLY****
TOTAL RUN TIME: 0 days 0 hours 19 minutes 23 seconds 52 msec
