                         Program Version 3.0.3 - RELEASE   -
|  1> ! NORI PBE0 def2-TZVP UseSym TightOPT Freq TightSCF Grid3 FinalGrid5 XYZFile
|  2> % pal
|  3>     nprocs 8
|  4> end
|  5> %method
|  6>     SymThresh 5.0e-2
|  7> end
|  8> % geom
|  9>     MaxIter 10
| 10> end
| 11> % maxcore 2000
| 12> % output
| 13>     printlevel mini
| 14>     print[ P_Basis ] 0
| 15>     print[ P_SCFInfo ] 1
| 16>     print[ P_SCFIterInfo ] 1
| 17>     print[ P_OrbEn ] 0
| 18>     print[ P_Cartesian ] 0
| 19> end
| 20> % elprop
| 21>     Dipole false
| 22> end
| 23> *xyz 1 1
| 24>  C        0.9992902267     0.2512698270    -0.1368814512
| 25>  C        2.4886803584     0.1057386558     0.0936102617
| 26>  C        2.8815502039     0.2508355791     1.5468987072
| 27>  N        2.9708424767    -1.2206099232    -0.4968603181
| 28>  C        4.4363302079    -1.2373630145    -0.7429646400
| 29>  C        2.5472665577    -2.4221359102     0.2692870965
| 30>  H        0.7254982296     0.1070268289    -1.1858644568
| 31>  H        0.7019089035     1.2654707814     0.1326152918
| 32>  H        0.4115393400    -0.4291352443     0.4819220629
| 33>  H        3.0181563752     0.8515703803    -0.5050373977
| 34>  H        2.3210316951    -0.4255556532     2.1938731129
| 35>  H        2.6406289314     1.2676149876     1.8600584831
| 36>  H        3.9497602335     0.1122542206     1.7199112092
| 37>  H        2.5167444769    -1.2794557848    -1.4094245178
| 38>  H        4.9573595009    -1.1688415666     0.2089023277
| 39>  H        4.7024209605    -0.3931693162    -1.3767748752
| 40>  H        4.7019158983    -2.1709785799    -1.2366038643
| 41>  H        3.0878882675    -2.4484016853     1.2115333359
| 42>  H        2.7875363979    -3.3088810565    -0.3151642833
| 43>  H        1.4761007584    -2.3812835259     0.4501439152
| 44> *
| 45>
| 46>                          ****END OF INPUT****
 Total Charge           Charge          ....    1
 Multiplicity           Mult            ....    1
 Number of Electrons    NEL             ....   50
FINAL SINGLE POINT ENERGY      -253.257515464765
FINAL SINGLE POINT ENERGY      -253.257518322632
FINAL SINGLE POINT ENERGY      -253.257519531648

CARTESIAN COORDINATES (ANGSTROEM)
---------------------------------
  C      1.748212   -0.000126   -0.965773
  C      0.373965    0.513690   -0.590282
  C     -0.685901    0.187305   -1.618352
  N     -0.000965   -0.001068    0.800937
  C     -1.071992    0.806181    1.441066
  C     -0.326223   -1.450862    0.852084
  H      2.496469    0.216184   -0.197920
  H      2.071339    0.505025   -1.876804
  H      1.750663   -1.071523   -1.174037
  H      0.425056    1.596679   -0.448593
  H     -0.722844   -0.879258   -1.846122
  H     -0.427574    0.704901   -2.543160
  H     -1.682037    0.528392   -1.332891
  H      0.842660    0.130547    1.360994
  H     -1.992305    0.690667    0.873758
  H     -0.771196    1.852172    1.456060
  H     -1.223813    0.448528    2.458237
  H     -1.273868   -1.619420    0.346080
  H     -0.411235   -1.750492    1.895352
  H      0.464162   -2.021014    0.370289

FINAL SINGLE POINT ENERGY      -253.257520271924
                    ***********************HURRAY********************
 Multiplicity           Mult            ....    1
 Number of Electrons    NEL             ....   50
 Basis Dimension        Dim             ....  270
FINAL SINGLE POINT ENERGY      -253.257520655872

VIBRATIONAL FREQUENCIES
-----------------------

   0:         0.00 cm**-1
   1:         0.00 cm**-1
   2:         0.00 cm**-1
   3:         0.00 cm**-1
   4:         0.00 cm**-1
   5:         0.00 cm**-1
   6:        64.20 cm**-1
   7:       197.32 cm**-1
   8:       229.25 cm**-1
   9:       240.91 cm**-1
  10:       266.84 cm**-1
  11:       285.03 cm**-1
  12:       300.96 cm**-1
  13:       343.96 cm**-1
  14:       412.83 cm**-1
  15:       488.20 cm**-1
  16:       546.97 cm**-1
  17:       726.78 cm**-1
  18:       904.20 cm**-1
  19:       938.11 cm**-1
  20:       941.67 cm**-1
  21:       963.34 cm**-1
  22:      1016.04 cm**-1
  23:      1050.56 cm**-1
  24:      1093.82 cm**-1
  25:      1106.89 cm**-1
  26:      1173.17 cm**-1
  27:      1215.07 cm**-1
  28:      1229.85 cm**-1
  29:      1254.55 cm**-1
  30:      1346.20 cm**-1
  31:      1380.08 cm**-1
  32:      1408.47 cm**-1
  33:      1419.82 cm**-1
  34:      1430.08 cm**-1
  35:      1435.60 cm**-1
  36:      1447.42 cm**-1
  37:      1467.32 cm**-1
  38:      1468.99 cm**-1
  39:      1479.57 cm**-1
  40:      1484.58 cm**-1
  41:      1494.79 cm**-1
  42:      1497.54 cm**-1
  43:      1503.92 cm**-1
  44:      1508.67 cm**-1
  45:      1510.17 cm**-1
  46:      3057.20 cm**-1
  47:      3071.09 cm**-1
  48:      3084.93 cm**-1
  49:      3092.36 cm**-1
  50:      3098.30 cm**-1
  51:      3135.38 cm**-1
  52:      3149.70 cm**-1
  53:      3152.19 cm**-1
  54:      3155.11 cm**-1
  55:      3186.60 cm**-1
  56:      3190.72 cm**-1
  57:      3199.12 cm**-1
  58:      3205.48 cm**-1
  59:      3458.51 cm**-1

IR SPECTRUM
-----------

 Mode    freq (cm**-1)   T**2         TX         TY         TZ
-------------------------------------------------------------------
   6:        64.20    0.128909  ( -0.092286  -0.286325  -0.195985)
   7:       197.32    0.029414  ( -0.140727  -0.070462   0.068155)
   8:       229.25    0.041705  ( -0.067413  -0.190544   0.029206)
   9:       240.91    0.079279  (  0.092817   0.236984  -0.120428)
  10:       266.84    0.294966  ( -0.038851   0.536283   0.076532)
  11:       285.03    0.689667  (  0.277585   0.620852  -0.476609)
  12:       300.96    0.317215  (  0.027053   0.435242  -0.356437)
  13:       343.96    0.891586  ( -0.443069   0.175893   0.815069)
  14:       412.83    0.372068  ( -0.151778  -0.199734   0.556001)
  15:       488.20    1.571284  ( -0.187056   0.982118   0.756133)
  16:       546.97    1.720394  ( -0.011536  -1.193548   0.543786)
  17:       726.78    4.408033  ( -0.326705   0.291291   2.053399)
  18:       904.20    2.154021  (  1.325994  -0.310002  -0.547412)
  19:       938.11    8.587635  (  0.907909   1.209931  -2.509861)
  20:       941.67    8.415404  ( -1.940517  -0.589150   2.074295)
  21:       963.34    5.178576  ( -1.534448  -1.007616   1.344899)
  22:      1016.04   16.338515  (  1.837363  -3.044404  -1.922034)
  23:      1050.56    0.337907  ( -0.101237   0.367883   0.438543)
  24:      1093.82    8.510143  (  1.189863   1.224490  -2.365374)
  25:      1106.89    8.783608  ( -0.238942  -0.499620   2.911511)
  26:      1173.17   25.177172  ( -1.777033  -2.204706   4.142293)
  27:      1215.07    2.544789  (  0.793758  -1.380201  -0.098903)
  28:      1229.85    1.676727  ( -1.197159  -0.157532   0.467676)
  29:      1254.55    1.898358  ( -0.692881  -0.374441   1.130517)
  30:      1346.20    9.588627  ( -1.406089  -0.620695   2.688174)
  31:      1380.08    5.724803  ( -0.751243  -1.001883   2.038791)
  32:      1408.47   11.796098  (  0.990377  -0.125865   3.286245)
  33:      1419.82   27.074802  ( -4.415670   0.609721   2.684195)
  34:      1430.08    2.772358  ( -0.155306  -0.893736   1.396236)
  35:      1435.60    9.118582  (  2.743448  -0.815047   0.963210)
  36:      1447.42    9.055699  ( -0.671128  -2.273956  -1.853217)
  37:      1467.32    1.576945  ( -0.187176  -1.229156  -0.176311)
  38:      1468.99    9.705853  ( -2.213244  -2.175923   0.269741)
  39:      1479.57   10.552958  (  1.857480  -2.065392  -1.684305)
  40:      1484.58    5.002748  ( -1.223860   0.967500   1.602766)
  41:      1494.79    4.597895  (  0.379589   1.875140   0.968327)
  42:      1497.54   34.832046  (  1.631430   4.971716   2.729932)
  43:      1503.92   17.979043  (  3.915572  -1.621699   0.132014)
  44:      1508.67   32.051865  (  1.474920  -2.556646   4.831153)
  45:      1510.17   18.712638  ( -1.335379  -2.053701   3.565349)
  46:      3057.20    4.603563  (  1.159160  -0.832918   1.601923)
  47:      3071.09    2.339518  (  1.222536   0.689199  -0.608218)
  48:      3084.93    1.854741  (  0.266134   1.285699   0.361789)
  49:      3092.36    0.451546  (  0.358910  -0.491696  -0.284542)
  50:      3098.30    0.198711  ( -0.165423  -0.200868   0.361937)
  51:      3135.38    6.868547  (  1.433327   1.596296   1.505310)
  52:      3149.70    0.386218  ( -0.607503  -0.067167  -0.112457)
  53:      3152.19    5.675863  ( -1.792192   1.310845   0.863479)
  54:      3155.11    4.962325  ( -0.244346   2.190697   0.321661)
  55:      3186.60    0.072448  (  0.030232   0.240579  -0.116857)
  56:      3190.72    0.106420  ( -0.034668   0.136031   0.294471)
  57:      3199.12    0.142694  (  0.319156   0.151601   0.133603)
  58:      3205.48    0.184185  (  0.061218  -0.423268   0.035801)
  59:      3458.51   42.118746  (  5.364499   0.825861   3.557928)

--------------------------
THERMOCHEMISTRY AT 298.15K
--------------------------

Temperature         ... 298.15 K
Pressure            ... 1.00 atm
Total Mass          ... 88.17 AMU

Throughout the following assumptions are being made:
  (1) The electronic state is orbitally nondegenerate
  (2) There are no thermally accessible electronically excited states
  (3) Hindered rotations indicated by low frequency modes) are not
      treated as such but are treated as vibrations and this may
      case some error
  (4) All equations used are the standard statistical mechanics
      equations for an ideal gas
  (5) All vibrations are strinctly harmonic

------------
INNER ENERGY
------------

The inner energy is: U= E(el) + E(ZPE) + E(vib) + E(rot) + E(trans)
    E(el)   - is the total energy from the electronic structure calculation
              = E(kin-el) + E(nuc-el) + E(el-el) + E(nuc-nuc)
    E(ZPE)  - the the zero temperature vibrational energy from the frequency calculation
    E(vib)  - the the finite temperature correction to E(ZPE) due to population
              of excietd vibrational states
    E(rot)  - is the rotational thermal energy
    E(trans)- is the translational thermal energy

Summary of contributions to the inner energy U:
Electronic energy                ...   -253.25752066 Eh
Zero point energy                ...      0.19252895 Eh     120.81 kcal/mol
Thermal vibrational correction   ...      0.00536228 Eh       3.36 kcal/mol
Thermal rotational correction    ...      0.00141627 Eh       0.89 kcal/mol
Thermal translational correction ...      0.00141627 Eh       0.89 kcal/mol
-----------------------------------------------------------------------
Total thermal energy                   -253.05679688 Eh

Summary of corrections to the electronic energy:
(perhaps to be used in another calculation)
Total thermal correction                  0.00819482 Eh       5.14 kcal/mol
Non-thermal (ZPE) correction              0.19252895 Eh     120.81 kcal/mol
-----------------------------------------------------------------------
Total correction                          0.20072377 Eh     125.96 kcal/mol

--------
ENTHALPY
--------

The enthalpy is H = U + kB*T
                kB is Boltzmann's constant
Total free energy                 ...   -253.05679688 Eh
Thermal Enthalpy correction       ...      0.00094421 Eh       0.59 kcal/mol
-----------------------------------------------------------------------
Total Enthalpy                    ...   -253.05585267 Eh

-------
ENTROPY
-------

The entropy contributions are T*S = T*(S(el)+S(vib)+S(rot)+S(trans)
     S(el)   - electronic entropy
     S(vib)  - vibrational entropy
     S(rot)  - rotational entropy
     S(trans)- translational entropy
The entropies will be listed as mutliplied by the temperature to get
units of energy

Electronic entropy                ...      0.00000000 Eh      0.00 kcal/mol
Vibrational entropy               ...      0.00925515 Eh      5.81 kcal/mol
Rotational entropy                ...      0.01174115 Eh      7.37 kcal/mol
Translational entropy             ...      0.01869299 Eh     11.73 kcal/mol
-----------------------------------------------------------------------
Final entropy term                ...      0.03968929 Eh     24.91 kcal/mol

CAUTION: The rotational entropy is not quite correctly treated here
         because it includes a symmetry number that is not yet correctly
         implemented in ORCA!
For a nonlinear molecule the correct rotational entropy is:
    S(rot) = R*(ln(qrot/sn)+1.5)
    R    = 8.31441 J/mol/K = 1.987191683e-3 kcal/mol/K
    qrot = 168364.0071043
    sn is the rotational symmetry number. We have assumed 3 here
       if it is different for your molecule then you should correct
       the printed rotational entropy by manually evaluating the equation
       as given above

For convenience we print out the resulting values for sn=1 - 12:
 sn= 1  qrot/sn=  168364.0071 T*S(rot)=     8.02 kcal/mol T*S(tot)=    25.56 kcal/mol
 sn= 2  qrot/sn=   84182.0036 T*S(rot)=     7.61 kcal/mol T*S(tot)=    25.15 kcal/mol
 sn= 3  qrot/sn=   56121.3357 T*S(rot)=     7.37 kcal/mol T*S(tot)=    24.91 kcal/mol
 sn= 4  qrot/sn=   42091.0018 T*S(rot)=     7.20 kcal/mol T*S(tot)=    24.73 kcal/mol
 sn= 5  qrot/sn=   33672.8014 T*S(rot)=     7.07 kcal/mol T*S(tot)=    24.60 kcal/mol
 sn= 6  qrot/sn=   28060.6679 T*S(rot)=     6.96 kcal/mol T*S(tot)=    24.49 kcal/mol
 sn= 7  qrot/sn=   24052.0010 T*S(rot)=     6.87 kcal/mol T*S(tot)=    24.40 kcal/mol
 sn= 8  qrot/sn=   21045.5009 T*S(rot)=     6.79 kcal/mol T*S(tot)=    24.32 kcal/mol
 sn= 9  qrot/sn=   18707.1119 T*S(rot)=     6.72 kcal/mol T*S(tot)=    24.25 kcal/mol
 sn=10  qrot/sn=   16836.4007 T*S(rot)=     6.65 kcal/mol T*S(tot)=    24.19 kcal/mol
 sn=11  qrot/sn=   15305.8188 T*S(rot)=     6.60 kcal/mol T*S(tot)=    24.14 kcal/mol
 sn=12  qrot/sn=   14030.3339 T*S(rot)=     6.55 kcal/mol T*S(tot)=    24.08 kcal/mol

-------------------
GIBBS FREE ENTHALPY
-------------------

The Gibbs free enthalpy is G = H - T*S

Total enthalpy                    ...   -253.05585267 Eh
Total entropy correction          ...     -0.03968929 Eh    -24.91 kcal/mol
-----------------------------------------------------------------------
Final Gibbs free enthalpy         ...   -253.09554196 Eh

For completeness - the Gibbs free enthalpy minus the electronic energy
G-E(el)                           ...      0.16197869 Eh    101.64 kcal/mol

                             ****ORCA TERMINATED NORMALLY****
TOTAL RUN TIME: 0 days 0 hours 32 minutes 49 seconds 838 msec
