                         Program Version 3.0.3 - RELEASE   -
|  1> ! NORI PBE0 def2-TZVP UseSym TightOPT Freq TightSCF Grid3 FinalGrid5 XYZFile
|  2> % pal
|  3>     nprocs 8
|  4> end
|  5> %method
|  6>     SymThresh 5.0e-2
|  7> end
|  8> % geom
|  9>     MaxIter 10
| 10> end
| 11> % maxcore 2000
| 12> % output
| 13>     printlevel mini
| 14>     print[ P_Basis ] 0
| 15>     print[ P_SCFInfo ] 1
| 16>     print[ P_SCFIterInfo ] 1
| 17>     print[ P_OrbEn ] 0
| 18>     print[ P_Cartesian ] 0
| 19> end
| 20> % elprop
| 21>     Dipole false
| 22> end
| 23> *xyz 1 1
| 24>  C        1.0621455449     0.1446526480     0.2854807416
| 25>  C        2.4981185875    -0.0887789943    -0.1806143409
| 26>  C        2.8225781655    -1.5683938787    -0.3339777817
| 27>  N        2.5805037843    -2.3256704215     0.9490633335
| 28>  C        2.7531263080     0.5639270273    -1.5101451295
| 29>  C        3.7047162714     1.4571224817    -1.7313898383
| 30>  H        0.8530468306     1.2140787915     0.3132295124
| 31>  H        0.8666651243    -0.2266623938     1.2980573875
| 32>  H        0.3413780618    -0.3120860221    -0.3989653718
| 33>  H        3.1949506016     0.3451270744     0.5474055683
| 34>  H        3.8676209804    -1.7278413695    -0.5990671562
| 35>  H        2.1905955813    -2.0407739575    -1.0884957630
| 36>  H        3.1754418813    -1.9712355486     1.7008189954
| 37>  H        2.7707958698    -3.3237414861     0.8422763681
| 38>  H        1.6091989482    -2.2159841198     1.2492228003
| 39>  H        2.0835288678     0.2725831076    -2.3176889269
| 40>  H        4.3800516468     1.7828405520    -0.9462381885
| 41>  H        3.8361869446     1.9083265094    -2.7071522101
| 42> *
| 43>
| 44>                          ****END OF INPUT****
 Total Charge           Charge          ....    1
 Multiplicity           Mult            ....    1
 Number of Electrons    NEL             ....   48
FINAL SINGLE POINT ENERGY      -252.025925175559
FINAL SINGLE POINT ENERGY      -252.025927632345
FINAL SINGLE POINT ENERGY      -252.025931277969

CARTESIAN COORDINATES (ANGSTROEM)
---------------------------------
  C      1.704972    0.004778   -0.097414
  C      0.198445   -0.242030   -0.148439
  C     -0.537798    0.437921    0.997836
  N     -0.003121   -0.003774    2.338775
  C     -0.396025    0.271498   -1.429755
  C     -1.103425   -0.466251   -2.271081
  H      2.182009   -0.442159   -0.969674
  H      2.190909   -0.446020    0.775782
  H      1.934181    1.074437   -0.111118
  H      0.001759   -1.320355   -0.094055
  H     -1.601524    0.199677    0.992189
  H     -0.418266    1.522666    0.964943
  H     -0.116337   -1.012252    2.461442
  H     -0.481802    0.462705    3.111266
  H      0.995598    0.203182    2.410488
  H     -0.199907    1.317866   -1.657912
  H     -1.305916   -1.516351   -2.084047
  H     -1.498358   -0.048726   -3.189191

FINAL SINGLE POINT ENERGY      -252.025931889334
                    ***********************HURRAY********************
 Multiplicity           Mult            ....    1
 Number of Electrons    NEL             ....   48
 Basis Dimension        Dim             ....  258
FINAL SINGLE POINT ENERGY      -252.025932099589

VIBRATIONAL FREQUENCIES
-----------------------

   0:         0.00 cm**-1
   1:         0.00 cm**-1
   2:         0.00 cm**-1
   3:         0.00 cm**-1
   4:         0.00 cm**-1
   5:         0.00 cm**-1
   6:        86.02 cm**-1
   7:       101.76 cm**-1
   8:       199.74 cm**-1
   9:       213.25 cm**-1
  10:       253.34 cm**-1
  11:       308.20 cm**-1
  12:       337.49 cm**-1
  13:       421.41 cm**-1
  14:       500.59 cm**-1
  15:       685.05 cm**-1
  16:       804.18 cm**-1
  17:       852.56 cm**-1
  18:       898.73 cm**-1
  19:       952.21 cm**-1
  20:       975.37 cm**-1
  21:       999.46 cm**-1
  22:      1003.60 cm**-1
  23:      1026.38 cm**-1
  24:      1028.59 cm**-1
  25:      1158.70 cm**-1
  26:      1176.39 cm**-1
  27:      1211.13 cm**-1
  28:      1304.37 cm**-1
  29:      1325.23 cm**-1
  30:      1335.81 cm**-1
  31:      1365.19 cm**-1
  32:      1400.85 cm**-1
  33:      1416.70 cm**-1
  34:      1455.37 cm**-1
  35:      1478.23 cm**-1
  36:      1487.55 cm**-1
  37:      1494.80 cm**-1
  38:      1507.24 cm**-1
  39:      1653.07 cm**-1
  40:      1663.94 cm**-1
  41:      1725.59 cm**-1
  42:      3032.57 cm**-1
  43:      3037.25 cm**-1
  44:      3096.31 cm**-1
  45:      3103.82 cm**-1
  46:      3149.64 cm**-1
  47:      3150.80 cm**-1
  48:      3159.58 cm**-1
  49:      3161.41 cm**-1
  50:      3252.76 cm**-1
  51:      3421.95 cm**-1
  52:      3500.96 cm**-1
  53:      3512.61 cm**-1

IR SPECTRUM
-----------

 Mode    freq (cm**-1)   T**2         TX         TY         TZ
-------------------------------------------------------------------
   6:        86.02    3.072255  ( -1.639446  -0.420550  -0.455641)
   7:       101.76    5.056076  ( -1.369608  -1.741308   0.384834)
   8:       199.74    1.306200  ( -0.645290   0.041702   0.942370)
   9:       213.25    3.910370  (  1.416288  -0.804579  -1.121227)
  10:       253.34    6.358028  (  1.767216  -0.789474  -1.616077)
  11:       308.20    6.477832  (  0.075384  -0.250623  -2.531667)
  12:       337.49    0.244649  (  0.246440   0.233405  -0.359775)
  13:       421.41    7.181583  ( -0.699548   0.032750   2.586724)
  14:       500.59    0.468896  (  0.105347  -0.664813   0.125783)
  15:       685.05   14.686000  (  2.955077  -1.133791  -2.160564)
  16:       804.18   11.962098  ( -2.539722  -0.677592   2.247838)
  17:       852.56    5.667360  (  0.963931   1.562915   1.515089)
  18:       898.73   10.965389  ( -1.852495   0.321701   2.725832)
  19:       952.21   17.194176  ( -0.957094  -1.001517  -3.908338)
  20:       975.37    7.436942  (  0.253439  -1.669475   2.141393)
  21:       999.46   46.783768  (  6.228325  -1.280867  -2.520143)
  22:      1003.60    2.727936  (  0.365714  -1.120742  -1.156774)
  23:      1026.38   31.283024  (  2.437120  -2.781319  -4.196157)
  24:      1028.59    7.164763  (  2.082096  -0.640792  -1.555322)
  25:      1158.70    2.772477  ( -0.576339   0.708884   1.392047)
  26:      1176.39    3.687346  (  1.426789  -0.125023  -1.279057)
  27:      1211.13    1.392925  (  0.196488  -1.126744  -0.291146)
  28:      1304.37    2.548772  ( -0.408027   1.242771   0.915319)
  29:      1325.23    5.671110  ( -1.418753  -1.733479  -0.808271)
  30:      1335.81    0.399459  ( -0.010789  -0.518391  -0.361405)
  31:      1365.19    3.497948  (  1.469162   0.325714  -1.110595)
  32:      1400.85    4.518198  (  1.999823  -0.015523   0.720183)
  33:      1416.70    9.727741  (  2.143810   1.035064  -2.015060)
  34:      1455.37   11.365163  (  1.073123   2.273144   2.246417)
  35:      1478.23   30.290103  (  0.120415  -0.424418   5.485934)
  36:      1487.55    7.248842  (  2.500548  -0.914851   0.398937)
  37:      1494.80   67.444332  ( -1.292544  -0.863714  -8.063973)
  38:      1507.24   90.664704  ( -3.542691   5.223333  -7.129574)
  39:      1653.07   46.561889  ( -3.681685  -5.646649  -1.059449)
  40:      1663.94   39.184947  (  4.584684  -1.874998  -3.827532)
  41:      1725.59    2.043644  (  1.018668   0.795312   0.611096)
  42:      3032.57   28.608909  (  2.727186   0.335022   4.589023)
  43:      3037.25    7.470353  (  0.624632   2.245654  -1.427315)
  44:      3096.31    1.447613  (  0.456536  -0.678659  -0.882389)
  45:      3103.82   18.307220  ( -0.789568   3.028411  -2.917624)
  46:      3149.64    0.692532  ( -0.163938  -0.370277  -0.727016)
  47:      3150.80    4.995471  ( -0.284452  -2.176331   0.422066)
  48:      3159.58    0.720119  (  0.194252   0.770047  -0.299020)
  49:      3161.41    0.672599  ( -0.488601  -0.608896   0.251226)
  50:      3252.76    0.842656  (  0.089658   0.873039  -0.269111)
  51:      3421.95   37.637655  (  2.325564  -1.281453   5.530577)
  52:      3500.96   96.385452  (  7.567611   5.530035  -2.921547)
  53:      3512.61  105.846299  ( -4.984809   7.149249   5.466829)

--------------------------
THERMOCHEMISTRY AT 298.15K
--------------------------

Temperature         ... 298.15 K
Pressure            ... 1.00 atm
Total Mass          ... 86.16 AMU

Throughout the following assumptions are being made:
  (1) The electronic state is orbitally nondegenerate
  (2) There are no thermally accessible electronically excited states
  (3) Hindered rotations indicated by low frequency modes) are not
      treated as such but are treated as vibrations and this may
      case some error
  (4) All equations used are the standard statistical mechanics
      equations for an ideal gas
  (5) All vibrations are strinctly harmonic

------------
INNER ENERGY
------------

The inner energy is: U= E(el) + E(ZPE) + E(vib) + E(rot) + E(trans)
    E(el)   - is the total energy from the electronic structure calculation
              = E(kin-el) + E(nuc-el) + E(el-el) + E(nuc-nuc)
    E(ZPE)  - the the zero temperature vibrational energy from the frequency calculation
    E(vib)  - the the finite temperature correction to E(ZPE) due to population
              of excietd vibrational states
    E(rot)  - is the rotational thermal energy
    E(trans)- is the translational thermal energy

Summary of contributions to the inner energy U:
Electronic energy                ...   -252.02593210 Eh
Zero point energy                ...      0.16946773 Eh     106.34 kcal/mol
Thermal vibrational correction   ...      0.00505479 Eh       3.17 kcal/mol
Thermal rotational correction    ...      0.00141627 Eh       0.89 kcal/mol
Thermal translational correction ...      0.00141627 Eh       0.89 kcal/mol
-----------------------------------------------------------------------
Total thermal energy                   -251.84857703 Eh

Summary of corrections to the electronic energy:
(perhaps to be used in another calculation)
Total thermal correction                  0.00788733 Eh       4.95 kcal/mol
Non-thermal (ZPE) correction              0.16946773 Eh     106.34 kcal/mol
-----------------------------------------------------------------------
Total correction                          0.17735507 Eh     111.29 kcal/mol

--------
ENTHALPY
--------

The enthalpy is H = U + kB*T
                kB is Boltzmann's constant
Total free energy                 ...   -251.84857703 Eh
Thermal Enthalpy correction       ...      0.00094421 Eh       0.59 kcal/mol
-----------------------------------------------------------------------
Total Enthalpy                    ...   -251.84763282 Eh

-------
ENTROPY
-------

The entropy contributions are T*S = T*(S(el)+S(vib)+S(rot)+S(trans)
     S(el)   - electronic entropy
     S(vib)  - vibrational entropy
     S(rot)  - rotational entropy
     S(trans)- translational entropy
The entropies will be listed as mutliplied by the temperature to get
units of energy

Electronic entropy                ...      0.00000000 Eh      0.00 kcal/mol
Vibrational entropy               ...      0.00898887 Eh      5.64 kcal/mol
Rotational entropy                ...      0.01185306 Eh      7.44 kcal/mol
Translational entropy             ...      0.01866024 Eh     11.71 kcal/mol
-----------------------------------------------------------------------
Final entropy term                ...      0.03950216 Eh     24.79 kcal/mol

CAUTION: The rotational entropy is not quite correctly treated here
         because it includes a symmetry number that is not yet correctly
         implemented in ORCA!
For a nonlinear molecule the correct rotational entropy is:
    S(rot) = R*(ln(qrot/sn)+1.5)
    R    = 8.31441 J/mol/K = 1.987191683e-3 kcal/mol/K
    qrot = 189550.4761073
    sn is the rotational symmetry number. We have assumed 3 here
       if it is different for your molecule then you should correct
       the printed rotational entropy by manually evaluating the equation
       as given above

For convenience we print out the resulting values for sn=1 - 12:
 sn= 1  qrot/sn=  189550.4761 T*S(rot)=     8.09 kcal/mol T*S(tot)=    25.44 kcal/mol
 sn= 2  qrot/sn=   94775.2381 T*S(rot)=     7.68 kcal/mol T*S(tot)=    25.03 kcal/mol
 sn= 3  qrot/sn=   63183.4920 T*S(rot)=     7.44 kcal/mol T*S(tot)=    24.79 kcal/mol
 sn= 4  qrot/sn=   47387.6190 T*S(rot)=     7.27 kcal/mol T*S(tot)=    24.62 kcal/mol
 sn= 5  qrot/sn=   37910.0952 T*S(rot)=     7.14 kcal/mol T*S(tot)=    24.49 kcal/mol
 sn= 6  qrot/sn=   31591.7460 T*S(rot)=     7.03 kcal/mol T*S(tot)=    24.38 kcal/mol
 sn= 7  qrot/sn=   27078.6394 T*S(rot)=     6.94 kcal/mol T*S(tot)=    24.29 kcal/mol
 sn= 8  qrot/sn=   23693.8095 T*S(rot)=     6.86 kcal/mol T*S(tot)=    24.21 kcal/mol
 sn= 9  qrot/sn=   21061.1640 T*S(rot)=     6.79 kcal/mol T*S(tot)=    24.14 kcal/mol
 sn=10  qrot/sn=   18955.0476 T*S(rot)=     6.72 kcal/mol T*S(tot)=    24.07 kcal/mol
 sn=11  qrot/sn=   17231.8615 T*S(rot)=     6.67 kcal/mol T*S(tot)=    24.02 kcal/mol
 sn=12  qrot/sn=   15795.8730 T*S(rot)=     6.62 kcal/mol T*S(tot)=    23.97 kcal/mol

-------------------
GIBBS FREE ENTHALPY
-------------------

The Gibbs free enthalpy is G = H - T*S

Total enthalpy                    ...   -251.84763282 Eh
Total entropy correction          ...     -0.03950216 Eh    -24.79 kcal/mol
-----------------------------------------------------------------------
Final Gibbs free enthalpy         ...   -251.88713498 Eh

For completeness - the Gibbs free enthalpy minus the electronic energy
G-E(el)                           ...      0.13879712 Eh     87.10 kcal/mol

                             ****ORCA TERMINATED NORMALLY****
TOTAL RUN TIME: 0 days 0 hours 23 minutes 16 seconds 576 msec
