                         Program Version 3.0.3 - RELEASE   -
|  1> ! NORI PBE0 def2-TZVP UseSym TightOPT Freq TightSCF Grid3 FinalGrid5 XYZFile
|  2> % pal
|  3>     nprocs 8
|  4> end
|  5> %method
|  6>     SymThresh 5.0e-2
|  7> end
|  8> % geom
|  9>     MaxIter 10
| 10> end
| 11> % maxcore 2000
| 12> % output
| 13>     printlevel mini
| 14>     print[ P_Basis ] 0
| 15>     print[ P_SCFInfo ] 1
| 16>     print[ P_SCFIterInfo ] 1
| 17>     print[ P_OrbEn ] 0
| 18>     print[ P_Cartesian ] 0
| 19> end
| 20> % elprop
| 21>     Dipole false
| 22> end
| 23> *xyz 1 1
| 24>  C        0.9996346574     0.0363054508    -0.0383567798
| 25>  C        2.5268985243     0.0229956626     0.0099870793
| 26>  C        3.0365102367    -1.4151121171     0.1157120979
| 27>  N        4.5272843743    -1.4359823493    -0.0457282353
| 28>  C        3.1410488988     0.6414277265    -1.1599033834
| 29>  C        3.7113000337     1.0805117634    -2.1226385708
| 30>  H        0.6383074378     1.0630132679    -0.0731477845
| 31>  H        0.5842908542    -0.4411910572     0.8512651041
| 32>  H        0.6328566829    -0.4843485789    -0.9243215285
| 33>  H        2.8508836434     0.5771056402     0.9009462377
| 34>  H        2.6285307127    -2.0271887435    -0.6893889109
| 35>  H        2.7906084784    -1.8672928724     1.0761674946
| 36>  H        4.7527319233    -0.8320407352    -0.8554318275
| 37>  H        4.8911889320    -2.3754182737    -0.2079556884
| 38>  H        5.0033582478    -1.0465968460     0.7701771289
| 39>  H        4.1691463622     1.5161420620    -2.9833124332
| 40> *
| 41>
| 42>                          ****END OF INPUT****
 Total Charge           Charge          ....    1
 Multiplicity           Mult            ....    1
 Number of Electrons    NEL             ....   46
FINAL SINGLE POINT ENERGY      -250.779229968795
FINAL SINGLE POINT ENERGY      -250.779230972060

CARTESIAN COORDINATES (ANGSTROEM)
---------------------------------
  C      1.310833    0.001388   -1.623199
  C      0.452315   -0.421176   -0.431522
  C      0.964497    0.247023    0.845621
  N     -0.000804    0.002185    1.967060
  C     -0.957437   -0.081832   -0.593042
  C     -2.119270    0.223353   -0.633961
  H      0.970115   -0.505215   -2.525194
  H      2.355679   -0.266842   -1.455389
  H      1.242936    1.077537   -1.790210
  H      0.531661   -1.510198   -0.314982
  H      1.021355    1.328248    0.715715
  H      1.939966   -0.134780    1.145218
  H     -0.949180    0.186744    1.596493
  H      0.174665    0.603162    2.773030
  H      0.022206   -0.969146    2.283014
  H     -3.150002    0.483282   -0.736098

FINAL SINGLE POINT ENERGY      -250.779231457983
                    ***********************HURRAY********************
 Multiplicity           Mult            ....    1
 Number of Electrons    NEL             ....   46
 Basis Dimension        Dim             ....  246
FINAL SINGLE POINT ENERGY      -250.779231502192

VIBRATIONAL FREQUENCIES
-----------------------

   0:         0.00 cm**-1
   1:         0.00 cm**-1
   2:         0.00 cm**-1
   3:         0.00 cm**-1
   4:         0.00 cm**-1
   5:         0.00 cm**-1
   6:       131.42 cm**-1
   7:       163.42 cm**-1
   8:       209.17 cm**-1
   9:       240.04 cm**-1
  10:       261.96 cm**-1
  11:       284.80 cm**-1
  12:       421.00 cm**-1
  13:       527.96 cm**-1
  14:       573.39 cm**-1
  15:       716.08 cm**-1
  16:       747.07 cm**-1
  17:       783.76 cm**-1
  18:       870.29 cm**-1
  19:       912.92 cm**-1
  20:       983.82 cm**-1
  21:       999.01 cm**-1
  22:      1049.96 cm**-1
  23:      1116.59 cm**-1
  24:      1137.61 cm**-1
  25:      1202.74 cm**-1
  26:      1320.86 cm**-1
  27:      1332.43 cm**-1
  28:      1362.14 cm**-1
  29:      1394.35 cm**-1
  30:      1420.04 cm**-1
  31:      1481.14 cm**-1
  32:      1492.00 cm**-1
  33:      1494.32 cm**-1
  34:      1496.41 cm**-1
  35:      1640.53 cm**-1
  36:      1661.05 cm**-1
  37:      2227.29 cm**-1
  38:      3033.05 cm**-1
  39:      3068.38 cm**-1
  40:      3105.85 cm**-1
  41:      3148.88 cm**-1
  42:      3166.37 cm**-1
  43:      3171.70 cm**-1
  44:      3264.34 cm**-1
  45:      3449.97 cm**-1
  46:      3466.89 cm**-1
  47:      3522.83 cm**-1

IR SPECTRUM
-----------

 Mode    freq (cm**-1)   T**2         TX         TY         TZ
-------------------------------------------------------------------
   6:       131.42    9.265139  (  1.892793  -1.312088   1.990201)
   7:       163.42    2.965437  ( -0.915717  -0.899382  -1.148047)
   8:       209.17    2.730819  (  0.097471  -1.563196   0.527007)
   9:       240.04    2.345330  ( -0.436860   1.241087  -0.783700)
  10:       261.96    2.438915  ( -1.087369  -0.264970  -1.089190)
  11:       284.80   10.880502  (  1.909511   1.742232   2.049121)
  12:       421.00   32.437091  (  1.173572   0.082039   5.572530)
  13:       527.96    4.325709  ( -1.127871  -1.741829   0.140172)
  14:       573.39    8.586745  (  0.326221   0.290722   2.897552)
  15:       716.08   43.661052  ( -1.894687  -6.019832   1.957764)
  16:       747.07   38.292604  (  1.786825  -2.029667  -5.565996)
  17:       783.76    8.684462  (  0.905406   0.256844   2.792621)
  18:       870.29    9.038351  ( -1.941989   1.997296  -1.130415)
  19:       912.92    9.720640  ( -1.266904  -0.143677  -2.845163)
  20:       983.82    6.857918  ( -0.409926  -0.606601   2.514342)
  21:       999.01   10.842236  (  0.612139  -3.045620  -1.091660)
  22:      1049.96   38.215129  ( -3.607782  -1.167648  -4.882175)
  23:      1116.59   13.635292  (  3.094981   0.226411   2.001281)
  24:      1137.61    5.925347  (  1.277280   0.720109   1.943025)
  25:      1202.74    2.994917  (  0.640305   1.039305   1.226691)
  26:      1320.86    2.423426  (  1.341570  -0.290587   0.734285)
  27:      1332.43    3.161831  (  0.708395  -1.336445   0.934838)
  28:      1362.14   16.628997  ( -3.858269   1.136437  -0.671762)
  29:      1394.35    0.059169  ( -0.102907   0.220080  -0.011992)
  30:      1420.04    3.994363  (  0.423955   1.020556  -1.665260)
  31:      1481.14    7.831886  (  0.870355  -1.249829  -2.347828)
  32:      1492.00   31.624190  (  2.374004   3.904022  -3.278248)
  33:      1494.32   16.857727  (  2.395697   0.455325   3.303187)
  34:      1496.41  145.428435  ( -4.734603   0.458076  11.081612)
  35:      1640.53   29.121939  (  0.801045  -5.319030   0.433809)
  36:      1661.05   32.849862  ( -3.173699  -1.609428  -4.493021)
  37:      2227.29    4.323414  ( -1.162281   0.211481  -1.711080)
  38:      3033.05    2.544958  (  0.477182  -1.104667   1.047362)
  39:      3068.38    4.720626  ( -1.981046  -0.781976   0.429646)
  40:      3105.85    1.405210  (  0.941278   0.462944   0.552168)
  41:      3148.88    4.753795  (  1.418616  -1.613533   0.371264)
  42:      3166.37    1.313964  (  0.699206   0.785746   0.455718)
  43:      3171.70    0.872269  ( -0.699724   0.226762  -0.575530)
  44:      3264.34  154.493037  ( -9.315206   0.834514  -8.186792)
  45:      3449.97  110.307249  (-10.183877   2.306843  -1.128883)
  46:      3466.89  114.382827  (  2.746522  -3.262619   9.807893)
  47:      3522.83  105.460999  (  1.415493   9.032845   4.676011)

--------------------------
THERMOCHEMISTRY AT 298.15K
--------------------------

Temperature         ... 298.15 K
Pressure            ... 1.00 atm
Total Mass          ... 84.14 AMU

Throughout the following assumptions are being made:
  (1) The electronic state is orbitally nondegenerate
  (2) There are no thermally accessible electronically excited states
  (3) Hindered rotations indicated by low frequency modes) are not
      treated as such but are treated as vibrations and this may
      case some error
  (4) All equations used are the standard statistical mechanics
      equations for an ideal gas
  (5) All vibrations are strinctly harmonic

------------
INNER ENERGY
------------

The inner energy is: U= E(el) + E(ZPE) + E(vib) + E(rot) + E(trans)
    E(el)   - is the total energy from the electronic structure calculation
              = E(kin-el) + E(nuc-el) + E(el-el) + E(nuc-nuc)
    E(ZPE)  - the the zero temperature vibrational energy from the frequency calculation
    E(vib)  - the the finite temperature correction to E(ZPE) due to population
              of excietd vibrational states
    E(rot)  - is the rotational thermal energy
    E(trans)- is the translational thermal energy

Summary of contributions to the inner energy U:
Electronic energy                ...   -250.77923150 Eh
Zero point energy                ...      0.14592542 Eh      91.57 kcal/mol
Thermal vibrational correction   ...      0.00455581 Eh       2.86 kcal/mol
Thermal rotational correction    ...      0.00141627 Eh       0.89 kcal/mol
Thermal translational correction ...      0.00141627 Eh       0.89 kcal/mol
-----------------------------------------------------------------------
Total thermal energy                   -250.62591773 Eh

Summary of corrections to the electronic energy:
(perhaps to be used in another calculation)
Total thermal correction                  0.00738835 Eh       4.64 kcal/mol
Non-thermal (ZPE) correction              0.14592542 Eh      91.57 kcal/mol
-----------------------------------------------------------------------
Total correction                          0.15331377 Eh      96.21 kcal/mol

--------
ENTHALPY
--------

The enthalpy is H = U + kB*T
                kB is Boltzmann's constant
Total free energy                 ...   -250.62591773 Eh
Thermal Enthalpy correction       ...      0.00094421 Eh       0.59 kcal/mol
-----------------------------------------------------------------------
Total Enthalpy                    ...   -250.62497352 Eh

-------
ENTROPY
-------

The entropy contributions are T*S = T*(S(el)+S(vib)+S(rot)+S(trans)
     S(el)   - electronic entropy
     S(vib)  - vibrational entropy
     S(rot)  - rotational entropy
     S(trans)- translational entropy
The entropies will be listed as mutliplied by the temperature to get
units of energy

Electronic entropy                ...      0.00000000 Eh      0.00 kcal/mol
Vibrational entropy               ...      0.00763209 Eh      4.79 kcal/mol
Rotational entropy                ...      0.01176176 Eh      7.38 kcal/mol
Translational entropy             ...      0.01862670 Eh     11.69 kcal/mol
-----------------------------------------------------------------------
Final entropy term                ...      0.03802055 Eh     23.86 kcal/mol

CAUTION: The rotational entropy is not quite correctly treated here
         because it includes a symmetry number that is not yet correctly
         implemented in ORCA!
For a nonlinear molecule the correct rotational entropy is:
    S(rot) = R*(ln(qrot/sn)+1.5)
    R    = 8.31441 J/mol/K = 1.987191683e-3 kcal/mol/K
    qrot = 172080.8697652
    sn is the rotational symmetry number. We have assumed 3 here
       if it is different for your molecule then you should correct
       the printed rotational entropy by manually evaluating the equation
       as given above

For convenience we print out the resulting values for sn=1 - 12:
 sn= 1  qrot/sn=  172080.8698 T*S(rot)=     8.03 kcal/mol T*S(tot)=    24.51 kcal/mol
 sn= 2  qrot/sn=   86040.4349 T*S(rot)=     7.62 kcal/mol T*S(tot)=    24.10 kcal/mol
 sn= 3  qrot/sn=   57360.2899 T*S(rot)=     7.38 kcal/mol T*S(tot)=    23.86 kcal/mol
 sn= 4  qrot/sn=   43020.2174 T*S(rot)=     7.21 kcal/mol T*S(tot)=    23.69 kcal/mol
 sn= 5  qrot/sn=   34416.1740 T*S(rot)=     7.08 kcal/mol T*S(tot)=    23.56 kcal/mol
 sn= 6  qrot/sn=   28680.1450 T*S(rot)=     6.97 kcal/mol T*S(tot)=    23.45 kcal/mol
 sn= 7  qrot/sn=   24582.9814 T*S(rot)=     6.88 kcal/mol T*S(tot)=    23.36 kcal/mol
 sn= 8  qrot/sn=   21510.1087 T*S(rot)=     6.80 kcal/mol T*S(tot)=    23.28 kcal/mol
 sn= 9  qrot/sn=   19120.0966 T*S(rot)=     6.73 kcal/mol T*S(tot)=    23.21 kcal/mol
 sn=10  qrot/sn=   17208.0870 T*S(rot)=     6.67 kcal/mol T*S(tot)=    23.14 kcal/mol
 sn=11  qrot/sn=   15643.7154 T*S(rot)=     6.61 kcal/mol T*S(tot)=    23.09 kcal/mol
 sn=12  qrot/sn=   14340.0725 T*S(rot)=     6.56 kcal/mol T*S(tot)=    23.04 kcal/mol

-------------------
GIBBS FREE ENTHALPY
-------------------

The Gibbs free enthalpy is G = H - T*S

Total enthalpy                    ...   -250.62497352 Eh
Total entropy correction          ...     -0.03802055 Eh    -23.86 kcal/mol
-----------------------------------------------------------------------
Final Gibbs free enthalpy         ...   -250.66299407 Eh

For completeness - the Gibbs free enthalpy minus the electronic energy
G-E(el)                           ...      0.11623743 Eh     72.94 kcal/mol

                             ****ORCA TERMINATED NORMALLY****
TOTAL RUN TIME: 0 days 0 hours 17 minutes 56 seconds 114 msec
