                         Program Version 3.0.3 - RELEASE   -
|  1> ! NORI PBE0 def2-TZVP UseSym TightOPT Freq TightSCF Grid3 FinalGrid5 XYZFile
|  2> % pal
|  3>     nprocs 8
|  4> end
|  5> %method
|  6>     SymThresh 5.0e-2
|  7> end
|  8> % geom
|  9>     MaxIter 10
| 10> end
| 11> % maxcore 2000
| 12> % output
| 13>     printlevel mini
| 14>     print[ P_Basis ] 0
| 15>     print[ P_SCFInfo ] 1
| 16>     print[ P_SCFIterInfo ] 1
| 17>     print[ P_OrbEn ] 0
| 18>     print[ P_Cartesian ] 0
| 19> end
| 20> % elprop
| 21>     Dipole false
| 22> end
| 23> *xyz 1 1
| 24>  C        0.8964958524    -0.0087341346    -0.0172156794
| 25>  C        2.4137333630    -0.1139979676    -0.0387891813
| 26>  C        3.0065155863    -0.9500688204     1.0792604350
| 27>  N        2.4251904497    -2.3505449588     1.0005381968
| 28>  C        4.5200045215    -1.0510293677     1.0608295458
| 29>  C        5.1163313475    -1.8701807969     2.1948268975
| 30>  H        0.5562822896     0.7045371521    -0.7680538827
| 31>  H        0.5301354234     0.3408755866     0.9516186856
| 32>  H        0.3938711369    -0.9523414694    -0.2575146207
| 33>  H        2.8517899231     0.8822386370     0.0601997319
| 34>  H        2.7639898234    -0.4974314523    -1.0045720504
| 35>  H        2.6665900013    -0.5747020730     2.0499152765
| 36>  H        2.6850987105    -2.7941098491     0.1162631051
| 37>  H        1.4051753446    -2.3250517847     1.0508050541
| 38>  H        2.7782707596    -2.9350455114     1.7603447159
| 39>  H        4.8951297714    -0.0258252590     1.1139893443
| 40>  H        4.8469536333    -1.4364118368     0.0877030248
| 41>  H        4.7783044252    -1.5125205803     3.1709314272
| 42>  H        6.2043693841    -1.7983415301     2.1826351579
| 43>  H        4.8899982531    -2.9401239838     2.1218148161
| 44> *
| 45>
| 46>                          ****END OF INPUT****
 Total Charge           Charge          ....    1
 Multiplicity           Mult            ....    1
 Number of Electrons    NEL             ....   50
FINAL SINGLE POINT ENERGY      -253.267238031592
FINAL SINGLE POINT ENERGY      -253.267240430568

CARTESIAN COORDINATES (ANGSTROEM)
---------------------------------
  C      2.569853    0.001219   -0.107039
  C      1.239446    0.468142   -0.678191
  C      0.020385   -0.225312   -0.099515
  N     -0.000939   -0.001336    1.402487
  C     -1.302517    0.238260   -0.679861
  C     -2.527477   -0.467068   -0.117507
  H      3.396190    0.452004   -0.656956
  H      2.683265   -1.083427   -0.183082
  H      2.717538    0.292576    0.938951
  H      1.215713    0.277269   -1.754147
  H      1.127416    1.553486   -0.567155
  H      0.118582   -1.310640   -0.205613
  H     -0.088332    0.995621    1.612556
  H      0.861438   -0.338217    1.833779
  H     -0.792950   -0.482830    1.831567
  H     -1.240929    0.061917   -1.756783
  H     -1.390310    1.325107   -0.562216
  H     -2.443488   -1.553429   -0.205998
  H     -3.421105   -0.166012   -0.664287
  H     -2.725659   -0.219717    0.931418

FINAL SINGLE POINT ENERGY      -253.267241295330
                    ***********************HURRAY********************
 Multiplicity           Mult            ....    1
 Number of Electrons    NEL             ....   50
 Basis Dimension        Dim             ....  270
FINAL SINGLE POINT ENERGY      -253.267241607928

VIBRATIONAL FREQUENCIES
-----------------------

   0:         0.00 cm**-1
   1:         0.00 cm**-1
   2:         0.00 cm**-1
   3:         0.00 cm**-1
   4:         0.00 cm**-1
   5:         0.00 cm**-1
   6:        93.54 cm**-1
   7:       103.80 cm**-1
   8:       183.19 cm**-1
   9:       199.29 cm**-1
  10:       228.84 cm**-1
  11:       261.84 cm**-1
  12:       292.26 cm**-1
  13:       394.19 cm**-1
  14:       436.22 cm**-1
  15:       466.44 cm**-1
  16:       748.98 cm**-1
  17:       764.26 cm**-1
  18:       823.84 cm**-1
  19:       906.94 cm**-1
  20:       921.97 cm**-1
  21:       975.10 cm**-1
  22:       993.76 cm**-1
  23:      1043.16 cm**-1
  24:      1050.62 cm**-1
  25:      1074.84 cm**-1
  26:      1149.43 cm**-1
  27:      1196.76 cm**-1
  28:      1208.26 cm**-1
  29:      1275.14 cm**-1
  30:      1304.65 cm**-1
  31:      1327.86 cm**-1
  32:      1372.86 cm**-1
  33:      1408.61 cm**-1
  34:      1411.51 cm**-1
  35:      1418.45 cm**-1
  36:      1422.18 cm**-1
  37:      1466.44 cm**-1
  38:      1471.06 cm**-1
  39:      1479.07 cm**-1
  40:      1489.58 cm**-1
  41:      1492.68 cm**-1
  42:      1504.21 cm**-1
  43:      1508.39 cm**-1
  44:      1647.32 cm**-1
  45:      1657.52 cm**-1
  46:      3037.73 cm**-1
  47:      3038.73 cm**-1
  48:      3044.24 cm**-1
  49:      3045.86 cm**-1
  50:      3079.70 cm**-1
  51:      3096.73 cm**-1
  52:      3100.62 cm**-1
  53:      3116.25 cm**-1
  54:      3121.11 cm**-1
  55:      3148.03 cm**-1
  56:      3148.84 cm**-1
  57:      3419.80 cm**-1
  58:      3504.43 cm**-1
  59:      3512.51 cm**-1

IR SPECTRUM
-----------

 Mode    freq (cm**-1)   T**2         TX         TY         TZ
-------------------------------------------------------------------
   6:        93.54    4.369071  ( -0.147052   1.850941   0.959929)
   7:       103.80    2.352240  ( -1.529283  -0.115806   0.011050)
   8:       183.19    2.755441  ( -0.027417   0.023115   1.659565)
   9:       199.29    0.720185  ( -0.844140  -0.073083  -0.047665)
  10:       228.84    3.838030  (  0.092625  -0.738558   1.812176)
  11:       261.84    1.415396  ( -1.183657  -0.118197   0.019506)
  12:       292.26   20.721297  ( -4.532696  -0.419437  -0.006268)
  13:       394.19    1.286430  (  0.057566  -0.595535   0.963563)
  14:       436.22    3.946630  ( -0.130099   1.335777  -1.464719)
  15:       466.44    3.231448  (  1.789920   0.166045  -0.007906)
  16:       748.98    1.946839  (  0.089001  -1.026640  -0.940706)
  17:       764.26    1.341504  (  1.154081   0.097891  -0.004389)
  18:       823.84    4.107436  (  0.069904  -0.652714  -1.917424)
  19:       906.94    7.100657  ( -2.653000  -0.249458  -0.004225)
  20:       921.97   13.353987  ( -0.039872   0.464070  -3.624505)
  21:       975.10    8.277916  (  0.246935  -2.770853   0.734378)
  22:       993.76   26.603674  (  5.137148   0.461522   0.019595)
  23:      1043.16    1.922663  (  1.380713   0.127644  -0.000755)
  24:      1050.62    2.021015  ( -1.416305  -0.122642   0.007390)
  25:      1074.84    1.123533  (  0.011678  -0.229904  -1.034670)
  26:      1149.43    5.330174  (  0.146364  -1.753511  -1.494641)
  27:      1196.76   21.948377  (  4.665700   0.423817   0.000524)
  28:      1208.26    0.314532  (  0.041781  -0.472378  -0.299409)
  29:      1275.14    4.107844  ( -2.018343  -0.184638  -0.006732)
  30:      1304.65    1.456004  ( -1.201961  -0.106180  -0.004534)
  31:      1327.86    0.319551  (  0.039032  -0.331970   0.455877)
  32:      1372.86    0.181907  ( -0.042817   0.356157  -0.230708)
  33:      1408.61   15.897387  ( -0.233760   2.695482  -2.928672)
  34:      1411.51    0.830404  ( -0.908961  -0.063498  -0.012721)
  35:      1418.45    6.390894  (  2.518531   0.218419  -0.013663)
  36:      1422.18    3.172967  ( -0.057531   0.883011   1.545946)
  37:      1466.44    1.135753  ( -1.058287  -0.097787  -0.078859)
  38:      1471.06  153.852206  (  0.062421  -0.978456  12.364907)
  39:      1479.07    4.199860  (  0.140911  -1.664972   1.186538)
  40:      1489.58    7.221530  (  2.679766   0.200814   0.007706)
  41:      1492.68    1.390488  ( -0.051240   0.461385   1.083968)
  42:      1504.21    2.270237  ( -1.489609  -0.226467   0.003810)
  43:      1508.39   68.666891  ( -0.503648   5.459036   6.213868)
  44:      1647.32   46.497602  (  0.523821  -6.065197   3.071905)
  45:      1657.52   35.040377  ( -5.897712  -0.507233  -0.009122)
  46:      3037.73    0.647663  ( -0.544494   0.011702  -0.592497)
  47:      3038.73   32.734123  (  0.008485  -0.708279   5.677358)
  48:      3044.24    4.823357  ( -2.189441   0.144270  -0.094284)
  49:      3045.86    9.397756  (  0.012972  -2.952218   0.825830)
  50:      3079.70    8.317165  ( -0.248093   2.745836  -0.846168)
  51:      3096.73    1.490239  ( -1.218662  -0.054259   0.046470)
  52:      3100.62    8.472021  (  0.142647  -1.930923  -2.173295)
  53:      3116.25    0.050677  (  0.199677   0.095945   0.040013)
  54:      3121.11   23.977575  (  0.337464  -3.598821  -3.303359)
  55:      3148.03    2.272315  (  0.514513   1.325663  -0.500209)
  56:      3148.84    1.981825  ( -0.811256   1.058256  -0.451422)
  57:      3419.80   23.454405  (  0.120940  -0.980098  -4.741222)
  58:      3504.43   69.784572  (  0.583234  -8.268419   1.038105)
  59:      3512.51  110.648550  ( 10.486640   0.822394   0.051080)

--------------------------
THERMOCHEMISTRY AT 298.15K
--------------------------

Temperature         ... 298.15 K
Pressure            ... 1.00 atm
Total Mass          ... 88.17 AMU

Throughout the following assumptions are being made:
  (1) The electronic state is orbitally nondegenerate
  (2) There are no thermally accessible electronically excited states
  (3) Hindered rotations indicated by low frequency modes) are not
      treated as such but are treated as vibrations and this may
      case some error
  (4) All equations used are the standard statistical mechanics
      equations for an ideal gas
  (5) All vibrations are strinctly harmonic

------------
INNER ENERGY
------------

The inner energy is: U= E(el) + E(ZPE) + E(vib) + E(rot) + E(trans)
    E(el)   - is the total energy from the electronic structure calculation
              = E(kin-el) + E(nuc-el) + E(el-el) + E(nuc-nuc)
    E(ZPE)  - the the zero temperature vibrational energy from the frequency calculation
    E(vib)  - the the finite temperature correction to E(ZPE) due to population
              of excietd vibrational states
    E(rot)  - is the rotational thermal energy
    E(trans)- is the translational thermal energy

Summary of contributions to the inner energy U:
Electronic energy                ...   -253.26724161 Eh
Zero point energy                ...      0.19270942 Eh     120.93 kcal/mol
Thermal vibrational correction   ...      0.00557196 Eh       3.50 kcal/mol
Thermal rotational correction    ...      0.00141627 Eh       0.89 kcal/mol
Thermal translational correction ...      0.00141627 Eh       0.89 kcal/mol
-----------------------------------------------------------------------
Total thermal energy                   -253.06612769 Eh

Summary of corrections to the electronic energy:
(perhaps to be used in another calculation)
Total thermal correction                  0.00840450 Eh       5.27 kcal/mol
Non-thermal (ZPE) correction              0.19270942 Eh     120.93 kcal/mol
-----------------------------------------------------------------------
Total correction                          0.20111392 Eh     126.20 kcal/mol

--------
ENTHALPY
--------

The enthalpy is H = U + kB*T
                kB is Boltzmann's constant
Total free energy                 ...   -253.06612769 Eh
Thermal Enthalpy correction       ...      0.00094421 Eh       0.59 kcal/mol
-----------------------------------------------------------------------
Total Enthalpy                    ...   -253.06518348 Eh

-------
ENTROPY
-------

The entropy contributions are T*S = T*(S(el)+S(vib)+S(rot)+S(trans)
     S(el)   - electronic entropy
     S(vib)  - vibrational entropy
     S(rot)  - rotational entropy
     S(trans)- translational entropy
The entropies will be listed as mutliplied by the temperature to get
units of energy

Electronic entropy                ...      0.00000000 Eh      0.00 kcal/mol
Vibrational entropy               ...      0.00985391 Eh      6.18 kcal/mol
Rotational entropy                ...      0.01186540 Eh      7.45 kcal/mol
Translational entropy             ...      0.01869299 Eh     11.73 kcal/mol
-----------------------------------------------------------------------
Final entropy term                ...      0.04041230 Eh     25.36 kcal/mol

CAUTION: The rotational entropy is not quite correctly treated here
         because it includes a symmetry number that is not yet correctly
         implemented in ORCA!
For a nonlinear molecule the correct rotational entropy is:
    S(rot) = R*(ln(qrot/sn)+1.5)
    R    = 8.31441 J/mol/K = 1.987191683e-3 kcal/mol/K
    qrot = 192044.2074841
    sn is the rotational symmetry number. We have assumed 3 here
       if it is different for your molecule then you should correct
       the printed rotational entropy by manually evaluating the equation
       as given above

For convenience we print out the resulting values for sn=1 - 12:
 sn= 1  qrot/sn=  192044.2075 T*S(rot)=     8.10 kcal/mol T*S(tot)=    26.01 kcal/mol
 sn= 2  qrot/sn=   96022.1037 T*S(rot)=     7.69 kcal/mol T*S(tot)=    25.60 kcal/mol
 sn= 3  qrot/sn=   64014.7358 T*S(rot)=     7.45 kcal/mol T*S(tot)=    25.36 kcal/mol
 sn= 4  qrot/sn=   48011.0519 T*S(rot)=     7.28 kcal/mol T*S(tot)=    25.19 kcal/mol
 sn= 5  qrot/sn=   38408.8415 T*S(rot)=     7.14 kcal/mol T*S(tot)=    25.06 kcal/mol
 sn= 6  qrot/sn=   32007.3679 T*S(rot)=     7.03 kcal/mol T*S(tot)=    24.95 kcal/mol
 sn= 7  qrot/sn=   27434.8868 T*S(rot)=     6.94 kcal/mol T*S(tot)=    24.86 kcal/mol
 sn= 8  qrot/sn=   24005.5259 T*S(rot)=     6.86 kcal/mol T*S(tot)=    24.78 kcal/mol
 sn= 9  qrot/sn=   21338.2453 T*S(rot)=     6.79 kcal/mol T*S(tot)=    24.71 kcal/mol
 sn=10  qrot/sn=   19204.4207 T*S(rot)=     6.73 kcal/mol T*S(tot)=    24.65 kcal/mol
 sn=11  qrot/sn=   17458.5643 T*S(rot)=     6.68 kcal/mol T*S(tot)=    24.59 kcal/mol
 sn=12  qrot/sn=   16003.6840 T*S(rot)=     6.62 kcal/mol T*S(tot)=    24.54 kcal/mol

-------------------
GIBBS FREE ENTHALPY
-------------------

The Gibbs free enthalpy is G = H - T*S

Total enthalpy                    ...   -253.06518348 Eh
Total entropy correction          ...     -0.04041230 Eh    -25.36 kcal/mol
-----------------------------------------------------------------------
Final Gibbs free enthalpy         ...   -253.10559578 Eh

For completeness - the Gibbs free enthalpy minus the electronic energy
G-E(el)                           ...      0.16164583 Eh    101.43 kcal/mol

                             ****ORCA TERMINATED NORMALLY****
TOTAL RUN TIME: 0 days 0 hours 26 minutes 35 seconds 829 msec
