                         Program Version 3.0.3 - RELEASE   -
|  1> ! NORI PBE0 def2-TZVP UseSym TightOPT Freq TightSCF Grid3 FinalGrid5 XYZFile
|  2> % pal
|  3>     nprocs 8
|  4> end
|  5> %method
|  6>     SymThresh 5.0e-2
|  7> end
|  8> % geom
|  9>     MaxIter 10
| 10> end
| 11> % maxcore 2000
| 12> % output
| 13>     printlevel mini
| 14>     print[ P_Basis ] 0
| 15>     print[ P_SCFInfo ] 1
| 16>     print[ P_SCFIterInfo ] 1
| 17>     print[ P_OrbEn ] 0
| 18>     print[ P_Cartesian ] 0
| 19> end
| 20> % elprop
| 21>     Dipole false
| 22> end
| 23> *xyz 1 1
| 24>  C        1.1584937614     0.1261086803     0.1483794375
| 25>  C        2.6479088375     0.4303737712     0.0790136081
| 26>  C        3.2829950794     0.1109416586    -1.2593987914
| 27>  N        2.5695922695     0.9198328127    -2.3411246659
| 28>  C        4.7488167810     0.3764976617    -1.4063075377
| 29>  C        5.5202722925     0.9218257207    -0.4777781733
| 30>  H        0.7961412648     0.2570095788     1.1681747881
| 31>  H        0.9415589906    -0.9049158977    -0.1428484673
| 32>  H        0.5493550412     0.7967500409    -0.4679743743
| 33>  H        2.8388093557     1.4762367867     0.3415516536
| 34>  H        3.1777228118    -0.1711661543     0.8208145208
| 35>  H        3.0683491059    -0.9290353931    -1.5289603660
| 36>  H        2.7345499629     1.9182958893    -2.1920101555
| 37>  H        1.5612192257     0.7515912213    -2.3146780560
| 38>  H        2.9146741085     0.6838042009    -3.2727522583
| 39>  H        5.1920745340     0.0553640839    -2.3473942850
| 40>  H        5.1449155422     1.2316133965     0.4904141811
| 41>  H        6.5800110355     1.0611619414    -0.6541910585
| 42> *
| 43>
| 44>                          ****END OF INPUT****
 Total Charge           Charge          ....    1
 Multiplicity           Mult            ....    1
 Number of Electrons    NEL             ....   48
FINAL SINGLE POINT ENERGY      -252.029477935549
FINAL SINGLE POINT ENERGY      -252.029479784860

CARTESIAN COORDINATES (ANGSTROEM)
---------------------------------
  C      2.370756   -0.001153   -0.147226
  C      0.945636    0.239143   -0.623446
  C     -0.110723   -0.472652    0.198357
  N     -0.002090    0.001405    1.646845
  C     -1.538595   -0.295319   -0.215288
  C     -1.954447    0.481406   -1.204540
  H      3.079973    0.430243   -0.853718
  H      2.597779   -1.067669   -0.070491
  H      2.591689    0.471326    0.816659
  H      0.728169    1.312171   -0.660831
  H      0.836606   -0.129407   -1.646237
  H      0.126483   -1.540826    0.255237
  H     -0.231606    0.996387    1.703051
  H      0.946766   -0.131378    2.003764
  H     -0.651354   -0.501268    2.253999
  H     -2.264485   -0.889636    0.337352
  H     -1.278960    1.071752   -1.812862
  H     -3.006553    0.537216   -1.455690

FINAL SINGLE POINT ENERGY      -252.029480663460
                    ***********************HURRAY********************
 Multiplicity           Mult            ....    1
 Number of Electrons    NEL             ....   48
 Basis Dimension        Dim             ....  258
FINAL SINGLE POINT ENERGY      -252.029481108569

VIBRATIONAL FREQUENCIES
-----------------------

   0:         0.00 cm**-1
   1:         0.00 cm**-1
   2:         0.00 cm**-1
   3:         0.00 cm**-1
   4:         0.00 cm**-1
   5:         0.00 cm**-1
   6:       101.22 cm**-1
   7:       113.30 cm**-1
   8:       206.86 cm**-1
   9:       211.53 cm**-1
  10:       247.81 cm**-1
  11:       300.65 cm**-1
  12:       374.83 cm**-1
  13:       421.06 cm**-1
  14:       547.03 cm**-1
  15:       666.69 cm**-1
  16:       752.82 cm**-1
  17:       819.95 cm**-1
  18:       913.26 cm**-1
  19:       926.08 cm**-1
  20:       980.89 cm**-1
  21:      1021.80 cm**-1
  22:      1028.43 cm**-1
  23:      1037.10 cm**-1
  24:      1056.84 cm**-1
  25:      1114.19 cm**-1
  26:      1130.32 cm**-1
  27:      1219.14 cm**-1
  28:      1302.85 cm**-1
  29:      1321.11 cm**-1
  30:      1340.73 cm**-1
  31:      1384.24 cm**-1
  32:      1417.56 cm**-1
  33:      1420.69 cm**-1
  34:      1452.64 cm**-1
  35:      1475.21 cm**-1
  36:      1480.30 cm**-1
  37:      1492.82 cm**-1
  38:      1507.19 cm**-1
  39:      1647.12 cm**-1
  40:      1654.25 cm**-1
  41:      1726.02 cm**-1
  42:      3037.45 cm**-1
  43:      3053.69 cm**-1
  44:      3070.89 cm**-1
  45:      3101.48 cm**-1
  46:      3122.96 cm**-1
  47:      3149.19 cm**-1
  48:      3149.70 cm**-1
  49:      3175.34 cm**-1
  50:      3263.60 cm**-1
  51:      3414.27 cm**-1
  52:      3500.42 cm**-1
  53:      3514.50 cm**-1

IR SPECTRUM
-----------

 Mode    freq (cm**-1)   T**2         TX         TY         TZ
-------------------------------------------------------------------
   6:       101.22    3.121848  (  0.769954  -1.383096   0.784898)
   7:       113.30    4.991675  (  1.591793  -1.483391  -0.507366)
   8:       206.86    2.887651  (  1.279891  -0.191573  -1.101285)
   9:       211.53    0.508246  ( -0.349437  -0.265772   0.561699)
  10:       247.81    3.281894  (  0.830377   0.413512  -1.556077)
  11:       300.65   11.089745  ( -3.082758  -0.539518   1.138099)
  12:       374.83    4.002986  ( -1.038781   1.245065  -1.172063)
  13:       421.06    4.177271  (  1.259931   1.213259  -1.057283)
  14:       547.03    2.869759  ( -0.895673   1.102161   0.923456)
  15:       666.69   11.398115  (  0.672784   2.242620   2.432310)
  16:       752.82    3.251386  ( -1.513697   0.441919  -0.874537)
  17:       819.95   10.284702  (  0.747133   1.005402   2.952230)
  18:       913.26   14.116741  ( -1.640103  -0.393089  -3.357422)
  19:       926.08   12.430357  (  1.835663  -0.655914  -2.937767)
  20:       980.89   10.493635  (  1.686296   2.629626  -0.857385)
  21:      1021.80   43.958597  ( -1.093322  -4.740418  -4.504629)
  22:      1028.43   11.373196  (  2.038515  -2.426197  -1.153785)
  23:      1037.10    5.283543  (  1.584367  -1.417732  -0.873705)
  24:      1056.84    3.135581  (  1.758159  -0.079408   0.195330)
  25:      1114.19   18.133100  (  4.164309  -0.215689  -0.863198)
  26:      1130.32   10.373268  ( -0.874239   1.879359   2.465154)
  27:      1219.14    5.440080  ( -2.075329  -0.793317   0.709743)
  28:      1302.85    2.457930  (  1.524687   0.363118   0.037486)
  29:      1321.11    1.333065  (  0.302695  -0.714767   0.854722)
  30:      1340.73    7.406492  (  1.884543  -1.081223   1.638885)
  31:      1384.24   21.842222  (  2.333814  -1.940237   3.554014)
  32:      1417.56    2.878198  (  1.687269   0.090544  -0.152060)
  33:      1420.69    4.843693  ( -1.917818   0.595915   0.900308)
  34:      1452.64   48.565136  (  2.193917  -2.066752   6.283343)
  35:      1475.21  108.727439  ( -1.046469   1.927522  10.193969)
  36:      1480.30   20.824514  (  0.638227   1.022204   4.401395)
  37:      1492.82    2.825240  ( -1.233166  -0.455431  -1.047437)
  38:      1507.19   45.045221  ( -0.719956  -5.067412  -4.341454)
  39:      1647.12   45.430041  (  0.318364  -5.876659   3.285357)
  40:      1654.25   35.736371  (  5.927755   0.059617  -0.771059)
  41:      1726.02    0.588524  (  0.216456  -0.504452  -0.535909)
  42:      3037.45   18.164053  (  0.994283   0.281305   4.134770)
  43:      3053.69    3.556948  ( -1.496096   1.122387  -0.242681)
  44:      3070.89    5.857736  (  1.486209  -1.694940   0.880964)
  45:      3101.48    6.715438  (  0.794253  -1.809709  -1.676173)
  46:      3122.96    8.415348  ( -0.015804   2.460976   1.535805)
  47:      3149.19    0.819619  (  0.007294  -0.870584   0.248293)
  48:      3149.70    3.708378  (  1.154526   1.023414  -1.152420)
  49:      3175.34    0.896908  ( -0.912330   0.054523  -0.248174)
  50:      3263.60    0.154883  ( -0.199609   0.145768  -0.306254)
  51:      3414.27   28.562984  (  1.263937   1.655667   4.921810)
  52:      3500.42   80.646463  (  6.714654  -5.957206   0.267551)
  53:      3514.50   92.676606  (  6.398958   5.819394  -4.226653)

--------------------------
THERMOCHEMISTRY AT 298.15K
--------------------------

Temperature         ... 298.15 K
Pressure            ... 1.00 atm
Total Mass          ... 86.16 AMU

Throughout the following assumptions are being made:
  (1) The electronic state is orbitally nondegenerate
  (2) There are no thermally accessible electronically excited states
  (3) Hindered rotations indicated by low frequency modes) are not
      treated as such but are treated as vibrations and this may
      case some error
  (4) All equations used are the standard statistical mechanics
      equations for an ideal gas
  (5) All vibrations are strinctly harmonic

------------
INNER ENERGY
------------

The inner energy is: U= E(el) + E(ZPE) + E(vib) + E(rot) + E(trans)
    E(el)   - is the total energy from the electronic structure calculation
              = E(kin-el) + E(nuc-el) + E(el-el) + E(nuc-nuc)
    E(ZPE)  - the the zero temperature vibrational energy from the frequency calculation
    E(vib)  - the the finite temperature correction to E(ZPE) due to population
              of excietd vibrational states
    E(rot)  - is the rotational thermal energy
    E(trans)- is the translational thermal energy

Summary of contributions to the inner energy U:
Electronic energy                ...   -252.02948111 Eh
Zero point energy                ...      0.16942291 Eh     106.31 kcal/mol
Thermal vibrational correction   ...      0.00496799 Eh       3.12 kcal/mol
Thermal rotational correction    ...      0.00141627 Eh       0.89 kcal/mol
Thermal translational correction ...      0.00141627 Eh       0.89 kcal/mol
-----------------------------------------------------------------------
Total thermal energy                   -251.85225767 Eh

Summary of corrections to the electronic energy:
(perhaps to be used in another calculation)
Total thermal correction                  0.00780053 Eh       4.89 kcal/mol
Non-thermal (ZPE) correction              0.16942291 Eh     106.31 kcal/mol
-----------------------------------------------------------------------
Total correction                          0.17722344 Eh     111.21 kcal/mol

--------
ENTHALPY
--------

The enthalpy is H = U + kB*T
                kB is Boltzmann's constant
Total free energy                 ...   -251.85225767 Eh
Thermal Enthalpy correction       ...      0.00094421 Eh       0.59 kcal/mol
-----------------------------------------------------------------------
Total Enthalpy                    ...   -251.85131346 Eh

-------
ENTROPY
-------

The entropy contributions are T*S = T*(S(el)+S(vib)+S(rot)+S(trans)
     S(el)   - electronic entropy
     S(vib)  - vibrational entropy
     S(rot)  - rotational entropy
     S(trans)- translational entropy
The entropies will be listed as mutliplied by the temperature to get
units of energy

Electronic entropy                ...      0.00000000 Eh      0.00 kcal/mol
Vibrational entropy               ...      0.00866403 Eh      5.44 kcal/mol
Rotational entropy                ...      0.01181557 Eh      7.41 kcal/mol
Translational entropy             ...      0.01866024 Eh     11.71 kcal/mol
-----------------------------------------------------------------------
Final entropy term                ...      0.03913984 Eh     24.56 kcal/mol

CAUTION: The rotational entropy is not quite correctly treated here
         because it includes a symmetry number that is not yet correctly
         implemented in ORCA!
For a nonlinear molecule the correct rotational entropy is:
    S(rot) = R*(ln(qrot/sn)+1.5)
    R    = 8.31441 J/mol/K = 1.987191683e-3 kcal/mol/K
    qrot = 182172.7184450
    sn is the rotational symmetry number. We have assumed 3 here
       if it is different for your molecule then you should correct
       the printed rotational entropy by manually evaluating the equation
       as given above

For convenience we print out the resulting values for sn=1 - 12:
 sn= 1  qrot/sn=  182172.7184 T*S(rot)=     8.07 kcal/mol T*S(tot)=    25.21 kcal/mol
 sn= 2  qrot/sn=   91086.3592 T*S(rot)=     7.65 kcal/mol T*S(tot)=    24.80 kcal/mol
 sn= 3  qrot/sn=   60724.2395 T*S(rot)=     7.41 kcal/mol T*S(tot)=    24.56 kcal/mol
 sn= 4  qrot/sn=   45543.1796 T*S(rot)=     7.24 kcal/mol T*S(tot)=    24.39 kcal/mol
 sn= 5  qrot/sn=   36434.5437 T*S(rot)=     7.11 kcal/mol T*S(tot)=    24.26 kcal/mol
 sn= 6  qrot/sn=   30362.1197 T*S(rot)=     7.00 kcal/mol T*S(tot)=    24.15 kcal/mol
 sn= 7  qrot/sn=   26024.6741 T*S(rot)=     6.91 kcal/mol T*S(tot)=    24.06 kcal/mol
 sn= 8  qrot/sn=   22771.5898 T*S(rot)=     6.83 kcal/mol T*S(tot)=    23.98 kcal/mol
 sn= 9  qrot/sn=   20241.4132 T*S(rot)=     6.76 kcal/mol T*S(tot)=    23.91 kcal/mol
 sn=10  qrot/sn=   18217.2718 T*S(rot)=     6.70 kcal/mol T*S(tot)=    23.85 kcal/mol
 sn=11  qrot/sn=   16561.1562 T*S(rot)=     6.64 kcal/mol T*S(tot)=    23.79 kcal/mol
 sn=12  qrot/sn=   15181.0599 T*S(rot)=     6.59 kcal/mol T*S(tot)=    23.74 kcal/mol

-------------------
GIBBS FREE ENTHALPY
-------------------

The Gibbs free enthalpy is G = H - T*S

Total enthalpy                    ...   -251.85131346 Eh
Total entropy correction          ...     -0.03913984 Eh    -24.56 kcal/mol
-----------------------------------------------------------------------
Final Gibbs free enthalpy         ...   -251.89045330 Eh

For completeness - the Gibbs free enthalpy minus the electronic energy
G-E(el)                           ...      0.13902781 Eh     87.24 kcal/mol

                             ****ORCA TERMINATED NORMALLY****
TOTAL RUN TIME: 0 days 0 hours 22 minutes 49 seconds 836 msec
