                         Program Version 3.0.3 - RELEASE   -
|  1> ! NORI PBE0 def2-TZVP UseSym TightOPT Freq TightSCF Grid3 FinalGrid5 XYZFile
|  2> % pal
|  3>     nprocs 8
|  4> end
|  5> %method
|  6>     SymThresh 5.0e-2
|  7> end
|  8> % geom
|  9>     MaxIter 10
| 10> end
| 11> % maxcore 2000
| 12> % output
| 13>     printlevel mini
| 14>     print[ P_Basis ] 0
| 15>     print[ P_SCFInfo ] 1
| 16>     print[ P_SCFIterInfo ] 1
| 17>     print[ P_OrbEn ] 0
| 18>     print[ P_Cartesian ] 0
| 19> end
| 20> % elprop
| 21>     Dipole false
| 22> end
| 23> *xyz 1 1
| 24>  C        2.8762239245    -0.5407312881    -1.3782189085
| 25>  C        2.5032605269    -0.0781806711     0.0201189665
| 26>  C        3.1023348784     1.2864263759     0.3435193201
| 27>  N        2.5999239147     1.7349488958     1.7119730008
| 28>  C        4.5497222889     1.3164399313     0.3882656039
| 29>  C        5.7467102947     1.3356980387     0.4418826408
| 30>  H        2.4223462962    -1.5108096835    -1.5795900990
| 31>  H        3.9568055114    -0.6455109410    -1.4849701160
| 32>  H        2.5196784001     0.1582364250    -2.1378300951
| 33>  H        2.8519312880    -0.8040066444     0.7628964655
| 34>  H        1.4126045794    -0.0074488372     0.1081438517
| 35>  H        2.7287921169     2.0399974808    -0.3577962758
| 36>  H        2.9126108797     1.0743260283     2.4280508715
| 37>  H        1.5783964129     1.7749623862     1.7351753322
| 38>  H        2.9733095092     2.6552924345     1.9547394888
| 39>  H        6.8142191781     1.3539800688     0.4782599524
| 40> *
| 41>
| 42>                          ****END OF INPUT****
 Total Charge           Charge          ....    1
 Multiplicity           Mult            ....    1
 Number of Electrons    NEL             ....   46
FINAL SINGLE POINT ENERGY      -250.772490365194

CARTESIAN COORDINATES (ANGSTROEM)
---------------------------------
  C      1.539533    0.000157   -1.622853
  C      1.284780    0.406211   -0.181426
  C      0.129787   -0.378519    0.430978
  N     -0.000056    0.000236    1.902595
  C     -1.158365   -0.140664   -0.187007
  C     -2.226303    0.070350   -0.688116
  H      2.376919    0.570416   -2.024558
  H      0.667636    0.195431   -2.248682
  H      1.790338   -1.060019   -1.700241
  H      1.056032    1.475859   -0.125805
  H      2.183749    0.225054    0.419090
  H      0.357985   -1.449393    0.431800
  H     -0.216786    0.996747    1.984779
  H      0.868984   -0.182798    2.409184
  H     -0.759232   -0.519961    2.348123
  H     -3.175653    0.250846   -1.143214

FINAL SINGLE POINT ENERGY      -250.772491026172
                    ***********************HURRAY********************
 Multiplicity           Mult            ....    1
 Number of Electrons    NEL             ....   46
 Basis Dimension        Dim             ....  246
FINAL SINGLE POINT ENERGY      -250.772491215871

VIBRATIONAL FREQUENCIES
-----------------------

   0:         0.00 cm**-1
   1:         0.00 cm**-1
   2:         0.00 cm**-1
   3:         0.00 cm**-1
   4:         0.00 cm**-1
   5:         0.00 cm**-1
   6:       105.05 cm**-1
   7:       155.72 cm**-1
   8:       197.94 cm**-1
   9:       214.25 cm**-1
  10:       249.35 cm**-1
  11:       260.13 cm**-1
  12:       402.70 cm**-1
  13:       522.20 cm**-1
  14:       550.01 cm**-1
  15:       730.60 cm**-1
  16:       766.41 cm**-1
  17:       774.22 cm**-1
  18:       824.25 cm**-1
  19:       914.60 cm**-1
  20:       953.27 cm**-1
  21:       996.75 cm**-1
  22:      1039.50 cm**-1
  23:      1096.10 cm**-1
  24:      1143.32 cm**-1
  25:      1202.20 cm**-1
  26:      1287.28 cm**-1
  27:      1345.17 cm**-1
  28:      1370.35 cm**-1
  29:      1391.56 cm**-1
  30:      1420.96 cm**-1
  31:      1475.06 cm**-1
  32:      1489.67 cm**-1
  33:      1491.98 cm**-1
  34:      1499.69 cm**-1
  35:      1643.06 cm**-1
  36:      1652.97 cm**-1
  37:      2252.33 cm**-1
  38:      3040.00 cm**-1
  39:      3067.23 cm**-1
  40:      3073.39 cm**-1
  41:      3094.06 cm**-1
  42:      3145.57 cm**-1
  43:      3158.79 cm**-1
  44:      3411.81 cm**-1
  45:      3451.62 cm**-1
  46:      3499.84 cm**-1
  47:      3508.84 cm**-1

IR SPECTRUM
-----------

 Mode    freq (cm**-1)   T**2         TX         TY         TZ
-------------------------------------------------------------------
   6:       105.05    0.702384  ( -0.014568  -0.798721  -0.253410)
   7:       155.72    2.341079  (  1.449431  -0.461752   0.164361)
   8:       197.94    6.137030  (  1.479676  -1.985858  -0.062912)
   9:       214.25    2.984502  ( -0.592055   1.622892   0.013975)
  10:       249.35    5.936848  (  2.107828   0.737408  -0.974752)
  11:       260.13    7.416937  (  1.177782   2.404315  -0.499034)
  12:       402.70    2.200608  ( -1.162478  -0.914269   0.115603)
  13:       522.20    5.957897  ( -1.476916  -1.852583   0.586984)
  14:       550.01   24.225016  ( -0.127913  -0.581679  -4.885725)
  15:       730.60   39.099318  ( -1.749634  -5.784096   1.606964)
  16:       766.41    3.293573  ( -1.689017   0.654475  -0.111605)
  17:       774.22   28.039302  (  2.111994  -1.848760  -4.490086)
  18:       824.25    4.381077  ( -0.815719   0.841421   1.734269)
  19:       914.60    8.759768  ( -1.585772   0.429163  -2.461892)
  20:       953.27   22.108367  ( -0.682906   0.667186  -4.604006)
  21:       996.75   20.485095  ( -3.032154  -3.338648   0.380216)
  22:      1039.50    7.473573  (  2.670068  -0.583599  -0.061029)
  23:      1096.10   18.368649  ( -3.121790   0.855401   2.809157)
  24:      1143.32    7.089109  (  2.116520  -1.417791   0.774158)
  25:      1202.20    8.819367  (  2.797430   0.969122  -0.233568)
  26:      1287.28    2.454950  ( -1.563950   0.003998  -0.094843)
  27:      1345.17    3.687417  ( -0.942053  -1.561905   0.600337)
  28:      1370.35    3.178962  (  0.069781   0.390347  -1.738310)
  29:      1391.56   34.607688  ( -4.239246   0.925865  -3.972311)
  30:      1420.96    3.878046  ( -1.246181   0.367186   1.479950)
  31:      1475.06    2.852428  (  1.120537  -0.446325   1.182209)
  32:      1489.67   69.682050  (  2.573942  -2.065487  -7.667505)
  33:      1491.98   50.316252  (  0.524742  -1.301855   6.953134)
  34:      1499.69   68.333775  (  1.045564   3.881319   7.223291)
  35:      1643.06   49.864552  ( -1.045797  -6.691760   1.997801)
  36:      1652.97   38.408682  (  5.955106  -1.351575   1.057658)
  37:      2252.33   32.328633  ( -4.614930   0.573628  -3.271391)
  38:      3040.00   15.385645  (  1.375908   1.194095   3.473710)
  39:      3067.23    5.609340  ( -0.071415  -1.440397  -1.878695)
  40:      3073.39    0.598508  ( -0.298113   0.708513   0.087447)
  41:      3094.06    4.737736  ( -1.667244   1.311289  -0.488421)
  42:      3145.57    8.057997  ( -1.292408   2.410104  -0.760970)
  43:      3158.79    3.335410  (  1.719564   0.475966   0.389828)
  44:      3411.81   47.538152  (  0.298047  -1.274159  -6.769478)
  45:      3451.62   95.251744  ( -8.925447   1.483762  -3.658769)
  46:      3499.84   93.131294  ( -0.071421   9.235699  -2.797868)
  47:      3508.84   83.693645  (  9.118983   0.717717   0.150599)

--------------------------
THERMOCHEMISTRY AT 298.15K
--------------------------

Temperature         ... 298.15 K
Pressure            ... 1.00 atm
Total Mass          ... 84.14 AMU

Throughout the following assumptions are being made:
  (1) The electronic state is orbitally nondegenerate
  (2) There are no thermally accessible electronically excited states
  (3) Hindered rotations indicated by low frequency modes) are not
      treated as such but are treated as vibrations and this may
      case some error
  (4) All equations used are the standard statistical mechanics
      equations for an ideal gas
  (5) All vibrations are strinctly harmonic

------------
INNER ENERGY
------------

The inner energy is: U= E(el) + E(ZPE) + E(vib) + E(rot) + E(trans)
    E(el)   - is the total energy from the electronic structure calculation
              = E(kin-el) + E(nuc-el) + E(el-el) + E(nuc-nuc)
    E(ZPE)  - the the zero temperature vibrational energy from the frequency calculation
    E(vib)  - the the finite temperature correction to E(ZPE) due to population
              of excietd vibrational states
    E(rot)  - is the rotational thermal energy
    E(trans)- is the translational thermal energy

Summary of contributions to the inner energy U:
Electronic energy                ...   -250.77249122 Eh
Zero point energy                ...      0.14550610 Eh      91.31 kcal/mol
Thermal vibrational correction   ...      0.00477042 Eh       2.99 kcal/mol
Thermal rotational correction    ...      0.00141627 Eh       0.89 kcal/mol
Thermal translational correction ...      0.00141627 Eh       0.89 kcal/mol
-----------------------------------------------------------------------
Total thermal energy                   -250.61938215 Eh

Summary of corrections to the electronic energy:
(perhaps to be used in another calculation)
Total thermal correction                  0.00760296 Eh       4.77 kcal/mol
Non-thermal (ZPE) correction              0.14550610 Eh      91.31 kcal/mol
-----------------------------------------------------------------------
Total correction                          0.15310906 Eh      96.08 kcal/mol

--------
ENTHALPY
--------

The enthalpy is H = U + kB*T
                kB is Boltzmann's constant
Total free energy                 ...   -250.61938215 Eh
Thermal Enthalpy correction       ...      0.00094421 Eh       0.59 kcal/mol
-----------------------------------------------------------------------
Total Enthalpy                    ...   -250.61843795 Eh

-------
ENTROPY
-------

The entropy contributions are T*S = T*(S(el)+S(vib)+S(rot)+S(trans)
     S(el)   - electronic entropy
     S(vib)  - vibrational entropy
     S(rot)  - rotational entropy
     S(trans)- translational entropy
The entropies will be listed as mutliplied by the temperature to get
units of energy

Electronic entropy                ...      0.00000000 Eh      0.00 kcal/mol
Vibrational entropy               ...      0.00821418 Eh      5.15 kcal/mol
Rotational entropy                ...      0.01181791 Eh      7.42 kcal/mol
Translational entropy             ...      0.01862670 Eh     11.69 kcal/mol
-----------------------------------------------------------------------
Final entropy term                ...      0.03865880 Eh     24.26 kcal/mol

CAUTION: The rotational entropy is not quite correctly treated here
         because it includes a symmetry number that is not yet correctly
         implemented in ORCA!
For a nonlinear molecule the correct rotational entropy is:
    S(rot) = R*(ln(qrot/sn)+1.5)
    R    = 8.31441 J/mol/K = 1.987191683e-3 kcal/mol/K
    qrot = 182624.6847061
    sn is the rotational symmetry number. We have assumed 3 here
       if it is different for your molecule then you should correct
       the printed rotational entropy by manually evaluating the equation
       as given above

For convenience we print out the resulting values for sn=1 - 12:
 sn= 1  qrot/sn=  182624.6847 T*S(rot)=     8.07 kcal/mol T*S(tot)=    24.91 kcal/mol
 sn= 2  qrot/sn=   91312.3424 T*S(rot)=     7.66 kcal/mol T*S(tot)=    24.50 kcal/mol
 sn= 3  qrot/sn=   60874.8949 T*S(rot)=     7.42 kcal/mol T*S(tot)=    24.26 kcal/mol
 sn= 4  qrot/sn=   45656.1712 T*S(rot)=     7.25 kcal/mol T*S(tot)=    24.09 kcal/mol
 sn= 5  qrot/sn=   36524.9369 T*S(rot)=     7.11 kcal/mol T*S(tot)=    23.96 kcal/mol
 sn= 6  qrot/sn=   30437.4475 T*S(rot)=     7.01 kcal/mol T*S(tot)=    23.85 kcal/mol
 sn= 7  qrot/sn=   26089.2407 T*S(rot)=     6.91 kcal/mol T*S(tot)=    23.76 kcal/mol
 sn= 8  qrot/sn=   22828.0856 T*S(rot)=     6.83 kcal/mol T*S(tot)=    23.68 kcal/mol
 sn= 9  qrot/sn=   20291.6316 T*S(rot)=     6.76 kcal/mol T*S(tot)=    23.61 kcal/mol
 sn=10  qrot/sn=   18262.4685 T*S(rot)=     6.70 kcal/mol T*S(tot)=    23.55 kcal/mol
 sn=11  qrot/sn=   16602.2441 T*S(rot)=     6.65 kcal/mol T*S(tot)=    23.49 kcal/mol
 sn=12  qrot/sn=   15218.7237 T*S(rot)=     6.59 kcal/mol T*S(tot)=    23.44 kcal/mol

-------------------
GIBBS FREE ENTHALPY
-------------------

The Gibbs free enthalpy is G = H - T*S

Total enthalpy                    ...   -250.61843795 Eh
Total entropy correction          ...     -0.03865880 Eh    -24.26 kcal/mol
-----------------------------------------------------------------------
Final Gibbs free enthalpy         ...   -250.65709674 Eh

For completeness - the Gibbs free enthalpy minus the electronic energy
G-E(el)                           ...      0.11539447 Eh     72.41 kcal/mol

                             ****ORCA TERMINATED NORMALLY****
TOTAL RUN TIME: 0 days 0 hours 18 minutes 59 seconds 699 msec
