                         Program Version 3.0.3 - RELEASE   -
|  1> ! NORI PBE0 def2-TZVP UseSym TightOPT Freq TightSCF Grid3 FinalGrid5 XYZFile
|  2> % pal
|  3>     nprocs 8
|  4> end
|  5> %method
|  6>     SymThresh 5.0e-2
|  7> end
|  8> % geom
|  9>     MaxIter 10
| 10> end
| 11> % maxcore 2000
| 12> % output
| 13>     printlevel mini
| 14>     print[ P_Basis ] 0
| 15>     print[ P_SCFInfo ] 1
| 16>     print[ P_SCFIterInfo ] 1
| 17>     print[ P_OrbEn ] 0
| 18>     print[ P_Cartesian ] 0
| 19> end
| 20> % elprop
| 21>     Dipole false
| 22> end
| 23> *xyz 1 1
| 24>  C        1.1414376582     0.1774075197    -0.3894442150
| 25>  C        2.6244578522     0.5036886069    -0.2844125726
| 26>  C        3.3186720295    -0.4854585962     0.6264420026
| 27>  N        4.8142015092    -0.3230903130     0.6664625164
| 28>  C        5.2416779540     0.9655773888     1.2733229725
| 29>  C        5.4615492813    -1.4740185271     1.3500749720
| 30>  H        0.6429541127     0.8922580960    -1.0436448421
| 31>  H        0.6530269645     0.2247868927     0.5862321964
| 32>  H        0.9795612936    -0.8207031390    -0.8019893314
| 33>  H        2.7434056385     1.5237030191     0.0885375728
| 34>  H        3.0791018190     0.4677139734    -1.2816443140
| 35>  H        3.1364173862    -1.5080945230     0.2896286929
| 36>  H        2.9740524498    -0.4039588407     1.6600598420
| 37>  H        5.1334092995    -0.3218854221    -0.3041664657
| 38>  H        4.8859844090     0.9951316670     2.3019957512
| 39>  H        4.8207434275     1.7924176734     0.7078827567
| 40>  H        6.3289670439     1.0210649522     1.2552063289
| 41>  H        5.1146258770    -1.5018730122     2.3816972419
| 42>  H        6.5423949161    -1.3440185414     1.3256288473
| 43>  H        5.1834890783    -2.3947088746     0.8406700473
| 44> *
| 45>
| 46>                          ****END OF INPUT****
 Total Charge           Charge          ....    1
 Multiplicity           Mult            ....    1
 Number of Electrons    NEL             ....   50
FINAL SINGLE POINT ENERGY      -253.255718172479

CARTESIAN COORDINATES (ANGSTROEM)
---------------------------------
  C      0.686069    0.000450   -2.734996
  C      0.500207    0.594425   -1.345793
  C      0.060329   -0.474861   -0.369209
  N      0.000030   -0.000602    1.057848
  C     -1.045058    1.033707    1.281310
  C     -0.169829   -1.140957    1.997198
  H      0.999750    0.772773   -3.436886
  H     -0.244020   -0.431017   -3.111344
  H      1.448683   -0.781297   -2.737250
  H     -0.235170    1.401315   -1.394059
  H      1.445066    1.036190   -1.006870
  H      0.761123   -1.312403   -0.378310
  H     -0.933123   -0.863110   -0.605165
  H      0.903369    0.432516    1.259486
  H     -2.014806    0.598636    1.043669
  H     -0.852539    1.891021    0.641945
  H     -1.021681    1.339118    2.325892
  H     -1.119868   -1.627107    1.781146
  H     -0.168941   -0.766715    3.019453
  H      0.647775   -1.845408    1.855715

FINAL SINGLE POINT ENERGY      -253.255719166120
                    ***********************HURRAY********************
 Multiplicity           Mult            ....    1
 Number of Electrons    NEL             ....   50
 Basis Dimension        Dim             ....  270
FINAL SINGLE POINT ENERGY      -253.255719631352

VIBRATIONAL FREQUENCIES
-----------------------

   0:         0.00 cm**-1
   1:         0.00 cm**-1
   2:         0.00 cm**-1
   3:         0.00 cm**-1
   4:         0.00 cm**-1
   5:         0.00 cm**-1
   6:        64.47 cm**-1
   7:       105.35 cm**-1
   8:       183.56 cm**-1
   9:       211.78 cm**-1
  10:       239.96 cm**-1
  11:       253.84 cm**-1
  12:       330.67 cm**-1
  13:       395.20 cm**-1
  14:       454.62 cm**-1
  15:       462.29 cm**-1
  16:       758.05 cm**-1
  17:       840.88 cm**-1
  18:       893.52 cm**-1
  19:       929.24 cm**-1
  20:       977.68 cm**-1
  21:      1019.08 cm**-1
  22:      1049.95 cm**-1
  23:      1066.09 cm**-1
  24:      1090.32 cm**-1
  25:      1111.19 cm**-1
  26:      1202.44 cm**-1
  27:      1226.71 cm**-1
  28:      1252.59 cm**-1
  29:      1302.80 cm**-1
  30:      1334.16 cm**-1
  31:      1344.84 cm**-1
  32:      1400.44 cm**-1
  33:      1411.79 cm**-1
  34:      1427.60 cm**-1
  35:      1430.48 cm**-1
  36:      1443.38 cm**-1
  37:      1467.85 cm**-1
  38:      1473.54 cm**-1
  39:      1484.39 cm**-1
  40:      1486.99 cm**-1
  41:      1493.05 cm**-1
  42:      1494.06 cm**-1
  43:      1499.50 cm**-1
  44:      1504.84 cm**-1
  45:      1512.05 cm**-1
  46:      3039.41 cm**-1
  47:      3062.72 cm**-1
  48:      3081.83 cm**-1
  49:      3088.15 cm**-1
  50:      3092.16 cm**-1
  51:      3097.34 cm**-1
  52:      3134.97 cm**-1
  53:      3143.21 cm**-1
  54:      3155.37 cm**-1
  55:      3186.18 cm**-1
  56:      3188.56 cm**-1
  57:      3190.47 cm**-1
  58:      3204.05 cm**-1
  59:      3452.62 cm**-1

IR SPECTRUM
-----------

 Mode    freq (cm**-1)   T**2         TX         TY         TZ
-------------------------------------------------------------------
   6:        64.47    0.267503  (  0.413068  -0.267266   0.159520)
   7:       105.35    0.299532  (  0.272432  -0.074124   0.468848)
   8:       183.56    0.237632  (  0.001240   0.259877   0.412425)
   9:       211.78    0.184894  (  0.195355  -0.379473  -0.052258)
  10:       239.96    0.083664  (  0.288245  -0.020340  -0.012854)
  11:       253.84    0.127807  ( -0.011208   0.070545  -0.350293)
  12:       330.67    1.229484  ( -0.337853   0.390264   0.981343)
  13:       395.20    0.752016  (  0.368198  -0.784572   0.029888)
  14:       454.62    0.212993  ( -0.108274  -0.189017  -0.406869)
  15:       462.29    0.777856  ( -0.210540   0.387150  -0.763965)
  16:       758.05    5.250464  (  2.156251  -0.769116  -0.097506)
  17:       840.88    1.022750  (  0.819940   0.198654   0.557660)
  18:       893.52    4.948529  ( -0.443496  -1.012311  -1.930561)
  19:       929.24    1.873490  ( -0.495456   0.631404   1.108758)
  20:       977.68   35.799860  ( -1.858672  -0.890455   5.617143)
  21:      1019.08   17.455848  (  1.482907  -3.788464   0.950987)
  22:      1049.95    1.109582  ( -0.470702   0.898148  -0.285223)
  23:      1066.09    8.162681  ( -0.377054   0.310494   2.814979)
  24:      1090.32    2.154421  ( -0.327050   0.420444   1.367730)
  25:      1111.19    2.463925  (  0.090962   1.319245  -0.845721)
  26:      1202.44    1.023946  ( -0.454473   0.898561  -0.099940)
  27:      1226.71    0.482828  (  0.208252   0.226041   0.623189)
  28:      1252.59    0.114216  ( -0.186699  -0.033907   0.279660)
  29:      1302.80    0.189858  ( -0.424406   0.064102   0.075023)
  30:      1334.16    0.909941  (  0.343357   0.017585   0.889797)
  31:      1344.84    1.473832  ( -1.153718  -0.093841  -0.366007)
  32:      1400.44    3.388115  (  0.284272  -1.530227   0.982706)
  33:      1411.79    8.025586  (  0.424122   1.199745  -2.531071)
  34:      1427.60   18.775797  (  0.849651  -0.856453  -4.161776)
  35:      1430.48    1.263212  (  0.864655  -0.664095  -0.273058)
  36:      1443.38    6.773873  ( -1.391442   2.190971  -0.193412)
  37:      1467.85    2.149556  (  1.144637   0.354308  -0.844884)
  38:      1473.54    6.560098  ( -2.012206   1.195327   1.040345)
  39:      1484.39    7.688910  ( -0.258960   1.935161  -1.969010)
  40:      1486.99    6.959274  (  2.050434  -1.553256   0.585142)
  41:      1493.05    5.123157  ( -0.884088  -1.606945   1.326376)
  42:      1494.06   19.321125  ( -4.006806   1.011893  -1.497565)
  43:      1499.50   23.989491  ( -3.340830  -0.670897   3.518273)
  44:      1504.84   18.604018  (  1.573594  -1.129872   3.853727)
  45:      1512.05   51.155805  (  2.359829   5.787608   3.477155)
  46:      3039.41   12.845214  (  1.120107   2.199403   2.598692)
  47:      3062.72    9.222294  ( -0.012517  -1.976815  -2.305286)
  48:      3081.83    3.504034  ( -0.621810  -1.765344  -0.030762)
  49:      3088.15    0.551801  ( -0.235995  -0.621833   0.330804)
  50:      3092.16    0.606865  ( -0.287371   0.702385  -0.175894)
  51:      3097.34    3.890415  (  1.262927  -1.448145  -0.445316)
  52:      3134.97    4.825605  ( -2.051558   0.473099  -0.626812)
  53:      3143.21   12.091395  ( -3.369471   0.825921  -0.236469)
  54:      3155.37    4.610714  (  0.253396   2.023786  -0.671412)
  55:      3186.18    0.088671  ( -0.084119   0.282593   0.041666)
  56:      3188.56    0.147400  (  0.063983  -0.100091   0.365086)
  57:      3190.47    0.144714  (  0.187037  -0.124149  -0.307113)
  58:      3204.05    0.191133  ( -0.237283   0.362761   0.056866)
  59:      3452.62   44.922854  (  5.920183   2.779830   1.465208)

--------------------------
THERMOCHEMISTRY AT 298.15K
--------------------------

Temperature         ... 298.15 K
Pressure            ... 1.00 atm
Total Mass          ... 88.17 AMU

Throughout the following assumptions are being made:
  (1) The electronic state is orbitally nondegenerate
  (2) There are no thermally accessible electronically excited states
  (3) Hindered rotations indicated by low frequency modes) are not
      treated as such but are treated as vibrations and this may
      case some error
  (4) All equations used are the standard statistical mechanics
      equations for an ideal gas
  (5) All vibrations are strinctly harmonic

------------
INNER ENERGY
------------

The inner energy is: U= E(el) + E(ZPE) + E(vib) + E(rot) + E(trans)
    E(el)   - is the total energy from the electronic structure calculation
              = E(kin-el) + E(nuc-el) + E(el-el) + E(nuc-nuc)
    E(ZPE)  - the the zero temperature vibrational energy from the frequency calculation
    E(vib)  - the the finite temperature correction to E(ZPE) due to population
              of excietd vibrational states
    E(rot)  - is the rotational thermal energy
    E(trans)- is the translational thermal energy

Summary of contributions to the inner energy U:
Electronic energy                ...   -253.25571963 Eh
Zero point energy                ...      0.19307079 Eh     121.15 kcal/mol
Thermal vibrational correction   ...      0.00545235 Eh       3.42 kcal/mol
Thermal rotational correction    ...      0.00141627 Eh       0.89 kcal/mol
Thermal translational correction ...      0.00141627 Eh       0.89 kcal/mol
-----------------------------------------------------------------------
Total thermal energy                   -253.05436395 Eh

Summary of corrections to the electronic energy:
(perhaps to be used in another calculation)
Total thermal correction                  0.00828489 Eh       5.20 kcal/mol
Non-thermal (ZPE) correction              0.19307079 Eh     121.15 kcal/mol
-----------------------------------------------------------------------
Total correction                          0.20135568 Eh     126.35 kcal/mol

--------
ENTHALPY
--------

The enthalpy is H = U + kB*T
                kB is Boltzmann's constant
Total free energy                 ...   -253.05436395 Eh
Thermal Enthalpy correction       ...      0.00094421 Eh       0.59 kcal/mol
-----------------------------------------------------------------------
Total Enthalpy                    ...   -253.05341974 Eh

-------
ENTROPY
-------

The entropy contributions are T*S = T*(S(el)+S(vib)+S(rot)+S(trans)
     S(el)   - electronic entropy
     S(vib)  - vibrational entropy
     S(rot)  - rotational entropy
     S(trans)- translational entropy
The entropies will be listed as mutliplied by the temperature to get
units of energy

Electronic entropy                ...      0.00000000 Eh      0.00 kcal/mol
Vibrational entropy               ...      0.00988323 Eh      6.20 kcal/mol
Rotational entropy                ...      0.01191172 Eh      7.47 kcal/mol
Translational entropy             ...      0.01869299 Eh     11.73 kcal/mol
-----------------------------------------------------------------------
Final entropy term                ...      0.04048794 Eh     25.41 kcal/mol

CAUTION: The rotational entropy is not quite correctly treated here
         because it includes a symmetry number that is not yet correctly
         implemented in ORCA!
For a nonlinear molecule the correct rotational entropy is:
    S(rot) = R*(ln(qrot/sn)+1.5)
    R    = 8.31441 J/mol/K = 1.987191683e-3 kcal/mol/K
    qrot = 201700.6702166
    sn is the rotational symmetry number. We have assumed 3 here
       if it is different for your molecule then you should correct
       the printed rotational entropy by manually evaluating the equation
       as given above

For convenience we print out the resulting values for sn=1 - 12:
 sn= 1  qrot/sn=  201700.6702 T*S(rot)=     8.13 kcal/mol T*S(tot)=    26.06 kcal/mol
 sn= 2  qrot/sn=  100850.3351 T*S(rot)=     7.71 kcal/mol T*S(tot)=    25.65 kcal/mol
 sn= 3  qrot/sn=   67233.5567 T*S(rot)=     7.47 kcal/mol T*S(tot)=    25.41 kcal/mol
 sn= 4  qrot/sn=   50425.1676 T*S(rot)=     7.30 kcal/mol T*S(tot)=    25.24 kcal/mol
 sn= 5  qrot/sn=   40340.1340 T*S(rot)=     7.17 kcal/mol T*S(tot)=    25.10 kcal/mol
 sn= 6  qrot/sn=   33616.7784 T*S(rot)=     7.06 kcal/mol T*S(tot)=    25.00 kcal/mol
 sn= 7  qrot/sn=   28814.3815 T*S(rot)=     6.97 kcal/mol T*S(tot)=    24.90 kcal/mol
 sn= 8  qrot/sn=   25212.5838 T*S(rot)=     6.89 kcal/mol T*S(tot)=    24.83 kcal/mol
 sn= 9  qrot/sn=   22411.1856 T*S(rot)=     6.82 kcal/mol T*S(tot)=    24.76 kcal/mol
 sn=10  qrot/sn=   20170.0670 T*S(rot)=     6.76 kcal/mol T*S(tot)=    24.69 kcal/mol
 sn=11  qrot/sn=   18336.4246 T*S(rot)=     6.70 kcal/mol T*S(tot)=    24.64 kcal/mol
 sn=12  qrot/sn=   16808.3892 T*S(rot)=     6.65 kcal/mol T*S(tot)=    24.59 kcal/mol

-------------------
GIBBS FREE ENTHALPY
-------------------

The Gibbs free enthalpy is G = H - T*S

Total enthalpy                    ...   -253.05341974 Eh
Total entropy correction          ...     -0.04048794 Eh    -25.41 kcal/mol
-----------------------------------------------------------------------
Final Gibbs free enthalpy         ...   -253.09390768 Eh

For completeness - the Gibbs free enthalpy minus the electronic energy
G-E(el)                           ...      0.16181195 Eh    101.54 kcal/mol

                             ****ORCA TERMINATED NORMALLY****
TOTAL RUN TIME: 0 days 0 hours 25 minutes 27 seconds 968 msec
