                         Program Version 3.0.3 - RELEASE   -
|  1> ! NORI PBE0 def2-TZVP UseSym TightOPT Freq TightSCF Grid3 FinalGrid5 XYZFile
|  2> % pal
|  3>     nprocs 8
|  4> end
|  5> %method
|  6>     SymThresh 5.0e-2
|  7> end
|  8> % geom
|  9>     MaxIter 10
| 10> end
| 11> % maxcore 2000
| 12> % output
| 13>     printlevel mini
| 14>     print[ P_Basis ] 0
| 15>     print[ P_SCFInfo ] 1
| 16>     print[ P_SCFIterInfo ] 1
| 17>     print[ P_OrbEn ] 0
| 18>     print[ P_Cartesian ] 0
| 19> end
| 20> % elprop
| 21>     Dipole false
| 22> end
| 23> *xyz 1 1
| 24>  C        1.2800979823    -0.1760481794     0.0638683974
| 25>  C        2.7547549611     0.1248305135    -0.0468162215
| 26>  N        3.2496393513     0.8322742269     1.1556181376
| 27>  C        4.4940338614     1.6284178393     1.1320733930
| 28>  C        3.1994022112     2.3162206604     1.2870962631
| 29>  C        2.7510299491     2.8897191399     2.5909928778
| 30>  H        0.9533338469    -0.6945239879    -0.8385593438
| 31>  H        0.6858115835     0.7346001788     0.1575261214
| 32>  H        1.0632605099    -0.8300018855     0.9119216357
| 33>  H        2.9774005329     0.7693164808    -0.8992406279
| 34>  H        3.3527453771    -0.7831643578    -0.1457663742
| 35>  H        3.0791205455     0.3333224937     2.0242132291
| 36>  H        4.9946498204     1.6263447924     0.1721541375
| 37>  H        5.1299187843     1.4986497305     1.9995095377
| 38>  H        2.7878803490     2.7662711595     0.3894150248
| 39>  H        3.1800292900     2.3526121603     3.4401170527
| 40>  H        1.6631345376     2.8825301468     2.6734965154
| 41>  H        3.0863865065     3.9265988880     2.6535102442
| 42> *
| 43>
| 44>                          ****END OF INPUT****
 Total Charge           Charge          ....    1
 Multiplicity           Mult            ....    1
 Number of Electrons    NEL             ....   48
FINAL SINGLE POINT ENERGY      -252.028529553012
FINAL SINGLE POINT ENERGY      -252.028530806750
FINAL SINGLE POINT ENERGY      -252.028532144605

CARTESIAN COORDINATES (ANGSTROEM)
---------------------------------
  C      2.386344    0.000999   -0.083181
  C      1.253897    0.786019    0.532910
  N     -0.001070    0.001171    0.541337
  C     -1.324236    0.650321    0.645333
  C     -0.942081   -0.014470   -0.614028
  C     -1.518000   -1.327712   -1.031004
  H      3.291511    0.608944   -0.065058
  H      2.180300   -0.260344   -1.122748
  H      2.595998   -0.913242    0.476478
  H      1.043592    1.703070   -0.020428
  H      1.460661    1.058966    1.570067
  H      0.076554   -0.888977    1.025027
  H     -1.275277    1.728952    0.723275
  H     -2.018995    0.156776    1.313773
  H     -0.586406    0.635201   -1.407253
  H     -1.813945   -1.933550   -0.171307
  H     -0.813300   -1.892700   -1.642828
  H     -2.412014   -1.145871   -1.630711

FINAL SINGLE POINT ENERGY      -252.028532485886
                    ***********************HURRAY********************
 Multiplicity           Mult            ....    1
 Number of Electrons    NEL             ....   48
 Basis Dimension        Dim             ....  258
FINAL SINGLE POINT ENERGY      -252.028532678007

VIBRATIONAL FREQUENCIES
-----------------------

   0:         0.00 cm**-1
   1:         0.00 cm**-1
   2:         0.00 cm**-1
   3:         0.00 cm**-1
   4:         0.00 cm**-1
   5:         0.00 cm**-1
   6:        90.69 cm**-1
   7:       157.69 cm**-1
   8:       206.00 cm**-1
   9:       228.35 cm**-1
  10:       306.81 cm**-1
  11:       368.07 cm**-1
  12:       410.40 cm**-1
  13:       453.77 cm**-1
  14:       756.35 cm**-1
  15:       809.58 cm**-1
  16:       820.60 cm**-1
  17:       889.04 cm**-1
  18:       913.04 cm**-1
  19:       961.19 cm**-1
  20:      1008.80 cm**-1
  21:      1065.69 cm**-1
  22:      1083.53 cm**-1
  23:      1120.99 cm**-1
  24:      1143.31 cm**-1
  25:      1156.02 cm**-1
  26:      1174.92 cm**-1
  27:      1224.85 cm**-1
  28:      1227.29 cm**-1
  29:      1272.71 cm**-1
  30:      1329.29 cm**-1
  31:      1380.02 cm**-1
  32:      1399.50 cm**-1
  33:      1423.54 cm**-1
  34:      1428.61 cm**-1
  35:      1461.79 cm**-1
  36:      1474.90 cm**-1
  37:      1483.46 cm**-1
  38:      1486.67 cm**-1
  39:      1488.92 cm**-1
  40:      1497.80 cm**-1
  41:      1517.31 cm**-1
  42:      3062.92 cm**-1
  43:      3063.86 cm**-1
  44:      3087.58 cm**-1
  45:      3129.48 cm**-1
  46:      3141.90 cm**-1
  47:      3151.15 cm**-1
  48:      3151.99 cm**-1
  49:      3155.85 cm**-1
  50:      3167.12 cm**-1
  51:      3189.57 cm**-1
  52:      3268.22 cm**-1
  53:      3530.23 cm**-1

IR SPECTRUM
-----------

 Mode    freq (cm**-1)   T**2         TX         TY         TZ
-------------------------------------------------------------------
   6:        90.69    0.610865  ( -0.128187   0.125896   0.760646)
   7:       157.69    0.309857  ( -0.320375  -0.455123  -0.008915)
   8:       206.00    0.147756  ( -0.120595   0.299285  -0.208905)
   9:       228.35    0.258720  ( -0.362180  -0.046200   0.354134)
  10:       306.81    0.937346  (  0.307993  -0.087250   0.913714)
  11:       368.07    0.734923  ( -0.552154   0.193568   0.626562)
  12:       410.40    0.741747  (  0.157496  -0.844359  -0.063247)
  13:       453.77    0.302377  ( -0.441725   0.296675  -0.138709)
  14:       756.35    7.694989  ( -1.584088  -0.422766  -2.237616)
  15:       809.58    6.434182  ( -1.359269   1.424765  -1.598942)
  16:       820.60    0.632885  (  0.452357  -0.430381   0.492980)
  17:       889.04   12.746996  (  3.267947  -0.463946   1.360982)
  18:       913.04    4.924252  ( -2.202671   0.263726   0.054214)
  19:       961.19   17.008480  (  0.838859  -0.480145  -4.009271)
  20:      1008.80    6.321367  ( -0.605912  -1.588037  -1.852667)
  21:      1065.69   30.211651  (  5.383208   0.037682   1.109642)
  22:      1083.53   21.568051  ( -4.259273  -0.810252  -1.664372)
  23:      1120.99   18.631859  (  3.610806  -1.516296  -1.815153)
  24:      1143.31    8.856446  (  1.445192   0.932277   2.428729)
  25:      1156.02    6.326410  (  1.664851   1.703824   0.807258)
  26:      1174.92    4.384795  (  0.097584   0.246996  -2.077081)
  27:      1224.85    6.920827  ( -2.212764  -1.214731   0.740901)
  28:      1227.29    4.769796  (  0.984476  -0.916948  -1.720410)
  29:      1272.71    4.484146  ( -1.838927   0.845142  -0.623081)
  30:      1329.29    6.137123  ( -0.591920  -1.872013   1.510736)
  31:      1380.02    0.565136  (  0.408790   0.409986   0.479519)
  32:      1399.50    3.468667  ( -1.663667  -0.801782  -0.240885)
  33:      1423.54   10.707175  ( -3.036728   0.728900   0.976813)
  34:      1428.61    9.062445  (  0.468322  -2.952237  -0.356953)
  35:      1461.79   51.766446  (  6.936004  -0.312542   1.886959)
  36:      1474.90    4.252251  ( -0.657794   1.061171   1.641181)
  37:      1483.46    4.445044  (  1.368761   0.196983  -1.591457)
  38:      1486.67   31.573658  ( -0.164278  -1.305708   5.462765)
  39:      1488.92    2.177267  (  0.317841  -0.700323  -1.259282)
  40:      1497.80    7.361554  ( -1.688824   2.107291  -0.262212)
  41:      1517.31   26.355414  (  2.444819   4.065854   1.961404)
  42:      3062.92    1.493510  ( -0.419855   0.434593  -1.062243)
  43:      3063.86    2.460406  (  0.288277   1.508910   0.317006)
  44:      3087.58    3.435046  ( -0.578107   1.606743   0.720565)
  45:      3129.48    0.890471  (  0.229212   0.345599  -0.847640)
  46:      3141.90    1.940964  (  0.517478   0.439066  -1.216718)
  47:      3151.15    4.201452  ( -0.814604   1.065363  -1.550121)
  48:      3151.99    0.731514  ( -0.120228   0.488781   0.691486)
  49:      3155.85    2.584072  (  0.400858   0.444141   1.492020)
  50:      3167.12    1.661097  (  0.808597  -0.679573  -0.738544)
  51:      3189.57    0.809126  (  0.412491   0.300800   0.740606)
  52:      3268.22    3.517927  ( -0.643714  -1.640524   0.642059)
  53:      3530.23   61.100082  (  1.821968  -6.313166   4.233727)

--------------------------
THERMOCHEMISTRY AT 298.15K
--------------------------

Temperature         ... 298.15 K
Pressure            ... 1.00 atm
Total Mass          ... 86.16 AMU

Throughout the following assumptions are being made:
  (1) The electronic state is orbitally nondegenerate
  (2) There are no thermally accessible electronically excited states
  (3) Hindered rotations indicated by low frequency modes) are not
      treated as such but are treated as vibrations and this may
      case some error
  (4) All equations used are the standard statistical mechanics
      equations for an ideal gas
  (5) All vibrations are strinctly harmonic

------------
INNER ENERGY
------------

The inner energy is: U= E(el) + E(ZPE) + E(vib) + E(rot) + E(trans)
    E(el)   - is the total energy from the electronic structure calculation
              = E(kin-el) + E(nuc-el) + E(el-el) + E(nuc-nuc)
    E(ZPE)  - the the zero temperature vibrational energy from the frequency calculation
    E(vib)  - the the finite temperature correction to E(ZPE) due to population
              of excietd vibrational states
    E(rot)  - is the rotational thermal energy
    E(trans)- is the translational thermal energy

Summary of contributions to the inner energy U:
Electronic energy                ...   -252.02853268 Eh
Zero point energy                ...      0.16931659 Eh     106.25 kcal/mol
Thermal vibrational correction   ...      0.00444722 Eh       2.79 kcal/mol
Thermal rotational correction    ...      0.00141627 Eh       0.89 kcal/mol
Thermal translational correction ...      0.00141627 Eh       0.89 kcal/mol
-----------------------------------------------------------------------
Total thermal energy                   -251.85193632 Eh

Summary of corrections to the electronic energy:
(perhaps to be used in another calculation)
Total thermal correction                  0.00727977 Eh       4.57 kcal/mol
Non-thermal (ZPE) correction              0.16931659 Eh     106.25 kcal/mol
-----------------------------------------------------------------------
Total correction                          0.17659636 Eh     110.82 kcal/mol

--------
ENTHALPY
--------

The enthalpy is H = U + kB*T
                kB is Boltzmann's constant
Total free energy                 ...   -251.85193632 Eh
Thermal Enthalpy correction       ...      0.00094421 Eh       0.59 kcal/mol
-----------------------------------------------------------------------
Total Enthalpy                    ...   -251.85099211 Eh

-------
ENTROPY
-------

The entropy contributions are T*S = T*(S(el)+S(vib)+S(rot)+S(trans)
     S(el)   - electronic entropy
     S(vib)  - vibrational entropy
     S(rot)  - rotational entropy
     S(trans)- translational entropy
The entropies will be listed as mutliplied by the temperature to get
units of energy

Electronic entropy                ...      0.00000000 Eh      0.00 kcal/mol
Vibrational entropy               ...      0.00765655 Eh      4.80 kcal/mol
Rotational entropy                ...      0.01173928 Eh      7.37 kcal/mol
Translational entropy             ...      0.01866024 Eh     11.71 kcal/mol
-----------------------------------------------------------------------
Final entropy term                ...      0.03805606 Eh     23.88 kcal/mol

CAUTION: The rotational entropy is not quite correctly treated here
         because it includes a symmetry number that is not yet correctly
         implemented in ORCA!
For a nonlinear molecule the correct rotational entropy is:
    S(rot) = R*(ln(qrot/sn)+1.5)
    R    = 8.31441 J/mol/K = 1.987191683e-3 kcal/mol/K
    qrot = 168032.0883597
    sn is the rotational symmetry number. We have assumed 3 here
       if it is different for your molecule then you should correct
       the printed rotational entropy by manually evaluating the equation
       as given above

For convenience we print out the resulting values for sn=1 - 12:
 sn= 1  qrot/sn=  168032.0884 T*S(rot)=     8.02 kcal/mol T*S(tot)=    24.53 kcal/mol
 sn= 2  qrot/sn=   84016.0442 T*S(rot)=     7.61 kcal/mol T*S(tot)=    24.12 kcal/mol
 sn= 3  qrot/sn=   56010.6961 T*S(rot)=     7.37 kcal/mol T*S(tot)=    23.88 kcal/mol
 sn= 4  qrot/sn=   42008.0221 T*S(rot)=     7.20 kcal/mol T*S(tot)=    23.71 kcal/mol
 sn= 5  qrot/sn=   33606.4177 T*S(rot)=     7.06 kcal/mol T*S(tot)=    23.58 kcal/mol
 sn= 6  qrot/sn=   28005.3481 T*S(rot)=     6.96 kcal/mol T*S(tot)=    23.47 kcal/mol
 sn= 7  qrot/sn=   24004.5841 T*S(rot)=     6.86 kcal/mol T*S(tot)=    23.38 kcal/mol
 sn= 8  qrot/sn=   21004.0110 T*S(rot)=     6.79 kcal/mol T*S(tot)=    23.30 kcal/mol
 sn= 9  qrot/sn=   18670.2320 T*S(rot)=     6.72 kcal/mol T*S(tot)=    23.23 kcal/mol
 sn=10  qrot/sn=   16803.2088 T*S(rot)=     6.65 kcal/mol T*S(tot)=    23.17 kcal/mol
 sn=11  qrot/sn=   15275.6444 T*S(rot)=     6.60 kcal/mol T*S(tot)=    23.11 kcal/mol
 sn=12  qrot/sn=   14002.6740 T*S(rot)=     6.55 kcal/mol T*S(tot)=    23.06 kcal/mol

-------------------
GIBBS FREE ENTHALPY
-------------------

The Gibbs free enthalpy is G = H - T*S

Total enthalpy                    ...   -251.85099211 Eh
Total entropy correction          ...     -0.03805606 Eh    -23.88 kcal/mol
-----------------------------------------------------------------------
Final Gibbs free enthalpy         ...   -251.88904817 Eh

For completeness - the Gibbs free enthalpy minus the electronic energy
G-E(el)                           ...      0.13948450 Eh     87.53 kcal/mol

                             ****ORCA TERMINATED NORMALLY****
TOTAL RUN TIME: 0 days 0 hours 23 minutes 43 seconds 319 msec
