                         Program Version 3.0.3 - RELEASE   -
|  1> ! NORI PBE0 def2-TZVP UseSym TightOPT Freq TightSCF Grid3 FinalGrid5 XYZFile
|  2> % pal
|  3>     nprocs 8
|  4> end
|  5> %method
|  6>     SymThresh 5.0e-2
|  7> end
|  8> % geom
|  9>     MaxIter 10
| 10> end
| 11> % maxcore 2000
| 12> % output
| 13>     printlevel mini
| 14>     print[ P_Basis ] 0
| 15>     print[ P_SCFInfo ] 1
| 16>     print[ P_SCFIterInfo ] 1
| 17>     print[ P_OrbEn ] 0
| 18>     print[ P_Cartesian ] 0
| 19> end
| 20> % elprop
| 21>     Dipole false
| 22> end
| 23> *xyz 1 1
| 24>  C        2.9006939226    -0.8204457115     0.8687918372
| 25>  C        2.2760152233     0.1747499747    -0.0792463017
| 26>  N        3.1502685715     1.3542187851    -0.2721301434
| 27>  C        2.6526571606     2.6260324402    -0.8345686252
| 28>  C        3.1115874885     2.5984570684     0.5664586987
| 29>  C        2.1837885878     2.6915395174     1.7329738074
| 30>  H        2.2382623460    -1.6812713445     0.9671249683
| 31>  H        3.0502329686    -0.3979056595     1.8632960303
| 32>  H        3.8585557649    -1.1886933331     0.4945784539
| 33>  H        2.1172302088    -0.2531494771    -1.0714000871
| 34>  H        1.3156948284     0.5387090064     0.2825164010
| 35>  H        4.0843335299     1.0991624181    -0.5765591117
| 36>  H        1.5865882604     2.6189513218    -1.0276202252
| 37>  H        3.2702504733     3.0605214024    -1.6099283833
| 38>  H        4.1176008881     2.9653934394     0.7419169215
| 39>  H        1.1784284440     2.3347724214     1.5100134873
| 40>  H        2.1023119796     3.7458539260     2.0056447975
| 41>  H        2.5763593537     2.1572338041     2.5989274747
| 42> *
| 43>
| 44>                          ****END OF INPUT****
 Total Charge           Charge          ....    1
 Multiplicity           Mult            ....    1
 Number of Electrons    NEL             ....   48
FINAL SINGLE POINT ENERGY      -252.025793920344
FINAL SINGLE POINT ENERGY      -252.025796525701
FINAL SINGLE POINT ENERGY      -252.025798945498
FINAL SINGLE POINT ENERGY      -252.025800281328
FINAL SINGLE POINT ENERGY      -252.025801442734

CARTESIAN COORDINATES (ANGSTROEM)
---------------------------------
  C      2.299534   -0.002472   -0.144846
  C      1.080925    0.831065    0.170549
  N      0.001992   -0.000588    0.752030
  C     -1.399620    0.458195    0.835461
  C     -1.076042   -0.684932   -0.037173
  C     -1.083421   -0.603586   -1.527834
  H      3.080273    0.645653   -0.544609
  H      2.087002   -0.769850   -0.890778
  H      2.702429   -0.482784    0.749991
  H      1.298567    1.607761    0.906704
  H      0.675891    1.316403   -0.716266
  H      0.316654   -0.533715    1.556619
  H     -1.559871    1.426872    0.377265
  H     -1.878641    0.303563    1.793742
  H     -1.278304   -1.667793    0.376107
  H     -0.922940    0.407221   -1.901694
  H     -2.069904   -0.923741   -1.870308
  H     -0.347919   -1.277477   -1.968865

FINAL SINGLE POINT ENERGY      -252.025801978672
                    ***********************HURRAY********************
 Multiplicity           Mult            ....    1
 Number of Electrons    NEL             ....   48
 Basis Dimension        Dim             ....  258
FINAL SINGLE POINT ENERGY      -252.025802108085

VIBRATIONAL FREQUENCIES
-----------------------

   0:         0.00 cm**-1
   1:         0.00 cm**-1
   2:         0.00 cm**-1
   3:         0.00 cm**-1
   4:         0.00 cm**-1
   5:         0.00 cm**-1
   6:        78.40 cm**-1
   7:       164.03 cm**-1
   8:       217.52 cm**-1
   9:       238.06 cm**-1
  10:       286.69 cm**-1
  11:       362.95 cm**-1
  12:       432.76 cm**-1
  13:       497.23 cm**-1
  14:       724.53 cm**-1
  15:       785.92 cm**-1
  16:       814.44 cm**-1
  17:       890.77 cm**-1
  18:       913.80 cm**-1
  19:       959.42 cm**-1
  20:      1017.45 cm**-1
  21:      1035.37 cm**-1
  22:      1092.00 cm**-1
  23:      1106.71 cm**-1
  24:      1143.46 cm**-1
  25:      1159.93 cm**-1
  26:      1186.38 cm**-1
  27:      1220.67 cm**-1
  28:      1231.21 cm**-1
  29:      1289.38 cm**-1
  30:      1321.04 cm**-1
  31:      1380.19 cm**-1
  32:      1410.12 cm**-1
  33:      1422.98 cm**-1
  34:      1438.43 cm**-1
  35:      1464.75 cm**-1
  36:      1472.09 cm**-1
  37:      1484.33 cm**-1
  38:      1487.98 cm**-1
  39:      1488.93 cm**-1
  40:      1502.19 cm**-1
  41:      1514.12 cm**-1
  42:      3064.78 cm**-1
  43:      3073.37 cm**-1
  44:      3096.89 cm**-1
  45:      3136.47 cm**-1
  46:      3146.70 cm**-1
  47:      3155.83 cm**-1
  48:      3160.97 cm**-1
  49:      3165.41 cm**-1
  50:      3167.23 cm**-1
  51:      3188.75 cm**-1
  52:      3266.63 cm**-1
  53:      3539.45 cm**-1

IR SPECTRUM
-----------

 Mode    freq (cm**-1)   T**2         TX         TY         TZ
-------------------------------------------------------------------
   6:        78.40    0.938472  (  0.216452  -0.378667  -0.865004)
   7:       164.03    0.059459  ( -0.229517  -0.036604   0.073767)
   8:       217.52    0.132281  ( -0.320169  -0.172270  -0.009802)
   9:       238.06    0.699265  (  0.500141   0.584303  -0.328199)
  10:       286.69    0.117965  ( -0.198837   0.230596  -0.158916)
  11:       362.95    1.477286  (  0.961924  -0.604389  -0.432093)
  12:       432.76    0.228957  ( -0.404343  -0.229332   0.113447)
  13:       497.23    2.201357  ( -1.332230  -0.625129  -0.189032)
  14:       724.53   10.724582  ( -2.477547  -0.671595  -2.033545)
  15:       785.92    2.683420  ( -1.440366  -0.719758  -0.301189)
  16:       814.44    2.000464  ( -0.365281  -0.432974  -1.295981)
  17:       890.77    7.554538  ( -2.151819   1.262459   1.153433)
  18:       913.80   17.400423  ( -3.123592  -1.959036  -1.950839)
  19:       959.42   10.040376  ( -2.544985   0.656350   1.769924)
  20:      1017.45   10.014902  ( -1.432508   2.547736   1.213204)
  21:      1035.37    7.118477  (  2.359116   0.605678  -1.089129)
  22:      1092.00    4.189265  (  0.927419   1.535072   0.986262)
  23:      1106.71   42.489969  ( -6.241801  -1.333048  -1.323960)
  24:      1143.46    8.757072  (  0.926633   2.426780   1.417448)
  25:      1159.93    5.362741  ( -2.192054   0.157105   0.730041)
  26:      1186.38    5.160611  (  2.058276  -0.909353  -0.311753)
  27:      1220.67    4.081841  (  0.763216   1.845913   0.303228)
  28:      1231.21    6.334756  (  1.066630  -0.808231  -2.131624)
  29:      1289.38    5.169586  ( -1.617721  -1.189943  -1.066114)
  30:      1321.04    5.779623  (  1.861953   0.674666  -1.362931)
  31:      1380.19    1.092336  ( -0.818795  -0.617035   0.202925)
  32:      1410.12    2.811796  ( -0.148373   0.094010   1.667616)
  33:      1422.98   12.969947  ( -3.360191   1.043713   0.767938)
  34:      1438.43   17.105524  (  2.797672   0.206942   3.039035)
  35:      1464.75   34.112745  (  5.569267   1.753448   0.146404)
  36:      1472.09    5.063178  ( -2.046119   0.824703  -0.443213)
  37:      1484.33    8.698024  ( -0.618546   2.755729   0.849342)
  38:      1487.98   15.490820  (  1.722154   1.487326  -3.211365)
  39:      1488.93   11.695878  ( -0.987517  -1.908765  -2.660320)
  40:      1502.19   27.666062  ( -2.254176   4.669694  -0.882445)
  41:      1514.12   11.250077  ( -1.570367  -2.918654  -0.515251)
  42:      3064.78    2.612287  (  0.084589  -1.554619   0.433926)
  43:      3073.37    1.533909  (  1.150597   0.448782   0.092904)
  44:      3096.89    2.517008  (  0.501606  -1.505027  -0.017138)
  45:      3136.47    2.722407  (  0.259499   0.258516   1.608800)
  46:      3146.70    0.373210  (  0.304692   0.204375  -0.488470)
  47:      3155.83    0.665910  ( -0.359900   0.732365   0.004886)
  48:      3160.97    4.286050  (  0.664324   1.460413   1.308402)
  49:      3165.41    2.452067  ( -1.087833   1.114182   0.165181)
  50:      3167.23    2.114579  ( -0.152305   0.619535  -1.306736)
  51:      3188.75    0.437916  ( -0.387742  -0.139953  -0.517672)
  52:      3266.63    3.373617  (  0.304770   1.284598  -1.276925)
  53:      3539.45   74.708305  (  3.627410  -3.649980   6.944627)

--------------------------
THERMOCHEMISTRY AT 298.15K
--------------------------

Temperature         ... 298.15 K
Pressure            ... 1.00 atm
Total Mass          ... 86.16 AMU

Throughout the following assumptions are being made:
  (1) The electronic state is orbitally nondegenerate
  (2) There are no thermally accessible electronically excited states
  (3) Hindered rotations indicated by low frequency modes) are not
      treated as such but are treated as vibrations and this may
      case some error
  (4) All equations used are the standard statistical mechanics
      equations for an ideal gas
  (5) All vibrations are strinctly harmonic

------------
INNER ENERGY
------------

The inner energy is: U= E(el) + E(ZPE) + E(vib) + E(rot) + E(trans)
    E(el)   - is the total energy from the electronic structure calculation
              = E(kin-el) + E(nuc-el) + E(el-el) + E(nuc-nuc)
    E(ZPE)  - the the zero temperature vibrational energy from the frequency calculation
    E(vib)  - the the finite temperature correction to E(ZPE) due to population
              of excietd vibrational states
    E(rot)  - is the rotational thermal energy
    E(trans)- is the translational thermal energy

Summary of contributions to the inner energy U:
Electronic energy                ...   -252.02580211 Eh
Zero point energy                ...      0.16949279 Eh     106.36 kcal/mol
Thermal vibrational correction   ...      0.00442482 Eh       2.78 kcal/mol
Thermal rotational correction    ...      0.00141627 Eh       0.89 kcal/mol
Thermal translational correction ...      0.00141627 Eh       0.89 kcal/mol
-----------------------------------------------------------------------
Total thermal energy                   -251.84905195 Eh

Summary of corrections to the electronic energy:
(perhaps to be used in another calculation)
Total thermal correction                  0.00725736 Eh       4.55 kcal/mol
Non-thermal (ZPE) correction              0.16949279 Eh     106.36 kcal/mol
-----------------------------------------------------------------------
Total correction                          0.17675016 Eh     110.91 kcal/mol

--------
ENTHALPY
--------

The enthalpy is H = U + kB*T
                kB is Boltzmann's constant
Total free energy                 ...   -251.84905195 Eh
Thermal Enthalpy correction       ...      0.00094421 Eh       0.59 kcal/mol
-----------------------------------------------------------------------
Total Enthalpy                    ...   -251.84810774 Eh

-------
ENTROPY
-------

The entropy contributions are T*S = T*(S(el)+S(vib)+S(rot)+S(trans)
     S(el)   - electronic entropy
     S(vib)  - vibrational entropy
     S(rot)  - rotational entropy
     S(trans)- translational entropy
The entropies will be listed as mutliplied by the temperature to get
units of energy

Electronic entropy                ...      0.00000000 Eh      0.00 kcal/mol
Vibrational entropy               ...      0.00767334 Eh      4.82 kcal/mol
Rotational entropy                ...      0.01169636 Eh      7.34 kcal/mol
Translational entropy             ...      0.01866024 Eh     11.71 kcal/mol
-----------------------------------------------------------------------
Final entropy term                ...      0.03802993 Eh     23.86 kcal/mol

CAUTION: The rotational entropy is not quite correctly treated here
         because it includes a symmetry number that is not yet correctly
         implemented in ORCA!
For a nonlinear molecule the correct rotational entropy is:
    S(rot) = R*(ln(qrot/sn)+1.5)
    R    = 8.31441 J/mol/K = 1.987191683e-3 kcal/mol/K
    qrot = 160563.5999888
    sn is the rotational symmetry number. We have assumed 3 here
       if it is different for your molecule then you should correct
       the printed rotational entropy by manually evaluating the equation
       as given above

For convenience we print out the resulting values for sn=1 - 12:
 sn= 1  qrot/sn=  160563.6000 T*S(rot)=     7.99 kcal/mol T*S(tot)=    24.51 kcal/mol
 sn= 2  qrot/sn=   80281.8000 T*S(rot)=     7.58 kcal/mol T*S(tot)=    24.10 kcal/mol
 sn= 3  qrot/sn=   53521.2000 T*S(rot)=     7.34 kcal/mol T*S(tot)=    23.86 kcal/mol
 sn= 4  qrot/sn=   40140.9000 T*S(rot)=     7.17 kcal/mol T*S(tot)=    23.69 kcal/mol
 sn= 5  qrot/sn=   32112.7200 T*S(rot)=     7.04 kcal/mol T*S(tot)=    23.56 kcal/mol
 sn= 6  qrot/sn=   26760.6000 T*S(rot)=     6.93 kcal/mol T*S(tot)=    23.45 kcal/mol
 sn= 7  qrot/sn=   22937.6571 T*S(rot)=     6.84 kcal/mol T*S(tot)=    23.36 kcal/mol
 sn= 8  qrot/sn=   20070.4500 T*S(rot)=     6.76 kcal/mol T*S(tot)=    23.28 kcal/mol
 sn= 9  qrot/sn=   17840.4000 T*S(rot)=     6.69 kcal/mol T*S(tot)=    23.21 kcal/mol
 sn=10  qrot/sn=   16056.3600 T*S(rot)=     6.63 kcal/mol T*S(tot)=    23.15 kcal/mol
 sn=11  qrot/sn=   14596.6909 T*S(rot)=     6.57 kcal/mol T*S(tot)=    23.09 kcal/mol
 sn=12  qrot/sn=   13380.3000 T*S(rot)=     6.52 kcal/mol T*S(tot)=    23.04 kcal/mol

-------------------
GIBBS FREE ENTHALPY
-------------------

The Gibbs free enthalpy is G = H - T*S

Total enthalpy                    ...   -251.84810774 Eh
Total entropy correction          ...     -0.03802993 Eh    -23.86 kcal/mol
-----------------------------------------------------------------------
Final Gibbs free enthalpy         ...   -251.88613767 Eh

For completeness - the Gibbs free enthalpy minus the electronic energy
G-E(el)                           ...      0.13966444 Eh     87.64 kcal/mol

                             ****ORCA TERMINATED NORMALLY****
TOTAL RUN TIME: 0 days 0 hours 25 minutes 52 seconds 233 msec
