                         Program Version 3.0.3 - RELEASE   -
|  1> ! NORI PBE0 def2-TZVP UseSym TightOPT Freq TightSCF Grid3 FinalGrid5 XYZFile
|  2> % pal
|  3>     nprocs 8
|  4> end
|  5> %method
|  6>     SymThresh 5.0e-2
|  7> end
|  8> % geom
|  9>     MaxIter 10
| 10> end
| 11> % maxcore 2000
| 12> % output
| 13>     printlevel mini
| 14>     print[ P_Basis ] 0
| 15>     print[ P_SCFInfo ] 1
| 16>     print[ P_SCFIterInfo ] 1
| 17>     print[ P_OrbEn ] 0
| 18>     print[ P_Cartesian ] 0
| 19> end
| 20> % elprop
| 21>     Dipole false
| 22> end
| 23> *xyz 1 1
| 24>  C        1.0956871687     0.7491420734    -0.3898485529
| 25>  C        2.2791471846    -0.1732978968    -0.5440228621
| 26>  N        3.4598830362     0.3267884053     0.2401603307
| 27>  C        4.6706198689    -0.5089332126     0.1289977491
| 28>  C        5.6061441436    -0.2499000103    -1.0000428794
| 29>  C        5.9945372352     0.1160179355     0.4010498215
| 30>  H        0.2593452524     0.3533276635    -0.9667946235
| 31>  H        1.3070742767     1.7520425021    -0.7685662259
| 32>  H        0.7683737822     0.8241041697     0.6497549258
| 33>  H        2.6160734337    -0.2538371646    -1.5779453196
| 34>  H        2.0710255285    -1.1777727649    -0.1731327261
| 35>  H        3.1935146056     0.4120459112     1.2246688134
| 36>  H        3.6798134936     1.2765412374    -0.0690382216
| 37>  H        4.4709414621    -1.5232910803     0.4497311080
| 38>  H        5.3777046276     0.5608891670    -1.6835376547
| 39>  H        6.0657520317    -1.1094129355    -1.4691547740
| 40>  H        6.0271682002     1.1700294174     0.6541680682
| 41>  H        6.7258646684    -0.4872334175     0.9221430229
| 42> *
| 43>
| 44>                          ****END OF INPUT****
 Total Charge           Charge          ....    1
 Multiplicity           Mult            ....    1
 Number of Electrons    NEL             ....   48
FINAL SINGLE POINT ENERGY      -252.025694987266

CARTESIAN COORDINATES (ANGSTROEM)
---------------------------------
  C      2.246142    0.000163    1.665155
  C      1.420966    0.477004    0.496118
  N      0.000015   -0.000236    0.606914
  C     -0.874535    0.407147   -0.509311
  C     -0.923551   -0.458129   -1.719779
  C     -2.095949   -0.398009   -0.787349
  H      3.266486    0.368375    1.553284
  H      2.296606   -1.090365    1.712140
  H      1.865233    0.379134    2.616541
  H      1.791183    0.102794   -0.458613
  H      1.372843    1.565240    0.441156
  H     -0.395408    0.334613    1.489493
  H      0.001508   -1.020676    0.675310
  H     -0.898455    1.484816   -0.608177
  H     -0.336027   -1.369956   -1.726228
  H     -0.985006    0.036636   -2.679796
  H     -2.293098   -1.268858   -0.171965
  H     -2.983846    0.142326   -1.087573

FINAL SINGLE POINT ENERGY      -252.025695282870
                    ***********************HURRAY********************
 Multiplicity           Mult            ....    1
 Number of Electrons    NEL             ....   48
 Basis Dimension        Dim             ....  258
FINAL SINGLE POINT ENERGY      -252.025695431406

VIBRATIONAL FREQUENCIES
-----------------------

   0:         0.00 cm**-1
   1:         0.00 cm**-1
   2:         0.00 cm**-1
   3:         0.00 cm**-1
   4:         0.00 cm**-1
   5:         0.00 cm**-1
   6:        84.52 cm**-1
   7:        95.77 cm**-1
   8:       174.15 cm**-1
   9:       249.25 cm**-1
  10:       327.01 cm**-1
  11:       394.36 cm**-1
  12:       437.78 cm**-1
  13:       755.79 cm**-1
  14:       780.72 cm**-1
  15:       815.42 cm**-1
  16:       847.77 cm**-1
  17:       873.34 cm**-1
  18:       895.09 cm**-1
  19:       984.91 cm**-1
  20:       993.23 cm**-1
  21:      1045.69 cm**-1
  22:      1075.45 cm**-1
  23:      1083.42 cm**-1
  24:      1103.00 cm**-1
  25:      1125.21 cm**-1
  26:      1159.00 cm**-1
  27:      1192.95 cm**-1
  28:      1223.61 cm**-1
  29:      1251.13 cm**-1
  30:      1283.19 cm**-1
  31:      1346.31 cm**-1
  32:      1384.53 cm**-1
  33:      1419.04 cm**-1
  34:      1425.16 cm**-1
  35:      1440.24 cm**-1
  36:      1464.03 cm**-1
  37:      1482.88 cm**-1
  38:      1488.91 cm**-1
  39:      1504.02 cm**-1
  40:      1514.46 cm**-1
  41:      1646.39 cm**-1
  42:      3058.77 cm**-1
  43:      3102.82 cm**-1
  44:      3129.42 cm**-1
  45:      3153.58 cm**-1
  46:      3154.98 cm**-1
  47:      3159.17 cm**-1
  48:      3163.68 cm**-1
  49:      3210.84 cm**-1
  50:      3244.44 cm**-1
  51:      3255.53 cm**-1
  52:      3424.25 cm**-1
  53:      3475.60 cm**-1

IR SPECTRUM
-----------

 Mode    freq (cm**-1)   T**2         TX         TY         TZ
-------------------------------------------------------------------
   6:        84.52    1.618685  (  0.411401  -1.170567  -0.281440)
   7:        95.77    3.444570  (  0.945788  -1.388670  -0.788449)
   8:       174.15    1.750683  (  0.610491   0.930692  -0.715400)
   9:       249.25    0.370768  (  0.193086  -0.537271  -0.211720)
  10:       327.01    2.278173  (  0.551497  -0.820691  -1.140390)
  11:       394.36    8.108007  (  2.553071   0.221171   1.241338)
  12:       437.78    2.390295  ( -0.300424   0.496032   1.433176)
  13:       755.79    0.201223  ( -0.242069   0.330440  -0.182854)
  14:       780.72   13.990964  (  0.324023  -3.098266  -2.070439)
  15:       815.42    2.997913  (  0.506883  -1.150856  -1.190174)
  16:       847.77   14.874897  (  3.713646   0.976721  -0.360204)
  17:       873.34    1.802209  (  0.133326   0.879013   1.005867)
  18:       895.09    3.529809  ( -0.179574  -0.860996  -1.660195)
  19:       984.91    8.479043  (  1.131785   1.975817   1.815007)
  20:       993.23    1.206683  ( -0.282084  -0.573595   0.893364)
  21:      1045.69   14.853924  (  3.641504   0.866527   0.917880)
  22:      1075.45   12.832611  ( -1.562833  -2.476458  -2.063327)
  23:      1083.42   15.036046  (  2.845808   1.214288   2.337291)
  24:      1103.00    8.889726  (  2.854024   0.042543  -0.861662)
  25:      1125.21    4.032408  (  2.001147  -0.069244  -0.151735)
  26:      1159.00    4.517986  ( -1.834927  -0.319580   1.024156)
  27:      1192.95    1.160690  ( -0.932251   0.121592   0.526130)
  28:      1223.61    3.115022  (  0.832637  -1.497896   0.421953)
  29:      1251.13    2.291169  ( -0.935629  -1.119267  -0.403743)
  30:      1283.19    1.265357  ( -0.998355   0.506897   0.108166)
  31:      1346.31   15.193338  ( -3.587864   1.261559  -0.853837)
  32:      1384.53    6.188968  (  1.101106   1.625324   1.528023)
  33:      1419.04   29.066654  ( -5.208264  -0.432909  -1.324096)
  34:      1425.16   33.111833  (  4.685890  -0.900286   3.216170)
  35:      1440.24   16.076239  (  3.674375  -0.309171   1.574681)
  36:      1464.03    9.540843  (  1.486613   0.052362  -2.707043)
  37:      1482.88    3.731498  ( -1.849296  -0.515809  -0.213411)
  38:      1488.91   14.740323  (  0.927074  -3.039572  -2.154497)
  39:      1504.02   11.614630  ( -0.239957  -1.053172   3.232318)
  40:      1514.46   10.127514  (  1.230708   2.796946   0.888800)
  41:      1646.39   46.220121  ( -1.385007  -4.414408   4.981453)
  42:      3058.77    3.334186  (  1.016795   1.030926  -1.112432)
  43:      3102.82    2.433393  (  0.476898  -0.706236   1.306596)
  44:      3129.42    3.448165  (  0.408240  -1.553143  -0.932336)
  45:      3153.58    0.793617  ( -0.211592   0.469055  -0.727209)
  46:      3154.98    0.605484  (  0.583870  -0.132788   0.496938)
  47:      3159.17    3.943490  ( -1.247408   0.498176  -1.462629)
  48:      3163.68    1.719532  ( -0.358892   1.089790   0.634891)
  49:      3210.84    0.537873  ( -0.269399   0.526304  -0.433937)
  50:      3244.44    0.172840  (  0.344742   0.034807  -0.229742)
  51:      3255.53    1.148172  ( -0.430754   0.791320  -0.580031)
  52:      3424.25   31.337372  ( -2.363968  -1.684035   4.786758)
  53:      3475.60   52.990987  (  1.901249  -6.301729  -3.108771)

--------------------------
THERMOCHEMISTRY AT 298.15K
--------------------------

Temperature         ... 298.15 K
Pressure            ... 1.00 atm
Total Mass          ... 86.16 AMU

Throughout the following assumptions are being made:
  (1) The electronic state is orbitally nondegenerate
  (2) There are no thermally accessible electronically excited states
  (3) Hindered rotations indicated by low frequency modes) are not
      treated as such but are treated as vibrations and this may
      case some error
  (4) All equations used are the standard statistical mechanics
      equations for an ideal gas
  (5) All vibrations are strinctly harmonic

------------
INNER ENERGY
------------

The inner energy is: U= E(el) + E(ZPE) + E(vib) + E(rot) + E(trans)
    E(el)   - is the total energy from the electronic structure calculation
              = E(kin-el) + E(nuc-el) + E(el-el) + E(nuc-nuc)
    E(ZPE)  - the the zero temperature vibrational energy from the frequency calculation
    E(vib)  - the the finite temperature correction to E(ZPE) due to population
              of excietd vibrational states
    E(rot)  - is the rotational thermal energy
    E(trans)- is the translational thermal energy

Summary of contributions to the inner energy U:
Electronic energy                ...   -252.02569543 Eh
Zero point energy                ...      0.17063663 Eh     107.08 kcal/mol
Thermal vibrational correction   ...      0.00435727 Eh       2.73 kcal/mol
Thermal rotational correction    ...      0.00141627 Eh       0.89 kcal/mol
Thermal translational correction ...      0.00141627 Eh       0.89 kcal/mol
-----------------------------------------------------------------------
Total thermal energy                   -251.84786899 Eh

Summary of corrections to the electronic energy:
(perhaps to be used in another calculation)
Total thermal correction                  0.00718981 Eh       4.51 kcal/mol
Non-thermal (ZPE) correction              0.17063663 Eh     107.08 kcal/mol
-----------------------------------------------------------------------
Total correction                          0.17782644 Eh     111.59 kcal/mol

--------
ENTHALPY
--------

The enthalpy is H = U + kB*T
                kB is Boltzmann's constant
Total free energy                 ...   -251.84786899 Eh
Thermal Enthalpy correction       ...      0.00094421 Eh       0.59 kcal/mol
-----------------------------------------------------------------------
Total Enthalpy                    ...   -251.84692478 Eh

-------
ENTROPY
-------

The entropy contributions are T*S = T*(S(el)+S(vib)+S(rot)+S(trans)
     S(el)   - electronic entropy
     S(vib)  - vibrational entropy
     S(rot)  - rotational entropy
     S(trans)- translational entropy
The entropies will be listed as mutliplied by the temperature to get
units of energy

Electronic entropy                ...      0.00000000 Eh      0.00 kcal/mol
Vibrational entropy               ...      0.00786372 Eh      4.93 kcal/mol
Rotational entropy                ...      0.01171544 Eh      7.35 kcal/mol
Translational entropy             ...      0.01866024 Eh     11.71 kcal/mol
-----------------------------------------------------------------------
Final entropy term                ...      0.03823940 Eh     24.00 kcal/mol

CAUTION: The rotational entropy is not quite correctly treated here
         because it includes a symmetry number that is not yet correctly
         implemented in ORCA!
For a nonlinear molecule the correct rotational entropy is:
    S(rot) = R*(ln(qrot/sn)+1.5)
    R    = 8.31441 J/mol/K = 1.987191683e-3 kcal/mol/K
    qrot = 163842.4331250
    sn is the rotational symmetry number. We have assumed 3 here
       if it is different for your molecule then you should correct
       the printed rotational entropy by manually evaluating the equation
       as given above

For convenience we print out the resulting values for sn=1 - 12:
 sn= 1  qrot/sn=  163842.4331 T*S(rot)=     8.00 kcal/mol T*S(tot)=    24.65 kcal/mol
 sn= 2  qrot/sn=   81921.2166 T*S(rot)=     7.59 kcal/mol T*S(tot)=    24.24 kcal/mol
 sn= 3  qrot/sn=   54614.1444 T*S(rot)=     7.35 kcal/mol T*S(tot)=    24.00 kcal/mol
 sn= 4  qrot/sn=   40960.6083 T*S(rot)=     7.18 kcal/mol T*S(tot)=    23.83 kcal/mol
 sn= 5  qrot/sn=   32768.4866 T*S(rot)=     7.05 kcal/mol T*S(tot)=    23.69 kcal/mol
 sn= 6  qrot/sn=   27307.0722 T*S(rot)=     6.94 kcal/mol T*S(tot)=    23.58 kcal/mol
 sn= 7  qrot/sn=   23406.0619 T*S(rot)=     6.85 kcal/mol T*S(tot)=    23.49 kcal/mol
 sn= 8  qrot/sn=   20480.3041 T*S(rot)=     6.77 kcal/mol T*S(tot)=    23.41 kcal/mol
 sn= 9  qrot/sn=   18204.7148 T*S(rot)=     6.70 kcal/mol T*S(tot)=    23.34 kcal/mol
 sn=10  qrot/sn=   16384.2433 T*S(rot)=     6.64 kcal/mol T*S(tot)=    23.28 kcal/mol
 sn=11  qrot/sn=   14894.7666 T*S(rot)=     6.58 kcal/mol T*S(tot)=    23.23 kcal/mol
 sn=12  qrot/sn=   13653.5361 T*S(rot)=     6.53 kcal/mol T*S(tot)=    23.17 kcal/mol

-------------------
GIBBS FREE ENTHALPY
-------------------

The Gibbs free enthalpy is G = H - T*S

Total enthalpy                    ...   -251.84692478 Eh
Total entropy correction          ...     -0.03823940 Eh    -24.00 kcal/mol
-----------------------------------------------------------------------
Final Gibbs free enthalpy         ...   -251.88516418 Eh

For completeness - the Gibbs free enthalpy minus the electronic energy
G-E(el)                           ...      0.14053125 Eh     88.18 kcal/mol

                             ****ORCA TERMINATED NORMALLY****
TOTAL RUN TIME: 0 days 0 hours 20 minutes 25 seconds 325 msec
