                         Program Version 3.0.3 - RELEASE   -
|  1> ! NORI PBE0 def2-TZVP UseSym TightOPT Freq TightSCF Grid3 FinalGrid5 XYZFile
|  2> % pal
|  3>     nprocs 8
|  4> end
|  5> %method
|  6>     SymThresh 5.0e-2
|  7> end
|  8> % geom
|  9>     MaxIter 10
| 10> end
| 11> % maxcore 2000
| 12> % output
| 13>     printlevel mini
| 14>     print[ P_Basis ] 0
| 15>     print[ P_SCFInfo ] 1
| 16>     print[ P_SCFIterInfo ] 1
| 17>     print[ P_OrbEn ] 0
| 18>     print[ P_Cartesian ] 0
| 19> end
| 20> % elprop
| 21>     Dipole false
| 22> end
| 23> *xyz 1 1
| 24>  C        1.1227455523     0.2458328519    -0.2428132467
| 25>  C        2.5746225342     0.0306760233     0.1246626238
| 26>  N        3.1859060429    -0.9191265400    -0.8836146445
| 27>  C        3.3735864467     1.3052400189     0.1906202378
| 28>  C        4.8538694546     1.3965084882    -0.0115935155
| 29>  C        3.9202648244     2.0091565888    -1.0128326579
| 30>  H        0.5582596416    -0.6894803409    -0.2629888605
| 31>  H        1.0287738959     0.7472156062    -1.2095562865
| 32>  H        0.6597922771     0.8895340288     0.5057081416
| 33>  H        2.6532830799    -0.5004461857     1.0781434664
| 34>  H        3.1440713255    -0.5183575069    -1.8233139343
| 35>  H        2.6807445719    -1.8060648461    -0.8992421560
| 36>  H        4.1654686506    -1.1095318448    -0.6637291744
| 37>  H        2.9737576054     1.9519760513     0.9648639385
| 38>  H        5.4097005935     2.0465913674     0.6511694708
| 39>  H        5.4274550333     0.5278625908    -0.3211638672
| 40>  H        3.8562797818     1.5464293828    -1.9929595927
| 41>  H        3.8286686886     3.0866242662    -1.0519399427
| 42> *
| 43>
| 44>                          ****END OF INPUT****
 Total Charge           Charge          ....    1
 Multiplicity           Mult            ....    1
 Number of Electrons    NEL             ....   48
FINAL SINGLE POINT ENERGY      -252.026538371566
FINAL SINGLE POINT ENERGY      -252.026540649206
FINAL SINGLE POINT ENERGY      -252.026542122684

CARTESIAN COORDINATES (ANGSTROEM)
---------------------------------
  C      2.048060   -0.005206    0.277944
  C      0.647648   -0.567340    0.386875
  N      0.000770    0.006010    1.629813
  C     -0.207659   -0.285864   -0.819889
  C     -1.703206   -0.225016   -0.809814
  C     -0.904385    1.018363   -1.060831
  H      2.657675   -0.239983    1.154165
  H      2.031090    1.077434    0.128700
  H      2.540870   -0.447557   -0.588200
  H      0.680796   -1.645236    0.570981
  H     -0.063475    1.024256    1.560039
  H      0.550183   -0.216176    2.461252
  H     -0.943596   -0.362548    1.758286
  H      0.228226   -0.749022   -1.698682
  H     -2.227871   -0.684541   -1.636757
  H     -2.255253   -0.292411    0.123178
  H     -0.910855    1.785646   -0.292073
  H     -0.875131    1.429035   -2.061054

FINAL SINGLE POINT ENERGY      -252.026542725416
                    ***********************HURRAY********************
 Multiplicity           Mult            ....    1
 Number of Electrons    NEL             ....   48
 Basis Dimension        Dim             ....  258
FINAL SINGLE POINT ENERGY      -252.026543193249

VIBRATIONAL FREQUENCIES
-----------------------

   0:         0.00 cm**-1
   1:         0.00 cm**-1
   2:         0.00 cm**-1
   3:         0.00 cm**-1
   4:         0.00 cm**-1
   5:         0.00 cm**-1
   6:        61.62 cm**-1
   7:       194.76 cm**-1
   8:       225.16 cm**-1
   9:       241.41 cm**-1
  10:       265.13 cm**-1
  11:       366.00 cm**-1
  12:       443.48 cm**-1
  13:       524.45 cm**-1
  14:       720.72 cm**-1
  15:       778.71 cm**-1
  16:       837.34 cm**-1
  17:       859.83 cm**-1
  18:       928.35 cm**-1
  19:       937.83 cm**-1
  20:       966.25 cm**-1
  21:       982.44 cm**-1
  22:      1042.59 cm**-1
  23:      1064.69 cm**-1
  24:      1088.09 cm**-1
  25:      1125.74 cm**-1
  26:      1147.77 cm**-1
  27:      1163.41 cm**-1
  28:      1184.78 cm**-1
  29:      1211.32 cm**-1
  30:      1256.59 cm**-1
  31:      1354.06 cm**-1
  32:      1403.72 cm**-1
  33:      1420.85 cm**-1
  34:      1425.20 cm**-1
  35:      1473.92 cm**-1
  36:      1479.05 cm**-1
  37:      1484.87 cm**-1
  38:      1490.57 cm**-1
  39:      1525.61 cm**-1
  40:      1647.07 cm**-1
  41:      1656.72 cm**-1
  42:      3056.21 cm**-1
  43:      3083.00 cm**-1
  44:      3134.42 cm**-1
  45:      3135.24 cm**-1
  46:      3142.75 cm**-1
  47:      3155.10 cm**-1
  48:      3181.02 cm**-1
  49:      3230.64 cm**-1
  50:      3242.22 cm**-1
  51:      3420.92 cm**-1
  52:      3501.99 cm**-1
  53:      3517.77 cm**-1

IR SPECTRUM
-----------

 Mode    freq (cm**-1)   T**2         TX         TY         TZ
-------------------------------------------------------------------
   6:        61.62    2.754606  ( -0.434343  -1.562615   0.352400)
   7:       194.76    0.397979  (  0.370935  -0.371274   0.350059)
   8:       225.16    0.622159  (  0.507330  -0.291498   0.528965)
   9:       241.41   14.124870  ( -1.698231   0.021429  -3.352674)
  10:       265.13    7.370476  (  0.959974  -1.391929   2.124020)
  11:       366.00    6.930874  (  2.480976   0.795439  -0.378036)
  12:       443.48    1.729305  (  0.701163  -0.230406   1.088388)
  13:       524.45    5.702381  (  0.644495  -0.663301   2.201599)
  14:       720.72    3.725957  ( -1.199439   1.499820  -0.194531)
  15:       778.71    0.174340  (  0.184481   0.367002   0.074943)
  16:       837.34    7.547862  ( -2.086500  -1.787282  -0.002076)
  17:       859.83    6.533114  (  2.056510  -0.793331  -1.294027)
  18:       928.35    2.336895  (  1.172782  -0.977605   0.075930)
  19:       937.83   10.101914  (  2.748721   1.573282  -0.266894)
  20:       966.25    7.761097  (  0.665858  -0.631220   2.630455)
  21:       982.44    5.516881  ( -0.347348   2.179010  -0.805075)
  22:      1042.59   10.360928  ( -2.302743   2.003939   1.021045)
  23:      1064.69    7.836084  ( -2.498260   0.957182  -0.823761)
  24:      1088.09    4.550941  (  1.263703   1.717833   0.055204)
  25:      1125.74    8.843392  (  2.192904   0.155420   2.002600)
  26:      1147.77   12.038029  (  2.718957  -1.498175   1.549443)
  27:      1163.41    5.092024  (  1.593774  -0.028785  -1.597210)
  28:      1184.78    3.007191  ( -0.829559  -1.389997  -0.622039)
  29:      1211.32    7.230814  ( -1.537953  -1.668706  -1.442545)
  30:      1256.59    4.489556  (  1.387289   0.296299   1.573910)
  31:      1354.06    3.832479  ( -1.596816   0.529937  -1.000912)
  32:      1403.72   18.057723  (  0.970811  -2.159687   3.528597)
  33:      1420.85   28.992548  ( -4.125367  -1.102597   3.279965)
  34:      1425.20   14.932917  (  2.927888  -0.814908   2.386695)
  35:      1473.92    6.118072  ( -1.309380  -2.098467  -0.005711)
  36:      1479.05    7.595903  (  1.219318  -2.290586  -0.928646)
  37:      1484.87  105.931602  ( -3.455580   4.453142   8.611625)
  38:      1490.57   56.140665  (  2.147241  -1.212525  -7.075295)
  39:      1525.61    5.161324  (  1.107084  -1.494112  -1.305112)
  40:      1647.07   58.813905  (  2.945009   6.714160  -2.249641)
  41:      1656.72   47.643725  (  4.467608  -1.376429   5.078350)
  42:      3056.21    3.734671  (  0.627384   0.777619   1.654197)
  43:      3083.00    2.493060  (  0.017000   1.456195  -0.610136)
  44:      3134.42    6.195036  ( -1.585311   1.393658  -1.318917)
  45:      3135.24    6.200935  (  0.993082   2.028311  -1.049132)
  46:      3142.75   20.081533  ( -0.234592   0.972521   4.368146)
  47:      3155.10    1.267801  ( -0.878152  -0.492400  -0.504175)
  48:      3181.02    0.922999  ( -0.418389   0.161978  -0.849537)
  49:      3230.64    0.471381  ( -0.398016  -0.498225   0.254434)
  50:      3242.22    1.053148  (  0.284980  -0.368615  -0.914362)
  51:      3420.92   23.646780  ( -2.526657   1.904860   3.692464)
  52:      3501.99   68.052741  ( -3.162211  -7.198043   2.498269)
  53:      3517.77   99.495413  (  7.259210  -1.591749   6.653242)

--------------------------
THERMOCHEMISTRY AT 298.15K
--------------------------

Temperature         ... 298.15 K
Pressure            ... 1.00 atm
Total Mass          ... 86.16 AMU

Throughout the following assumptions are being made:
  (1) The electronic state is orbitally nondegenerate
  (2) There are no thermally accessible electronically excited states
  (3) Hindered rotations indicated by low frequency modes) are not
      treated as such but are treated as vibrations and this may
      case some error
  (4) All equations used are the standard statistical mechanics
      equations for an ideal gas
  (5) All vibrations are strinctly harmonic

------------
INNER ENERGY
------------

The inner energy is: U= E(el) + E(ZPE) + E(vib) + E(rot) + E(trans)
    E(el)   - is the total energy from the electronic structure calculation
              = E(kin-el) + E(nuc-el) + E(el-el) + E(nuc-nuc)
    E(ZPE)  - the the zero temperature vibrational energy from the frequency calculation
    E(vib)  - the the finite temperature correction to E(ZPE) due to population
              of excietd vibrational states
    E(rot)  - is the rotational thermal energy
    E(trans)- is the translational thermal energy

Summary of contributions to the inner energy U:
Electronic energy                ...   -252.02654319 Eh
Zero point energy                ...      0.17036454 Eh     106.91 kcal/mol
Thermal vibrational correction   ...      0.00444005 Eh       2.79 kcal/mol
Thermal rotational correction    ...      0.00141627 Eh       0.89 kcal/mol
Thermal translational correction ...      0.00141627 Eh       0.89 kcal/mol
-----------------------------------------------------------------------
Total thermal energy                   -251.84890607 Eh

Summary of corrections to the electronic energy:
(perhaps to be used in another calculation)
Total thermal correction                  0.00727259 Eh       4.56 kcal/mol
Non-thermal (ZPE) correction              0.17036454 Eh     106.91 kcal/mol
-----------------------------------------------------------------------
Total correction                          0.17763713 Eh     111.47 kcal/mol

--------
ENTHALPY
--------

The enthalpy is H = U + kB*T
                kB is Boltzmann's constant
Total free energy                 ...   -251.84890607 Eh
Thermal Enthalpy correction       ...      0.00094421 Eh       0.59 kcal/mol
-----------------------------------------------------------------------
Total Enthalpy                    ...   -251.84796186 Eh

-------
ENTROPY
-------

The entropy contributions are T*S = T*(S(el)+S(vib)+S(rot)+S(trans)
     S(el)   - electronic entropy
     S(vib)  - vibrational entropy
     S(rot)  - rotational entropy
     S(trans)- translational entropy
The entropies will be listed as mutliplied by the temperature to get
units of energy

Electronic entropy                ...      0.00000000 Eh      0.00 kcal/mol
Vibrational entropy               ...      0.00777932 Eh      4.88 kcal/mol
Rotational entropy                ...      0.01163950 Eh      7.30 kcal/mol
Translational entropy             ...      0.01866024 Eh     11.71 kcal/mol
-----------------------------------------------------------------------
Final entropy term                ...      0.03807905 Eh     23.89 kcal/mol

CAUTION: The rotational entropy is not quite correctly treated here
         because it includes a symmetry number that is not yet correctly
         implemented in ORCA!
For a nonlinear molecule the correct rotational entropy is:
    S(rot) = R*(ln(qrot/sn)+1.5)
    R    = 8.31441 J/mol/K = 1.987191683e-3 kcal/mol/K
    qrot = 151179.5902879
    sn is the rotational symmetry number. We have assumed 3 here
       if it is different for your molecule then you should correct
       the printed rotational entropy by manually evaluating the equation
       as given above

For convenience we print out the resulting values for sn=1 - 12:
 sn= 1  qrot/sn=  151179.5903 T*S(rot)=     7.95 kcal/mol T*S(tot)=    24.55 kcal/mol
 sn= 2  qrot/sn=   75589.7951 T*S(rot)=     7.54 kcal/mol T*S(tot)=    24.14 kcal/mol
 sn= 3  qrot/sn=   50393.1968 T*S(rot)=     7.30 kcal/mol T*S(tot)=    23.89 kcal/mol
 sn= 4  qrot/sn=   37794.8976 T*S(rot)=     7.13 kcal/mol T*S(tot)=    23.72 kcal/mol
 sn= 5  qrot/sn=   30235.9181 T*S(rot)=     7.00 kcal/mol T*S(tot)=    23.59 kcal/mol
 sn= 6  qrot/sn=   25196.5984 T*S(rot)=     6.89 kcal/mol T*S(tot)=    23.48 kcal/mol
 sn= 7  qrot/sn=   21597.0843 T*S(rot)=     6.80 kcal/mol T*S(tot)=    23.39 kcal/mol
 sn= 8  qrot/sn=   18897.4488 T*S(rot)=     6.72 kcal/mol T*S(tot)=    23.31 kcal/mol
 sn= 9  qrot/sn=   16797.7323 T*S(rot)=     6.65 kcal/mol T*S(tot)=    23.24 kcal/mol
 sn=10  qrot/sn=   15117.9590 T*S(rot)=     6.59 kcal/mol T*S(tot)=    23.18 kcal/mol
 sn=11  qrot/sn=   13743.5991 T*S(rot)=     6.53 kcal/mol T*S(tot)=    23.13 kcal/mol
 sn=12  qrot/sn=   12598.2992 T*S(rot)=     6.48 kcal/mol T*S(tot)=    23.07 kcal/mol

-------------------
GIBBS FREE ENTHALPY
-------------------

The Gibbs free enthalpy is G = H - T*S

Total enthalpy                    ...   -251.84796186 Eh
Total entropy correction          ...     -0.03807905 Eh    -23.89 kcal/mol
-----------------------------------------------------------------------
Final Gibbs free enthalpy         ...   -251.88604091 Eh

For completeness - the Gibbs free enthalpy minus the electronic energy
G-E(el)                           ...      0.14050228 Eh     88.17 kcal/mol

                             ****ORCA TERMINATED NORMALLY****
TOTAL RUN TIME: 0 days 0 hours 24 minutes 10 seconds 894 msec
