                         Program Version 3.0.3 - RELEASE   -
|  1> ! NORI PBE0 def2-TZVP UseSym TightOPT Freq TightSCF Grid3 FinalGrid5 XYZFile
|  2> % pal
|  3>     nprocs 8
|  4> end
|  5> %method
|  6>     SymThresh 5.0e-2
|  7> end
|  8> % geom
|  9>     MaxIter 10
| 10> end
| 11> % maxcore 2000
| 12> % output
| 13>     printlevel mini
| 14>     print[ P_Basis ] 0
| 15>     print[ P_SCFInfo ] 1
| 16>     print[ P_SCFIterInfo ] 1
| 17>     print[ P_OrbEn ] 0
| 18>     print[ P_Cartesian ] 0
| 19> end
| 20> % elprop
| 21>     Dipole false
| 22> end
| 23> *xyz 1 1
| 24>  C        0.9176063916     0.1635592602    -0.0289985843
| 25>  C        2.4040825304    -0.1400697474    -0.0489826399
| 26>  N        2.7226315853    -1.0219706073     1.1337588739
| 27>  C        2.8944780321    -0.7801894335    -1.3212639672
| 28>  C        2.8613913510     0.1237635666    -2.5127411137
| 29>  C        3.3220091702    -2.0367920818    -1.3881218746
| 30>  H        0.6805298357     0.8676506521    -0.8254779483
| 31>  H        0.6109714894     0.6270762683     0.9120588062
| 32>  H        0.3275195481    -0.7407463816    -0.1975671082
| 33>  H        2.9728857043     0.7783375756     0.1298400571
| 34>  H        2.1849484525    -1.8902745381     1.0849617899
| 35>  H        2.4893792276    -0.5566356462     2.0120949820
| 36>  H        3.7146820356    -1.2705345505     1.1423290032
| 37>  H        3.3163850497    -0.3606250207    -3.3748906681
| 38>  H        3.4012909889     1.0554766318    -2.3192349612
| 39>  H        1.8373596869     0.3941573702    -2.7838872106
| 40>  H        3.6659472916    -2.4501593628    -2.3279247277
| 41>  H        3.3565416289    -2.7284939550    -0.5519027083
| 42> *
| 43>
| 44>                          ****END OF INPUT****
 Total Charge           Charge          ....    1
 Multiplicity           Mult            ....    1
 Number of Electrons    NEL             ....   48
FINAL SINGLE POINT ENERGY      -252.034529371869
FINAL SINGLE POINT ENERGY      -252.034531205036
FINAL SINGLE POINT ENERGY      -252.034532394671

CARTESIAN COORDINATES (ANGSTROEM)
---------------------------------
  C      1.855328    0.004364    0.229027
  C      0.422437   -0.443835    0.450399
  N     -0.001924   -0.004883    1.831123
  C     -0.556363    0.057707   -0.578761
  C     -0.379875   -0.546584   -1.935547
  C     -1.496925    0.958195   -0.312428
  H      2.209260   -0.370915   -0.730048
  H      2.526173   -0.389805    0.996369
  H      1.927752    1.094706    0.206776
  H      0.375871   -1.537458    0.481674
  H      0.064084    1.012025    1.916775
  H      0.594677   -0.420596    2.547787
  H     -0.973009   -0.270140    2.012064
  H     -1.177211   -0.227374   -2.604605
  H     -0.389483   -1.639676   -1.887842
  H      0.571471   -0.251098   -2.386457
  H     -2.178507    1.286163   -1.087371
  H     -1.652335    1.429719    0.653251

FINAL SINGLE POINT ENERGY      -252.034532661567
                    ***********************HURRAY********************
 Multiplicity           Mult            ....    1
 Number of Electrons    NEL             ....   48
 Basis Dimension        Dim             ....  258
FINAL SINGLE POINT ENERGY      -252.034532827635

VIBRATIONAL FREQUENCIES
-----------------------

   0:         0.00 cm**-1
   1:         0.00 cm**-1
   2:         0.00 cm**-1
   3:         0.00 cm**-1
   4:         0.00 cm**-1
   5:         0.00 cm**-1
   6:        47.07 cm**-1
   7:       160.49 cm**-1
   8:       221.04 cm**-1
   9:       233.03 cm**-1
  10:       266.88 cm**-1
  11:       312.05 cm**-1
  12:       359.53 cm**-1
  13:       424.84 cm**-1
  14:       499.87 cm**-1
  15:       554.11 cm**-1
  16:       710.53 cm**-1
  17:       764.14 cm**-1
  18:       880.31 cm**-1
  19:       940.18 cm**-1
  20:       946.59 cm**-1
  21:       956.72 cm**-1
  22:       976.55 cm**-1
  23:      1011.33 cm**-1
  24:      1059.63 cm**-1
  25:      1102.31 cm**-1
  26:      1133.69 cm**-1
  27:      1205.16 cm**-1
  28:      1271.47 cm**-1
  29:      1354.94 cm**-1
  30:      1403.65 cm**-1
  31:      1412.63 cm**-1
  32:      1418.04 cm**-1
  33:      1452.43 cm**-1
  34:      1470.70 cm**-1
  35:      1479.25 cm**-1
  36:      1485.59 cm**-1
  37:      1491.76 cm**-1
  38:      1497.81 cm**-1
  39:      1640.17 cm**-1
  40:      1659.01 cm**-1
  41:      1731.32 cm**-1
  42:      3052.78 cm**-1
  43:      3057.90 cm**-1
  44:      3073.59 cm**-1
  45:      3112.80 cm**-1
  46:      3135.72 cm**-1
  47:      3158.27 cm**-1
  48:      3163.95 cm**-1
  49:      3167.48 cm**-1
  50:      3243.85 cm**-1
  51:      3417.28 cm**-1
  52:      3496.98 cm**-1
  53:      3517.34 cm**-1

IR SPECTRUM
-----------

 Mode    freq (cm**-1)   T**2         TX         TY         TZ
-------------------------------------------------------------------
   6:        47.07    3.458392  (  0.669673   1.733322  -0.074336)
   7:       160.49    0.014926  ( -0.068142  -0.039287  -0.093482)
   8:       221.04    0.344216  ( -0.578431   0.079994  -0.056876)
   9:       233.03    0.257473  (  0.024482   0.273672  -0.426588)
  10:       266.88    3.412675  (  0.928008  -0.050577   1.596533)
  11:       312.05    7.597975  ( -0.138098   2.223561  -1.623170)
  12:       359.53   11.907418  ( -2.922936  -0.409984  -1.787674)
  13:       424.84    8.843697  ( -0.927479  -0.272153   2.812368)
  14:       499.87    4.807456  (  1.173901   1.515438  -1.064358)
  15:       554.11    4.988730  (  1.781100   1.307794  -0.325713)
  16:       710.53    0.067376  (  0.059982  -0.252231   0.012560)
  17:       764.14    2.561946  ( -0.978320   0.820058  -0.965578)
  18:       880.31    3.082188  (  1.722657  -0.326841  -0.088413)
  19:       940.18    6.732161  (  2.476354   0.743531   0.216780)
  20:       946.59   35.150635  ( -3.891782  -4.317634   1.167350)
  21:       956.72   11.605169  (  1.649506   2.089634  -2.125495)
  22:       976.55    4.621111  ( -1.538581  -0.108957  -1.497333)
  23:      1011.33    4.974354  (  1.742221  -1.382304  -0.168098)
  24:      1059.63    2.673767  ( -0.136357  -0.545744   1.535362)
  25:      1102.31    7.466135  ( -0.627962   0.299981   2.642311)
  26:      1133.69   18.073214  (  2.165776  -2.183085   2.935433)
  27:      1205.16   15.190217  ( -3.138262  -1.289537  -1.917973)
  28:      1271.47    1.702373  (  0.967574  -0.847580   0.218592)
  29:      1354.94    3.053083  (  1.722291   0.263507  -0.131759)
  30:      1403.65    8.750312  ( -1.234231   1.211850  -2.399668)
  31:      1412.63    3.760524  ( -1.349079  -1.369631  -0.254208)
  32:      1418.04   28.623600  (  3.355199   0.553368  -4.130378)
  33:      1452.43    1.253033  (  0.302086   0.076315  -1.075152)
  34:      1470.70   18.994895  ( -1.659440  -3.877839   1.097048)
  35:      1479.25    6.393680  (  2.205112  -1.168343   0.407598)
  36:      1485.59   90.750768  (  1.084614   0.148156   9.463215)
  37:      1491.76   35.441252  ( -3.474625   3.104296   3.705614)
  38:      1497.81   70.774165  (  3.314022  -3.218671  -7.030760)
  39:      1640.17   57.092018  ( -3.236054  -6.586062   1.801045)
  40:      1659.01   40.180824  ( -4.346161   1.570234  -4.338902)
  41:      1731.32   12.405087  (  2.108276  -2.482801  -1.340133)
  42:      3052.78    3.554109  (  1.040934  -1.287917  -0.901019)
  43:      3057.90    3.833538  (  1.217194  -0.035776   1.533198)
  44:      3073.59    1.682106  ( -0.138598  -1.255259  -0.295334)
  45:      3112.80    3.761463  (  1.039128   1.596624  -0.363959)
  46:      3135.72    5.098490  ( -1.210779   1.599089  -1.037025)
  47:      3158.27   10.639125  ( -0.644681  -0.388729  -3.173704)
  48:      3163.95    2.387788  ( -1.205819   0.435910  -0.862421)
  49:      3167.48    0.219836  (  0.228358   0.404276   0.065187)
  50:      3243.85    3.199161  (  0.613847  -0.936651  -1.394646)
  51:      3417.28   32.137160  (  2.123506  -1.212555  -5.114449)
  52:      3496.98   77.416596  (  5.308247   6.984974  -0.670262)
  53:      3517.34   89.399395  ( -6.618918   4.323967  -5.185811)

--------------------------
THERMOCHEMISTRY AT 298.15K
--------------------------

Temperature         ... 298.15 K
Pressure            ... 1.00 atm
Total Mass          ... 86.16 AMU

Throughout the following assumptions are being made:
  (1) The electronic state is orbitally nondegenerate
  (2) There are no thermally accessible electronically excited states
  (3) Hindered rotations indicated by low frequency modes) are not
      treated as such but are treated as vibrations and this may
      case some error
  (4) All equations used are the standard statistical mechanics
      equations for an ideal gas
  (5) All vibrations are strinctly harmonic

------------
INNER ENERGY
------------

The inner energy is: U= E(el) + E(ZPE) + E(vib) + E(rot) + E(trans)
    E(el)   - is the total energy from the electronic structure calculation
              = E(kin-el) + E(nuc-el) + E(el-el) + E(nuc-nuc)
    E(ZPE)  - the the zero temperature vibrational energy from the frequency calculation
    E(vib)  - the the finite temperature correction to E(ZPE) due to population
              of excietd vibrational states
    E(rot)  - is the rotational thermal energy
    E(trans)- is the translational thermal energy

Summary of contributions to the inner energy U:
Electronic energy                ...   -252.03453283 Eh
Zero point energy                ...      0.16888680 Eh     105.98 kcal/mol
Thermal vibrational correction   ...      0.00506346 Eh       3.18 kcal/mol
Thermal rotational correction    ...      0.00141627 Eh       0.89 kcal/mol
Thermal translational correction ...      0.00141627 Eh       0.89 kcal/mol
-----------------------------------------------------------------------
Total thermal energy                   -251.85775002 Eh

Summary of corrections to the electronic energy:
(perhaps to be used in another calculation)
Total thermal correction                  0.00789600 Eh       4.95 kcal/mol
Non-thermal (ZPE) correction              0.16888680 Eh     105.98 kcal/mol
-----------------------------------------------------------------------
Total correction                          0.17678280 Eh     110.93 kcal/mol

--------
ENTHALPY
--------

The enthalpy is H = U + kB*T
                kB is Boltzmann's constant
Total free energy                 ...   -251.85775002 Eh
Thermal Enthalpy correction       ...      0.00094421 Eh       0.59 kcal/mol
-----------------------------------------------------------------------
Total Enthalpy                    ...   -251.85680581 Eh

-------
ENTROPY
-------

The entropy contributions are T*S = T*(S(el)+S(vib)+S(rot)+S(trans)
     S(el)   - electronic entropy
     S(vib)  - vibrational entropy
     S(rot)  - rotational entropy
     S(trans)- translational entropy
The entropies will be listed as mutliplied by the temperature to get
units of energy

Electronic entropy                ...      0.00000000 Eh      0.00 kcal/mol
Vibrational entropy               ...      0.00907448 Eh      5.69 kcal/mol
Rotational entropy                ...      0.01172892 Eh      7.36 kcal/mol
Translational entropy             ...      0.01866024 Eh     11.71 kcal/mol
-----------------------------------------------------------------------
Final entropy term                ...      0.03946363 Eh     24.76 kcal/mol

CAUTION: The rotational entropy is not quite correctly treated here
         because it includes a symmetry number that is not yet correctly
         implemented in ORCA!
For a nonlinear molecule the correct rotational entropy is:
    S(rot) = R*(ln(qrot/sn)+1.5)
    R    = 8.31441 J/mol/K = 1.987191683e-3 kcal/mol/K
    qrot = 166197.4197555
    sn is the rotational symmetry number. We have assumed 3 here
       if it is different for your molecule then you should correct
       the printed rotational entropy by manually evaluating the equation
       as given above

For convenience we print out the resulting values for sn=1 - 12:
 sn= 1  qrot/sn=  166197.4198 T*S(rot)=     8.01 kcal/mol T*S(tot)=    25.41 kcal/mol
 sn= 2  qrot/sn=   83098.7099 T*S(rot)=     7.60 kcal/mol T*S(tot)=    25.00 kcal/mol
 sn= 3  qrot/sn=   55399.1399 T*S(rot)=     7.36 kcal/mol T*S(tot)=    24.76 kcal/mol
 sn= 4  qrot/sn=   41549.3549 T*S(rot)=     7.19 kcal/mol T*S(tot)=    24.59 kcal/mol
 sn= 5  qrot/sn=   33239.4840 T*S(rot)=     7.06 kcal/mol T*S(tot)=    24.46 kcal/mol
 sn= 6  qrot/sn=   27699.5700 T*S(rot)=     6.95 kcal/mol T*S(tot)=    24.35 kcal/mol
 sn= 7  qrot/sn=   23742.4885 T*S(rot)=     6.86 kcal/mol T*S(tot)=    24.26 kcal/mol
 sn= 8  qrot/sn=   20774.6775 T*S(rot)=     6.78 kcal/mol T*S(tot)=    24.18 kcal/mol
 sn= 9  qrot/sn=   18466.3800 T*S(rot)=     6.71 kcal/mol T*S(tot)=    24.11 kcal/mol
 sn=10  qrot/sn=   16619.7420 T*S(rot)=     6.65 kcal/mol T*S(tot)=    24.05 kcal/mol
 sn=11  qrot/sn=   15108.8563 T*S(rot)=     6.59 kcal/mol T*S(tot)=    23.99 kcal/mol
 sn=12  qrot/sn=   13849.7850 T*S(rot)=     6.54 kcal/mol T*S(tot)=    23.94 kcal/mol

-------------------
GIBBS FREE ENTHALPY
-------------------

The Gibbs free enthalpy is G = H - T*S

Total enthalpy                    ...   -251.85680581 Eh
Total entropy correction          ...     -0.03946363 Eh    -24.76 kcal/mol
-----------------------------------------------------------------------
Final Gibbs free enthalpy         ...   -251.89626944 Eh

For completeness - the Gibbs free enthalpy minus the electronic energy
G-E(el)                           ...      0.13826338 Eh     86.76 kcal/mol

                             ****ORCA TERMINATED NORMALLY****
TOTAL RUN TIME: 0 days 0 hours 24 minutes 45 seconds 617 msec
