                         Program Version 3.0.3 - RELEASE   -
|  1> ! NORI PBE0 def2-TZVP UseSym TightOPT Freq TightSCF Grid3 FinalGrid5 XYZFile
|  2> % pal
|  3>     nprocs 8
|  4> end
|  5> %method
|  6>     SymThresh 5.0e-2
|  7> end
|  8> % geom
|  9>     MaxIter 10
| 10> end
| 11> % maxcore 2000
| 12> % output
| 13>     printlevel mini
| 14>     print[ P_Basis ] 0
| 15>     print[ P_SCFInfo ] 1
| 16>     print[ P_SCFIterInfo ] 1
| 17>     print[ P_OrbEn ] 0
| 18>     print[ P_Cartesian ] 0
| 19> end
| 20> % elprop
| 21>     Dipole false
| 22> end
| 23> *xyz 1 1
| 24>  C        0.7771544267    -0.1952674352     0.0709083587
| 25>  C        2.2700691271     0.0145448943    -0.0017606562
| 26>  N        2.9506790338    -1.3430342457     0.0739198895
| 27>  C        2.7518782733     0.7141834327    -1.2670037366
| 28>  C        2.3094263452     2.1437248304    -1.3107074021
| 29>  C        1.5282562480     2.6507866661    -2.2518040769
| 30>  H        0.2846525405     0.7757687794     0.0219222521
| 31>  H        0.4706009243    -0.6766016414     1.0025875240
| 32>  H        0.4153480419    -0.7878035685    -0.7747242445
| 33>  H        2.6283795554     0.5497524600     0.8822629721
| 34>  H        2.6825268249    -1.9201971728    -0.7271174447
| 35>  H        2.6841345321    -1.8475417954     0.9218541837
| 36>  H        3.9685469769    -1.2498682930     0.0628253343
| 37>  H        3.8498091092     0.6786810129    -1.3035978724
| 38>  H        2.3749743650     0.1822206395    -2.1482048829
| 39>  H        2.6854080265     2.7859991994    -0.5169737893
| 40>  H        1.1460501594     2.0469582704    -3.0688567834
| 41>  H        1.2519354896     3.6980839668    -2.2473796251
| 42> *
| 43>
| 44>                          ****END OF INPUT****
 Total Charge           Charge          ....    1
 Multiplicity           Mult            ....    1
 Number of Electrons    NEL             ....   48
FINAL SINGLE POINT ENERGY      -252.031078692068
FINAL SINGLE POINT ENERGY      -252.031079748131

CARTESIAN COORDINATES (ANGSTROEM)
---------------------------------
  C      1.680008   -0.000407    0.453497
  C      0.269866   -0.406963    0.807402
  N      0.000557    0.000763    2.247342
  C     -0.809283    0.217061   -0.069132
  C     -0.754631   -0.307434   -1.470193
  C     -0.534798    0.445833   -2.536437
  H      1.881070   -0.295322   -0.576442
  H      2.423124   -0.485660    1.090526
  H      1.809756    1.084244    0.513206
  H      0.170052   -1.495901    0.807219
  H      0.063981    1.016809    2.345726
  H      0.680923   -0.414968    2.886339
  H     -0.934835   -0.282389    2.546158
  H     -1.796392   -0.007815    0.358187
  H     -0.693727    1.306850   -0.076049
  H     -0.931075   -1.374259   -1.590034
  H     -0.371706    1.516343   -2.459687
  H     -0.525065    0.019808   -3.532208

FINAL SINGLE POINT ENERGY      -252.031080185661
                    ***********************HURRAY********************
 Multiplicity           Mult            ....    1
 Number of Electrons    NEL             ....   48
 Basis Dimension        Dim             ....  258
FINAL SINGLE POINT ENERGY      -252.031080295707

VIBRATIONAL FREQUENCIES
-----------------------

   0:         0.00 cm**-1
   1:         0.00 cm**-1
   2:         0.00 cm**-1
   3:         0.00 cm**-1
   4:         0.00 cm**-1
   5:         0.00 cm**-1
   6:        83.73 cm**-1
   7:        96.71 cm**-1
   8:       203.27 cm**-1
   9:       224.06 cm**-1
  10:       248.35 cm**-1
  11:       344.80 cm**-1
  12:       380.99 cm**-1
  13:       428.79 cm**-1
  14:       453.18 cm**-1
  15:       639.89 cm**-1
  16:       819.66 cm**-1
  17:       892.84 cm**-1
  18:       900.50 cm**-1
  19:       939.98 cm**-1
  20:       956.55 cm**-1
  21:       986.56 cm**-1
  22:      1000.34 cm**-1
  23:      1028.17 cm**-1
  24:      1064.20 cm**-1
  25:      1096.18 cm**-1
  26:      1201.82 cm**-1
  27:      1213.83 cm**-1
  28:      1272.32 cm**-1
  29:      1321.25 cm**-1
  30:      1339.28 cm**-1
  31:      1385.36 cm**-1
  32:      1396.61 cm**-1
  33:      1420.93 cm**-1
  34:      1453.34 cm**-1
  35:      1465.55 cm**-1
  36:      1483.55 cm**-1
  37:      1487.66 cm**-1
  38:      1496.70 cm**-1
  39:      1652.54 cm**-1
  40:      1657.45 cm**-1
  41:      1728.78 cm**-1
  42:      3014.26 cm**-1
  43:      3053.22 cm**-1
  44:      3070.80 cm**-1
  45:      3095.19 cm**-1
  46:      3131.57 cm**-1
  47:      3156.93 cm**-1
  48:      3158.81 cm**-1
  49:      3162.40 cm**-1
  50:      3253.73 cm**-1
  51:      3417.75 cm**-1
  52:      3502.58 cm**-1
  53:      3511.90 cm**-1

IR SPECTRUM
-----------

 Mode    freq (cm**-1)   T**2         TX         TY         TZ
-------------------------------------------------------------------
   6:        83.73    3.068587  (  0.345066  -1.716132  -0.066388)
   7:        96.71    1.555555  ( -0.915730  -0.792233   0.298932)
   8:       203.27    1.085880  ( -0.711223   0.625020  -0.435193)
   9:       224.06    0.891372  (  0.233050  -0.214368   0.889441)
  10:       248.35    1.911139  ( -0.145577   1.129484  -0.783717)
  11:       344.80    8.221140  ( -2.622834   0.012845  -1.158325)
  12:       380.99    2.860855  (  0.958486  -0.526639  -1.290275)
  13:       428.79    3.104441  (  1.030324   0.361512  -1.382817)
  14:       453.18    3.772995  (  0.725975   0.799453  -1.614568)
  15:       639.89   13.027768  ( -3.587203  -0.040175  -0.397652)
  16:       819.66    5.388898  ( -0.968363   1.143398  -1.773080)
  17:       892.84    0.166249  (  0.208616   0.232191   0.262328)
  18:       900.50    5.817210  (  1.861877  -1.533046   0.019830)
  19:       939.98    8.398490  (  2.835350   0.508873  -0.316747)
  20:       956.55    7.231709  ( -0.274870  -0.716751   2.577290)
  21:       986.56    8.463910  ( -2.238153   0.743930  -1.703276)
  22:      1000.34   48.393222  (  6.845157  -0.992793   0.742569)
  23:      1028.17   10.325397  ( -3.164291   0.057132  -0.556236)
  24:      1064.20   16.670597  ( -0.784346   1.784628  -3.587548)
  25:      1096.18   16.583161  (  0.135354  -1.194500  -3.890760)
  26:      1201.82    4.861489  ( -1.173604  -1.624723  -0.918921)
  27:      1213.83   14.739292  (  2.879275  -0.337270   2.517005)
  28:      1272.32    1.012549  (  0.580068  -0.543013   0.617420)
  29:      1321.25    6.548434  ( -0.549819   1.925531  -1.593256)
  30:      1339.28    1.039262  (  0.155178  -0.008008  -1.007530)
  31:      1385.36    4.597501  (  0.736417  -0.409180   1.971741)
  32:      1396.61   10.262320  (  0.175294  -0.858534   3.081316)
  33:      1420.93   32.472646  (  4.731944   0.119826  -3.172853)
  34:      1453.34    2.826923  ( -0.473904  -1.610280   0.096624)
  35:      1465.55    6.653989  (  0.017003  -1.700537   1.939555)
  36:      1483.55   17.213056  ( -0.426792   2.527240  -3.262508)
  37:      1487.66   12.164100  ( -1.608724   2.249199   2.125373)
  38:      1496.70  149.568730  ( -1.587095   3.891967  11.484879)
  39:      1652.54   55.274289  ( -0.201831  -6.976182   2.562507)
  40:      1657.45   36.461535  ( -5.927624  -0.218923  -1.129991)
  41:      1728.78    2.530825  ( -0.517010  -0.910155   1.197974)
  42:      3014.26   19.632299  ( -2.321907   0.823784   3.682720)
  43:      3053.22    5.348204  ( -0.803202  -0.994307  -1.927284)
  44:      3070.80    3.182352  (  0.934796   1.519098  -0.029154)
  45:      3095.19    4.421759  (  1.237555   1.699496  -0.043942)
  46:      3131.57    6.914258  (  0.971365  -2.163304   1.136143)
  47:      3156.93    4.894060  ( -0.379046  -2.127033  -0.475517)
  48:      3158.81    0.601635  ( -0.748386   0.022979   0.202546)
  49:      3162.40    0.260044  (  0.159305   0.482108  -0.047301)
  50:      3253.73    0.826320  (  0.180543   0.872210   0.181589)
  51:      3417.75   39.966970  ( -1.046670   1.334699   6.090158)
  52:      3502.58   77.604199  (  1.963557   8.236036  -2.432357)
  53:      3511.90   82.551568  ( -8.592065   1.546716  -2.517072)

--------------------------
THERMOCHEMISTRY AT 298.15K
--------------------------

Temperature         ... 298.15 K
Pressure            ... 1.00 atm
Total Mass          ... 86.16 AMU

Throughout the following assumptions are being made:
  (1) The electronic state is orbitally nondegenerate
  (2) There are no thermally accessible electronically excited states
  (3) Hindered rotations indicated by low frequency modes) are not
      treated as such but are treated as vibrations and this may
      case some error
  (4) All equations used are the standard statistical mechanics
      equations for an ideal gas
  (5) All vibrations are strinctly harmonic

------------
INNER ENERGY
------------

The inner energy is: U= E(el) + E(ZPE) + E(vib) + E(rot) + E(trans)
    E(el)   - is the total energy from the electronic structure calculation
              = E(kin-el) + E(nuc-el) + E(el-el) + E(nuc-nuc)
    E(ZPE)  - the the zero temperature vibrational energy from the frequency calculation
    E(vib)  - the the finite temperature correction to E(ZPE) due to population
              of excietd vibrational states
    E(rot)  - is the rotational thermal energy
    E(trans)- is the translational thermal energy

Summary of contributions to the inner energy U:
Electronic energy                ...   -252.03108030 Eh
Zero point energy                ...      0.16925608 Eh     106.21 kcal/mol
Thermal vibrational correction   ...      0.00501007 Eh       3.14 kcal/mol
Thermal rotational correction    ...      0.00141627 Eh       0.89 kcal/mol
Thermal translational correction ...      0.00141627 Eh       0.89 kcal/mol
-----------------------------------------------------------------------
Total thermal energy                   -251.85398160 Eh

Summary of corrections to the electronic energy:
(perhaps to be used in another calculation)
Total thermal correction                  0.00784261 Eh       4.92 kcal/mol
Non-thermal (ZPE) correction              0.16925608 Eh     106.21 kcal/mol
-----------------------------------------------------------------------
Total correction                          0.17709869 Eh     111.13 kcal/mol

--------
ENTHALPY
--------

The enthalpy is H = U + kB*T
                kB is Boltzmann's constant
Total free energy                 ...   -251.85398160 Eh
Thermal Enthalpy correction       ...      0.00094421 Eh       0.59 kcal/mol
-----------------------------------------------------------------------
Total Enthalpy                    ...   -251.85303739 Eh

-------
ENTROPY
-------

The entropy contributions are T*S = T*(S(el)+S(vib)+S(rot)+S(trans)
     S(el)   - electronic entropy
     S(vib)  - vibrational entropy
     S(rot)  - rotational entropy
     S(trans)- translational entropy
The entropies will be listed as mutliplied by the temperature to get
units of energy

Electronic entropy                ...      0.00000000 Eh      0.00 kcal/mol
Vibrational entropy               ...      0.00891523 Eh      5.59 kcal/mol
Rotational entropy                ...      0.01182772 Eh      7.42 kcal/mol
Translational entropy             ...      0.01866024 Eh     11.71 kcal/mol
-----------------------------------------------------------------------
Final entropy term                ...      0.03940319 Eh     24.73 kcal/mol

CAUTION: The rotational entropy is not quite correctly treated here
         because it includes a symmetry number that is not yet correctly
         implemented in ORCA!
For a nonlinear molecule the correct rotational entropy is:
    S(rot) = R*(ln(qrot/sn)+1.5)
    R    = 8.31441 J/mol/K = 1.987191683e-3 kcal/mol/K
    qrot = 184531.9547859
    sn is the rotational symmetry number. We have assumed 3 here
       if it is different for your molecule then you should correct
       the printed rotational entropy by manually evaluating the equation
       as given above

For convenience we print out the resulting values for sn=1 - 12:
 sn= 1  qrot/sn=  184531.9548 T*S(rot)=     8.07 kcal/mol T*S(tot)=    25.38 kcal/mol
 sn= 2  qrot/sn=   92265.9774 T*S(rot)=     7.66 kcal/mol T*S(tot)=    24.97 kcal/mol
 sn= 3  qrot/sn=   61510.6516 T*S(rot)=     7.42 kcal/mol T*S(tot)=    24.73 kcal/mol
 sn= 4  qrot/sn=   46132.9887 T*S(rot)=     7.25 kcal/mol T*S(tot)=    24.56 kcal/mol
 sn= 5  qrot/sn=   36906.3910 T*S(rot)=     7.12 kcal/mol T*S(tot)=    24.42 kcal/mol
 sn= 6  qrot/sn=   30755.3258 T*S(rot)=     7.01 kcal/mol T*S(tot)=    24.32 kcal/mol
 sn= 7  qrot/sn=   26361.7078 T*S(rot)=     6.92 kcal/mol T*S(tot)=    24.22 kcal/mol
 sn= 8  qrot/sn=   23066.4943 T*S(rot)=     6.84 kcal/mol T*S(tot)=    24.14 kcal/mol
 sn= 9  qrot/sn=   20503.5505 T*S(rot)=     6.77 kcal/mol T*S(tot)=    24.07 kcal/mol
 sn=10  qrot/sn=   18453.1955 T*S(rot)=     6.71 kcal/mol T*S(tot)=    24.01 kcal/mol
 sn=11  qrot/sn=   16775.6323 T*S(rot)=     6.65 kcal/mol T*S(tot)=    23.96 kcal/mol
 sn=12  qrot/sn=   15377.6629 T*S(rot)=     6.60 kcal/mol T*S(tot)=    23.90 kcal/mol

-------------------
GIBBS FREE ENTHALPY
-------------------

The Gibbs free enthalpy is G = H - T*S

Total enthalpy                    ...   -251.85303739 Eh
Total entropy correction          ...     -0.03940319 Eh    -24.73 kcal/mol
-----------------------------------------------------------------------
Final Gibbs free enthalpy         ...   -251.89244058 Eh

For completeness - the Gibbs free enthalpy minus the electronic energy
G-E(el)                           ...      0.13863971 Eh     87.00 kcal/mol

                             ****ORCA TERMINATED NORMALLY****
TOTAL RUN TIME: 0 days 0 hours 22 minutes 7 seconds 166 msec
