                         Program Version 3.0.3 - RELEASE   -
|  1> ! NORI PBE0 def2-TZVP UseSym TightOPT Freq TightSCF Grid3 FinalGrid5 XYZFile
|  2> % pal
|  3>     nprocs 8
|  4> end
|  5> %method
|  6>     SymThresh 5.0e-2
|  7> end
|  8> % geom
|  9>     MaxIter 10
| 10> end
| 11> % maxcore 2000
| 12> % output
| 13>     printlevel mini
| 14>     print[ P_Basis ] 0
| 15>     print[ P_SCFInfo ] 1
| 16>     print[ P_SCFIterInfo ] 1
| 17>     print[ P_OrbEn ] 0
| 18>     print[ P_Cartesian ] 0
| 19> end
| 20> % elprop
| 21>     Dipole false
| 22> end
| 23> *xyz 1 1
| 24>  C        0.8004888485    -0.1024746687     0.0431675165
| 25>  C        2.3063787617    -0.0593981611    -0.0320599089
| 26>  N        2.9056980321    -0.3495293360     1.3248556442
| 27>  C        2.9126528556    -1.0559160744    -1.0220501141
| 28>  C        4.3564210146    -1.1221356198    -0.8757086006
| 29>  C        5.5366136897    -1.1442259405    -0.6534750528
| 30>  H        0.3862400709     0.1369419248    -0.9370323773
| 31>  H        0.4053435779     0.6288254777     0.7509780916
| 32>  H        0.4390033920    -1.0966365161     0.3201185505
| 33>  H        2.6609806923     0.9442626740    -0.2776367580
| 34>  H        2.5260554500    -1.2130485509     1.7192651647
| 35>  H        2.7319364674     0.4043686533     1.9903716738
| 36>  H        3.9234748916    -0.4777019939     1.2015644897
| 37>  H        2.4710928397    -2.0496543792    -0.8820865646
| 38>  H        2.6400873069    -0.7351474429    -2.0312239798
| 39>  H        6.5950221093    -1.1826900464    -0.5164377750
| 40> *
| 41>
| 42>                          ****END OF INPUT****
 Total Charge           Charge          ....    1
 Multiplicity           Mult            ....    1
 Number of Electrons    NEL             ....   46
FINAL SINGLE POINT ENERGY      -250.783844124127

CARTESIAN COORDINATES (ANGSTROEM)
---------------------------------
  C      2.264534    0.000240    0.478044
  C      0.816789   -0.365171    0.262947
  N     -0.000149   -0.000295    1.481189
  C      0.170778    0.321008   -0.942612
  C     -1.266668    0.110712   -0.952733
  C     -2.448766   -0.078977   -0.855415
  H      2.842383   -0.295338   -0.398606
  H      2.693047   -0.515885    1.339656
  H      2.392403    1.078283    0.609604
  H      0.692257   -1.446030    0.164786
  H      0.155886    0.973071    1.752515
  H      0.221895   -0.590834    2.283091
  H     -0.998422   -0.105395    1.237174
  H      0.397250    1.393761   -0.937557
  H      0.628424   -0.088044   -1.847685
  H     -3.504011   -0.240559   -0.832426

FINAL SINGLE POINT ENERGY      -250.783844690921
                    ***********************HURRAY********************
 Multiplicity           Mult            ....    1
 Number of Electrons    NEL             ....   46
 Basis Dimension        Dim             ....  246
FINAL SINGLE POINT ENERGY      -250.783844899804

VIBRATIONAL FREQUENCIES
-----------------------

   0:         0.00 cm**-1
   1:         0.00 cm**-1
   2:         0.00 cm**-1
   3:         0.00 cm**-1
   4:         0.00 cm**-1
   5:         0.00 cm**-1
   6:       103.15 cm**-1
   7:       151.52 cm**-1
   8:       239.06 cm**-1
   9:       264.94 cm**-1
  10:       327.02 cm**-1
  11:       352.01 cm**-1
  12:       381.29 cm**-1
  13:       431.66 cm**-1
  14:       546.41 cm**-1
  15:       717.90 cm**-1
  16:       749.80 cm**-1
  17:       799.47 cm**-1
  18:       892.39 cm**-1
  19:       926.80 cm**-1
  20:       956.30 cm**-1
  21:       989.22 cm**-1
  22:       999.27 cm**-1
  23:      1099.90 cm**-1
  24:      1148.43 cm**-1
  25:      1215.37 cm**-1
  26:      1271.73 cm**-1
  27:      1310.70 cm**-1
  28:      1392.78 cm**-1
  29:      1407.11 cm**-1
  30:      1424.26 cm**-1
  31:      1459.94 cm**-1
  32:      1483.03 cm**-1
  33:      1487.38 cm**-1
  34:      1488.97 cm**-1
  35:      1639.80 cm**-1
  36:      1657.54 cm**-1
  37:      2236.18 cm**-1
  38:      3050.46 cm**-1
  39:      3057.00 cm**-1
  40:      3099.49 cm**-1
  41:      3110.38 cm**-1
  42:      3137.65 cm**-1
  43:      3152.61 cm**-1
  44:      3288.20 cm**-1
  45:      3452.05 cm**-1
  46:      3461.41 cm**-1
  47:      3522.32 cm**-1

IR SPECTRUM
-----------

 Mode    freq (cm**-1)   T**2         TX         TY         TZ
-------------------------------------------------------------------
   6:       103.15    3.016494  ( -0.917931  -0.892887  -1.173307)
   7:       151.52    5.807436  ( -1.501272  -0.024254  -1.884948)
   8:       239.06    0.594314  ( -0.105062  -0.762128  -0.049368)
   9:       264.94    0.239753  ( -0.379988  -0.305076  -0.047864)
  10:       327.02    4.514552  ( -0.936530  -1.133077   1.534145)
  11:       352.01   13.020112  (  0.896343  -3.305573  -1.135724)
  12:       381.29   39.059511  ( -3.654687   0.345383  -5.058012)
  13:       431.66    3.480122  (  0.887824   1.104399  -1.213340)
  14:       546.41    8.083096  (  0.840342  -1.094142   2.485915)
  15:       717.90   44.146637  (  1.095801  -6.198942  -2.125789)
  16:       749.80   39.669327  (  0.862627   1.811452  -5.970246)
  17:       799.47    3.897644  (  1.310025   1.131863  -0.948875)
  18:       892.39    7.515293  (  1.313723  -1.788062   1.610049)
  19:       926.80    0.389098  ( -0.386380  -0.302605  -0.385019)
  20:       956.30   10.610580  (  3.044363   0.946254   0.668610)
  21:       989.22   18.640637  (  2.541841  -0.535836   3.448559)
  22:       999.27   13.357764  ( -3.416568   0.370017  -1.244153)
  23:      1099.90   10.984021  (  2.675669  -1.683522  -0.995273)
  24:      1148.43    3.430508  ( -0.362793  -0.693139   1.678823)
  25:      1215.37   36.344078  ( -4.673171  -0.462153  -3.780472)
  26:      1271.73    8.248345  (  2.282066  -1.534086   0.828915)
  27:      1310.70    3.389761  ( -1.663846  -0.726557   0.305764)
  28:      1392.78    7.350159  ( -1.163769   0.979221  -2.244310)
  29:      1407.11    7.589241  ( -0.774968  -1.673563   2.046424)
  30:      1424.26   28.591974  (  4.646248   0.873999  -2.498094)
  31:      1459.94    7.473919  ( -0.825368  -1.344289   2.232840)
  32:      1483.03   24.670638  ( -1.620180   1.829616   4.324137)
  33:      1487.38   95.257828  (  2.110920   0.495914  -9.516087)
  34:      1488.97   60.438460  ( -2.119722   3.747603   6.473076)
  35:      1639.80   35.665252  (  0.540695   5.882747  -0.875320)
  36:      1657.54   30.682326  ( -3.487982   1.820570  -3.898953)
  37:      2236.18    3.158891  (  1.388896   0.032459   1.108516)
  38:      3050.46    2.369962  ( -1.181591  -0.566862  -0.807758)
  39:      3057.00    2.524682  ( -0.008303   0.991355   1.241704)
  40:      3099.49    1.520931  (  0.410325   0.533456   1.033436)
  41:      3110.38    0.908124  (  0.494953  -0.197977  -0.789906)
  42:      3137.65    3.966293  ( -0.339552   1.779448  -0.827383)
  43:      3152.61    0.564068  ( -0.644734  -0.137911  -0.359676)
  44:      3288.20  150.341380  ( 10.596439   0.044778   6.168862)
  45:      3452.05  110.484877  (-10.410603  -1.421084  -0.291096)
  46:      3461.41   94.770084  (  4.161918   3.675554   7.996175)
  47:      3522.32   95.395756  (  1.292930  -7.912568   5.578115)

--------------------------
THERMOCHEMISTRY AT 298.15K
--------------------------

Temperature         ... 298.15 K
Pressure            ... 1.00 atm
Total Mass          ... 84.14 AMU

Throughout the following assumptions are being made:
  (1) The electronic state is orbitally nondegenerate
  (2) There are no thermally accessible electronically excited states
  (3) Hindered rotations indicated by low frequency modes) are not
      treated as such but are treated as vibrations and this may
      case some error
  (4) All equations used are the standard statistical mechanics
      equations for an ideal gas
  (5) All vibrations are strinctly harmonic

------------
INNER ENERGY
------------

The inner energy is: U= E(el) + E(ZPE) + E(vib) + E(rot) + E(trans)
    E(el)   - is the total energy from the electronic structure calculation
              = E(kin-el) + E(nuc-el) + E(el-el) + E(nuc-nuc)
    E(ZPE)  - the the zero temperature vibrational energy from the frequency calculation
    E(vib)  - the the finite temperature correction to E(ZPE) due to population
              of excietd vibrational states
    E(rot)  - is the rotational thermal energy
    E(trans)- is the translational thermal energy

Summary of contributions to the inner energy U:
Electronic energy                ...   -250.78384490 Eh
Zero point energy                ...      0.14553595 Eh      91.32 kcal/mol
Thermal vibrational correction   ...      0.00451848 Eh       2.84 kcal/mol
Thermal rotational correction    ...      0.00141627 Eh       0.89 kcal/mol
Thermal translational correction ...      0.00141627 Eh       0.89 kcal/mol
-----------------------------------------------------------------------
Total thermal energy                   -250.63095792 Eh

Summary of corrections to the electronic energy:
(perhaps to be used in another calculation)
Total thermal correction                  0.00735103 Eh       4.61 kcal/mol
Non-thermal (ZPE) correction              0.14553595 Eh      91.32 kcal/mol
-----------------------------------------------------------------------
Total correction                          0.15288698 Eh      95.94 kcal/mol

--------
ENTHALPY
--------

The enthalpy is H = U + kB*T
                kB is Boltzmann's constant
Total free energy                 ...   -250.63095792 Eh
Thermal Enthalpy correction       ...      0.00094421 Eh       0.59 kcal/mol
-----------------------------------------------------------------------
Total Enthalpy                    ...   -250.63001371 Eh

-------
ENTROPY
-------

The entropy contributions are T*S = T*(S(el)+S(vib)+S(rot)+S(trans)
     S(el)   - electronic entropy
     S(vib)  - vibrational entropy
     S(rot)  - rotational entropy
     S(trans)- translational entropy
The entropies will be listed as mutliplied by the temperature to get
units of energy

Electronic entropy                ...      0.00000000 Eh      0.00 kcal/mol
Vibrational entropy               ...      0.00760247 Eh      4.77 kcal/mol
Rotational entropy                ...      0.01169018 Eh      7.34 kcal/mol
Translational entropy             ...      0.01862670 Eh     11.69 kcal/mol
-----------------------------------------------------------------------
Final entropy term                ...      0.03791935 Eh     23.79 kcal/mol

CAUTION: The rotational entropy is not quite correctly treated here
         because it includes a symmetry number that is not yet correctly
         implemented in ORCA!
For a nonlinear molecule the correct rotational entropy is:
    S(rot) = R*(ln(qrot/sn)+1.5)
    R    = 8.31441 J/mol/K = 1.987191683e-3 kcal/mol/K
    qrot = 159517.5076824
    sn is the rotational symmetry number. We have assumed 3 here
       if it is different for your molecule then you should correct
       the printed rotational entropy by manually evaluating the equation
       as given above

For convenience we print out the resulting values for sn=1 - 12:
 sn= 1  qrot/sn=  159517.5077 T*S(rot)=     7.99 kcal/mol T*S(tot)=    24.45 kcal/mol
 sn= 2  qrot/sn=   79758.7538 T*S(rot)=     7.58 kcal/mol T*S(tot)=    24.03 kcal/mol
 sn= 3  qrot/sn=   53172.5026 T*S(rot)=     7.34 kcal/mol T*S(tot)=    23.79 kcal/mol
 sn= 4  qrot/sn=   39879.3769 T*S(rot)=     7.17 kcal/mol T*S(tot)=    23.62 kcal/mol
 sn= 5  qrot/sn=   31903.5015 T*S(rot)=     7.03 kcal/mol T*S(tot)=    23.49 kcal/mol
 sn= 6  qrot/sn=   26586.2513 T*S(rot)=     6.93 kcal/mol T*S(tot)=    23.38 kcal/mol
 sn= 7  qrot/sn=   22788.2154 T*S(rot)=     6.83 kcal/mol T*S(tot)=    23.29 kcal/mol
 sn= 8  qrot/sn=   19939.6885 T*S(rot)=     6.75 kcal/mol T*S(tot)=    23.21 kcal/mol
 sn= 9  qrot/sn=   17724.1675 T*S(rot)=     6.68 kcal/mol T*S(tot)=    23.14 kcal/mol
 sn=10  qrot/sn=   15951.7508 T*S(rot)=     6.62 kcal/mol T*S(tot)=    23.08 kcal/mol
 sn=11  qrot/sn=   14501.5916 T*S(rot)=     6.57 kcal/mol T*S(tot)=    23.02 kcal/mol
 sn=12  qrot/sn=   13293.1256 T*S(rot)=     6.51 kcal/mol T*S(tot)=    22.97 kcal/mol

-------------------
GIBBS FREE ENTHALPY
-------------------

The Gibbs free enthalpy is G = H - T*S

Total enthalpy                    ...   -250.63001371 Eh
Total entropy correction          ...     -0.03791935 Eh    -23.79 kcal/mol
-----------------------------------------------------------------------
Final Gibbs free enthalpy         ...   -250.66793306 Eh

For completeness - the Gibbs free enthalpy minus the electronic energy
G-E(el)                           ...      0.11591184 Eh     72.74 kcal/mol

                             ****ORCA TERMINATED NORMALLY****
TOTAL RUN TIME: 0 days 0 hours 17 minutes 2 seconds 66 msec
