                         Program Version 3.0.3 - RELEASE   -
|  1> ! NORI PBE0 def2-TZVP UseSym TightOPT Freq TightSCF Grid3 FinalGrid5 XYZFile
|  2> % pal
|  3>     nprocs 8
|  4> end
|  5> %method
|  6>     SymThresh 5.0e-2
|  7> end
|  8> % geom
|  9>     MaxIter 10
| 10> end
| 11> % maxcore 2000
| 12> % output
| 13>     printlevel mini
| 14>     print[ P_Basis ] 0
| 15>     print[ P_SCFInfo ] 1
| 16>     print[ P_SCFIterInfo ] 1
| 17>     print[ P_OrbEn ] 0
| 18>     print[ P_Cartesian ] 0
| 19> end
| 20> % elprop
| 21>     Dipole false
| 22> end
| 23> *xyz 1 1
| 24>  C        1.5916758723    -0.9086675868    -0.4796350109
| 25>  C        2.8505802420    -1.4788329963     0.1270639449
| 26>  N        3.1547135213    -0.9374318931     1.4977228437
| 27>  C        2.1103859343    -1.2967232221     2.4912010870
| 28>  C        4.5305034615    -1.3518060229     1.9427183295
| 29>  C        4.9969623920    -0.6432654782     3.1914492212
| 30>  H        1.5266042429    -1.2513116259    -1.5133154285
| 31>  H        1.6095509770     0.1843023532    -0.5039785457
| 32>  H        0.6844242662    -1.2403541054     0.0249354412
| 33>  H        3.7195261376    -1.2376452598    -0.4877216481
| 34>  H        2.8026145762    -2.5643975267     0.2323776124
| 35>  H        3.1628702692     0.0820847638     1.4193428175
| 36>  H        2.0925552559    -2.3813410624     2.5926178075
| 37>  H        1.1444737266    -0.9375656848     2.1465659544
| 38>  H        2.3469974659    -0.8359341569     3.4464029635
| 39>  H        5.1934338867    -1.1341214999     1.1038068225
| 40>  H        4.4942908920    -2.4351933101     2.0725708720
| 41>  H        4.9589099361     0.4441753887     3.0817455648
| 42>  H        6.0399105672    -0.9114168280     3.3662995469
| 43>  H        4.4384863774    -0.9318942462     4.0818598041
| 44> *
| 45>
| 46>                          ****END OF INPUT****
 Total Charge           Charge          ....    1
 Multiplicity           Mult            ....    1
 Number of Electrons    NEL             ....   50
FINAL SINGLE POINT ENERGY      -253.259076434370

CARTESIAN COORDINATES (ANGSTROEM)
---------------------------------
  C      0.260465    0.238664    2.507245
  C     -0.503942    0.529754    1.238568
  N      0.166026   -0.000381   -0.000000
  C      0.259062   -1.482940    0.000000
  C     -0.503942    0.529754   -1.238568
  C      0.260465    0.238664   -2.507245
  H     -0.227316    0.766821    3.327833
  H      1.289301    0.604813    2.456467
  H      0.270476   -0.819310    2.768497
  H     -0.604241    1.605344    1.085770
  H     -1.505469    0.095935    1.252041
  H      1.121121    0.364555   -0.000000
  H     -0.751479   -1.889608    0.000000
  H      0.794032   -1.811555    0.886944
  H      0.794032   -1.811555   -0.886944
  H     -0.604242    1.605344   -1.085770
  H     -1.505469    0.095935   -1.252041
  H      1.289301    0.604813   -2.456467
  H     -0.227316    0.766821   -3.327833
  H      0.270476   -0.819310   -2.768497

FINAL SINGLE POINT ENERGY      -253.259076904117
                    ***********************HURRAY********************
 Multiplicity           Mult            ....    1
 Number of Electrons    NEL             ....   50
 Basis Dimension        Dim             ....  270
FINAL SINGLE POINT ENERGY      -253.259076954040

VIBRATIONAL FREQUENCIES
-----------------------

   0:         0.00 cm**-1
   1:         0.00 cm**-1
   2:         0.00 cm**-1
   3:         0.00 cm**-1
   4:         0.00 cm**-1
   5:         0.00 cm**-1
   6:        53.09 cm**-1
   7:        78.69 cm**-1
   8:       200.69 cm**-1
   9:       208.32 cm**-1
  10:       249.08 cm**-1
  11:       272.45 cm**-1
  12:       346.08 cm**-1
  13:       399.58 cm**-1
  14:       449.86 cm**-1
  15:       470.11 cm**-1
  16:       784.70 cm**-1
  17:       794.20 cm**-1
  18:       832.47 cm**-1
  19:       893.09 cm**-1
  20:       986.35 cm**-1
  21:      1018.07 cm**-1
  22:      1049.65 cm**-1
  23:      1068.33 cm**-1
  24:      1085.75 cm**-1
  25:      1099.80 cm**-1
  26:      1181.41 cm**-1
  27:      1220.05 cm**-1
  28:      1231.68 cm**-1
  29:      1297.80 cm**-1
  30:      1354.75 cm**-1
  31:      1355.29 cm**-1
  32:      1404.54 cm**-1
  33:      1413.95 cm**-1
  34:      1423.03 cm**-1
  35:      1430.71 cm**-1
  36:      1444.55 cm**-1
  37:      1453.15 cm**-1
  38:      1474.46 cm**-1
  39:      1481.25 cm**-1
  40:      1486.98 cm**-1
  41:      1487.13 cm**-1
  42:      1491.79 cm**-1
  43:      1498.79 cm**-1
  44:      1510.91 cm**-1
  45:      1514.15 cm**-1
  46:      3064.10 cm**-1
  47:      3064.29 cm**-1
  48:      3088.83 cm**-1
  49:      3094.83 cm**-1
  50:      3098.22 cm**-1
  51:      3134.07 cm**-1
  52:      3136.45 cm**-1
  53:      3147.76 cm**-1
  54:      3149.08 cm**-1
  55:      3161.43 cm**-1
  56:      3163.63 cm**-1
  57:      3195.43 cm**-1
  58:      3207.59 cm**-1
  59:      3444.87 cm**-1

IR SPECTRUM
-----------

 Mode    freq (cm**-1)   T**2         TX         TY         TZ
-------------------------------------------------------------------
   6:        53.09    0.099151  (  0.000180   0.000210  -0.314882)
   7:        78.69    1.348266  (  0.781096   0.859160   0.000077)
   8:       200.69    0.017927  (  0.000028  -0.000049  -0.133891)
   9:       208.32    0.737834  (  0.540866  -0.667307   0.000001)
  10:       249.08    0.625567  (  0.434377  -0.660972   0.000008)
  11:       272.45    0.317764  ( -0.000025   0.000010  -0.563706)
  12:       346.08    0.927752  (  0.000014  -0.000015  -0.963199)
  13:       399.58    0.517684  ( -0.145877   0.704559  -0.000008)
  14:       449.86    0.045514  (  0.196955  -0.081995  -0.000030)
  15:       470.11    1.123664  (  0.000009  -0.000011  -1.060030)
  16:       784.70    5.797122  ( -0.438983  -2.367365  -0.000037)
  17:       794.20    0.210429  (  0.000027   0.000105  -0.458726)
  18:       832.47    5.282795  ( -0.756781  -2.170271   0.000007)
  19:       893.09   14.177620  (  0.000013  -0.000012  -3.765318)
  20:       986.35    0.846175  (  0.735016   0.553106   0.000038)
  21:      1018.07   53.715463  ( -0.000018   0.000035  -7.329083)
  22:      1049.65   10.938680  ( -2.150577   2.512707   0.000032)
  23:      1068.33    1.975854  ( -0.000016   0.000029  -1.405651)
  24:      1085.75    1.397837  (  0.267972  -1.151533  -0.000030)
  25:      1099.80    0.014285  (  0.000015  -0.000031   0.119518)
  26:      1181.41   10.720386  (  2.031431  -2.567815  -0.000011)
  27:      1220.05    0.005226  ( -0.000005   0.000006   0.072288)
  28:      1231.68    0.607952  ( -0.284737  -0.725863  -0.000007)
  29:      1297.80    1.858949  (  0.000002  -0.000001   1.363433)
  30:      1354.75    2.375321  ( -1.363595  -0.718282  -0.000058)
  31:      1355.29    0.165513  ( -0.000149  -0.000074   0.406832)
  32:      1404.54    1.010799  (  0.623165  -0.788965  -0.000061)
  33:      1413.95   50.434445  ( -0.000003   0.000004  -7.101721)
  34:      1423.03    5.928965  (  0.000039   0.000034  -2.434947)
  35:      1430.71    9.320399  ( -1.830423  -2.443348  -0.000054)
  36:      1444.55    2.666408  ( -1.103243  -1.203853   0.000022)
  37:      1453.15   17.620422  (  0.797155  -4.121282  -0.000013)
  38:      1474.46    0.141462  ( -0.000053  -0.000047  -0.376114)
  39:      1481.25   24.572019  ( -3.425354  -3.583151  -0.000030)
  40:      1486.98    0.935027  ( -0.001663   0.000048   0.966967)
  41:      1487.13    3.024617  ( -1.738712   0.038718  -0.000459)
  42:      1491.79   30.424911  ( -0.000187   0.000053  -5.515878)
  43:      1498.79    4.862669  ( -0.000163  -0.000032   2.205146)
  44:      1510.91   10.059669  ( -0.393012   3.147254   0.000062)
  45:      1514.15   44.652797  (  6.068947  -2.796547  -0.000002)
  46:      3064.10    0.337932  ( -0.000075   0.000009  -0.581319)
  47:      3064.29    5.412803  (  2.222677  -0.687392  -0.000003)
  48:      3088.83    2.308815  ( -0.000167   0.000082   1.519479)
  49:      3094.83    4.978009  ( -1.893047   1.180839  -0.000105)
  50:      3098.22    0.068284  ( -0.000564  -0.261312  -0.000002)
  51:      3134.07    0.185330  ( -0.000046  -0.000037  -0.430499)
  52:      3136.45    2.007563  (  1.093760   0.900695  -0.000037)
  53:      3147.76    0.103709  (  0.000141   0.000089  -0.322039)
  54:      3149.08    2.136632  (  1.411946   0.378207   0.000064)
  55:      3161.43    0.355450  ( -0.000005   0.000134   0.596196)
  56:      3163.63    8.702993  (  0.787947   2.842909  -0.000003)
  57:      3195.43    0.556750  (  0.227478  -0.710636   0.000004)
  58:      3207.59    0.004712  ( -0.000003   0.000000   0.068645)
  59:      3444.87   34.054240  (  5.428452   2.141530  -0.000001)

--------------------------
THERMOCHEMISTRY AT 298.15K
--------------------------

Temperature         ... 298.15 K
Pressure            ... 1.00 atm
Total Mass          ... 88.17 AMU

Throughout the following assumptions are being made:
  (1) The electronic state is orbitally nondegenerate
  (2) There are no thermally accessible electronically excited states
  (3) Hindered rotations indicated by low frequency modes) are not
      treated as such but are treated as vibrations and this may
      case some error
  (4) All equations used are the standard statistical mechanics
      equations for an ideal gas
  (5) All vibrations are strinctly harmonic

------------
INNER ENERGY
------------

The inner energy is: U= E(el) + E(ZPE) + E(vib) + E(rot) + E(trans)
    E(el)   - is the total energy from the electronic structure calculation
              = E(kin-el) + E(nuc-el) + E(el-el) + E(nuc-nuc)
    E(ZPE)  - the the zero temperature vibrational energy from the frequency calculation
    E(vib)  - the the finite temperature correction to E(ZPE) due to population
              of excietd vibrational states
    E(rot)  - is the rotational thermal energy
    E(trans)- is the translational thermal energy

Summary of contributions to the inner energy U:
Electronic energy                ...   -253.25907695 Eh
Zero point energy                ...      0.19284080 Eh     121.01 kcal/mol
Thermal vibrational correction   ...      0.00547129 Eh       3.43 kcal/mol
Thermal rotational correction    ...      0.00141627 Eh       0.89 kcal/mol
Thermal translational correction ...      0.00141627 Eh       0.89 kcal/mol
-----------------------------------------------------------------------
Total thermal energy                   -253.05793233 Eh

Summary of corrections to the electronic energy:
(perhaps to be used in another calculation)
Total thermal correction                  0.00830383 Eh       5.21 kcal/mol
Non-thermal (ZPE) correction              0.19284080 Eh     121.01 kcal/mol
-----------------------------------------------------------------------
Total correction                          0.20114463 Eh     126.22 kcal/mol

--------
ENTHALPY
--------

The enthalpy is H = U + kB*T
                kB is Boltzmann's constant
Total free energy                 ...   -253.05793233 Eh
Thermal Enthalpy correction       ...      0.00094421 Eh       0.59 kcal/mol
-----------------------------------------------------------------------
Total Enthalpy                    ...   -253.05698812 Eh

-------
ENTROPY
-------

The entropy contributions are T*S = T*(S(el)+S(vib)+S(rot)+S(trans)
     S(el)   - electronic entropy
     S(vib)  - vibrational entropy
     S(rot)  - rotational entropy
     S(trans)- translational entropy
The entropies will be listed as mutliplied by the temperature to get
units of energy

Electronic entropy                ...      0.00000000 Eh      0.00 kcal/mol
Vibrational entropy               ...      0.01017257 Eh      6.38 kcal/mol
Rotational entropy                ...      0.01183151 Eh      7.42 kcal/mol
Translational entropy             ...      0.01869299 Eh     11.73 kcal/mol
-----------------------------------------------------------------------
Final entropy term                ...      0.04069708 Eh     25.54 kcal/mol

CAUTION: The rotational entropy is not quite correctly treated here
         because it includes a symmetry number that is not yet correctly
         implemented in ORCA!
For a nonlinear molecule the correct rotational entropy is:
    S(rot) = R*(ln(qrot/sn)+1.5)
    R    = 8.31441 J/mol/K = 1.987191683e-3 kcal/mol/K
    qrot = 185273.6363377
    sn is the rotational symmetry number. We have assumed 3 here
       if it is different for your molecule then you should correct
       the printed rotational entropy by manually evaluating the equation
       as given above

For convenience we print out the resulting values for sn=1 - 12:
 sn= 1  qrot/sn=  185273.6363 T*S(rot)=     8.08 kcal/mol T*S(tot)=    26.19 kcal/mol
 sn= 2  qrot/sn=   92636.8182 T*S(rot)=     7.66 kcal/mol T*S(tot)=    25.78 kcal/mol
 sn= 3  qrot/sn=   61757.8788 T*S(rot)=     7.42 kcal/mol T*S(tot)=    25.54 kcal/mol
 sn= 4  qrot/sn=   46318.4091 T*S(rot)=     7.25 kcal/mol T*S(tot)=    25.37 kcal/mol
 sn= 5  qrot/sn=   37054.7273 T*S(rot)=     7.12 kcal/mol T*S(tot)=    25.24 kcal/mol
 sn= 6  qrot/sn=   30878.9394 T*S(rot)=     7.01 kcal/mol T*S(tot)=    25.13 kcal/mol
 sn= 7  qrot/sn=   26467.6623 T*S(rot)=     6.92 kcal/mol T*S(tot)=    25.04 kcal/mol
 sn= 8  qrot/sn=   23159.2045 T*S(rot)=     6.84 kcal/mol T*S(tot)=    24.96 kcal/mol
 sn= 9  qrot/sn=   20585.9596 T*S(rot)=     6.77 kcal/mol T*S(tot)=    24.89 kcal/mol
 sn=10  qrot/sn=   18527.3636 T*S(rot)=     6.71 kcal/mol T*S(tot)=    24.82 kcal/mol
 sn=11  qrot/sn=   16843.0578 T*S(rot)=     6.65 kcal/mol T*S(tot)=    24.77 kcal/mol
 sn=12  qrot/sn=   15439.4697 T*S(rot)=     6.60 kcal/mol T*S(tot)=    24.72 kcal/mol

-------------------
GIBBS FREE ENTHALPY
-------------------

The Gibbs free enthalpy is G = H - T*S

Total enthalpy                    ...   -253.05698812 Eh
Total entropy correction          ...     -0.04069708 Eh    -25.54 kcal/mol
-----------------------------------------------------------------------
Final Gibbs free enthalpy         ...   -253.09768519 Eh

For completeness - the Gibbs free enthalpy minus the electronic energy
G-E(el)                           ...      0.16139176 Eh    101.27 kcal/mol

                             ****ORCA TERMINATED NORMALLY****
TOTAL RUN TIME: 0 days 0 hours 24 minutes 49 seconds 755 msec
