                         Program Version 3.0.3 - RELEASE   -
|  1> ! NORI PBE0 def2-TZVP UseSym TightOPT Freq TightSCF Grid3 FinalGrid5 XYZFile
|  2> % pal
|  3>     nprocs 8
|  4> end
|  5> %method
|  6>     SymThresh 5.0e-2
|  7> end
|  8> % geom
|  9>     MaxIter 10
| 10> end
| 11> % maxcore 2000
| 12> % output
| 13>     printlevel mini
| 14>     print[ P_Basis ] 0
| 15>     print[ P_SCFInfo ] 1
| 16>     print[ P_SCFIterInfo ] 1
| 17>     print[ P_OrbEn ] 0
| 18>     print[ P_Cartesian ] 0
| 19> end
| 20> % elprop
| 21>     Dipole false
| 22> end
| 23> *xyz 1 1
| 24>  C        1.1856717858    -0.5319225717    -0.4946165142
| 25>  C        2.6782122024    -0.4410925617    -0.2879987151
| 26>  N        3.2967488118     0.5031368283    -1.2723101039
| 27>  C        4.7812074282     0.7755764082    -1.1292726288
| 28>  C        5.5734390599    -0.4734389650    -1.4435566457
| 29>  C        5.1306437401     1.9439543340    -2.0262866822
| 30>  H        0.7661855959    -1.2246880983     0.2354964994
| 31>  H        0.9335867433    -0.9119911558    -1.4874032718
| 32>  H        0.6935876822     0.4328096692    -0.3505772677
| 33>  H        2.9316383574    -0.0621443483     0.7031281974
| 34>  H        3.1641897557    -1.4061367710    -0.4215985613
| 35>  H        3.1216486578     0.1583315144    -2.2195428079
| 36>  H        2.8048856224     1.3971390631    -1.2118156821
| 37>  H        4.9085762489     1.0550457077    -0.0799734073
| 38>  H        5.4019341532    -0.8053246033    -2.4719936713
| 39>  H        5.3610061781    -1.2974799487    -0.7623810094
| 40>  H        6.6361531977    -0.2455231813    -1.3513114419
| 41>  H        4.9919403533     1.6948459980    -3.0823229046
| 42>  H        6.1804016368     2.2032864663    -1.8873928518
| 43>  H        4.5427927892     2.8351762158    -1.7918505296
| 44> *
| 45>
| 46>                          ****END OF INPUT****
 Total Charge           Charge          ....    1
 Multiplicity           Mult            ....    1
 Number of Electrons    NEL             ....   50
FINAL SINGLE POINT ENERGY      -253.269078525689
FINAL SINGLE POINT ENERGY      -253.269079840084

CARTESIAN COORDINATES (ANGSTROEM)
---------------------------------
  C      2.155889   -0.000911    1.746876
  C      1.476486    0.220767    0.416921
  N     -0.001122    0.001139    0.529088
  C     -0.836618    0.282723   -0.704173
  C     -0.506994   -0.712623   -1.794425
  C     -2.294802    0.259729   -0.296322
  H      3.227207    0.167546    1.632430
  H      2.023257   -1.023851    2.107367
  H      1.795560    0.693098    2.510175
  H      1.609060    1.241343    0.054425
  H      1.844644   -0.465275   -0.344457
  H     -0.172485   -0.964578    0.820643
  H     -0.355047    0.584040    1.290895
  H     -0.546135    1.292060   -1.007997
  H     -0.724840   -1.736999   -1.477539
  H      0.529739   -0.654720   -2.126352
  H     -1.134202   -0.501838   -2.661020
  H     -2.603070   -0.735539    0.035550
  H     -2.912884    0.523671   -1.154717
  H     -2.514068    0.981063    0.495358

FINAL SINGLE POINT ENERGY      -253.269080613140
                    ***********************HURRAY********************
 Multiplicity           Mult            ....    1
 Number of Electrons    NEL             ....   50
 Basis Dimension        Dim             ....  270
FINAL SINGLE POINT ENERGY      -253.269080933479

VIBRATIONAL FREQUENCIES
-----------------------

   0:         0.00 cm**-1
   1:         0.00 cm**-1
   2:         0.00 cm**-1
   3:         0.00 cm**-1
   4:         0.00 cm**-1
   5:         0.00 cm**-1
   6:        53.73 cm**-1
   7:       101.94 cm**-1
   8:       182.65 cm**-1
   9:       220.73 cm**-1
  10:       248.60 cm**-1
  11:       260.60 cm**-1
  12:       324.70 cm**-1
  13:       380.32 cm**-1
  14:       440.90 cm**-1
  15:       454.71 cm**-1
  16:       781.83 cm**-1
  17:       813.09 cm**-1
  18:       861.93 cm**-1
  19:       901.97 cm**-1
  20:       939.59 cm**-1
  21:       947.29 cm**-1
  22:       965.37 cm**-1
  23:      1049.67 cm**-1
  24:      1065.74 cm**-1
  25:      1091.28 cm**-1
  26:      1173.45 cm**-1
  27:      1194.25 cm**-1
  28:      1223.59 cm**-1
  29:      1279.32 cm**-1
  30:      1326.78 cm**-1
  31:      1368.20 cm**-1
  32:      1389.74 cm**-1
  33:      1409.41 cm**-1
  34:      1417.34 cm**-1
  35:      1419.37 cm**-1
  36:      1427.67 cm**-1
  37:      1437.41 cm**-1
  38:      1466.79 cm**-1
  39:      1482.20 cm**-1
  40:      1485.22 cm**-1
  41:      1489.09 cm**-1
  42:      1495.48 cm**-1
  43:      1502.70 cm**-1
  44:      1506.71 cm**-1
  45:      1645.14 cm**-1
  46:      3052.87 cm**-1
  47:      3058.50 cm**-1
  48:      3058.74 cm**-1
  49:      3089.60 cm**-1
  50:      3102.92 cm**-1
  51:      3128.58 cm**-1
  52:      3130.26 cm**-1
  53:      3141.83 cm**-1
  54:      3153.78 cm**-1
  55:      3154.35 cm**-1
  56:      3159.06 cm**-1
  57:      3169.73 cm**-1
  58:      3426.48 cm**-1
  59:      3479.90 cm**-1

IR SPECTRUM
-----------

 Mode    freq (cm**-1)   T**2         TX         TY         TZ
-------------------------------------------------------------------
   6:        53.73    0.047962  ( -0.076469  -0.021267   0.204114)
   7:       101.94    4.626259  (  0.511375  -2.063473  -0.326855)
   8:       182.65    1.480149  (  0.744354   0.662252  -0.698218)
   9:       220.73    0.165903  (  0.268893  -0.168005  -0.255684)
  10:       248.60    0.061567  ( -0.230955  -0.023744   0.087538)
  11:       260.60    1.560981  (  0.139242   1.230012   0.169302)
  12:       324.70    0.370364  (  0.125362  -0.437274  -0.404277)
  13:       380.32    4.562921  ( -1.939540   0.763049  -0.467826)
  14:       440.90    0.473500  (  0.548707   0.320657  -0.263818)
  15:       454.71    6.629770  ( -1.608099  -0.970423  -1.761269)
  16:       781.83   10.569067  (  0.164971  -2.990346  -1.264785)
  17:       813.09    2.095061  ( -1.230200  -0.591603  -0.481327)
  18:       861.93    1.321729  ( -0.166625  -0.493249  -1.025022)
  19:       901.97    0.091243  (  0.289113   0.076640  -0.042224)
  20:       939.59    2.212617  (  0.910882  -0.480841  -1.073175)
  21:       947.29    5.579346  (  1.748371  -0.253506   1.567890)
  22:       965.37    0.086186  ( -0.097373  -0.276460  -0.016567)
  23:      1049.67   31.301698  (  5.158735   0.326606   2.140673)
  24:      1065.74    5.598026  (  1.436903  -0.403705   1.835853)
  25:      1091.28   18.399986  (  3.876671  -0.016630   1.836064)
  26:      1173.45   15.828593  ( -2.268344   0.961783  -3.123809)
  27:      1194.25    5.438396  (  1.570743  -0.172629  -1.715040)
  28:      1223.59    3.805370  ( -0.705348   1.816543   0.089588)
  29:      1279.32    4.164698  (  1.604935  -0.744387   1.017236)
  30:      1326.78   14.686610  (  3.101216  -0.506586   2.193728)
  31:      1368.20    2.667431  (  0.063918   1.620095   0.196563)
  32:      1389.74    9.686628  ( -1.621529  -1.739764  -2.007609)
  33:      1409.41   53.319366  ( -6.432395  -0.225246  -3.448611)
  34:      1417.34   32.014754  ( -3.037926  -1.913549  -4.373110)
  35:      1419.37   35.870743  (  5.932582  -0.633028   0.523915)
  36:      1427.67    5.059174  ( -0.774981  -0.457201   2.061443)
  37:      1437.41   12.295174  ( -2.558898   2.394306   0.120459)
  38:      1466.79    0.672352  (  0.275986  -0.481646   0.603491)
  39:      1482.20    4.439066  (  1.674745   0.791542   1.003872)
  40:      1485.22    8.056993  ( -1.520584   1.995177   1.328189)
  41:      1489.09   18.546121  (  0.014052   4.281032   0.467640)
  42:      1495.48    4.241332  (  1.378777  -1.079338   1.084129)
  43:      1502.70   12.821040  (  0.748771   2.957202  -1.874924)
  44:      1506.71   17.922666  (  0.073807   1.644724  -3.900269)
  45:      1645.14   47.632952  ( -2.710650  -2.086526   5.994309)
  46:      3052.87    3.527444  ( -0.481461  -0.043541   1.814867)
  47:      3058.50    3.126505  ( -1.130324   1.214849  -0.610750)
  48:      3058.74    3.678449  ( -0.854516  -0.714000   1.561555)
  49:      3089.60    1.109084  ( -0.462011  -0.945768  -0.033956)
  50:      3102.92    2.494941  (  0.230675  -0.338864   1.525418)
  51:      3128.58    8.532353  (  0.190991  -2.670976  -1.166945)
  52:      3130.26    2.004308  (  0.389567  -1.349123  -0.180034)
  53:      3141.83    5.851011  ( -1.310073  -1.990236   0.416750)
  54:      3153.78    0.737655  ( -0.003150   0.361652  -0.779008)
  55:      3154.35    2.786927  (  1.197368   0.571148  -1.013423)
  56:      3159.06    1.792342  (  1.319297   0.212231   0.082187)
  57:      3169.73    2.472198  (  0.876739  -1.118356  -0.672908)
  58:      3426.48   24.174013  (  2.079231   1.811507  -4.070535)
  59:      3479.90   45.530276  (  1.036745  -6.253949  -2.311614)

--------------------------
THERMOCHEMISTRY AT 298.15K
--------------------------

Temperature         ... 298.15 K
Pressure            ... 1.00 atm
Total Mass          ... 88.17 AMU

Throughout the following assumptions are being made:
  (1) The electronic state is orbitally nondegenerate
  (2) There are no thermally accessible electronically excited states
  (3) Hindered rotations indicated by low frequency modes) are not
      treated as such but are treated as vibrations and this may
      case some error
  (4) All equations used are the standard statistical mechanics
      equations for an ideal gas
  (5) All vibrations are strinctly harmonic

------------
INNER ENERGY
------------

The inner energy is: U= E(el) + E(ZPE) + E(vib) + E(rot) + E(trans)
    E(el)   - is the total energy from the electronic structure calculation
              = E(kin-el) + E(nuc-el) + E(el-el) + E(nuc-nuc)
    E(ZPE)  - the the zero temperature vibrational energy from the frequency calculation
    E(vib)  - the the finite temperature correction to E(ZPE) due to population
              of excietd vibrational states
    E(rot)  - is the rotational thermal energy
    E(trans)- is the translational thermal energy

Summary of contributions to the inner energy U:
Electronic energy                ...   -253.26908093 Eh
Zero point energy                ...      0.19258058 Eh     120.85 kcal/mol
Thermal vibrational correction   ...      0.00554140 Eh       3.48 kcal/mol
Thermal rotational correction    ...      0.00141627 Eh       0.89 kcal/mol
Thermal translational correction ...      0.00141627 Eh       0.89 kcal/mol
-----------------------------------------------------------------------
Total thermal energy                   -253.06812641 Eh

Summary of corrections to the electronic energy:
(perhaps to be used in another calculation)
Total thermal correction                  0.00837394 Eh       5.25 kcal/mol
Non-thermal (ZPE) correction              0.19258058 Eh     120.85 kcal/mol
-----------------------------------------------------------------------
Total correction                          0.20095452 Eh     126.10 kcal/mol

--------
ENTHALPY
--------

The enthalpy is H = U + kB*T
                kB is Boltzmann's constant
Total free energy                 ...   -253.06812641 Eh
Thermal Enthalpy correction       ...      0.00094421 Eh       0.59 kcal/mol
-----------------------------------------------------------------------
Total Enthalpy                    ...   -253.06718220 Eh

-------
ENTROPY
-------

The entropy contributions are T*S = T*(S(el)+S(vib)+S(rot)+S(trans)
     S(el)   - electronic entropy
     S(vib)  - vibrational entropy
     S(rot)  - rotational entropy
     S(trans)- translational entropy
The entropies will be listed as mutliplied by the temperature to get
units of energy

Electronic entropy                ...      0.00000000 Eh      0.00 kcal/mol
Vibrational entropy               ...      0.01014137 Eh      6.36 kcal/mol
Rotational entropy                ...      0.01192923 Eh      7.49 kcal/mol
Translational entropy             ...      0.01869299 Eh     11.73 kcal/mol
-----------------------------------------------------------------------
Final entropy term                ...      0.04076359 Eh     25.58 kcal/mol

CAUTION: The rotational entropy is not quite correctly treated here
         because it includes a symmetry number that is not yet correctly
         implemented in ORCA!
For a nonlinear molecule the correct rotational entropy is:
    S(rot) = R*(ln(qrot/sn)+1.5)
    R    = 8.31441 J/mol/K = 1.987191683e-3 kcal/mol/K
    qrot = 205475.7410504
    sn is the rotational symmetry number. We have assumed 3 here
       if it is different for your molecule then you should correct
       the printed rotational entropy by manually evaluating the equation
       as given above

For convenience we print out the resulting values for sn=1 - 12:
 sn= 1  qrot/sn=  205475.7411 T*S(rot)=     8.14 kcal/mol T*S(tot)=    26.23 kcal/mol
 sn= 2  qrot/sn=  102737.8705 T*S(rot)=     7.73 kcal/mol T*S(tot)=    25.82 kcal/mol
 sn= 3  qrot/sn=   68491.9137 T*S(rot)=     7.49 kcal/mol T*S(tot)=    25.58 kcal/mol
 sn= 4  qrot/sn=   51368.9353 T*S(rot)=     7.32 kcal/mol T*S(tot)=    25.41 kcal/mol
 sn= 5  qrot/sn=   41095.1482 T*S(rot)=     7.18 kcal/mol T*S(tot)=    25.28 kcal/mol
 sn= 6  qrot/sn=   34245.9568 T*S(rot)=     7.08 kcal/mol T*S(tot)=    25.17 kcal/mol
 sn= 7  qrot/sn=   29353.6773 T*S(rot)=     6.98 kcal/mol T*S(tot)=    25.08 kcal/mol
 sn= 8  qrot/sn=   25684.4676 T*S(rot)=     6.90 kcal/mol T*S(tot)=    25.00 kcal/mol
 sn= 9  qrot/sn=   22830.6379 T*S(rot)=     6.83 kcal/mol T*S(tot)=    24.93 kcal/mol
 sn=10  qrot/sn=   20547.5741 T*S(rot)=     6.77 kcal/mol T*S(tot)=    24.87 kcal/mol
 sn=11  qrot/sn=   18679.6128 T*S(rot)=     6.72 kcal/mol T*S(tot)=    24.81 kcal/mol
 sn=12  qrot/sn=   17122.9784 T*S(rot)=     6.66 kcal/mol T*S(tot)=    24.76 kcal/mol

-------------------
GIBBS FREE ENTHALPY
-------------------

The Gibbs free enthalpy is G = H - T*S

Total enthalpy                    ...   -253.06718220 Eh
Total entropy correction          ...     -0.04076359 Eh    -25.58 kcal/mol
-----------------------------------------------------------------------
Final Gibbs free enthalpy         ...   -253.10794580 Eh

For completeness - the Gibbs free enthalpy minus the electronic energy
G-E(el)                           ...      0.16113514 Eh    101.11 kcal/mol

                             ****ORCA TERMINATED NORMALLY****
TOTAL RUN TIME: 0 days 0 hours 26 minutes 45 seconds 15 msec
