                         Program Version 3.0.3 - RELEASE   -
|  1> ! NORI PBE0 def2-TZVP UseSym TightOPT Freq TightSCF Grid3 FinalGrid5 XYZFile
|  2> % pal
|  3>     nprocs 8
|  4> end
|  5> %method
|  6>     SymThresh 5.0e-2
|  7> end
|  8> % geom
|  9>     MaxIter 10
| 10> end
| 11> % maxcore 2000
| 12> % output
| 13>     printlevel mini
| 14>     print[ P_Basis ] 0
| 15>     print[ P_SCFInfo ] 1
| 16>     print[ P_SCFIterInfo ] 1
| 17>     print[ P_OrbEn ] 0
| 18>     print[ P_Cartesian ] 0
| 19> end
| 20> % elprop
| 21>     Dipole false
| 22> end
| 23> *xyz 1 1
| 24>  C        1.0160204993     0.3150630297     0.0605804955
| 25>  C        2.5224984701     0.2575842510     0.1149862457
| 26>  N        3.0455851012    -0.9335061450    -0.6291035286
| 27>  C        4.5462230574    -1.0765576767    -0.6413933312
| 28>  C        4.9512758779    -2.2879665155    -1.4065347008
| 29>  C        5.6006804732    -2.2246615251    -2.5600076992
| 30>  H        0.6730940602     1.1928719057     0.6093806600
| 31>  H        0.5570131091    -0.5603689642     0.5260008025
| 32>  H        0.6478976956     0.4063775509    -0.9638410674
| 33>  H        2.9841787467     1.1334579732    -0.3431025827
| 34>  H        2.8947569056     0.1711721015     1.1364743044
| 35>  H        2.6348454624    -1.7820286251    -0.2329567770
| 36>  H        2.7197653956    -0.9012551423    -1.5981012339
| 37>  H        4.9427039506    -0.1638253439    -1.0866539066
| 38>  H        4.8544347131    -1.1198982010     0.4055340415
| 39>  H        4.7177282251    -3.2528385605    -0.9619806383
| 40>  H        5.8766408308    -1.2770695746    -3.0125108543
| 41>  H        5.9004974261    -3.1227605383    -3.0861102298
| 42> *
| 43>
| 44>                          ****END OF INPUT****
 Total Charge           Charge          ....    1
 Multiplicity           Mult            ....    1
 Number of Electrons    NEL             ....   48
FINAL SINGLE POINT ENERGY      -252.029652430052

CARTESIAN COORDINATES (ANGSTROEM)
---------------------------------
  C      1.146487   -0.000614    2.744675
  C      1.119988   -0.581504    1.352539
  N      0.000593    0.001249    0.544031
  C     -0.106931   -0.511876   -0.869464
  C     -1.248647    0.131903   -1.576211
  C     -1.084934    0.973655   -2.586749
  H      1.972156   -0.446238    3.300579
  H      0.227993   -0.217561    3.295122
  H      1.306418    1.080057    2.732990
  H      2.038253   -0.372374    0.802152
  H      0.965361   -1.661351    1.359791
  H     -0.884456   -0.169410    1.026879
  H      0.098208    1.018805    0.508137
  H      0.845485   -0.293820   -1.353535
  H     -0.220840   -1.595283   -0.789812
  H     -2.248959   -0.141251   -1.247729
  H     -0.100176    1.240392   -2.958356
  H     -1.934386    1.412470   -3.095819

FINAL SINGLE POINT ENERGY      -252.029653104922
                    ***********************HURRAY********************
 Multiplicity           Mult            ....    1
 Number of Electrons    NEL             ....   48
 Basis Dimension        Dim             ....  258
FINAL SINGLE POINT ENERGY      -252.029653518699

VIBRATIONAL FREQUENCIES
-----------------------

   0:         0.00 cm**-1
   1:         0.00 cm**-1
   2:         0.00 cm**-1
   3:         0.00 cm**-1
   4:         0.00 cm**-1
   5:         0.00 cm**-1
   6:        72.72 cm**-1
   7:        80.82 cm**-1
   8:       125.15 cm**-1
   9:       181.22 cm**-1
  10:       250.85 cm**-1
  11:       360.08 cm**-1
  12:       371.45 cm**-1
  13:       454.72 cm**-1
  14:       659.37 cm**-1
  15:       778.71 cm**-1
  16:       826.45 cm**-1
  17:       895.41 cm**-1
  18:       935.37 cm**-1
  19:       971.98 cm**-1
  20:       984.96 cm**-1
  21:      1020.37 cm**-1
  22:      1031.10 cm**-1
  23:      1050.21 cm**-1
  24:      1080.00 cm**-1
  25:      1137.67 cm**-1
  26:      1209.23 cm**-1
  27:      1255.52 cm**-1
  28:      1314.19 cm**-1
  29:      1333.30 cm**-1
  30:      1356.16 cm**-1
  31:      1394.91 cm**-1
  32:      1399.65 cm**-1
  33:      1421.05 cm**-1
  34:      1427.75 cm**-1
  35:      1459.64 cm**-1
  36:      1481.47 cm**-1
  37:      1488.62 cm**-1
  38:      1489.15 cm**-1
  39:      1506.62 cm**-1
  40:      1654.13 cm**-1
  41:      1724.28 cm**-1
  42:      3059.88 cm**-1
  43:      3088.00 cm**-1
  44:      3098.04 cm**-1
  45:      3129.89 cm**-1
  46:      3148.07 cm**-1
  47:      3153.61 cm**-1
  48:      3158.79 cm**-1
  49:      3160.02 cm**-1
  50:      3168.44 cm**-1
  51:      3256.98 cm**-1
  52:      3431.80 cm**-1
  53:      3482.83 cm**-1

IR SPECTRUM
-----------

 Mode    freq (cm**-1)   T**2         TX         TY         TZ
-------------------------------------------------------------------
   6:        72.72    1.186061  (  0.751176   0.780463   0.112575)
   7:        80.82    1.729202  ( -0.932180  -0.833065   0.407732)
   8:       125.15    5.662700  (  1.389823   1.501873  -1.214689)
   9:       181.22    3.172423  ( -0.598632   1.675214   0.087867)
  10:       250.85    0.738379  ( -0.452964  -0.678036   0.271052)
  11:       360.08    0.353558  (  0.395182  -0.442153  -0.043474)
  12:       371.45    3.324076  (  1.275039  -0.494157   1.205886)
  13:       454.72    3.264487  ( -0.392424   0.271525  -1.742632)
  14:       659.37   22.348392  (  0.747262   2.995236   3.580301)
  15:       778.71   12.915060  ( -2.196156  -2.563863   1.232301)
  16:       826.45    0.712440  (  0.476486   0.256656  -0.647711)
  17:       895.41    1.196311  (  0.593578   0.402798   0.825670)
  18:       935.37    1.636070  (  0.288291   0.457691   1.159085)
  19:       971.98   27.276723  (  1.457862   0.491151   4.991005)
  20:       984.96   26.890195  (  2.210575   0.340544   4.678417)
  21:      1020.37   57.043908  (  0.699486   5.300232   5.334995)
  22:      1031.10    4.702637  (  0.707542  -2.049047   0.058537)
  23:      1050.21   13.708811  (  2.432646  -1.296344   2.471951)
  24:      1080.00    4.144115  ( -1.088781  -0.069693  -1.718666)
  25:      1137.67   11.861318  ( -2.426645   2.097766  -1.253829)
  26:      1209.23    0.742351  (  0.789303  -0.299835   0.171609)
  27:      1255.52    1.234645  (  0.276071   0.937887  -0.528012)
  28:      1314.19    5.826765  ( -1.453830  -0.695347  -1.797119)
  29:      1333.30   11.117130  (  0.192054  -0.810346   3.228558)
  30:      1356.16    8.618425  ( -1.489457  -2.337015   0.968663)
  31:      1394.91    2.490431  ( -1.309838  -0.747804  -0.464268)
  32:      1399.65   13.204377  ( -1.382177   0.340398  -3.343365)
  33:      1421.05  115.190729  (  4.578988  -1.256319   9.625241)
  34:      1427.75    2.557420  ( -0.878630   1.236357   0.506803)
  35:      1459.64   18.684496  (  0.202993  -2.808244   3.279795)
  36:      1481.47    5.815854  (  2.186726  -0.596615   0.823488)
  37:      1488.62   13.721814  ( -2.600817  -2.068238   1.637058)
  38:      1489.15    4.806809  ( -0.824131  -2.029982   0.082412)
  39:      1506.62   18.751835  (  2.471977  -2.656599  -2.362974)
  40:      1654.13   39.654028  ( -3.953266   4.471749   2.007282)
  41:      1724.28    1.183611  ( -0.614402  -0.268211  -0.856845)
  42:      3059.88    3.040761  (  1.304269  -1.143499  -0.179040)
  43:      3088.00    2.643438  (  1.054922  -0.684164   1.030775)
  44:      3098.04    3.168618  (  0.619360  -1.101820  -1.253397)
  45:      3129.89    2.620945  ( -0.983025  -1.180443   0.511040)
  46:      3148.07    0.025134  (  0.139172  -0.000333   0.075925)
  47:      3153.61    0.788859  ( -0.264343   0.516620   0.672373)
  48:      3158.79    2.332882  ( -0.846310  -1.163728   0.512228)
  49:      3160.02    1.914501  ( -1.382287   0.026063  -0.055711)
  50:      3168.44    0.540618  (  0.512160   0.250627  -0.464216)
  51:      3256.98    0.264301  ( -0.050956   0.297378  -0.416258)
  52:      3431.80   30.091162  (  3.333654  -3.769558  -2.183655)
  53:      3482.83   56.539895  (  4.575863   5.367317  -2.606392)

--------------------------
THERMOCHEMISTRY AT 298.15K
--------------------------

Temperature         ... 298.15 K
Pressure            ... 1.00 atm
Total Mass          ... 86.16 AMU

Throughout the following assumptions are being made:
  (1) The electronic state is orbitally nondegenerate
  (2) There are no thermally accessible electronically excited states
  (3) Hindered rotations indicated by low frequency modes) are not
      treated as such but are treated as vibrations and this may
      case some error
  (4) All equations used are the standard statistical mechanics
      equations for an ideal gas
  (5) All vibrations are strinctly harmonic

------------
INNER ENERGY
------------

The inner energy is: U= E(el) + E(ZPE) + E(vib) + E(rot) + E(trans)
    E(el)   - is the total energy from the electronic structure calculation
              = E(kin-el) + E(nuc-el) + E(el-el) + E(nuc-nuc)
    E(ZPE)  - the the zero temperature vibrational energy from the frequency calculation
    E(vib)  - the the finite temperature correction to E(ZPE) due to population
              of excietd vibrational states
    E(rot)  - is the rotational thermal energy
    E(trans)- is the translational thermal energy

Summary of contributions to the inner energy U:
Electronic energy                ...   -252.02965352 Eh
Zero point energy                ...      0.16977044 Eh     106.53 kcal/mol
Thermal vibrational correction   ...      0.00500406 Eh       3.14 kcal/mol
Thermal rotational correction    ...      0.00141627 Eh       0.89 kcal/mol
Thermal translational correction ...      0.00141627 Eh       0.89 kcal/mol
-----------------------------------------------------------------------
Total thermal energy                   -251.85204648 Eh

Summary of corrections to the electronic energy:
(perhaps to be used in another calculation)
Total thermal correction                  0.00783660 Eh       4.92 kcal/mol
Non-thermal (ZPE) correction              0.16977044 Eh     106.53 kcal/mol
-----------------------------------------------------------------------
Total correction                          0.17760704 Eh     111.45 kcal/mol

--------
ENTHALPY
--------

The enthalpy is H = U + kB*T
                kB is Boltzmann's constant
Total free energy                 ...   -251.85204648 Eh
Thermal Enthalpy correction       ...      0.00094421 Eh       0.59 kcal/mol
-----------------------------------------------------------------------
Total Enthalpy                    ...   -251.85110227 Eh

-------
ENTROPY
-------

The entropy contributions are T*S = T*(S(el)+S(vib)+S(rot)+S(trans)
     S(el)   - electronic entropy
     S(vib)  - vibrational entropy
     S(rot)  - rotational entropy
     S(trans)- translational entropy
The entropies will be listed as mutliplied by the temperature to get
units of energy

Electronic entropy                ...      0.00000000 Eh      0.00 kcal/mol
Vibrational entropy               ...      0.00944396 Eh      5.93 kcal/mol
Rotational entropy                ...      0.01184576 Eh      7.43 kcal/mol
Translational entropy             ...      0.01866024 Eh     11.71 kcal/mol
-----------------------------------------------------------------------
Final entropy term                ...      0.03994996 Eh     25.07 kcal/mol

CAUTION: The rotational entropy is not quite correctly treated here
         because it includes a symmetry number that is not yet correctly
         implemented in ORCA!
For a nonlinear molecule the correct rotational entropy is:
    S(rot) = R*(ln(qrot/sn)+1.5)
    R    = 8.31441 J/mol/K = 1.987191683e-3 kcal/mol/K
    qrot = 188091.8806934
    sn is the rotational symmetry number. We have assumed 3 here
       if it is different for your molecule then you should correct
       the printed rotational entropy by manually evaluating the equation
       as given above

For convenience we print out the resulting values for sn=1 - 12:
 sn= 1  qrot/sn=  188091.8807 T*S(rot)=     8.08 kcal/mol T*S(tot)=    25.72 kcal/mol
 sn= 2  qrot/sn=   94045.9403 T*S(rot)=     7.67 kcal/mol T*S(tot)=    25.31 kcal/mol
 sn= 3  qrot/sn=   62697.2936 T*S(rot)=     7.43 kcal/mol T*S(tot)=    25.07 kcal/mol
 sn= 4  qrot/sn=   47022.9702 T*S(rot)=     7.26 kcal/mol T*S(tot)=    24.90 kcal/mol
 sn= 5  qrot/sn=   37618.3761 T*S(rot)=     7.13 kcal/mol T*S(tot)=    24.77 kcal/mol
 sn= 6  qrot/sn=   31348.6468 T*S(rot)=     7.02 kcal/mol T*S(tot)=    24.66 kcal/mol
 sn= 7  qrot/sn=   26870.2687 T*S(rot)=     6.93 kcal/mol T*S(tot)=    24.57 kcal/mol
 sn= 8  qrot/sn=   23511.4851 T*S(rot)=     6.85 kcal/mol T*S(tot)=    24.49 kcal/mol
 sn= 9  qrot/sn=   20899.0979 T*S(rot)=     6.78 kcal/mol T*S(tot)=    24.42 kcal/mol
 sn=10  qrot/sn=   18809.1881 T*S(rot)=     6.72 kcal/mol T*S(tot)=    24.36 kcal/mol
 sn=11  qrot/sn=   17099.2619 T*S(rot)=     6.66 kcal/mol T*S(tot)=    24.30 kcal/mol
 sn=12  qrot/sn=   15674.3234 T*S(rot)=     6.61 kcal/mol T*S(tot)=    24.25 kcal/mol

-------------------
GIBBS FREE ENTHALPY
-------------------

The Gibbs free enthalpy is G = H - T*S

Total enthalpy                    ...   -251.85110227 Eh
Total entropy correction          ...     -0.03994996 Eh    -25.07 kcal/mol
-----------------------------------------------------------------------
Final Gibbs free enthalpy         ...   -251.89105222 Eh

For completeness - the Gibbs free enthalpy minus the electronic energy
G-E(el)                           ...      0.13860130 Eh     86.97 kcal/mol

                             ****ORCA TERMINATED NORMALLY****
TOTAL RUN TIME: 0 days 0 hours 18 minutes 55 seconds 893 msec
