                         Program Version 3.0.3 - RELEASE   -
|  1> ! NORI PBE0 def2-TZVP UseSym TightOPT Freq TightSCF Grid3 FinalGrid5 XYZFile
|  2> % pal
|  3>     nprocs 8
|  4> end
|  5> %method
|  6>     SymThresh 5.0e-2
|  7> end
|  8> % geom
|  9>     MaxIter 10
| 10> end
| 11> % maxcore 2000
| 12> % output
| 13>     printlevel mini
| 14>     print[ P_Basis ] 0
| 15>     print[ P_SCFInfo ] 1
| 16>     print[ P_SCFIterInfo ] 1
| 17>     print[ P_OrbEn ] 0
| 18>     print[ P_Cartesian ] 0
| 19> end
| 20> % elprop
| 21>     Dipole false
| 22> end
| 23> *xyz 1 1
| 24>  C        1.5252816073     0.7689117868     0.1346354513
| 25>  C        2.9886720174     0.5006172124    -0.1161348272
| 26>  N        3.3472892365    -0.9087522395     0.2522334154
| 27>  C        4.7891822329    -1.2739802791     0.0252275000
| 28>  C        5.0221089910    -2.6459892220     0.4101146336
| 29>  C        5.1978765346    -3.7871389039     0.7295440542
| 30>  H        1.3019461481     1.7998041754    -0.1421474053
| 31>  H        1.2637551439     0.6498005783     1.1887408486
| 32>  H        0.8825430571     0.1231217754    -0.4675340979
| 33>  H        3.6338542526     1.1483986714     0.4786636619
| 34>  H        3.2551697695     0.6216589102    -1.1672015480
| 35>  H        2.7619209876    -1.5615448315    -0.2746122635
| 36>  H        3.1227535486    -1.0753187788     1.2363111530
| 37>  H        5.3931616719    -0.5774839224     0.6110495580
| 38>  H        5.0000050185    -1.1054680008    -1.0332593903
| 39>  H        5.3710297825    -4.8019169319     1.0139792561
| 40> *
| 41>
| 42>                          ****END OF INPUT****
 Total Charge           Charge          ....    1
 Multiplicity           Mult            ....    1
 Number of Electrons    NEL             ....   46
FINAL SINGLE POINT ENERGY      -250.770494610370

CARTESIAN COORDINATES (ANGSTROEM)
---------------------------------
  C      2.844857   -0.597745    0.000000
  C      1.431436   -1.125185   -0.000000
  N      0.438678   -0.000776   -0.000000
  C     -1.003495   -0.429863    0.000000
  C     -1.866689    0.727438    0.000000
  C     -2.568856    1.697894   -0.000000
  H      3.536920   -1.440684   -0.000000
  H      3.057673   -0.000618    0.889621
  H      3.057673   -0.000618   -0.889621
  H      1.216252   -1.726313    0.884676
  H      1.216252   -1.726313   -0.884676
  H      0.597387    0.598507   -0.813931
  H      0.597387    0.598507    0.813931
  H     -1.153547   -1.051435    0.885774
  H     -1.153547   -1.051436   -0.885774
  H     -3.207791    2.553685   -0.000000

FINAL SINGLE POINT ENERGY      -250.770495115371
                    ***********************HURRAY********************
 Multiplicity           Mult            ....    1
 Number of Electrons    NEL             ....   46
 Basis Dimension        Dim             ....  246
FINAL SINGLE POINT ENERGY      -250.770495222506

VIBRATIONAL FREQUENCIES
-----------------------

   0:         0.00 cm**-1
   1:         0.00 cm**-1
   2:         0.00 cm**-1
   3:         0.00 cm**-1
   4:         0.00 cm**-1
   5:         0.00 cm**-1
   6:        78.71 cm**-1
   7:       104.66 cm**-1
   8:       117.66 cm**-1
   9:       250.16 cm**-1
  10:       266.20 cm**-1
  11:       328.27 cm**-1
  12:       387.27 cm**-1
  13:       520.85 cm**-1
  14:       728.03 cm**-1
  15:       776.49 cm**-1
  16:       780.38 cm**-1
  17:       830.59 cm**-1
  18:       895.77 cm**-1
  19:       971.79 cm**-1
  20:       979.59 cm**-1
  21:      1012.52 cm**-1
  22:      1047.75 cm**-1
  23:      1137.77 cm**-1
  24:      1148.02 cm**-1
  25:      1250.98 cm**-1
  26:      1322.53 cm**-1
  27:      1351.81 cm**-1
  28:      1392.60 cm**-1
  29:      1404.77 cm**-1
  30:      1424.61 cm**-1
  31:      1430.85 cm**-1
  32:      1475.64 cm**-1
  33:      1484.02 cm**-1
  34:      1488.58 cm**-1
  35:      1505.54 cm**-1
  36:      1654.85 cm**-1
  37:      2259.46 cm**-1
  38:      3061.11 cm**-1
  39:      3082.72 cm**-1
  40:      3096.28 cm**-1
  41:      3131.31 cm**-1
  42:      3133.30 cm**-1
  43:      3153.72 cm**-1
  44:      3158.53 cm**-1
  45:      3429.75 cm**-1
  46:      3453.45 cm**-1
  47:      3478.60 cm**-1

IR SPECTRUM
-----------

 Mode    freq (cm**-1)   T**2         TX         TY         TZ
-------------------------------------------------------------------
   6:        78.71    1.021534  ( -0.000213   0.000355   1.010709)
   7:       104.66    6.565422  ( -0.000124   0.000149  -2.562308)
   8:       117.66    0.236731  (  0.305501   0.378682  -0.000064)
   9:       250.16    0.145654  (  0.000076  -0.000090  -0.381646)
  10:       266.20    7.323455  ( -0.594124  -2.640165  -0.000140)
  11:       328.27   19.749858  ( -0.000311   0.000529  -4.444081)
  12:       387.27    0.220205  ( -0.464667  -0.065491   0.000070)
  13:       520.85   34.793581  (  5.795378   1.098717  -0.000007)
  14:       728.03   40.818076  (  0.000007   0.000050  -6.388903)
  15:       776.49   29.471280  ( -3.963179  -3.710053  -0.000003)
  16:       780.38   13.884826  ( -0.000009   0.000020   3.726235)
  17:       830.59    0.219874  ( -0.000002  -0.000059   0.468908)
  18:       895.77    1.900219  ( -1.325138   0.379773  -0.000003)
  19:       971.79   29.364358  ( -5.410060   0.309205  -0.000016)
  20:       979.59    0.241328  ( -0.000204   0.000156   0.491251)
  21:      1012.52   16.133160  (  3.754260  -1.427827   0.000007)
  22:      1047.75   13.456741  ( -2.678961   2.505975  -0.000005)
  23:      1137.77   14.779527  ( -2.125750   3.203235   0.000030)
  24:      1148.02    1.154818  (  0.000130  -0.000122   1.074625)
  25:      1250.98    0.929360  (  0.000055  -0.000103  -0.964033)
  26:      1322.53    7.781591  ( -2.681228  -0.769809  -0.000130)
  27:      1351.81    8.132566  (  0.000433  -0.000219  -2.851765)
  28:      1392.60    1.159544  ( -0.000419   0.000310  -1.076821)
  29:      1404.77   12.406308  ( -2.928465   1.957142   0.000003)
  30:      1424.61   99.498492  ( -9.530993   2.942560  -0.000012)
  31:      1430.85   44.198491  ( -4.991446   4.391350  -0.000019)
  32:      1475.64    6.562834  ( -0.430441   2.525382  -0.000000)
  33:      1484.02    2.510547  ( -1.563941   0.254238  -0.000013)
  34:      1488.58   16.637724  (  0.000003   0.000043   4.078937)
  35:      1505.54   18.093434  (  2.082334   3.709086  -0.000026)
  36:      1654.85   39.842812  (  1.642393   6.094699   0.000001)
  37:      2259.46   32.349298  ( -4.217452   3.816070  -0.000003)
  38:      3061.11    2.846022  ( -0.235093   1.670555   0.000010)
  39:      3082.72    2.663450  ( -1.573641   0.432557  -0.000004)
  40:      3096.28    2.645703  ( -1.268066  -1.018682  -0.000011)
  41:      3131.31    0.635449  ( -0.000053   0.000094   0.797150)
  42:      3133.30    2.787626  (  0.000117  -0.000181   1.669619)
  43:      3153.72    0.835246  (  0.804772   0.433114   0.000001)
  44:      3158.53    2.283264  ( -0.000001  -0.000008  -1.511047)
  45:      3429.75   33.896243  ( -2.161823  -5.405809  -0.000002)
  46:      3453.45   98.679679  (  6.084495  -7.852299  -0.000002)
  47:      3478.60   68.532535  (  0.000003  -0.000010   8.278438)

--------------------------
THERMOCHEMISTRY AT 298.15K
--------------------------

Temperature         ... 298.15 K
Pressure            ... 1.00 atm
Total Mass          ... 84.14 AMU

Throughout the following assumptions are being made:
  (1) The electronic state is orbitally nondegenerate
  (2) There are no thermally accessible electronically excited states
  (3) Hindered rotations indicated by low frequency modes) are not
      treated as such but are treated as vibrations and this may
      case some error
  (4) All equations used are the standard statistical mechanics
      equations for an ideal gas
  (5) All vibrations are strinctly harmonic

------------
INNER ENERGY
------------

The inner energy is: U= E(el) + E(ZPE) + E(vib) + E(rot) + E(trans)
    E(el)   - is the total energy from the electronic structure calculation
              = E(kin-el) + E(nuc-el) + E(el-el) + E(nuc-nuc)
    E(ZPE)  - the the zero temperature vibrational energy from the frequency calculation
    E(vib)  - the the finite temperature correction to E(ZPE) due to population
              of excietd vibrational states
    E(rot)  - is the rotational thermal energy
    E(trans)- is the translational thermal energy

Summary of contributions to the inner energy U:
Electronic energy                ...   -250.77049522 Eh
Zero point energy                ...      0.14577419 Eh      91.47 kcal/mol
Thermal vibrational correction   ...      0.00474077 Eh       2.97 kcal/mol
Thermal rotational correction    ...      0.00141627 Eh       0.89 kcal/mol
Thermal translational correction ...      0.00141627 Eh       0.89 kcal/mol
-----------------------------------------------------------------------
Total thermal energy                   -250.61714772 Eh

Summary of corrections to the electronic energy:
(perhaps to be used in another calculation)
Total thermal correction                  0.00757331 Eh       4.75 kcal/mol
Non-thermal (ZPE) correction              0.14577419 Eh      91.47 kcal/mol
-----------------------------------------------------------------------
Total correction                          0.15334750 Eh      96.23 kcal/mol

--------
ENTHALPY
--------

The enthalpy is H = U + kB*T
                kB is Boltzmann's constant
Total free energy                 ...   -250.61714772 Eh
Thermal Enthalpy correction       ...      0.00094421 Eh       0.59 kcal/mol
-----------------------------------------------------------------------
Total Enthalpy                    ...   -250.61620351 Eh

-------
ENTROPY
-------

The entropy contributions are T*S = T*(S(el)+S(vib)+S(rot)+S(trans)
     S(el)   - electronic entropy
     S(vib)  - vibrational entropy
     S(rot)  - rotational entropy
     S(trans)- translational entropy
The entropies will be listed as mutliplied by the temperature to get
units of energy

Electronic entropy                ...      0.00000000 Eh      0.00 kcal/mol
Vibrational entropy               ...      0.00874130 Eh      5.49 kcal/mol
Rotational entropy                ...      0.01176058 Eh      7.38 kcal/mol
Translational entropy             ...      0.01862670 Eh     11.69 kcal/mol
-----------------------------------------------------------------------
Final entropy term                ...      0.03912859 Eh     24.55 kcal/mol

CAUTION: The rotational entropy is not quite correctly treated here
         because it includes a symmetry number that is not yet correctly
         implemented in ORCA!
For a nonlinear molecule the correct rotational entropy is:
    S(rot) = R*(ln(qrot/sn)+1.5)
    R    = 8.31441 J/mol/K = 1.987191683e-3 kcal/mol/K
    qrot = 171865.2723308
    sn is the rotational symmetry number. We have assumed 3 here
       if it is different for your molecule then you should correct
       the printed rotational entropy by manually evaluating the equation
       as given above

For convenience we print out the resulting values for sn=1 - 12:
 sn= 1  qrot/sn=  171865.2723 T*S(rot)=     8.03 kcal/mol T*S(tot)=    25.20 kcal/mol
 sn= 2  qrot/sn=   85932.6362 T*S(rot)=     7.62 kcal/mol T*S(tot)=    24.79 kcal/mol
 sn= 3  qrot/sn=   57288.4241 T*S(rot)=     7.38 kcal/mol T*S(tot)=    24.55 kcal/mol
 sn= 4  qrot/sn=   42966.3181 T*S(rot)=     7.21 kcal/mol T*S(tot)=    24.38 kcal/mol
 sn= 5  qrot/sn=   34373.0545 T*S(rot)=     7.08 kcal/mol T*S(tot)=    24.25 kcal/mol
 sn= 6  qrot/sn=   28644.2121 T*S(rot)=     6.97 kcal/mol T*S(tot)=    24.14 kcal/mol
 sn= 7  qrot/sn=   24552.1818 T*S(rot)=     6.88 kcal/mol T*S(tot)=    24.05 kcal/mol
 sn= 8  qrot/sn=   21483.1590 T*S(rot)=     6.80 kcal/mol T*S(tot)=    23.97 kcal/mol
 sn= 9  qrot/sn=   19096.1414 T*S(rot)=     6.73 kcal/mol T*S(tot)=    23.90 kcal/mol
 sn=10  qrot/sn=   17186.5272 T*S(rot)=     6.67 kcal/mol T*S(tot)=    23.84 kcal/mol
 sn=11  qrot/sn=   15624.1157 T*S(rot)=     6.61 kcal/mol T*S(tot)=    23.78 kcal/mol
 sn=12  qrot/sn=   14322.1060 T*S(rot)=     6.56 kcal/mol T*S(tot)=    23.73 kcal/mol

-------------------
GIBBS FREE ENTHALPY
-------------------

The Gibbs free enthalpy is G = H - T*S

Total enthalpy                    ...   -250.61620351 Eh
Total entropy correction          ...     -0.03912859 Eh    -24.55 kcal/mol
-----------------------------------------------------------------------
Final Gibbs free enthalpy         ...   -250.65533210 Eh

For completeness - the Gibbs free enthalpy minus the electronic energy
G-E(el)                           ...      0.11516313 Eh     72.27 kcal/mol

                             ****ORCA TERMINATED NORMALLY****
TOTAL RUN TIME: 0 days 0 hours 16 minutes 21 seconds 74 msec
