                         Program Version 3.0.3 - RELEASE   -
|  1> ! NORI PBE0 def2-TZVP UseSym TightOPT Freq TightSCF Grid3 FinalGrid5 XYZFile
|  2> % pal
|  3>     nprocs 8
|  4> end
|  5> %method
|  6>     SymThresh 5.0e-2
|  7> end
|  8> % geom
|  9>     MaxIter 10
| 10> end
| 11> % maxcore 2000
| 12> % output
| 13>     printlevel mini
| 14>     print[ P_Basis ] 0
| 15>     print[ P_SCFInfo ] 1
| 16>     print[ P_SCFIterInfo ] 1
| 17>     print[ P_OrbEn ] 0
| 18>     print[ P_Cartesian ] 0
| 19> end
| 20> % elprop
| 21>     Dipole false
| 22> end
| 23> *xyz 1 1
| 24>  C        1.0110914074     0.1096484948    -0.3420952223
| 25>  C        2.5079589058     0.0382697369    -0.1765302107
| 26>  N        2.8669743037    -0.4945844608     1.1853261508
| 27>  C        4.3389246109    -0.5977771416     1.4395923720
| 28>  C        4.5712065386    -1.1228775686     2.7724422176
| 29>  N        4.7018669841    -1.5405615948     3.8337352282
| 30>  H        0.7869627886     0.4987033893    -1.3360803215
| 31>  H        0.5505334371     0.7840804213     0.3834846032
| 32>  H        0.5424873625    -0.8742837065    -0.2651764497
| 33>  H        2.9805277327     1.0183605758    -0.2561658336
| 34>  H        2.9734140206    -0.6322908403    -0.9002510224
| 35>  H        2.4402690211    -1.4173712043     1.3097288536
| 36>  H        2.4439520963     0.1009122657     1.9031074867
| 37>  H        4.7746721824     0.3976166602     1.3321923186
| 38>  H        4.7704686081    -1.2541350271     0.6812398295
| 39> *
| 40>
| 41>                          ****END OF INPUT****
 Total Charge           Charge          ....    1
 Multiplicity           Mult            ....    1
 Number of Electrons    NEL             ....   46
FINAL SINGLE POINT ENERGY      -266.841688369586
                    ***********************HURRAY********************
 Multiplicity           Mult            ....    1
 Number of Electrons    NEL             ....   46
 Basis Dimension        Dim             ....  240
FINAL SINGLE POINT ENERGY      -266.841688621065

VIBRATIONAL FREQUENCIES
-----------------------

   0:         0.00 cm**-1
   1:         0.00 cm**-1
   2:         0.00 cm**-1
   3:         0.00 cm**-1
   4:         0.00 cm**-1
   5:         0.00 cm**-1
   6:        78.61 cm**-1
   7:       105.81 cm**-1
   8:       120.73 cm**-1
   9:       250.40 cm**-1
  10:       272.15 cm**-1
  11:       363.03 cm**-1
  12:       389.14 cm**-1
  13:       549.61 cm**-1
  14:       781.45 cm**-1
  15:       832.87 cm**-1
  16:       889.34 cm**-1
  17:       965.43 cm**-1
  18:       980.42 cm**-1
  19:      1019.52 cm**-1
  20:      1038.60 cm**-1
  21:      1137.50 cm**-1
  22:      1155.83 cm**-1
  23:      1251.32 cm**-1
  24:      1326.78 cm**-1
  25:      1353.18 cm**-1
  26:      1398.59 cm**-1
  27:      1406.35 cm**-1
  28:      1426.18 cm**-1
  29:      1437.87 cm**-1
  30:      1469.87 cm**-1
  31:      1482.48 cm**-1
  32:      1487.54 cm**-1
  33:      1504.04 cm**-1
  34:      1654.83 cm**-1
  35:      2402.74 cm**-1
  36:      3061.37 cm**-1
  37:      3094.07 cm**-1
  38:      3096.98 cm**-1
  39:      3133.16 cm**-1
  40:      3149.70 cm**-1
  41:      3153.58 cm**-1
  42:      3159.83 cm**-1
  43:      3420.17 cm**-1
  44:      3467.40 cm**-1

IR SPECTRUM
-----------

 Mode    freq (cm**-1)   T**2         TX         TY         TZ
-------------------------------------------------------------------
   6:        78.61   10.811982  (  0.000052   0.000021  -3.288158)
   7:       105.81    6.064720  (  0.000072   0.000041   2.462665)
   8:       120.73   14.195730  (  3.072894   2.180149  -0.000010)
   9:       250.40    1.118758  (  0.000009  -0.000011  -1.057714)
  10:       272.15    6.242341  (  2.085974  -1.375155   0.000008)
  11:       363.03    0.151060  ( -0.000005   0.000005  -0.388664)
  12:       389.14    2.431400  (  1.243192   0.941208   0.000000)
  13:       549.61   10.632148  (  3.224120  -0.487029   0.000000)
  14:       781.45   15.285227  (  0.000001  -0.000002   3.909633)
  15:       832.87    1.017723  (  0.000002  -0.000001   1.008823)
  16:       889.34    0.183890  ( -0.278760   0.325858   0.000000)
  17:       965.43    7.449509  ( -2.691460  -0.453376  -0.000003)
  18:       980.42    0.046741  (  0.000002   0.000005  -0.216197)
  19:      1019.52   29.328465  (  5.237068  -1.378981  -0.000001)
  20:      1038.60   12.977480  ( -2.546469   2.548131   0.000000)
  21:      1137.50   14.957888  (  2.208902  -3.174687  -0.000002)
  22:      1155.83    0.810059  ( -0.000000  -0.000001   0.900033)
  23:      1251.32    0.883122  ( -0.000002   0.000003   0.939746)
  24:      1326.78    8.274370  (  2.868787   0.210790  -0.000001)
  25:      1353.18    8.746518  ( -0.000002   0.000004   2.957451)
  26:      1398.59    0.789433  ( -0.000007   0.000000  -0.888500)
  27:      1406.35    1.600910  (  1.085417  -0.650216  -0.000004)
  28:      1426.18   43.711666  (  6.537748  -0.984643   0.000001)
  29:      1437.87   78.378572  ( -7.532547   4.651807   0.000000)
  30:      1469.87   10.460374  (  0.225025  -3.226413   0.000019)
  31:      1482.48    3.175470  (  1.730928  -0.423509  -0.000016)
  32:      1487.54   17.618692  ( -0.000003  -0.000008  -4.197463)
  33:      1504.04   19.398845  ( -2.184666  -3.824406  -0.000003)
  34:      1654.83   43.668805  (  1.941542   6.316583  -0.000000)
  35:      2402.74    7.988067  ( -2.118904   1.870377   0.000000)
  36:      3061.37    3.120825  (  0.746237  -1.601236   0.000000)
  37:      3094.07    5.435600  ( -1.774310  -1.512423  -0.000000)
  38:      3096.98    0.267135  (  0.420164  -0.300994  -0.000000)
  39:      3133.16    1.315588  ( -0.000001  -0.000002  -1.146991)
  40:      3149.70    6.935024  ( -0.000006   0.000006  -2.633443)
  41:      3153.58    1.313714  (  1.145556   0.037612  -0.000000)
  42:      3159.83    1.114969  (  0.000001   0.000001  -1.055921)
  43:      3420.17   46.186222  (  2.270163   6.405668  -0.000000)
  44:      3467.40   81.329558  (  0.000000  -0.000000   9.018290)

--------------------------
THERMOCHEMISTRY AT 298.15K
--------------------------

Temperature         ... 298.15 K
Pressure            ... 1.00 atm
Total Mass          ... 85.13 AMU

Throughout the following assumptions are being made:
  (1) The electronic state is orbitally nondegenerate
  (2) There are no thermally accessible electronically excited states
  (3) Hindered rotations indicated by low frequency modes) are not
      treated as such but are treated as vibrations and this may
      case some error
  (4) All equations used are the standard statistical mechanics
      equations for an ideal gas
  (5) All vibrations are strinctly harmonic

------------
INNER ENERGY
------------

The inner energy is: U= E(el) + E(ZPE) + E(vib) + E(rot) + E(trans)
    E(el)   - is the total energy from the electronic structure calculation
              = E(kin-el) + E(nuc-el) + E(el-el) + E(nuc-nuc)
    E(ZPE)  - the the zero temperature vibrational energy from the frequency calculation
    E(vib)  - the the finite temperature correction to E(ZPE) due to population
              of excietd vibrational states
    E(rot)  - is the rotational thermal energy
    E(trans)- is the translational thermal energy

Summary of contributions to the inner energy U:
Electronic energy                ...   -266.84168862 Eh
Zero point energy                ...      0.13502352 Eh      84.73 kcal/mol
Thermal vibrational correction   ...      0.00447777 Eh       2.81 kcal/mol
Thermal rotational correction    ...      0.00141627 Eh       0.89 kcal/mol
Thermal translational correction ...      0.00141627 Eh       0.89 kcal/mol
-----------------------------------------------------------------------
Total thermal energy                   -266.69935478 Eh

Summary of corrections to the electronic energy:
(perhaps to be used in another calculation)
Total thermal correction                  0.00731031 Eh       4.59 kcal/mol
Non-thermal (ZPE) correction              0.13502352 Eh      84.73 kcal/mol
-----------------------------------------------------------------------
Total correction                          0.14233384 Eh      89.32 kcal/mol

--------
ENTHALPY
--------

The enthalpy is H = U + kB*T
                kB is Boltzmann's constant
Total free energy                 ...   -266.69935478 Eh
Thermal Enthalpy correction       ...      0.00094421 Eh       0.59 kcal/mol
-----------------------------------------------------------------------
Total Enthalpy                    ...   -266.69841057 Eh

-------
ENTROPY
-------

The entropy contributions are T*S = T*(S(el)+S(vib)+S(rot)+S(trans)
     S(el)   - electronic entropy
     S(vib)  - vibrational entropy
     S(rot)  - rotational entropy
     S(trans)- translational entropy
The entropies will be listed as mutliplied by the temperature to get
units of energy

Electronic entropy                ...      0.00000000 Eh      0.00 kcal/mol
Vibrational entropy               ...      0.00834265 Eh      5.24 kcal/mol
Rotational entropy                ...      0.01174636 Eh      7.37 kcal/mol
Translational entropy             ...      0.01864324 Eh     11.70 kcal/mol
-----------------------------------------------------------------------
Final entropy term                ...      0.03873224 Eh     24.30 kcal/mol

CAUTION: The rotational entropy is not quite correctly treated here
         because it includes a symmetry number that is not yet correctly
         implemented in ORCA!
For a nonlinear molecule the correct rotational entropy is:
    S(rot) = R*(ln(qrot/sn)+1.5)
    R    = 8.31441 J/mol/K = 1.987191683e-3 kcal/mol/K
    qrot = 169296.0295912
    sn is the rotational symmetry number. We have assumed 3 here
       if it is different for your molecule then you should correct
       the printed rotational entropy by manually evaluating the equation
       as given above

For convenience we print out the resulting values for sn=1 - 12:
 sn= 1  qrot/sn=  169296.0296 T*S(rot)=     8.02 kcal/mol T*S(tot)=    24.96 kcal/mol
 sn= 2  qrot/sn=   84648.0148 T*S(rot)=     7.61 kcal/mol T*S(tot)=    24.55 kcal/mol
 sn= 3  qrot/sn=   56432.0099 T*S(rot)=     7.37 kcal/mol T*S(tot)=    24.30 kcal/mol
 sn= 4  qrot/sn=   42324.0074 T*S(rot)=     7.20 kcal/mol T*S(tot)=    24.13 kcal/mol
 sn= 5  qrot/sn=   33859.2059 T*S(rot)=     7.07 kcal/mol T*S(tot)=    24.00 kcal/mol
 sn= 6  qrot/sn=   28216.0049 T*S(rot)=     6.96 kcal/mol T*S(tot)=    23.89 kcal/mol
 sn= 7  qrot/sn=   24185.1471 T*S(rot)=     6.87 kcal/mol T*S(tot)=    23.80 kcal/mol
 sn= 8  qrot/sn=   21162.0037 T*S(rot)=     6.79 kcal/mol T*S(tot)=    23.72 kcal/mol
 sn= 9  qrot/sn=   18810.6700 T*S(rot)=     6.72 kcal/mol T*S(tot)=    23.65 kcal/mol
 sn=10  qrot/sn=   16929.6030 T*S(rot)=     6.66 kcal/mol T*S(tot)=    23.59 kcal/mol
 sn=11  qrot/sn=   15390.5481 T*S(rot)=     6.60 kcal/mol T*S(tot)=    23.53 kcal/mol
 sn=12  qrot/sn=   14108.0025 T*S(rot)=     6.55 kcal/mol T*S(tot)=    23.48 kcal/mol

-------------------
GIBBS FREE ENTHALPY
-------------------

The Gibbs free enthalpy is G = H - T*S

Total enthalpy                    ...   -266.69841057 Eh
Total entropy correction          ...     -0.03873224 Eh    -24.30 kcal/mol
-----------------------------------------------------------------------
Final Gibbs free enthalpy         ...   -266.73714281 Eh

For completeness - the Gibbs free enthalpy minus the electronic energy
G-E(el)                           ...      0.10454581 Eh     65.60 kcal/mol

                             ****ORCA TERMINATED NORMALLY****
TOTAL RUN TIME: 0 days 0 hours 14 minutes 9 seconds 778 msec
