                         Program Version 3.0.3 - RELEASE   -
|  1> ! NORI PBE0 def2-TZVP UseSym TightOPT Freq TightSCF Grid3 FinalGrid5 XYZFile
|  2> % pal
|  3>     nprocs 8
|  4> end
|  5> %method
|  6>     SymThresh 5.0e-2
|  7> end
|  8> % geom
|  9>     MaxIter 10
| 10> end
| 11> % maxcore 2000
| 12> % output
| 13>     printlevel mini
| 14>     print[ P_Basis ] 0
| 15>     print[ P_SCFInfo ] 1
| 16>     print[ P_SCFIterInfo ] 1
| 17>     print[ P_OrbEn ] 0
| 18>     print[ P_Cartesian ] 0
| 19> end
| 20> % elprop
| 21>     Dipole false
| 22> end
| 23> *xyz 1 1
| 24>  C        0.9456767517    -0.5719415718    -0.7475709888
| 25>  C        2.1190733756    -0.0161399527    -0.0097538700
| 26>  N        3.3673678617    -0.2208345778    -0.2562894442
| 27>  N        1.9867608215     0.8361038597     1.0748379030
| 28>  C        0.8012092453     1.2524424898     1.4666601316
| 29>  C        0.8372018935     2.0975485842     2.5645192007
| 30>  H        1.2768342307    -1.2522718749    -1.5304797546
| 31>  H        0.3634919559     0.2257056270    -1.2172894546
| 32>  H        0.2842668722    -1.1253317635    -0.0753575969
| 33>  H        3.4955959387    -0.8234916271    -1.0751700044
| 34>  H       -0.1394838685     0.9739826873     0.9938496892
| 35>  H        1.8025134099     2.3469741707     2.9974953874
| 36>  H       -0.0668084880     2.5121339491     3.0029288015
| 37> *
| 38>
| 39>                          ****END OF INPUT****
 Total Charge           Charge          ....    1
 Multiplicity           Mult            ....    1
 Number of Electrons    NEL             ....   44
FINAL SINGLE POINT ENERGY      -265.525928607537

CARTESIAN COORDINATES (ANGSTROEM)
---------------------------------
  C     -1.874073    0.092867    0.424114
  C     -0.447512    0.034483    0.862136
  N     -0.000009   -0.001148    2.070234
  N      0.609798    0.000448   -0.032907
  C      0.395533   -0.053185   -1.330621
  C      1.554198   -0.079117   -2.090792
  H     -2.534080    0.158422    1.287383
  H     -2.147327   -0.801181   -0.143157
  H     -2.055890    0.965599   -0.208405
  H     -0.762941   -0.008727    2.754294
  H     -0.589544   -0.074314   -1.794523
  H      2.512749   -0.059539   -1.578795
  H      1.530606   -0.116256   -3.176797

FINAL SINGLE POINT ENERGY      -265.525929254135
                    ***********************HURRAY********************
 Multiplicity           Mult            ....    1
 Number of Electrons    NEL             ....   44
 Basis Dimension        Dim             ....  228
FINAL SINGLE POINT ENERGY      -265.525929380683

VIBRATIONAL FREQUENCIES
-----------------------

   0:         0.00 cm**-1
   1:         0.00 cm**-1
   2:         0.00 cm**-1
   3:         0.00 cm**-1
   4:         0.00 cm**-1
   5:         0.00 cm**-1
   6:       -10.42 cm**-1
   7:       131.99 cm**-1
   8:       169.44 cm**-1
   9:       213.45 cm**-1
  10:       388.02 cm**-1
  11:       427.07 cm**-1
  12:       545.87 cm**-1
  13:       570.68 cm**-1
  14:       604.64 cm**-1
  15:       840.32 cm**-1
  16:       860.33 cm**-1
  17:      1006.40 cm**-1
  18:      1017.89 cm**-1
  19:      1048.35 cm**-1
  20:      1065.83 cm**-1
  21:      1127.59 cm**-1
  22:      1147.82 cm**-1
  23:      1275.55 cm**-1
  24:      1346.88 cm**-1
  25:      1373.28 cm**-1
  26:      1410.16 cm**-1
  27:      1468.21 cm**-1
  28:      1471.19 cm**-1
  29:      1488.66 cm**-1
  30:      1526.74 cm**-1
  31:      1640.47 cm**-1
  32:      3060.49 cm**-1
  33:      3129.95 cm**-1
  34:      3150.03 cm**-1
  35:      3161.06 cm**-1
  36:      3170.29 cm**-1
  37:      3268.56 cm**-1
  38:      3460.04 cm**-1

IR SPECTRUM
-----------

 Mode    freq (cm**-1)   T**2         TX         TY         TZ
-------------------------------------------------------------------
   7:       131.99   11.049410  ( -0.017185   3.320947  -0.142910)
   8:       169.44    0.050385  ( -0.077356   0.204899   0.049168)
   9:       213.45    5.532880  ( -1.522452  -0.203482  -1.781464)
  10:       388.02    7.359358  ( -0.523552   0.043103   2.661465)
  11:       427.07    2.368685  ( -0.525598  -1.261566   0.707731)
  12:       545.87   15.395043  ( -1.023630  -0.343251   3.772188)
  13:       570.68   11.991842  (  2.763673  -0.039288  -2.086243)
  14:       604.64   19.984167  (  0.079454  -4.461410  -0.271432)
  15:       840.32    3.928577  ( -0.161846  -0.752371   1.826560)
  16:       860.33   16.635531  (  0.961053   3.806035  -1.107251)
  17:      1006.40    2.487399  (  0.394759  -0.035591   1.526531)
  18:      1017.89   51.430532  (  0.436836   7.077847  -1.069483)
  19:      1048.35   16.742891  ( -1.104903   0.011949  -3.939789)
  20:      1065.83    3.951641  ( -0.365155  -1.953561   0.043592)
  21:      1127.59    8.756348  (  1.237896  -0.176382   2.681949)
  22:      1147.82   10.941875  ( -0.002832  -3.292975   0.313344)
  23:      1275.55  200.720932  (  8.273754  -0.424483 -11.492856)
  24:      1346.88   67.941046  ( -2.241302   0.063258  -7.931810)
  25:      1373.28   34.532880  (  2.400022  -0.103100   5.363035)
  26:      1410.16   48.810435  (  4.414944   0.042206   5.414510)
  27:      1468.21   18.548768  ( -0.074009  -4.080228   1.376602)
  28:      1471.19   18.299128  ( -4.256664  -0.382696  -0.182994)
  29:      1488.66  394.451704  ( 11.165860  -0.801857 -16.405252)
  30:      1526.74  249.603598  (  7.962390  -0.676498 -13.628877)
  31:      1640.47   39.266998  (  5.154906  -0.255872   3.553656)
  32:      3060.49    1.972873  ( -1.404383   0.023937   0.003136)
  33:      3129.95    0.054436  ( -0.094781  -0.210561   0.033415)
  34:      3150.03   15.100900  (  3.268460  -0.053589  -2.101237)
  35:      3161.06    0.946595  ( -0.966250  -0.025566  -0.110916)
  36:      3170.29    0.308439  (  0.159668  -0.008665  -0.531855)
  37:      3268.56   19.811310  (  2.757044   0.130447   3.491848)
  38:      3460.04   65.485389  ( -2.691915  -0.072552   7.631102)

--------------------------
THERMOCHEMISTRY AT 298.15K
--------------------------

Temperature         ... 298.15 K
Pressure            ... 1.00 atm
Total Mass          ... 83.11 AMU

Throughout the following assumptions are being made:
  (1) The electronic state is orbitally nondegenerate
  (2) There are no thermally accessible electronically excited states
  (3) Hindered rotations indicated by low frequency modes) are not
      treated as such but are treated as vibrations and this may
      case some error
  (4) All equations used are the standard statistical mechanics
      equations for an ideal gas
  (5) All vibrations are strinctly harmonic

------------
INNER ENERGY
------------

The inner energy is: U= E(el) + E(ZPE) + E(vib) + E(rot) + E(trans)
    E(el)   - is the total energy from the electronic structure calculation
              = E(kin-el) + E(nuc-el) + E(el-el) + E(nuc-nuc)
    E(ZPE)  - the the zero temperature vibrational energy from the frequency calculation
    E(vib)  - the the finite temperature correction to E(ZPE) due to population
              of excietd vibrational states
    E(rot)  - is the rotational thermal energy
    E(trans)- is the translational thermal energy

Summary of contributions to the inner energy U:
Electronic energy                ...   -265.52592938 Eh
Zero point energy                ...      0.10608800 Eh      66.57 kcal/mol
Thermal vibrational correction   ...      0.00332030 Eh       2.08 kcal/mol
Thermal rotational correction    ...      0.00141627 Eh       0.89 kcal/mol
Thermal translational correction ...      0.00141627 Eh       0.89 kcal/mol
-----------------------------------------------------------------------
Total thermal energy                   -265.41368853 Eh

Summary of corrections to the electronic energy:
(perhaps to be used in another calculation)
Total thermal correction                  0.00615284 Eh       3.86 kcal/mol
Non-thermal (ZPE) correction              0.10608800 Eh      66.57 kcal/mol
-----------------------------------------------------------------------
Total correction                          0.11224085 Eh      70.43 kcal/mol

--------
ENTHALPY
--------

The enthalpy is H = U + kB*T
                kB is Boltzmann's constant
Total free energy                 ...   -265.41368853 Eh
Thermal Enthalpy correction       ...      0.00094421 Eh       0.59 kcal/mol
-----------------------------------------------------------------------
Total Enthalpy                    ...   -265.41274433 Eh

-------
ENTROPY
-------

The entropy contributions are T*S = T*(S(el)+S(vib)+S(rot)+S(trans)
     S(el)   - electronic entropy
     S(vib)  - vibrational entropy
     S(rot)  - rotational entropy
     S(trans)- translational entropy
The entropies will be listed as mutliplied by the temperature to get
units of energy

Electronic entropy                ...      0.00000000 Eh      0.00 kcal/mol
Vibrational entropy               ...      0.00554311 Eh      3.48 kcal/mol
Rotational entropy                ...      0.01160724 Eh      7.28 kcal/mol
Translational entropy             ...      0.01860929 Eh     11.68 kcal/mol
-----------------------------------------------------------------------
Final entropy term                ...      0.03575964 Eh     22.44 kcal/mol

CAUTION: The rotational entropy is not quite correctly treated here
         because it includes a symmetry number that is not yet correctly
         implemented in ORCA!
For a nonlinear molecule the correct rotational entropy is:
    S(rot) = R*(ln(qrot/sn)+1.5)
    R    = 8.31441 J/mol/K = 1.987191683e-3 kcal/mol/K
    qrot = 146101.8435026
    sn is the rotational symmetry number. We have assumed 3 here
       if it is different for your molecule then you should correct
       the printed rotational entropy by manually evaluating the equation
       as given above

For convenience we print out the resulting values for sn=1 - 12:
 sn= 1  qrot/sn=  146101.8435 T*S(rot)=     7.93 kcal/mol T*S(tot)=    23.09 kcal/mol
 sn= 2  qrot/sn=   73050.9218 T*S(rot)=     7.52 kcal/mol T*S(tot)=    22.68 kcal/mol
 sn= 3  qrot/sn=   48700.6145 T*S(rot)=     7.28 kcal/mol T*S(tot)=    22.44 kcal/mol
 sn= 4  qrot/sn=   36525.4609 T*S(rot)=     7.11 kcal/mol T*S(tot)=    22.27 kcal/mol
 sn= 5  qrot/sn=   29220.3687 T*S(rot)=     6.98 kcal/mol T*S(tot)=    22.14 kcal/mol
 sn= 6  qrot/sn=   24350.3073 T*S(rot)=     6.87 kcal/mol T*S(tot)=    22.03 kcal/mol
 sn= 7  qrot/sn=   20871.6919 T*S(rot)=     6.78 kcal/mol T*S(tot)=    21.94 kcal/mol
 sn= 8  qrot/sn=   18262.7304 T*S(rot)=     6.70 kcal/mol T*S(tot)=    21.86 kcal/mol
 sn= 9  qrot/sn=   16233.5382 T*S(rot)=     6.63 kcal/mol T*S(tot)=    21.79 kcal/mol
 sn=10  qrot/sn=   14610.1844 T*S(rot)=     6.57 kcal/mol T*S(tot)=    21.73 kcal/mol
 sn=11  qrot/sn=   13281.9858 T*S(rot)=     6.51 kcal/mol T*S(tot)=    21.67 kcal/mol
 sn=12  qrot/sn=   12175.1536 T*S(rot)=     6.46 kcal/mol T*S(tot)=    21.62 kcal/mol

-------------------
GIBBS FREE ENTHALPY
-------------------

The Gibbs free enthalpy is G = H - T*S

Total enthalpy                    ...   -265.41274433 Eh
Total entropy correction          ...     -0.03575964 Eh    -22.44 kcal/mol
-----------------------------------------------------------------------
Final Gibbs free enthalpy         ...   -265.44850397 Eh

For completeness - the Gibbs free enthalpy minus the electronic energy
G-E(el)                           ...      0.07742541 Eh     48.59 kcal/mol

                             ****ORCA TERMINATED NORMALLY****
TOTAL RUN TIME: 0 days 0 hours 14 minutes 5 seconds 236 msec
