                         Program Version 3.0.3 - RELEASE   -
|  1> ! NORI PBE0 def2-TZVP UseSym TightOPT Freq TightSCF Grid3 FinalGrid5 XYZFile
|  2> % pal
|  3>     nprocs 8
|  4> end
|  5> %method
|  6>     SymThresh 5.0e-2
|  7> end
|  8> % geom
|  9>     MaxIter 10
| 10> end
| 11> % maxcore 2000
| 12> % output
| 13>     printlevel mini
| 14>     print[ P_Basis ] 0
| 15>     print[ P_SCFInfo ] 1
| 16>     print[ P_SCFIterInfo ] 1
| 17>     print[ P_OrbEn ] 0
| 18>     print[ P_Cartesian ] 0
| 19> end
| 20> % elprop
| 21>     Dipole false
| 22> end
| 23> *xyz 1 1
| 24>  C        1.1133625263     0.0005692936    -0.0072050969
| 25>  N        2.5792849518     0.0127761634    -0.0603727725
| 26>  C        3.3436188722    -0.7205401574    -1.0941833663
| 27>  C        3.4191472595     0.7551436143    -1.0799236194
| 28>  C        2.6793607536     1.5584483322    -2.1077427368
| 29>  C        4.6315592775     1.4083441009    -0.4806341345
| 30>  H        0.7921323004    -0.8908077979     0.5313162845
| 31>  H        0.7074687163    -0.0223355497    -1.0145522258
| 32>  H        0.7664905623     0.8950072489     0.5088536082
| 33>  H        3.0104268894    -0.0086254956     0.8581719346
| 34>  H        4.1682220641    -1.3126606144    -0.7161801941
| 35>  H        2.7122655556    -1.2085367671    -1.8269880262
| 36>  H        3.3739772613     1.7825422027    -2.9195469312
| 37>  H        2.3383182813     2.5084230894    -1.6928489275
| 38>  H        1.8320832407     1.0298977564    -2.5423712481
| 39>  H        5.3769231476     1.5588562592    -1.2638216520
| 40>  H        5.0912476173     0.7940593380     0.2973837561
| 41>  H        4.3824607229     2.3855889831    -0.0633246520
| 42> *
| 43>
| 44>                          ****END OF INPUT****
 Total Charge           Charge          ....    1
 Multiplicity           Mult            ....    1
 Number of Electrons    NEL             ....   48
FINAL SINGLE POINT ENERGY      -252.028975487836
FINAL SINGLE POINT ENERGY      -252.028977982188
FINAL SINGLE POINT ENERGY      -252.028979179481

CARTESIAN COORDINATES (ANGSTROEM)
---------------------------------
  C      1.338086    0.000048    1.557919
  N      0.001012   -0.000467    0.953788
  C     -0.556154    1.178878    0.254500
  C     -0.297783   -0.045180   -0.531226
  C      0.879983   -0.115581   -1.456182
  C     -1.455439   -0.938216   -0.872865
  H      1.267928    0.432044    2.555825
  H      2.015103    0.597222    0.953964
  H      1.703357   -1.024235    1.617937
  H     -0.682685   -0.510233    1.503743
  H     -1.568235    1.439986    0.538711
  H      0.140964    2.005254    0.187359
  H      0.532827    0.142111   -2.458784
  H      1.286577   -1.127680   -1.498335
  H      1.675571    0.583029   -1.200828
  H     -1.870580   -0.627048   -1.833234
  H     -2.258937   -0.878435   -0.134746
  H     -1.133946   -1.977027   -0.967584

FINAL SINGLE POINT ENERGY      -252.028979499401
                    ***********************HURRAY********************
 Multiplicity           Mult            ....    1
 Number of Electrons    NEL             ....   48
 Basis Dimension        Dim             ....  258
FINAL SINGLE POINT ENERGY      -252.028979777669

VIBRATIONAL FREQUENCIES
-----------------------

   0:         0.00 cm**-1
   1:         0.00 cm**-1
   2:         0.00 cm**-1
   3:         0.00 cm**-1
   4:         0.00 cm**-1
   5:         0.00 cm**-1
   6:       150.69 cm**-1
   7:       175.31 cm**-1
   8:       199.35 cm**-1
   9:       242.18 cm**-1
  10:       279.47 cm**-1
  11:       361.38 cm**-1
  12:       387.73 cm**-1
  13:       450.41 cm**-1
  14:       471.54 cm**-1
  15:       676.77 cm**-1
  16:       760.08 cm**-1
  17:       884.80 cm**-1
  18:       910.72 cm**-1
  19:       961.31 cm**-1
  20:       969.17 cm**-1
  21:      1023.96 cm**-1
  22:      1042.25 cm**-1
  23:      1086.28 cm**-1
  24:      1125.20 cm**-1
  25:      1151.29 cm**-1
  26:      1163.60 cm**-1
  27:      1192.36 cm**-1
  28:      1241.14 cm**-1
  29:      1333.26 cm**-1
  30:      1368.89 cm**-1
  31:      1422.80 cm**-1
  32:      1427.23 cm**-1
  33:      1451.52 cm**-1
  34:      1458.94 cm**-1
  35:      1463.94 cm**-1
  36:      1476.52 cm**-1
  37:      1482.46 cm**-1
  38:      1494.72 cm**-1
  39:      1498.67 cm**-1
  40:      1500.09 cm**-1
  41:      1521.92 cm**-1
  42:      3059.70 cm**-1
  43:      3072.46 cm**-1
  44:      3090.06 cm**-1
  45:      3139.63 cm**-1
  46:      3145.72 cm**-1
  47:      3150.36 cm**-1
  48:      3162.32 cm**-1
  49:      3164.85 cm**-1
  50:      3178.17 cm**-1
  51:      3205.45 cm**-1
  52:      3261.80 cm**-1
  53:      3542.86 cm**-1

IR SPECTRUM
-----------

 Mode    freq (cm**-1)   T**2         TX         TY         TZ
-------------------------------------------------------------------
   6:       150.69    0.155207  (  0.064757   0.231455   0.312157)
   7:       175.31    0.070403  ( -0.019352  -0.263117   0.028246)
   8:       199.35    0.058330  ( -0.010606   0.135516   0.199632)
   9:       242.18    0.318314  (  0.197431  -0.482035   0.216743)
  10:       279.47    0.208969  ( -0.221391   0.399814   0.010204)
  11:       361.38    0.708235  (  0.072703   0.324069   0.773259)
  12:       387.73    0.852232  ( -0.124236   0.840492   0.361068)
  13:       450.41    0.231127  ( -0.476721  -0.061296   0.010345)
  14:       471.54    0.964346  ( -0.474453   0.404057  -0.758932)
  15:       676.77    5.636878  (  0.375553   0.526836   2.284356)
  16:       760.08   15.258962  (  0.641100  -0.677596   3.793259)
  17:       884.80    3.839498  (  0.931223   0.559106   1.630865)
  18:       910.72    3.009792  ( -0.795143   1.050064   1.129117)
  19:       961.31   15.990253  ( -1.042929   3.747354   0.927304)
  20:       969.17    1.486952  (  0.708246   0.868724   0.480268)
  21:      1023.96   13.052360  (  1.673210   0.726111   3.118572)
  22:      1042.25    2.899998  (  0.022738   1.493562   0.817774)
  23:      1086.28   28.609622  ( -1.112671  -0.701497  -5.184543)
  24:      1125.20    3.791259  ( -0.460890   1.066743  -1.562337)
  25:      1151.29   25.364031  ( -3.176593   1.848045  -3.443547)
  26:      1163.60    2.314606  (  0.795596  -0.716941  -1.080569)
  27:      1192.36    5.473091  ( -1.076334   1.421715  -1.514372)
  28:      1241.14    4.247303  ( -1.639493   1.248333  -0.032070)
  29:      1333.26    6.279256  ( -0.381315  -2.193704  -1.149572)
  30:      1368.89    5.299043  ( -0.096415  -0.675521  -2.198503)
  31:      1422.80   17.324216  (  3.032218   1.423614  -2.470464)
  32:      1427.23   13.287975  ( -1.607008  -1.959358  -2.620384)
  33:      1451.52    3.448963  ( -1.499335   0.693789   0.848302)
  34:      1458.94   27.471440  (  5.039056  -1.118130   0.910572)
  35:      1463.94    4.200144  (  1.128051   1.247486   1.171078)
  36:      1476.52    0.496086  ( -0.482558   0.399048   0.322467)
  37:      1482.46   13.329212  (  0.015623   0.421894  -3.626427)
  38:      1494.72   30.067666  ( -0.111103   5.440095  -0.678740)
  39:      1498.67   12.402386  ( -1.746712  -2.672306   1.486661)
  40:      1500.09   20.966082  (  0.569177   1.937350   4.109598)
  41:      1521.92   20.563153  ( -1.419027   1.144994  -4.151928)
  42:      3059.70    1.779091  (  0.743208   0.361277  -1.047002)
  43:      3072.46    0.630642  ( -0.566145   0.117294  -0.544393)
  44:      3090.06    0.854009  ( -0.782854   0.037531  -0.489632)
  45:      3139.63    4.284169  (  1.442093  -0.527917  -1.387747)
  46:      3145.72    0.235304  (  0.457374   0.142969   0.075319)
  47:      3150.36    0.944607  ( -0.270505   0.813867   0.457225)
  48:      3162.32    1.443936  ( -0.049736   1.184600   0.195411)
  49:      3164.85    3.677614  (  1.323080   1.191083   0.713019)
  50:      3178.17    0.070378  (  0.056898   0.210790   0.150692)
  51:      3205.45    0.071617  ( -0.122698  -0.216487   0.098465)
  52:      3261.80    1.880320  ( -1.221266  -0.574169   0.243229)
  53:      3542.86   70.737513  ( -4.583547  -4.199508   5.665045)

--------------------------
THERMOCHEMISTRY AT 298.15K
--------------------------

Temperature         ... 298.15 K
Pressure            ... 1.00 atm
Total Mass          ... 86.16 AMU

Throughout the following assumptions are being made:
  (1) The electronic state is orbitally nondegenerate
  (2) There are no thermally accessible electronically excited states
  (3) Hindered rotations indicated by low frequency modes) are not
      treated as such but are treated as vibrations and this may
      case some error
  (4) All equations used are the standard statistical mechanics
      equations for an ideal gas
  (5) All vibrations are strinctly harmonic

------------
INNER ENERGY
------------

The inner energy is: U= E(el) + E(ZPE) + E(vib) + E(rot) + E(trans)
    E(el)   - is the total energy from the electronic structure calculation
              = E(kin-el) + E(nuc-el) + E(el-el) + E(nuc-nuc)
    E(ZPE)  - the the zero temperature vibrational energy from the frequency calculation
    E(vib)  - the the finite temperature correction to E(ZPE) due to population
              of excietd vibrational states
    E(rot)  - is the rotational thermal energy
    E(trans)- is the translational thermal energy

Summary of contributions to the inner energy U:
Electronic energy                ...   -252.02897978 Eh
Zero point energy                ...      0.16854190 Eh     105.76 kcal/mol
Thermal vibrational correction   ...      0.00459905 Eh       2.89 kcal/mol
Thermal rotational correction    ...      0.00141627 Eh       0.89 kcal/mol
Thermal translational correction ...      0.00141627 Eh       0.89 kcal/mol
-----------------------------------------------------------------------
Total thermal energy                   -251.85300628 Eh

Summary of corrections to the electronic energy:
(perhaps to be used in another calculation)
Total thermal correction                  0.00743160 Eh       4.66 kcal/mol
Non-thermal (ZPE) correction              0.16854190 Eh     105.76 kcal/mol
-----------------------------------------------------------------------
Total correction                          0.17597350 Eh     110.42 kcal/mol

--------
ENTHALPY
--------

The enthalpy is H = U + kB*T
                kB is Boltzmann's constant
Total free energy                 ...   -251.85300628 Eh
Thermal Enthalpy correction       ...      0.00094421 Eh       0.59 kcal/mol
-----------------------------------------------------------------------
Total Enthalpy                    ...   -251.85206207 Eh

-------
ENTROPY
-------

The entropy contributions are T*S = T*(S(el)+S(vib)+S(rot)+S(trans)
     S(el)   - electronic entropy
     S(vib)  - vibrational entropy
     S(rot)  - rotational entropy
     S(trans)- translational entropy
The entropies will be listed as mutliplied by the temperature to get
units of energy

Electronic entropy                ...      0.00000000 Eh      0.00 kcal/mol
Vibrational entropy               ...      0.00754742 Eh      4.74 kcal/mol
Rotational entropy                ...      0.01158791 Eh      7.27 kcal/mol
Translational entropy             ...      0.01866024 Eh     11.71 kcal/mol
-----------------------------------------------------------------------
Final entropy term                ...      0.03779556 Eh     23.72 kcal/mol

CAUTION: The rotational entropy is not quite correctly treated here
         because it includes a symmetry number that is not yet correctly
         implemented in ORCA!
For a nonlinear molecule the correct rotational entropy is:
    S(rot) = R*(ln(qrot/sn)+1.5)
    R    = 8.31441 J/mol/K = 1.987191683e-3 kcal/mol/K
    qrot = 143141.0907541
    sn is the rotational symmetry number. We have assumed 3 here
       if it is different for your molecule then you should correct
       the printed rotational entropy by manually evaluating the equation
       as given above

For convenience we print out the resulting values for sn=1 - 12:
 sn= 1  qrot/sn=  143141.0908 T*S(rot)=     7.92 kcal/mol T*S(tot)=    24.37 kcal/mol
 sn= 2  qrot/sn=   71570.5454 T*S(rot)=     7.51 kcal/mol T*S(tot)=    23.96 kcal/mol
 sn= 3  qrot/sn=   47713.6969 T*S(rot)=     7.27 kcal/mol T*S(tot)=    23.72 kcal/mol
 sn= 4  qrot/sn=   35785.2727 T*S(rot)=     7.10 kcal/mol T*S(tot)=    23.55 kcal/mol
 sn= 5  qrot/sn=   28628.2182 T*S(rot)=     6.97 kcal/mol T*S(tot)=    23.41 kcal/mol
 sn= 6  qrot/sn=   23856.8485 T*S(rot)=     6.86 kcal/mol T*S(tot)=    23.31 kcal/mol
 sn= 7  qrot/sn=   20448.7273 T*S(rot)=     6.77 kcal/mol T*S(tot)=    23.22 kcal/mol
 sn= 8  qrot/sn=   17892.6363 T*S(rot)=     6.69 kcal/mol T*S(tot)=    23.14 kcal/mol
 sn= 9  qrot/sn=   15904.5656 T*S(rot)=     6.62 kcal/mol T*S(tot)=    23.07 kcal/mol
 sn=10  qrot/sn=   14314.1091 T*S(rot)=     6.56 kcal/mol T*S(tot)=    23.00 kcal/mol
 sn=11  qrot/sn=   13012.8264 T*S(rot)=     6.50 kcal/mol T*S(tot)=    22.95 kcal/mol
 sn=12  qrot/sn=   11928.4242 T*S(rot)=     6.45 kcal/mol T*S(tot)=    22.90 kcal/mol

-------------------
GIBBS FREE ENTHALPY
-------------------

The Gibbs free enthalpy is G = H - T*S

Total enthalpy                    ...   -251.85206207 Eh
Total entropy correction          ...     -0.03779556 Eh    -23.72 kcal/mol
-----------------------------------------------------------------------
Final Gibbs free enthalpy         ...   -251.88985763 Eh

For completeness - the Gibbs free enthalpy minus the electronic energy
G-E(el)                           ...      0.13912214 Eh     87.30 kcal/mol

                             ****ORCA TERMINATED NORMALLY****
TOTAL RUN TIME: 0 days 0 hours 25 minutes 57 seconds 532 msec
