                         Program Version 3.0.3 - RELEASE   -
|  1> ! NORI PBE0 def2-TZVP UseSym TightOPT Freq TightSCF Grid3 FinalGrid5 XYZFile
|  2> % pal
|  3>     nprocs 8
|  4> end
|  5> %method
|  6>     SymThresh 5.0e-2
|  7> end
|  8> % geom
|  9>     MaxIter 10
| 10> end
| 11> % maxcore 2000
| 12> % output
| 13>     printlevel mini
| 14>     print[ P_Basis ] 0
| 15>     print[ P_SCFInfo ] 1
| 16>     print[ P_SCFIterInfo ] 1
| 17>     print[ P_OrbEn ] 0
| 18>     print[ P_Cartesian ] 0
| 19> end
| 20> % elprop
| 21>     Dipole false
| 22> end
| 23> *xyz 1 1
| 24>  C        1.0691162956    -0.1069089777     0.0439494088
| 25>  N        2.5050101646     0.0220184088    -0.2269624587
| 26>  C        3.1290030556    -0.5811183452    -1.4224762894
| 27>  C        3.0477319312     0.8861604501    -1.3320107510
| 28>  C        4.2070443013     1.7422260105    -1.0127388662
| 29>  C        5.4611990715     1.4116175341    -1.2864128216
| 30>  H        0.8808483552    -1.0682784048     0.5212900519
| 31>  H        0.5268286933    -0.0533297271    -0.8984459269
| 32>  H        0.7560127970     0.7069875938     0.6969624194
| 33>  H        3.0971130790     0.0123249734     0.5988391664
| 34>  H        4.0713647564    -1.0780222441    -1.2316394031
| 35>  H        2.4324885937    -1.1152031440    -2.0564722406
| 36>  H        2.2297301144     1.3567477446    -1.8700918008
| 37>  H        3.9719493466     2.7069785752    -0.5728805031
| 38>  H        5.7274377468     0.4768523482    -1.7683437658
| 39>  H        6.2759716977     2.0869672041    -1.0558362191
| 40> *
| 41>
| 42>                          ****END OF INPUT****
 Total Charge           Charge          ....    1
 Multiplicity           Mult            ....    1
 Number of Electrons    NEL             ....   46
FINAL SINGLE POINT ENERGY      -250.787158846971

CARTESIAN COORDINATES (ANGSTROEM)
---------------------------------
  C      0.903402   -0.000061    2.208764
  N     -0.000058   -0.000059    1.053041
  C     -0.220478    1.211824    0.237406
  C      0.496418    0.075580   -0.364758
  C     -0.118177   -0.840633   -1.345318
  C     -1.102077   -0.489529   -2.161410
  H      0.374736    0.397133    3.074764
  H      1.763056    0.628909    1.983752
  H      1.233000   -1.019969    2.402315
  H     -0.824204   -0.585497    1.156217
  H     -1.255240    1.391559   -0.024253
  H      0.338385    2.074542    0.576849
  H      1.580728    0.141817   -0.374882
  H      0.319880   -1.832912   -1.400517
  H     -1.531005    0.507107   -2.165108
  H     -1.502292   -1.191826   -2.882350

FINAL SINGLE POINT ENERGY      -250.787159190234
                    ***********************HURRAY********************
 Multiplicity           Mult            ....    1
 Number of Electrons    NEL             ....   46
 Basis Dimension        Dim             ....  246
FINAL SINGLE POINT ENERGY      -250.787159258476

VIBRATIONAL FREQUENCIES
-----------------------

   0:         0.00 cm**-1
   1:         0.00 cm**-1
   2:         0.00 cm**-1
   3:         0.00 cm**-1
   4:         0.00 cm**-1
   5:         0.00 cm**-1
   6:        94.25 cm**-1
   7:       184.55 cm**-1
   8:       200.84 cm**-1
   9:       288.96 cm**-1
  10:       318.78 cm**-1
  11:       414.66 cm**-1
  12:       540.03 cm**-1
  13:       653.34 cm**-1
  14:       800.76 cm**-1
  15:       818.28 cm**-1
  16:       888.50 cm**-1
  17:       938.35 cm**-1
  18:      1019.43 cm**-1
  19:      1030.81 cm**-1
  20:      1036.97 cm**-1
  21:      1048.39 cm**-1
  22:      1123.62 cm**-1
  23:      1136.23 cm**-1
  24:      1156.48 cm**-1
  25:      1165.40 cm**-1
  26:      1201.91 cm**-1
  27:      1236.99 cm**-1
  28:      1285.68 cm**-1
  29:      1334.22 cm**-1
  30:      1400.97 cm**-1
  31:      1450.20 cm**-1
  32:      1456.02 cm**-1
  33:      1462.85 cm**-1
  34:      1481.81 cm**-1
  35:      1494.60 cm**-1
  36:      1516.02 cm**-1
  37:      1719.10 cm**-1
  38:      3083.57 cm**-1
  39:      3166.60 cm**-1
  40:      3173.42 cm**-1
  41:      3174.07 cm**-1
  42:      3180.48 cm**-1
  43:      3185.67 cm**-1
  44:      3186.62 cm**-1
  45:      3260.34 cm**-1
  46:      3272.83 cm**-1
  47:      3530.39 cm**-1

IR SPECTRUM
-----------

 Mode    freq (cm**-1)   T**2         TX         TY         TZ
-------------------------------------------------------------------
   6:        94.25    0.254981  ( -0.326970  -0.155035  -0.352187)
   7:       184.55    0.312521  (  0.084895   0.508010   0.217347)
   8:       200.84    0.072113  (  0.046432  -0.164153  -0.207390)
   9:       288.96    0.522341  ( -0.538735   0.389222   0.283923)
  10:       318.78    0.743475  (  0.241747   0.674686   0.479408)
  11:       414.66    1.251955  ( -0.814510  -0.609899   0.465350)
  12:       540.03    0.907820  ( -0.400110  -0.861330   0.076437)
  13:       653.34   10.924909  (  2.581056   0.734298  -1.929732)
  14:       800.76   11.016755  (  0.961203   1.380862  -2.861130)
  15:       818.28   39.228662  (  1.739422  -0.884465  -5.951537)
  16:       888.50    6.271562  (  1.145016   0.213522   2.216959)
  17:       938.35    8.206198  ( -1.810342   2.215406  -0.144345)
  18:      1019.43   42.526695  ( -4.519661  -1.202079   4.544707)
  19:      1030.81    9.709245  ( -1.852712  -1.483824   2.018655)
  20:      1036.97   31.338011  ( -0.614880  -2.883081   4.758968)
  21:      1048.39    2.775795  (  0.023400  -1.665792  -0.019609)
  22:      1123.62   19.398989  ( -0.913232   0.715266  -4.248928)
  23:      1136.23   20.980430  (  0.192535  -3.292490  -3.178501)
  24:      1156.48    4.139096  (  0.235309   0.405808   1.979658)
  25:      1165.40    9.788538  (  2.729024  -1.497305  -0.314707)
  26:      1201.91    2.151069  (  0.209822  -0.280941   1.424119)
  27:      1236.99    2.629670  ( -1.266500   0.622955  -0.798482)
  28:      1285.68    3.810101  ( -1.461635  -1.243972  -0.355329)
  29:      1334.22    1.759362  ( -0.099587  -0.861849   1.003325)
  30:      1400.97    0.316616  ( -0.172809  -0.535491  -0.001648)
  31:      1450.20    0.952968  (  0.909148  -0.352038   0.049871)
  32:      1456.02    3.894162  (  1.710112   0.114220  -0.978076)
  33:      1462.85   51.382767  (  4.977791  -2.085309   4.717611)
  34:      1481.81   14.075001  (  1.360850  -2.964157  -1.853877)
  35:      1494.60   23.603466  ( -2.306143  -4.034462   1.417140)
  36:      1516.02   39.285102  ( -0.040284   0.241835   6.262986)
  37:      1719.10    1.082632  (  0.375928   0.632159   0.735993)
  38:      3083.57    0.420832  ( -0.421904  -0.038187  -0.491295)
  39:      3166.60    2.571665  (  0.172136   1.304860   0.916174)
  40:      3173.42    1.486791  ( -0.387302   1.146058  -0.152772)
  41:      3174.07    1.912871  ( -0.625684   0.277180   1.201899)
  42:      3180.48    0.167879  (  0.204730  -0.256032  -0.245789)
  43:      3185.67    0.201520  (  0.098755   0.237311   0.368036)
  44:      3186.62    0.327549  ( -0.418921   0.361706   0.145682)
  45:      3260.34    0.672160  ( -0.572517  -0.257990  -0.527092)
  46:      3272.83    4.327129  (  1.769274   0.914984   0.599669)
  47:      3530.39   75.584820  ( -6.388183  -5.294514   2.596932)

--------------------------
THERMOCHEMISTRY AT 298.15K
--------------------------

Temperature         ... 298.15 K
Pressure            ... 1.00 atm
Total Mass          ... 84.14 AMU

Throughout the following assumptions are being made:
  (1) The electronic state is orbitally nondegenerate
  (2) There are no thermally accessible electronically excited states
  (3) Hindered rotations indicated by low frequency modes) are not
      treated as such but are treated as vibrations and this may
      case some error
  (4) All equations used are the standard statistical mechanics
      equations for an ideal gas
  (5) All vibrations are strinctly harmonic

------------
INNER ENERGY
------------

The inner energy is: U= E(el) + E(ZPE) + E(vib) + E(rot) + E(trans)
    E(el)   - is the total energy from the electronic structure calculation
              = E(kin-el) + E(nuc-el) + E(el-el) + E(nuc-nuc)
    E(ZPE)  - the the zero temperature vibrational energy from the frequency calculation
    E(vib)  - the the finite temperature correction to E(ZPE) due to population
              of excietd vibrational states
    E(rot)  - is the rotational thermal energy
    E(trans)- is the translational thermal energy

Summary of contributions to the inner energy U:
Electronic energy                ...   -250.78715926 Eh
Zero point energy                ...      0.14606018 Eh      91.65 kcal/mol
Thermal vibrational correction   ...      0.00390840 Eh       2.45 kcal/mol
Thermal rotational correction    ...      0.00141627 Eh       0.89 kcal/mol
Thermal translational correction ...      0.00141627 Eh       0.89 kcal/mol
-----------------------------------------------------------------------
Total thermal energy                   -250.63435814 Eh

Summary of corrections to the electronic energy:
(perhaps to be used in another calculation)
Total thermal correction                  0.00674095 Eh       4.23 kcal/mol
Non-thermal (ZPE) correction              0.14606018 Eh      91.65 kcal/mol
-----------------------------------------------------------------------
Total correction                          0.15280112 Eh      95.88 kcal/mol

--------
ENTHALPY
--------

The enthalpy is H = U + kB*T
                kB is Boltzmann's constant
Total free energy                 ...   -250.63435814 Eh
Thermal Enthalpy correction       ...      0.00094421 Eh       0.59 kcal/mol
-----------------------------------------------------------------------
Total Enthalpy                    ...   -250.63341393 Eh

-------
ENTROPY
-------

The entropy contributions are T*S = T*(S(el)+S(vib)+S(rot)+S(trans)
     S(el)   - electronic entropy
     S(vib)  - vibrational entropy
     S(rot)  - rotational entropy
     S(trans)- translational entropy
The entropies will be listed as mutliplied by the temperature to get
units of energy

Electronic entropy                ...      0.00000000 Eh      0.00 kcal/mol
Vibrational entropy               ...      0.00667348 Eh      4.19 kcal/mol
Rotational entropy                ...      0.01156020 Eh      7.25 kcal/mol
Translational entropy             ...      0.01862670 Eh     11.69 kcal/mol
-----------------------------------------------------------------------
Final entropy term                ...      0.03686039 Eh     23.13 kcal/mol

CAUTION: The rotational entropy is not quite correctly treated here
         because it includes a symmetry number that is not yet correctly
         implemented in ORCA!
For a nonlinear molecule the correct rotational entropy is:
    S(rot) = R*(ln(qrot/sn)+1.5)
    R    = 8.31441 J/mol/K = 1.987191683e-3 kcal/mol/K
    qrot = 139002.1141145
    sn is the rotational symmetry number. We have assumed 3 here
       if it is different for your molecule then you should correct
       the printed rotational entropy by manually evaluating the equation
       as given above

For convenience we print out the resulting values for sn=1 - 12:
 sn= 1  qrot/sn=  139002.1141 T*S(rot)=     7.91 kcal/mol T*S(tot)=    23.78 kcal/mol
 sn= 2  qrot/sn=   69501.0571 T*S(rot)=     7.49 kcal/mol T*S(tot)=    23.37 kcal/mol
 sn= 3  qrot/sn=   46334.0380 T*S(rot)=     7.25 kcal/mol T*S(tot)=    23.13 kcal/mol
 sn= 4  qrot/sn=   34750.5285 T*S(rot)=     7.08 kcal/mol T*S(tot)=    22.96 kcal/mol
 sn= 5  qrot/sn=   27800.4228 T*S(rot)=     6.95 kcal/mol T*S(tot)=    22.83 kcal/mol
 sn= 6  qrot/sn=   23167.0190 T*S(rot)=     6.84 kcal/mol T*S(tot)=    22.72 kcal/mol
 sn= 7  qrot/sn=   19857.4449 T*S(rot)=     6.75 kcal/mol T*S(tot)=    22.63 kcal/mol
 sn= 8  qrot/sn=   17375.2643 T*S(rot)=     6.67 kcal/mol T*S(tot)=    22.55 kcal/mol
 sn= 9  qrot/sn=   15444.6793 T*S(rot)=     6.60 kcal/mol T*S(tot)=    22.48 kcal/mol
 sn=10  qrot/sn=   13900.2114 T*S(rot)=     6.54 kcal/mol T*S(tot)=    22.42 kcal/mol
 sn=11  qrot/sn=   12636.5558 T*S(rot)=     6.48 kcal/mol T*S(tot)=    22.36 kcal/mol
 sn=12  qrot/sn=   11583.5095 T*S(rot)=     6.43 kcal/mol T*S(tot)=    22.31 kcal/mol

-------------------
GIBBS FREE ENTHALPY
-------------------

The Gibbs free enthalpy is G = H - T*S

Total enthalpy                    ...   -250.63341393 Eh
Total entropy correction          ...     -0.03686039 Eh    -23.13 kcal/mol
-----------------------------------------------------------------------
Final Gibbs free enthalpy         ...   -250.67027432 Eh

For completeness - the Gibbs free enthalpy minus the electronic energy
G-E(el)                           ...      0.11688494 Eh     73.35 kcal/mol

                             ****ORCA TERMINATED NORMALLY****
TOTAL RUN TIME: 0 days 0 hours 16 minutes 33 seconds 196 msec
