                         Program Version 3.0.3 - RELEASE   -
|  1> ! NORI PBE0 def2-TZVP UseSym TightOPT Freq TightSCF Grid3 FinalGrid5 XYZFile
|  2> % pal
|  3>     nprocs 8
|  4> end
|  5> %method
|  6>     SymThresh 5.0e-2
|  7> end
|  8> % geom
|  9>     MaxIter 10
| 10> end
| 11> % maxcore 2000
| 12> % output
| 13>     printlevel mini
| 14>     print[ P_Basis ] 0
| 15>     print[ P_SCFInfo ] 1
| 16>     print[ P_SCFIterInfo ] 1
| 17>     print[ P_OrbEn ] 0
| 18>     print[ P_Cartesian ] 0
| 19> end
| 20> % elprop
| 21>     Dipole false
| 22> end
| 23> *xyz 1 1
| 24>  C        1.1560729754     0.0704632993    -0.0383492080
| 25>  N        2.6233878287     0.0302197360    -0.0758616469
| 26>  C        3.3585033986    -0.7176012308    -1.1126998252
| 27>  C        3.4095564717     0.7633571895    -1.1248697857
| 28>  C        4.5630178734     1.4734266278    -0.6806508074
| 29>  C        5.5364901043     2.0738164101    -0.3228591325
| 30>  H        0.8404943490     0.9661301196     0.4950743364
| 31>  H        0.7923966755    -0.8227479948     0.4689308659
| 32>  H        0.7763278839     0.0938464771    -1.0586563584
| 33>  H        3.0729080169     0.0405753683     0.8359562816
| 34>  H        4.2206558498    -1.2645083185    -0.7537020143
| 35>  H        2.7194162444    -1.2252846588    -1.8239385612
| 36>  H        2.7573276559     1.2727205826    -1.8279282869
| 37>  H        6.4053046724     2.6105563924    -0.0094458574
| 38> *
| 39>
| 40>                          ****END OF INPUT****
 Total Charge           Charge          ....    1
 Multiplicity           Mult            ....    1
 Number of Electrons    NEL             ....   44
FINAL SINGLE POINT ENERGY      -249.526628641014

CARTESIAN COORDINATES (ANGSTROEM)
---------------------------------
  C      1.027630   -0.000005    2.059110
  N     -0.000067   -0.000043    1.010369
  C     -0.495955    1.248546    0.402415
  C      0.326191    0.328630   -0.418468
  C     -0.258429   -0.504777   -1.416316
  C     -0.743896   -1.195585   -2.266589
  H      1.533625   -0.964363    2.057978
  H      0.548294    0.177443    3.021341
  H      1.743185    0.794338    1.852776
  H     -0.698614   -0.733219    1.098948
  H     -1.564786    1.279749    0.235476
  H     -0.037994    2.143863    0.803187
  H      1.375437    0.580927   -0.539551
  H     -1.174087   -1.808270   -3.028715

FINAL SINGLE POINT ENERGY      -249.526629036012
                    ***********************HURRAY********************
 Multiplicity           Mult            ....    1
 Number of Electrons    NEL             ....   44
 Basis Dimension        Dim             ....  234
FINAL SINGLE POINT ENERGY      -249.526629264516

VIBRATIONAL FREQUENCIES
-----------------------

   0:         0.00 cm**-1
   1:         0.00 cm**-1
   2:         0.00 cm**-1
   3:         0.00 cm**-1
   4:         0.00 cm**-1
   5:         0.00 cm**-1
   6:       144.40 cm**-1
   7:       168.00 cm**-1
   8:       205.24 cm**-1
   9:       312.15 cm**-1
  10:       372.15 cm**-1
  11:       489.76 cm**-1
  12:       519.22 cm**-1
  13:       737.69 cm**-1
  14:       776.26 cm**-1
  15:       797.71 cm**-1
  16:       801.37 cm**-1
  17:       883.91 cm**-1
  18:       958.09 cm**-1
  19:      1049.42 cm**-1
  20:      1087.41 cm**-1
  21:      1134.46 cm**-1
  22:      1154.51 cm**-1
  23:      1165.09 cm**-1
  24:      1195.02 cm**-1
  25:      1232.79 cm**-1
  26:      1276.77 cm**-1
  27:      1385.30 cm**-1
  28:      1453.34 cm**-1
  29:      1457.50 cm**-1
  30:      1480.65 cm**-1
  31:      1492.41 cm**-1
  32:      1509.94 cm**-1
  33:      2260.65 cm**-1
  34:      3084.09 cm**-1
  35:      3172.47 cm**-1
  36:      3180.47 cm**-1
  37:      3182.91 cm**-1
  38:      3187.29 cm**-1
  39:      3279.29 cm**-1
  40:      3450.74 cm**-1
  41:      3529.40 cm**-1

IR SPECTRUM
-----------

 Mode    freq (cm**-1)   T**2         TX         TY         TZ
-------------------------------------------------------------------
   6:       144.40    0.710508  (  0.197981  -0.807746   0.137325)
   7:       168.00    1.367308  ( -1.040394  -0.427413   0.319697)
   8:       205.24    0.963290  (  0.225613   0.937910  -0.180870)
   9:       312.15    3.947855  (  1.872011  -0.664183  -0.047851)
  10:       372.15    5.720426  ( -0.224398  -2.082827   1.154081)
  11:       489.76   14.896953  ( -2.139738  -0.854009   3.096634)
  12:       519.22    9.459525  (  2.321970  -2.003046  -0.236193)
  13:       737.69   36.413744  ( -4.926405   3.484748   0.028305)
  14:       776.26   24.932910  ( -2.336931  -3.371997   2.846278)
  15:       797.71   22.442699  (  1.508974  -0.295991  -4.480858)
  16:       801.37   26.702095  ( -0.074384   2.089273  -4.725622)
  17:       883.91    5.776979  (  0.958918   0.627992   2.112601)
  18:       958.09   18.218699  ( -3.435377   2.495219  -0.436772)
  19:      1049.42   15.787673  (  0.135427   2.999736  -2.602098)
  20:      1087.41   21.973265  ( -1.365105   0.520366  -4.454096)
  21:      1134.46   19.596008  (  0.508202  -2.913335  -3.293967)
  22:      1154.51    3.405386  ( -0.873754  -1.155472  -1.143164)
  23:      1165.09    9.502855  ( -2.336830   0.821448   1.835022)
  24:      1195.02    0.683611  ( -0.213893   0.737951   0.305433)
  25:      1232.79    7.045258  ( -1.762239   1.177118  -1.598175)
  26:      1276.77    4.953746  (  0.865286   1.870128  -0.841219)
  27:      1385.30   10.328355  (  0.787537   2.119602   2.283731)
  28:      1453.34    5.606998  ( -2.341118   0.051105   0.351502)
  29:      1457.50   27.222862  (  3.396311  -0.437958   3.936512)
  30:      1480.65   17.276243  (  1.563916  -2.901489  -2.532148)
  31:      1492.41   22.509078  (  1.550086   4.450947  -0.543492)
  32:      1509.94   39.365495  ( -0.217389   0.638183  -6.237865)
  33:      2260.65   44.451345  ( -2.391443  -3.511261  -5.138423)
  34:      3084.09    0.091955  (  0.238152   0.173656   0.071292)
  35:      3172.47    4.759531  ( -1.246293   1.728733   0.466654)
  36:      3180.47    4.953845  (  1.470193  -0.172281  -1.662136)
  37:      3182.91    2.169319  (  1.030708  -0.323737  -1.001077)
  38:      3187.29    0.409414  (  0.256850   0.523519   0.263382)
  39:      3279.29    7.850809  (  2.496981   1.036844   0.735422)
  40:      3450.74  101.406597  ( -3.678607  -5.577256  -7.534498)
  41:      3529.40   86.769744  (  5.704110   6.760458  -2.920459)

--------------------------
THERMOCHEMISTRY AT 298.15K
--------------------------

Temperature         ... 298.15 K
Pressure            ... 1.00 atm
Total Mass          ... 82.13 AMU

Throughout the following assumptions are being made:
  (1) The electronic state is orbitally nondegenerate
  (2) There are no thermally accessible electronically excited states
  (3) Hindered rotations indicated by low frequency modes) are not
      treated as such but are treated as vibrations and this may
      case some error
  (4) All equations used are the standard statistical mechanics
      equations for an ideal gas
  (5) All vibrations are strinctly harmonic

------------
INNER ENERGY
------------

The inner energy is: U= E(el) + E(ZPE) + E(vib) + E(rot) + E(trans)
    E(el)   - is the total energy from the electronic structure calculation
              = E(kin-el) + E(nuc-el) + E(el-el) + E(nuc-nuc)
    E(ZPE)  - the the zero temperature vibrational energy from the frequency calculation
    E(vib)  - the the finite temperature correction to E(ZPE) due to population
              of excietd vibrational states
    E(rot)  - is the rotational thermal energy
    E(trans)- is the translational thermal energy

Summary of contributions to the inner energy U:
Electronic energy                ...   -249.52662926 Eh
Zero point energy                ...      0.12203658 Eh      76.58 kcal/mol
Thermal vibrational correction   ...      0.00364173 Eh       2.29 kcal/mol
Thermal rotational correction    ...      0.00141627 Eh       0.89 kcal/mol
Thermal translational correction ...      0.00141627 Eh       0.89 kcal/mol
-----------------------------------------------------------------------
Total thermal energy                   -249.39811842 Eh

Summary of corrections to the electronic energy:
(perhaps to be used in another calculation)
Total thermal correction                  0.00647427 Eh       4.06 kcal/mol
Non-thermal (ZPE) correction              0.12203658 Eh      76.58 kcal/mol
-----------------------------------------------------------------------
Total correction                          0.12851085 Eh      80.64 kcal/mol

--------
ENTHALPY
--------

The enthalpy is H = U + kB*T
                kB is Boltzmann's constant
Total free energy                 ...   -249.39811842 Eh
Thermal Enthalpy correction       ...      0.00094421 Eh       0.59 kcal/mol
-----------------------------------------------------------------------
Total Enthalpy                    ...   -249.39717421 Eh

-------
ENTROPY
-------

The entropy contributions are T*S = T*(S(el)+S(vib)+S(rot)+S(trans)
     S(el)   - electronic entropy
     S(vib)  - vibrational entropy
     S(rot)  - rotational entropy
     S(trans)- translational entropy
The entropies will be listed as mutliplied by the temperature to get
units of energy

Electronic entropy                ...      0.00000000 Eh      0.00 kcal/mol
Vibrational entropy               ...      0.00601508 Eh      3.77 kcal/mol
Rotational entropy                ...      0.01154797 Eh      7.25 kcal/mol
Translational entropy             ...      0.01859236 Eh     11.67 kcal/mol
-----------------------------------------------------------------------
Final entropy term                ...      0.03615540 Eh     22.69 kcal/mol

CAUTION: The rotational entropy is not quite correctly treated here
         because it includes a symmetry number that is not yet correctly
         implemented in ORCA!
For a nonlinear molecule the correct rotational entropy is:
    S(rot) = R*(ln(qrot/sn)+1.5)
    R    = 8.31441 J/mol/K = 1.987191683e-3 kcal/mol/K
    qrot = 137212.6518198
    sn is the rotational symmetry number. We have assumed 3 here
       if it is different for your molecule then you should correct
       the printed rotational entropy by manually evaluating the equation
       as given above

For convenience we print out the resulting values for sn=1 - 12:
 sn= 1  qrot/sn=  137212.6518 T*S(rot)=     7.90 kcal/mol T*S(tot)=    23.34 kcal/mol
 sn= 2  qrot/sn=   68606.3259 T*S(rot)=     7.49 kcal/mol T*S(tot)=    22.93 kcal/mol
 sn= 3  qrot/sn=   45737.5506 T*S(rot)=     7.25 kcal/mol T*S(tot)=    22.69 kcal/mol
 sn= 4  qrot/sn=   34303.1630 T*S(rot)=     7.08 kcal/mol T*S(tot)=    22.52 kcal/mol
 sn= 5  qrot/sn=   27442.5304 T*S(rot)=     6.94 kcal/mol T*S(tot)=    22.39 kcal/mol
 sn= 6  qrot/sn=   22868.7753 T*S(rot)=     6.84 kcal/mol T*S(tot)=    22.28 kcal/mol
 sn= 7  qrot/sn=   19601.8074 T*S(rot)=     6.74 kcal/mol T*S(tot)=    22.19 kcal/mol
 sn= 8  qrot/sn=   17151.5815 T*S(rot)=     6.67 kcal/mol T*S(tot)=    22.11 kcal/mol
 sn= 9  qrot/sn=   15245.8502 T*S(rot)=     6.60 kcal/mol T*S(tot)=    22.04 kcal/mol
 sn=10  qrot/sn=   13721.2652 T*S(rot)=     6.53 kcal/mol T*S(tot)=    21.97 kcal/mol
 sn=11  qrot/sn=   12473.8774 T*S(rot)=     6.48 kcal/mol T*S(tot)=    21.92 kcal/mol
 sn=12  qrot/sn=   11434.3877 T*S(rot)=     6.43 kcal/mol T*S(tot)=    21.87 kcal/mol

-------------------
GIBBS FREE ENTHALPY
-------------------

The Gibbs free enthalpy is G = H - T*S

Total enthalpy                    ...   -249.39717421 Eh
Total entropy correction          ...     -0.03615540 Eh    -22.69 kcal/mol
-----------------------------------------------------------------------
Final Gibbs free enthalpy         ...   -249.43332961 Eh

For completeness - the Gibbs free enthalpy minus the electronic energy
G-E(el)                           ...      0.09329965 Eh     58.55 kcal/mol

                             ****ORCA TERMINATED NORMALLY****
TOTAL RUN TIME: 0 days 0 hours 14 minutes 50 seconds 838 msec
