                         Program Version 3.0.3 - RELEASE   -
|  1> ! NORI PBE0 def2-TZVP UseSym TightOPT Freq TightSCF Grid3 FinalGrid5 XYZFile
|  2> % pal
|  3>     nprocs 8
|  4> end
|  5> %method
|  6>     SymThresh 5.0e-2
|  7> end
|  8> % geom
|  9>     MaxIter 10
| 10> end
| 11> % maxcore 2000
| 12> % output
| 13>     printlevel mini
| 14>     print[ P_Basis ] 0
| 15>     print[ P_SCFInfo ] 1
| 16>     print[ P_SCFIterInfo ] 1
| 17>     print[ P_OrbEn ] 0
| 18>     print[ P_Cartesian ] 0
| 19> end
| 20> % elprop
| 21>     Dipole false
| 22> end
| 23> *xyz 1 1
| 24>  C        1.0514038075     0.1305396085    -0.0971151230
| 25>  N        2.5230165938     0.0801655382    -0.1174512730
| 26>  C        3.2703068136    -0.6553279644    -1.1548342416
| 27>  C        3.3090660624     0.8255540700    -1.1413925544
| 28>  C        4.4666220784     1.5215103182    -0.6587943418
| 29>  N        5.3940959119     2.0621246607    -0.2504865103
| 30>  H        0.7381061455     1.0261833553     0.4376278253
| 31>  H        0.6827126828    -0.7633645700     0.4048625421
| 32>  H        0.6842650447     0.1580074656    -1.1219453698
| 33>  H        2.9554874165     0.0703555145     0.8043034340
| 34>  H        4.1308240797    -1.2053870506    -0.7951046720
| 35>  H        2.6435992559    -1.1471428106    -1.8880789767
| 36>  H        2.6856741073     1.3634518649    -1.8483707388
| 37> *
| 38>
| 39>                          ****END OF INPUT****
 Total Charge           Charge          ....    1
 Multiplicity           Mult            ....    1
 Number of Electrons    NEL             ....   44
FINAL SINGLE POINT ENERGY      -265.595256409387

CARTESIAN COORDINATES (ANGSTROEM)
---------------------------------
  C     -0.541523    0.874137    2.063680
  N      0.000017    0.000034    1.009522
  C     -0.790394   -1.092026    0.411043
  C     -0.470690    0.105115   -0.400920
  C      0.549709    0.053789   -1.407618
  N      1.383428    0.000017   -2.195720
  H     -0.004644    1.821427    2.044095
  H     -0.408166    0.378473    3.024530
  H     -1.601195    1.039442    1.875780
  H      0.995578   -0.194633    1.096021
  H     -0.242056   -2.008398    0.232079
  H     -1.790333   -1.188257    0.814748
  H     -1.242361    0.855910   -0.537658

FINAL SINGLE POINT ENERGY      -265.595256662306
                    ***********************HURRAY********************
 Multiplicity           Mult            ....    1
 Number of Electrons    NEL             ....   44
 Basis Dimension        Dim             ....  228
FINAL SINGLE POINT ENERGY      -265.595256777441

VIBRATIONAL FREQUENCIES
-----------------------

   0:         0.00 cm**-1
   1:         0.00 cm**-1
   2:         0.00 cm**-1
   3:         0.00 cm**-1
   4:         0.00 cm**-1
   5:         0.00 cm**-1
   6:       147.99 cm**-1
   7:       173.44 cm**-1
   8:       209.74 cm**-1
   9:       321.96 cm**-1
  10:       379.87 cm**-1
  11:       524.43 cm**-1
  12:       541.60 cm**-1
  13:       795.09 cm**-1
  14:       825.11 cm**-1
  15:       885.77 cm**-1
  16:       966.22 cm**-1
  17:      1042.41 cm**-1
  18:      1081.77 cm**-1
  19:      1139.36 cm**-1
  20:      1153.94 cm**-1
  21:      1169.24 cm**-1
  22:      1196.02 cm**-1
  23:      1235.18 cm**-1
  24:      1277.05 cm**-1
  25:      1386.49 cm**-1
  26:      1453.83 cm**-1
  27:      1459.19 cm**-1
  28:      1478.99 cm**-1
  29:      1491.74 cm**-1
  30:      1512.19 cm**-1
  31:      2401.93 cm**-1
  32:      3085.21 cm**-1
  33:      3171.46 cm**-1
  34:      3186.67 cm**-1
  35:      3189.68 cm**-1
  36:      3193.74 cm**-1
  37:      3279.36 cm**-1
  38:      3512.69 cm**-1

IR SPECTRUM
-----------

 Mode    freq (cm**-1)   T**2         TX         TY         TZ
-------------------------------------------------------------------
   6:       147.99    7.209403  ( -1.100630  -1.708018  -1.755190)
   7:       173.44    6.676732  (  0.584081  -1.748957   1.810175)
   8:       209.74    1.443526  ( -0.219046   0.352096  -1.127640)
   9:       321.96    1.043127  (  0.854310   0.326254  -0.454797)
  10:       379.87    0.730247  (  0.790215  -0.257473  -0.198781)
  11:       524.43    2.280269  (  0.223016   0.556292  -1.386028)
  12:       541.60    0.663947  ( -0.144127  -0.583688   0.549984)
  13:       795.09    6.065796  ( -1.236246  -1.405354  -1.600773)
  14:       825.11   16.023999  (  1.390334  -1.065392   3.599432)
  15:       885.77    5.468609  ( -0.475219   0.148509   2.284890)
  16:       966.22   14.351493  (  0.157853   3.753301   0.489188)
  17:      1042.41   23.566273  (  2.613636   2.106186   3.507016)
  18:      1081.77   18.257456  (  0.758270  -1.032973  -4.076205)
  19:      1139.36   14.710063  (  1.857291   2.083696  -2.630350)
  20:      1153.94    4.676838  ( -1.317610  -0.279435   1.691939)
  21:      1169.24   13.111463  ( -0.635911   2.364860  -2.667305)
  22:      1196.02    0.379086  (  0.431723   0.372980  -0.231488)
  23:      1235.18    7.782951  ( -0.343904  -2.585843  -0.988987)
  24:      1277.05    5.902456  ( -2.249921  -0.766520  -0.502749)
  25:      1386.49    1.342467  (  1.015762   0.212888  -0.515144)
  26:      1453.83    3.934680  ( -0.894402   1.555871  -0.844980)
  27:      1459.19   20.983126  (  1.200211  -3.552325  -2.631275)
  28:      1478.99   16.330847  ( -1.568092  -2.891322   2.347805)
  29:      1491.74   23.321138  (  4.528239   1.195536   1.177659)
  30:      1512.19   30.704741  (  0.916646   0.797589   5.406325)
  31:      2401.93    8.384855  (  2.035915  -0.241583  -2.044882)
  32:      3085.21    0.461439  ( -0.212515  -0.241367  -0.598346)
  33:      3171.46    9.415080  ( -1.011132  -2.848215   0.529496)
  34:      3186.67    0.654964  (  0.109189   0.538514  -0.594176)
  35:      3189.68    2.027120  (  0.379995   1.105893  -0.812234)
  36:      3193.74   12.986806  ( -2.197441   2.364955  -1.601576)
  37:      3279.36   13.991088  ( -2.998409   1.922607   1.142021)
  38:      3512.69  104.431212  ( -9.658375   1.269223  -3.088053)

--------------------------
THERMOCHEMISTRY AT 298.15K
--------------------------

Temperature         ... 298.15 K
Pressure            ... 1.00 atm
Total Mass          ... 83.11 AMU

Throughout the following assumptions are being made:
  (1) The electronic state is orbitally nondegenerate
  (2) There are no thermally accessible electronically excited states
  (3) Hindered rotations indicated by low frequency modes) are not
      treated as such but are treated as vibrations and this may
      case some error
  (4) All equations used are the standard statistical mechanics
      equations for an ideal gas
  (5) All vibrations are strinctly harmonic

------------
INNER ENERGY
------------

The inner energy is: U= E(el) + E(ZPE) + E(vib) + E(rot) + E(trans)
    E(el)   - is the total energy from the electronic structure calculation
              = E(kin-el) + E(nuc-el) + E(el-el) + E(nuc-nuc)
    E(ZPE)  - the the zero temperature vibrational energy from the frequency calculation
    E(vib)  - the the finite temperature correction to E(ZPE) due to population
              of excietd vibrational states
    E(rot)  - is the rotational thermal energy
    E(trans)- is the translational thermal energy

Summary of contributions to the inner energy U:
Electronic energy                ...   -265.59525678 Eh
Zero point energy                ...      0.11133265 Eh      69.86 kcal/mol
Thermal vibrational correction   ...      0.00336823 Eh       2.11 kcal/mol
Thermal rotational correction    ...      0.00141627 Eh       0.89 kcal/mol
Thermal translational correction ...      0.00141627 Eh       0.89 kcal/mol
-----------------------------------------------------------------------
Total thermal energy                   -265.47772335 Eh

Summary of corrections to the electronic energy:
(perhaps to be used in another calculation)
Total thermal correction                  0.00620078 Eh       3.89 kcal/mol
Non-thermal (ZPE) correction              0.11133265 Eh      69.86 kcal/mol
-----------------------------------------------------------------------
Total correction                          0.11753343 Eh      73.75 kcal/mol

--------
ENTHALPY
--------

The enthalpy is H = U + kB*T
                kB is Boltzmann's constant
Total free energy                 ...   -265.47772335 Eh
Thermal Enthalpy correction       ...      0.00094421 Eh       0.59 kcal/mol
-----------------------------------------------------------------------
Total Enthalpy                    ...   -265.47677914 Eh

-------
ENTROPY
-------

The entropy contributions are T*S = T*(S(el)+S(vib)+S(rot)+S(trans)
     S(el)   - electronic entropy
     S(vib)  - vibrational entropy
     S(rot)  - rotational entropy
     S(trans)- translational entropy
The entropies will be listed as mutliplied by the temperature to get
units of energy

Electronic entropy                ...      0.00000000 Eh      0.00 kcal/mol
Vibrational entropy               ...      0.00559950 Eh      3.51 kcal/mol
Rotational entropy                ...      0.01153036 Eh      7.24 kcal/mol
Translational entropy             ...      0.01860929 Eh     11.68 kcal/mol
-----------------------------------------------------------------------
Final entropy term                ...      0.03573915 Eh     22.43 kcal/mol

CAUTION: The rotational entropy is not quite correctly treated here
         because it includes a symmetry number that is not yet correctly
         implemented in ORCA!
For a nonlinear molecule the correct rotational entropy is:
    S(rot) = R*(ln(qrot/sn)+1.5)
    R    = 8.31441 J/mol/K = 1.987191683e-3 kcal/mol/K
    qrot = 134676.5906223
    sn is the rotational symmetry number. We have assumed 3 here
       if it is different for your molecule then you should correct
       the printed rotational entropy by manually evaluating the equation
       as given above

For convenience we print out the resulting values for sn=1 - 12:
 sn= 1  qrot/sn=  134676.5906 T*S(rot)=     7.89 kcal/mol T*S(tot)=    23.08 kcal/mol
 sn= 2  qrot/sn=   67338.2953 T*S(rot)=     7.48 kcal/mol T*S(tot)=    22.67 kcal/mol
 sn= 3  qrot/sn=   44892.1969 T*S(rot)=     7.24 kcal/mol T*S(tot)=    22.43 kcal/mol
 sn= 4  qrot/sn=   33669.1477 T*S(rot)=     7.06 kcal/mol T*S(tot)=    22.26 kcal/mol
 sn= 5  qrot/sn=   26935.3181 T*S(rot)=     6.93 kcal/mol T*S(tot)=    22.12 kcal/mol
 sn= 6  qrot/sn=   22446.0984 T*S(rot)=     6.82 kcal/mol T*S(tot)=    22.02 kcal/mol
 sn= 7  qrot/sn=   19239.5129 T*S(rot)=     6.73 kcal/mol T*S(tot)=    21.92 kcal/mol
 sn= 8  qrot/sn=   16834.5738 T*S(rot)=     6.65 kcal/mol T*S(tot)=    21.85 kcal/mol
 sn= 9  qrot/sn=   14964.0656 T*S(rot)=     6.58 kcal/mol T*S(tot)=    21.78 kcal/mol
 sn=10  qrot/sn=   13467.6591 T*S(rot)=     6.52 kcal/mol T*S(tot)=    21.71 kcal/mol
 sn=11  qrot/sn=   12243.3264 T*S(rot)=     6.47 kcal/mol T*S(tot)=    21.66 kcal/mol
 sn=12  qrot/sn=   11223.0492 T*S(rot)=     6.41 kcal/mol T*S(tot)=    21.61 kcal/mol

-------------------
GIBBS FREE ENTHALPY
-------------------

The Gibbs free enthalpy is G = H - T*S

Total enthalpy                    ...   -265.47677914 Eh
Total entropy correction          ...     -0.03573915 Eh    -22.43 kcal/mol
-----------------------------------------------------------------------
Final Gibbs free enthalpy         ...   -265.51251829 Eh

For completeness - the Gibbs free enthalpy minus the electronic energy
G-E(el)                           ...      0.08273849 Eh     51.92 kcal/mol

                             ****ORCA TERMINATED NORMALLY****
TOTAL RUN TIME: 0 days 0 hours 12 minutes 26 seconds 504 msec
