                         Program Version 3.0.3 - RELEASE   -
|  1> ! NORI PBE0 def2-TZVP UseSym TightOPT Freq TightSCF Grid3 FinalGrid5 XYZFile
|  2> % pal
|  3>     nprocs 8
|  4> end
|  5> %method
|  6>     SymThresh 5.0e-2
|  7> end
|  8> % geom
|  9>     MaxIter 10
| 10> end
| 11> % maxcore 2000
| 12> % output
| 13>     printlevel mini
| 14>     print[ P_Basis ] 0
| 15>     print[ P_SCFInfo ] 1
| 16>     print[ P_SCFIterInfo ] 1
| 17>     print[ P_OrbEn ] 0
| 18>     print[ P_Cartesian ] 0
| 19> end
| 20> % elprop
| 21>     Dipole false
| 22> end
| 23> *xyz 1 1
| 24>  C        1.0485272749     0.0857949268    -0.0903252683
| 25>  N        2.5053516126     0.0518464500     0.1714837344
| 26>  C        3.0246061676     1.1951596386     0.9920020087
| 27>  C        4.4170917354     0.7488604457     1.4182831150
| 28>  C        4.3960744728    -0.7954879145     1.3482141059
| 29>  C        2.9858783664    -1.1626788454     0.9086490463
| 30>  H        0.7711861707    -0.7793285391    -0.6911380190
| 31>  H        0.8004285865     1.0026480202    -0.6233839198
| 32>  H        0.5249058284     0.0585874782     0.8637210505
| 33>  H        2.9894063618     0.0753764815    -0.7280367956
| 34>  H        2.3411962183     1.2939984604     1.8366922600
| 35>  H        2.9895797083     2.1101006231     0.4014148719
| 36>  H        4.6408287283     1.1171637600     2.4182643440
| 37>  H        5.1767865637     1.1572610149     0.7514706575
| 38>  H        5.1323173561    -1.1610410920     0.6315803356
| 39>  H        4.6269497088    -1.2598301031     2.3057352600
| 40>  H        2.9123815451    -2.0343206793     0.2590144757
| 41>  H        2.3058635944    -1.2915901260     1.7520987373
| 42> *
| 43>
| 44>                          ****END OF INPUT****
 Total Charge           Charge          ....    1
 Multiplicity           Mult            ....    1
 Number of Electrons    NEL             ....   48
FINAL SINGLE POINT ENERGY      -252.058170850123

CARTESIAN COORDINATES (ANGSTROEM)
---------------------------------
  C      0.924206   -0.000037    1.956932
  N      0.000010    0.000076    0.800512
  C      0.137122    1.180181   -0.115418
  C     -0.625450    0.772680   -1.369339
  C     -0.639916   -0.773391   -1.360756
  C      0.135573   -1.179622   -0.115742
  H      0.746800   -0.890268    2.558423
  H      0.750672    0.892940    2.555508
  H      1.946614   -0.002579    1.582585
  H     -0.956558    0.000277    1.159763
  H      1.206695    1.297788   -0.297081
  H     -0.235127    2.072884    0.386024
  H     -0.139165    1.179416   -2.254753
  H     -1.640594    1.170103   -1.352864
  H     -1.662124   -1.151092   -1.320246
  H     -0.178492   -1.199971   -2.250090
  H     -0.228259   -2.074329    0.388328
  H      1.204128   -1.291444   -0.307279

FINAL SINGLE POINT ENERGY      -252.058171522863
                    ***********************HURRAY********************
 Multiplicity           Mult            ....    1
 Number of Electrons    NEL             ....   48
 Basis Dimension        Dim             ....  258
FINAL SINGLE POINT ENERGY      -252.058171784861

VIBRATIONAL FREQUENCIES
-----------------------

   0:         0.00 cm**-1
   1:         0.00 cm**-1
   2:         0.00 cm**-1
   3:         0.00 cm**-1
   4:         0.00 cm**-1
   5:         0.00 cm**-1
   6:       -15.72 cm**-1
   7:       178.97 cm**-1
   8:       228.13 cm**-1
   9:       320.45 cm**-1
  10:       439.85 cm**-1
  11:       549.14 cm**-1
  12:       642.44 cm**-1
  13:       769.12 cm**-1
  14:       829.54 cm**-1
  15:       871.49 cm**-1
  16:       918.44 cm**-1
  17:       951.82 cm**-1
  18:       971.22 cm**-1
  19:      1028.83 cm**-1
  20:      1064.63 cm**-1
  21:      1067.91 cm**-1
  22:      1085.14 cm**-1
  23:      1125.50 cm**-1
  24:      1188.51 cm**-1
  25:      1214.44 cm**-1
  26:      1247.10 cm**-1
  27:      1281.03 cm**-1
  28:      1299.39 cm**-1
  29:      1334.61 cm**-1
  30:      1350.81 cm**-1
  31:      1376.73 cm**-1
  32:      1379.59 cm**-1
  33:      1410.11 cm**-1
  34:      1436.92 cm**-1
  35:      1459.67 cm**-1
  36:      1483.05 cm**-1
  37:      1492.42 cm**-1
  38:      1494.38 cm**-1
  39:      1497.54 cm**-1
  40:      1505.32 cm**-1
  41:      1522.06 cm**-1
  42:      3086.26 cm**-1
  43:      3096.68 cm**-1
  44:      3100.10 cm**-1
  45:      3100.84 cm**-1
  46:      3107.92 cm**-1
  47:      3144.57 cm**-1
  48:      3156.63 cm**-1
  49:      3164.32 cm**-1
  50:      3169.71 cm**-1
  51:      3185.78 cm**-1
  52:      3186.44 cm**-1
  53:      3454.86 cm**-1

IR SPECTRUM
-----------

 Mode    freq (cm**-1)   T**2         TX         TY         TZ
-------------------------------------------------------------------
   7:       178.97    0.780316  (  0.286720  -0.018702  -0.835319)
   8:       228.13    0.039321  (  0.000720  -0.198270  -0.003048)
   9:       320.45    0.190763  ( -0.003045  -0.436754  -0.000390)
  10:       439.85    0.063243  ( -0.090015  -0.002840  -0.234803)
  11:       549.14    3.103848  (  1.187428   0.010579   1.301442)
  12:       642.44    0.841684  ( -0.024146  -0.915647   0.051872)
  13:       769.12    2.037128  (  1.293851  -0.049926  -0.600488)
  14:       829.54    3.441955  (  0.003632  -1.854944  -0.033504)
  15:       871.49    7.428394  ( -0.484486  -0.055235   2.681533)
  16:       918.44    2.752832  ( -0.336248   0.010957  -1.624700)
  17:       951.82    1.543803  (  0.008678  -1.242446  -0.007511)
  18:       971.22    0.149911  (  0.157698  -0.019728  -0.353062)
  19:      1028.83   10.254003  ( -0.007976  -3.201663  -0.057411)
  20:      1064.63    2.989712  (  0.206886  -1.705852   0.192296)
  21:      1067.91    3.455305  ( -1.264844  -0.274068  -1.334302)
  22:      1085.14    0.784230  (  0.820660   0.046296  -0.329552)
  23:      1125.50   20.825246  ( -1.456352  -0.004668  -4.324842)
  24:      1188.51    0.038672  ( -0.016299   0.189628  -0.049477)
  25:      1214.44    0.269788  (  0.039472  -0.514527   0.059096)
  26:      1247.10    1.721905  ( -0.428546   0.051312  -1.239201)
  27:      1281.03    3.858394  ( -0.028446   1.961445  -0.101588)
  28:      1299.39    1.361850  (  0.123140  -0.173891  -1.147366)
  29:      1334.61    0.236782  ( -0.008764  -0.486337   0.013485)
  30:      1350.81    2.180252  ( -1.473485  -0.084099   0.044944)
  31:      1376.73    2.899606  ( -0.211198  -0.000804  -1.689675)
  32:      1379.59    2.861818  (  0.011904  -1.691591   0.014023)
  33:      1410.11   14.136993  (  0.003473   3.759918   0.000919)
  34:      1436.92   17.865051  ( -1.709150  -0.029210  -3.865618)
  35:      1459.67    3.702356  (  1.645750   0.009228   0.996885)
  36:      1483.05    4.939425  ( -0.043134  -2.222046   0.008748)
  37:      1492.42    1.265747  ( -0.021064   1.112813  -0.164162)
  38:      1494.38   30.309474  (  0.459991  -0.126473  -5.484696)
  39:      1497.54   25.620847  (  0.003983   5.060741  -0.098669)
  40:      1505.32   26.053319  ( -5.084634   0.001287  -0.447009)
  41:      1522.06    1.780780  ( -1.308071  -0.051137   0.259065)
  42:      3086.26    0.071650  ( -0.082251  -0.004247  -0.254690)
  43:      3096.68    1.455563  (  0.085481  -1.199019   0.103001)
  44:      3100.10    4.463697  (  1.723045   0.087897   1.219462)
  45:      3100.84    1.955866  (  0.260884   1.373825   0.020267)
  46:      3107.92    3.386365  (  1.716303  -0.177742   0.639593)
  47:      3144.57    0.330144  (  0.042696   0.572993   0.000411)
  48:      3156.63    0.213813  (  0.431863  -0.018545   0.164207)
  49:      3164.32    0.532030  (  0.023656   0.728936  -0.011125)
  50:      3169.71    1.241601  ( -1.096447   0.016807   0.197796)
  51:      3185.78    0.018677  ( -0.000933  -0.129137   0.044716)
  52:      3186.44    0.212166  ( -0.012876   0.010564   0.460314)
  53:      3454.86   47.189914  (  6.042526  -0.000254  -3.267689)

--------------------------
THERMOCHEMISTRY AT 298.15K
--------------------------

Temperature         ... 298.15 K
Pressure            ... 1.00 atm
Total Mass          ... 86.16 AMU

Throughout the following assumptions are being made:
  (1) The electronic state is orbitally nondegenerate
  (2) There are no thermally accessible electronically excited states
  (3) Hindered rotations indicated by low frequency modes) are not
      treated as such but are treated as vibrations and this may
      case some error
  (4) All equations used are the standard statistical mechanics
      equations for an ideal gas
  (5) All vibrations are strinctly harmonic

------------
INNER ENERGY
------------

The inner energy is: U= E(el) + E(ZPE) + E(vib) + E(rot) + E(trans)
    E(el)   - is the total energy from the electronic structure calculation
              = E(kin-el) + E(nuc-el) + E(el-el) + E(nuc-nuc)
    E(ZPE)  - the the zero temperature vibrational energy from the frequency calculation
    E(vib)  - the the finite temperature correction to E(ZPE) due to population
              of excietd vibrational states
    E(rot)  - is the rotational thermal energy
    E(trans)- is the translational thermal energy

Summary of contributions to the inner energy U:
Electronic energy                ...   -252.05817178 Eh
Zero point energy                ...      0.17307332 Eh     108.60 kcal/mol
Thermal vibrational correction   ...      0.00275615 Eh       1.73 kcal/mol
Thermal rotational correction    ...      0.00141627 Eh       0.89 kcal/mol
Thermal translational correction ...      0.00141627 Eh       0.89 kcal/mol
-----------------------------------------------------------------------
Total thermal energy                   -251.87950978 Eh

Summary of corrections to the electronic energy:
(perhaps to be used in another calculation)
Total thermal correction                  0.00558869 Eh       3.51 kcal/mol
Non-thermal (ZPE) correction              0.17307332 Eh     108.60 kcal/mol
-----------------------------------------------------------------------
Total correction                          0.17866201 Eh     112.11 kcal/mol

--------
ENTHALPY
--------

The enthalpy is H = U + kB*T
                kB is Boltzmann's constant
Total free energy                 ...   -251.87950978 Eh
Thermal Enthalpy correction       ...      0.00094421 Eh       0.59 kcal/mol
-----------------------------------------------------------------------
Total Enthalpy                    ...   -251.87856557 Eh

-------
ENTROPY
-------

The entropy contributions are T*S = T*(S(el)+S(vib)+S(rot)+S(trans)
     S(el)   - electronic entropy
     S(vib)  - vibrational entropy
     S(rot)  - rotational entropy
     S(trans)- translational entropy
The entropies will be listed as mutliplied by the temperature to get
units of energy

Electronic entropy                ...      0.00000000 Eh      0.00 kcal/mol
Vibrational entropy               ...      0.00424956 Eh      2.67 kcal/mol
Rotational entropy                ...      0.01149854 Eh      7.22 kcal/mol
Translational entropy             ...      0.01866024 Eh     11.71 kcal/mol
-----------------------------------------------------------------------
Final entropy term                ...      0.03440833 Eh     21.59 kcal/mol

CAUTION: The rotational entropy is not quite correctly treated here
         because it includes a symmetry number that is not yet correctly
         implemented in ORCA!
For a nonlinear molecule the correct rotational entropy is:
    S(rot) = R*(ln(qrot/sn)+1.5)
    R    = 8.31441 J/mol/K = 1.987191683e-3 kcal/mol/K
    qrot = 130213.5012271
    sn is the rotational symmetry number. We have assumed 3 here
       if it is different for your molecule then you should correct
       the printed rotational entropy by manually evaluating the equation
       as given above

For convenience we print out the resulting values for sn=1 - 12:
 sn= 1  qrot/sn=  130213.5012 T*S(rot)=     7.87 kcal/mol T*S(tot)=    22.24 kcal/mol
 sn= 2  qrot/sn=   65106.7506 T*S(rot)=     7.46 kcal/mol T*S(tot)=    21.83 kcal/mol
 sn= 3  qrot/sn=   43404.5004 T*S(rot)=     7.22 kcal/mol T*S(tot)=    21.59 kcal/mol
 sn= 4  qrot/sn=   32553.3753 T*S(rot)=     7.04 kcal/mol T*S(tot)=    21.42 kcal/mol
 sn= 5  qrot/sn=   26042.7002 T*S(rot)=     6.91 kcal/mol T*S(tot)=    21.29 kcal/mol
 sn= 6  qrot/sn=   21702.2502 T*S(rot)=     6.80 kcal/mol T*S(tot)=    21.18 kcal/mol
 sn= 7  qrot/sn=   18601.9287 T*S(rot)=     6.71 kcal/mol T*S(tot)=    21.09 kcal/mol
 sn= 8  qrot/sn=   16276.6877 T*S(rot)=     6.63 kcal/mol T*S(tot)=    21.01 kcal/mol
 sn= 9  qrot/sn=   14468.1668 T*S(rot)=     6.56 kcal/mol T*S(tot)=    20.94 kcal/mol
 sn=10  qrot/sn=   13021.3501 T*S(rot)=     6.50 kcal/mol T*S(tot)=    20.88 kcal/mol
 sn=11  qrot/sn=   11837.5910 T*S(rot)=     6.45 kcal/mol T*S(tot)=    20.82 kcal/mol
 sn=12  qrot/sn=   10851.1251 T*S(rot)=     6.39 kcal/mol T*S(tot)=    20.77 kcal/mol

-------------------
GIBBS FREE ENTHALPY
-------------------

The Gibbs free enthalpy is G = H - T*S

Total enthalpy                    ...   -251.87856557 Eh
Total entropy correction          ...     -0.03440833 Eh    -21.59 kcal/mol
-----------------------------------------------------------------------
Final Gibbs free enthalpy         ...   -251.91297390 Eh

For completeness - the Gibbs free enthalpy minus the electronic energy
G-E(el)                           ...      0.14519789 Eh     91.11 kcal/mol

                             ****ORCA TERMINATED NORMALLY****
TOTAL RUN TIME: 0 days 0 hours 23 minutes 11 seconds 735 msec
