                         Program Version 3.0.3 - RELEASE   -
|  1> ! NORI PBE0 def2-TZVP UseSym TightOPT Freq TightSCF Grid3 FinalGrid5 XYZFile
|  2> % pal
|  3>     nprocs 8
|  4> end
|  5> %method
|  6>     SymThresh 5.0e-2
|  7> end
|  8> % geom
|  9>     MaxIter 10
| 10> end
| 11> % maxcore 2000
| 12> % output
| 13>     printlevel mini
| 14>     print[ P_Basis ] 0
| 15>     print[ P_SCFInfo ] 1
| 16>     print[ P_SCFIterInfo ] 1
| 17>     print[ P_OrbEn ] 0
| 18>     print[ P_Cartesian ] 0
| 19> end
| 20> % elprop
| 21>     Dipole false
| 22> end
| 23> *xyz 1 1
| 24>  C        1.1151333294     0.0847661499     0.3917133953
| 25>  N        2.4300282945     0.0908895529    -0.2915292786
| 26>  C        2.7165639282    -1.1286334714    -1.1334344401
| 27>  C        3.6406938461    -0.5889148159    -2.1750920785
| 28>  C        3.6222530170     0.7352495191    -2.1992237569
| 29>  C        2.6831003216     1.2866076881    -1.1772721623
| 30>  H        1.0233969864     0.9852930297     0.9975242506
| 31>  H        1.0468083897    -0.7977423354     1.0264480749
| 32>  H        0.3296036660     0.0620681055    -0.3617098666
| 33>  H        3.1566132051     0.1142637690     0.4248743298
| 34>  H        3.1340130299    -1.9115729446    -0.4985511062
| 35>  H        1.7720770900    -1.4888039234    -1.5515878784
| 36>  H        4.2075599786    -1.2351434912    -2.8310063531
| 37>  H        4.1712008433     1.3727091178    -2.8785453915
| 38>  H        1.7292618775     1.6057379949    -1.6074348097
| 39>  H        3.0786921965     2.1030560549    -0.5712929286
| 40> *
| 41>
| 42>                          ****END OF INPUT****
 Total Charge           Charge          ....    1
 Multiplicity           Mult            ....    1
 Number of Electrons    NEL             ....   46
FINAL SINGLE POINT ENERGY      -250.824490761488

CARTESIAN COORDINATES (ANGSTROEM)
---------------------------------
  C      1.814039    1.064072   -0.000000
  N      0.782677   -0.000358    0.000000
  C     -0.122461   -0.011060    1.208012
  C     -1.378435   -0.606907    0.662194
  C     -1.378435   -0.606907   -0.662194
  C     -0.122461   -0.011060   -1.208012
  H      2.431260    0.963055   -0.891615
  H      2.431260    0.963055    0.891615
  H      1.316969    2.032292   -0.000000
  H      1.261035   -0.901984    0.000000
  H      0.355379   -0.578704    2.007964
  H     -0.256535    1.020208    1.548111
  H     -2.178502   -0.948883    1.304108
  H     -2.178502   -0.948883   -1.304108
  H     -0.256535    1.020208   -1.548111
  H      0.355379   -0.578704   -2.007964

FINAL SINGLE POINT ENERGY      -250.824491399933
                    ***********************HURRAY********************
 Multiplicity           Mult            ....    1
 Number of Electrons    NEL             ....   46
 Basis Dimension        Dim             ....  246
FINAL SINGLE POINT ENERGY      -250.824491678534

VIBRATIONAL FREQUENCIES
-----------------------

   0:         0.00 cm**-1
   1:         0.00 cm**-1
   2:         0.00 cm**-1
   3:         0.00 cm**-1
   4:         0.00 cm**-1
   5:         0.00 cm**-1
   6:       111.54 cm**-1
   7:       246.27 cm**-1
   8:       327.51 cm**-1
   9:       404.19 cm**-1
  10:       439.62 cm**-1
  11:       589.48 cm**-1
  12:       709.28 cm**-1
  13:       784.02 cm**-1
  14:       840.93 cm**-1
  15:       945.70 cm**-1
  16:       965.38 cm**-1
  17:       993.14 cm**-1
  18:      1007.46 cm**-1
  19:      1013.04 cm**-1
  20:      1039.84 cm**-1
  21:      1085.54 cm**-1
  22:      1126.77 cm**-1
  23:      1141.43 cm**-1
  24:      1188.24 cm**-1
  25:      1203.74 cm**-1
  26:      1294.83 cm**-1
  27:      1334.04 cm**-1
  28:      1375.38 cm**-1
  29:      1383.96 cm**-1
  30:      1416.69 cm**-1
  31:      1418.80 cm**-1
  32:      1457.67 cm**-1
  33:      1487.50 cm**-1
  34:      1494.09 cm**-1
  35:      1495.33 cm**-1
  36:      1504.26 cm**-1
  37:      1710.65 cm**-1
  38:      3072.33 cm**-1
  39:      3073.32 cm**-1
  40:      3087.03 cm**-1
  41:      3134.58 cm**-1
  42:      3135.00 cm**-1
  43:      3184.52 cm**-1
  44:      3190.10 cm**-1
  45:      3241.35 cm**-1
  46:      3259.58 cm**-1
  47:      3469.75 cm**-1

IR SPECTRUM
-----------

 Mode    freq (cm**-1)   T**2         TX         TY         TZ
-------------------------------------------------------------------
   6:       111.54    0.970968  (  0.800275  -0.574916   0.000002)
   7:       246.27    0.036970  (  0.000001  -0.000002   0.192276)
   8:       327.51    0.120681  (  0.000003  -0.000006  -0.347391)
   9:       404.19    0.293322  ( -0.000001  -0.000007  -0.541592)
  10:       439.62    0.408699  (  0.557388  -0.313077  -0.000003)
  11:       589.48    6.406207  ( -1.241501  -2.205648   0.000000)
  12:       709.28   56.748292  (  2.667535  -7.045037   0.000001)
  13:       784.02    0.022486  (  0.000003  -0.000013   0.149952)
  14:       840.93    6.396526  ( -2.389912   0.827556  -0.000000)
  15:       945.70    2.113235  (  0.000003  -0.000011  -1.453697)
  16:       965.38    5.579469  (  0.000005  -0.000011  -2.362090)
  17:       993.14    5.435767  ( -0.000039   0.000041  -2.331473)
  18:      1007.46   10.990442  (  2.670749  -1.964063  -0.000046)
  19:      1013.04    0.591171  (  0.472663   0.606433   0.000012)
  20:      1039.84   12.508485  (  0.000015  -0.000009   3.536734)
  21:      1085.54    8.047536  (  2.668207   0.963436  -0.000003)
  22:      1126.77    5.070652  ( -1.638334  -1.544835  -0.000000)
  23:      1141.43    7.954218  (  2.290732   1.645225  -0.000001)
  24:      1188.24    4.287788  ( -0.000001  -0.000002   2.070698)
  25:      1203.74    0.943145  (  0.000001  -0.000000  -0.971157)
  26:      1294.83    1.033012  ( -0.188633  -0.998714  -0.000001)
  27:      1334.04    0.020664  (  0.000000   0.000000   0.143749)
  28:      1375.38    2.455627  ( -1.416041  -0.671160  -0.000001)
  29:      1383.96    3.930931  ( -0.000003   0.000001   1.982657)
  30:      1416.69   20.037151  ( -0.000018  -0.000010   4.476288)
  31:      1418.80   15.697169  (  3.513080   1.831785   0.000024)
  32:      1457.67    1.569218  (  0.081546  -1.250027  -0.000000)
  33:      1487.50    0.029149  ( -0.000000   0.000001  -0.170731)
  34:      1494.09   30.958929  (  0.000004  -0.000001  -5.564075)
  35:      1495.33   27.842606  ( -5.066491   1.474204  -0.000004)
  36:      1504.26   13.336093  (  1.111563   3.478580   0.000000)
  37:      1710.65    0.175740  (  0.419088   0.010284  -0.000000)
  38:      3072.33    2.424163  (  1.128038   1.073169   0.000000)
  39:      3073.32    2.136699  (  0.000000   0.000000  -1.461745)
  40:      3087.03    0.188580  ( -0.330865  -0.281262  -0.000000)
  41:      3134.58    0.238435  (  0.000000  -0.000000   0.488299)
  42:      3135.00    0.122322  ( -0.305584  -0.170120  -0.000000)
  43:      3184.52    0.137318  ( -0.000000   0.000000  -0.370565)
  44:      3190.10    0.132275  (  0.330149   0.152564  -0.000000)
  45:      3241.35    5.698872  ( -0.000000   0.000000  -2.387231)
  46:      3259.58    6.986072  (  2.412937   1.078799  -0.000000)
  47:      3469.75   60.027157  ( -4.401369   6.376136   0.000000)

--------------------------
THERMOCHEMISTRY AT 298.15K
--------------------------

Temperature         ... 298.15 K
Pressure            ... 1.00 atm
Total Mass          ... 84.14 AMU

Throughout the following assumptions are being made:
  (1) The electronic state is orbitally nondegenerate
  (2) There are no thermally accessible electronically excited states
  (3) Hindered rotations indicated by low frequency modes) are not
      treated as such but are treated as vibrations and this may
      case some error
  (4) All equations used are the standard statistical mechanics
      equations for an ideal gas
  (5) All vibrations are strinctly harmonic

------------
INNER ENERGY
------------

The inner energy is: U= E(el) + E(ZPE) + E(vib) + E(rot) + E(trans)
    E(el)   - is the total energy from the electronic structure calculation
              = E(kin-el) + E(nuc-el) + E(el-el) + E(nuc-nuc)
    E(ZPE)  - the the zero temperature vibrational energy from the frequency calculation
    E(vib)  - the the finite temperature correction to E(ZPE) due to population
              of excietd vibrational states
    E(rot)  - is the rotational thermal energy
    E(trans)- is the translational thermal energy

Summary of contributions to the inner energy U:
Electronic energy                ...   -250.82449168 Eh
Zero point energy                ...      0.14895547 Eh      93.47 kcal/mol
Thermal vibrational correction   ...      0.00300588 Eh       1.89 kcal/mol
Thermal rotational correction    ...      0.00141627 Eh       0.89 kcal/mol
Thermal translational correction ...      0.00141627 Eh       0.89 kcal/mol
-----------------------------------------------------------------------
Total thermal energy                   -250.66969779 Eh

Summary of corrections to the electronic energy:
(perhaps to be used in another calculation)
Total thermal correction                  0.00583842 Eh       3.66 kcal/mol
Non-thermal (ZPE) correction              0.14895547 Eh      93.47 kcal/mol
-----------------------------------------------------------------------
Total correction                          0.15479389 Eh      97.13 kcal/mol

--------
ENTHALPY
--------

The enthalpy is H = U + kB*T
                kB is Boltzmann's constant
Total free energy                 ...   -250.66969779 Eh
Thermal Enthalpy correction       ...      0.00094421 Eh       0.59 kcal/mol
-----------------------------------------------------------------------
Total Enthalpy                    ...   -250.66875358 Eh

-------
ENTROPY
-------

The entropy contributions are T*S = T*(S(el)+S(vib)+S(rot)+S(trans)
     S(el)   - electronic entropy
     S(vib)  - vibrational entropy
     S(rot)  - rotational entropy
     S(trans)- translational entropy
The entropies will be listed as mutliplied by the temperature to get
units of energy

Electronic entropy                ...      0.00000000 Eh      0.00 kcal/mol
Vibrational entropy               ...      0.00486365 Eh      3.05 kcal/mol
Rotational entropy                ...      0.01138924 Eh      7.15 kcal/mol
Translational entropy             ...      0.01862670 Eh     11.69 kcal/mol
-----------------------------------------------------------------------
Final entropy term                ...      0.03487959 Eh     21.89 kcal/mol

CAUTION: The rotational entropy is not quite correctly treated here
         because it includes a symmetry number that is not yet correctly
         implemented in ORCA!
For a nonlinear molecule the correct rotational entropy is:
    S(rot) = R*(ln(qrot/sn)+1.5)
    R    = 8.31441 J/mol/K = 1.987191683e-3 kcal/mol/K
    qrot = 115979.7259889
    sn is the rotational symmetry number. We have assumed 3 here
       if it is different for your molecule then you should correct
       the printed rotational entropy by manually evaluating the equation
       as given above

For convenience we print out the resulting values for sn=1 - 12:
 sn= 1  qrot/sn=  115979.7260 T*S(rot)=     7.80 kcal/mol T*S(tot)=    22.54 kcal/mol
 sn= 2  qrot/sn=   57989.8630 T*S(rot)=     7.39 kcal/mol T*S(tot)=    22.13 kcal/mol
 sn= 3  qrot/sn=   38659.9087 T*S(rot)=     7.15 kcal/mol T*S(tot)=    21.89 kcal/mol
 sn= 4  qrot/sn=   28994.9315 T*S(rot)=     6.98 kcal/mol T*S(tot)=    21.72 kcal/mol
 sn= 5  qrot/sn=   23195.9452 T*S(rot)=     6.84 kcal/mol T*S(tot)=    21.58 kcal/mol
 sn= 6  qrot/sn=   19329.9543 T*S(rot)=     6.74 kcal/mol T*S(tot)=    21.48 kcal/mol
 sn= 7  qrot/sn=   16568.5323 T*S(rot)=     6.64 kcal/mol T*S(tot)=    21.39 kcal/mol
 sn= 8  qrot/sn=   14497.4657 T*S(rot)=     6.57 kcal/mol T*S(tot)=    21.31 kcal/mol
 sn= 9  qrot/sn=   12886.6362 T*S(rot)=     6.50 kcal/mol T*S(tot)=    21.24 kcal/mol
 sn=10  qrot/sn=   11597.9726 T*S(rot)=     6.43 kcal/mol T*S(tot)=    21.17 kcal/mol
 sn=11  qrot/sn=   10543.6115 T*S(rot)=     6.38 kcal/mol T*S(tot)=    21.12 kcal/mol
 sn=12  qrot/sn=    9664.9772 T*S(rot)=     6.33 kcal/mol T*S(tot)=    21.07 kcal/mol

-------------------
GIBBS FREE ENTHALPY
-------------------

The Gibbs free enthalpy is G = H - T*S

Total enthalpy                    ...   -250.66875358 Eh
Total entropy correction          ...     -0.03487959 Eh    -21.89 kcal/mol
-----------------------------------------------------------------------
Final Gibbs free enthalpy         ...   -250.70363317 Eh

For completeness - the Gibbs free enthalpy minus the electronic energy
G-E(el)                           ...      0.12085851 Eh     75.84 kcal/mol

                             ****ORCA TERMINATED NORMALLY****
TOTAL RUN TIME: 0 days 0 hours 18 minutes 41 seconds 809 msec
