                         Program Version 3.0.3 - RELEASE   -
|  1> ! NORI PBE0 def2-TZVP UseSym TightOPT Freq TightSCF Grid3 FinalGrid5 XYZFile
|  2> % pal
|  3>     nprocs 8
|  4> end
|  5> %method
|  6>     SymThresh 5.0e-2
|  7> end
|  8> % geom
|  9>     MaxIter 10
| 10> end
| 11> % maxcore 2000
| 12> % output
| 13>     printlevel mini
| 14>     print[ P_Basis ] 0
| 15>     print[ P_SCFInfo ] 1
| 16>     print[ P_SCFIterInfo ] 1
| 17>     print[ P_OrbEn ] 0
| 18>     print[ P_Cartesian ] 0
| 19> end
| 20> % elprop
| 21>     Dipole false
| 22> end
| 23> *xyz 1 1
| 24>  C        1.0604175628     0.3925898371    -0.1717706663
| 25>  N        2.4220980298    -0.1854447383     0.0081518521
| 26>  C        2.9854204149     0.0096351160     1.3611922019
| 27>  C        4.4659664891    -0.0402731535     1.5242952665
| 28>  C        3.7358659204     1.2662345181     1.6530157344
| 29>  C        3.5778730690     1.9468945551     2.9824451374
| 30>  H        0.7296564574     0.2179507583    -1.1943476832
| 31>  H        1.1122514859     1.4587615737     0.0368238669
| 32>  H        0.3848077065    -0.0925334348     0.5293706691
| 33>  H        3.0591979302     0.2320571045    -0.6733028420
| 34>  H        2.4011564780    -1.1854677537    -0.2069344891
| 35>  H        2.3379755487    -0.4230255190     2.1141483711
| 36>  H        5.0816988453    -0.1997827240     0.6454599913
| 37>  H        4.8406835847    -0.5186599960     2.4206721257
| 38>  H        3.8634196066     1.9379046263     0.8059470735
| 39>  H        3.4508113210     1.2186661774     3.7864303904
| 40>  H        2.7150653669     2.6159450951     2.9884370377
| 41>  H        4.4656241830     2.5396479576     3.2097059626
| 42> *
| 43>
| 44>                          ****END OF INPUT****
 Total Charge           Charge          ....    1
 Multiplicity           Mult            ....    1
 Number of Electrons    NEL             ....   48
FINAL SINGLE POINT ENERGY      -252.023652618609

CARTESIAN COORDINATES (ANGSTROEM)
---------------------------------
  C      1.441377    0.000140    1.895634
  N      0.000005   -0.000099    1.516849
  C     -0.263105   -0.489175    0.146557
  C     -1.526528   -0.069059   -0.523162
  C     -0.207376    0.480727   -0.986400
  C      0.393656    0.071079   -2.300479
  H      1.545341    0.385980    2.908333
  H      1.979611    0.628498    1.189806
  H      1.811573   -1.021543    1.843219
  H     -0.371687    0.948252    1.601262
  H     -0.529538   -0.566792    2.184065
  H      0.114870   -1.496189    0.017892
  H     -2.201257    0.594517    0.007020
  H     -2.024667   -0.812841   -1.132532
  H     -0.027006    1.515960   -0.702480
  H      0.179848   -0.976568   -2.522894
  H      1.476848    0.206412   -2.303393
  H     -0.023507    0.673235   -3.109222

FINAL SINGLE POINT ENERGY      -252.023653076037
                    ***********************HURRAY********************
 Multiplicity           Mult            ....    1
 Number of Electrons    NEL             ....   48
 Basis Dimension        Dim             ....  258
FINAL SINGLE POINT ENERGY      -252.023653265756

VIBRATIONAL FREQUENCIES
-----------------------

   0:         0.00 cm**-1
   1:         0.00 cm**-1
   2:         0.00 cm**-1
   3:         0.00 cm**-1
   4:         0.00 cm**-1
   5:         0.00 cm**-1
   6:        92.50 cm**-1
   7:       161.04 cm**-1
   8:       195.34 cm**-1
   9:       218.19 cm**-1
  10:       289.21 cm**-1
  11:       355.78 cm**-1
  12:       399.88 cm**-1
  13:       465.01 cm**-1
  14:       772.77 cm**-1
  15:       812.53 cm**-1
  16:       834.75 cm**-1
  17:       873.52 cm**-1
  18:       924.54 cm**-1
  19:       978.85 cm**-1
  20:      1018.88 cm**-1
  21:      1058.93 cm**-1
  22:      1067.21 cm**-1
  23:      1092.76 cm**-1
  24:      1108.18 cm**-1
  25:      1137.59 cm**-1
  26:      1183.86 cm**-1
  27:      1204.35 cm**-1
  28:      1220.64 cm**-1
  29:      1252.18 cm**-1
  30:      1335.14 cm**-1
  31:      1383.88 cm**-1
  32:      1404.52 cm**-1
  33:      1424.76 cm**-1
  34:      1443.65 cm**-1
  35:      1459.18 cm**-1
  36:      1480.71 cm**-1
  37:      1488.78 cm**-1
  38:      1491.11 cm**-1
  39:      1495.70 cm**-1
  40:      1513.75 cm**-1
  41:      1648.46 cm**-1
  42:      3061.90 cm**-1
  43:      3094.20 cm**-1
  44:      3129.06 cm**-1
  45:      3143.44 cm**-1
  46:      3146.68 cm**-1
  47:      3151.95 cm**-1
  48:      3194.21 cm**-1
  49:      3201.62 cm**-1
  50:      3201.88 cm**-1
  51:      3241.80 cm**-1
  52:      3431.40 cm**-1
  53:      3481.70 cm**-1

IR SPECTRUM
-----------

 Mode    freq (cm**-1)   T**2         TX         TY         TZ
-------------------------------------------------------------------
   6:        92.50    2.148111  ( -0.363152  -1.414243   0.127080)
   7:       161.04    1.023453  ( -0.541859  -0.813474   0.260962)
   8:       195.34    0.420329  ( -0.241063   0.046199  -0.600069)
   9:       218.19    0.716216  ( -0.476204  -0.657448  -0.239182)
  10:       289.21    2.494156  ( -0.354561   1.230979  -0.923653)
  11:       355.78    1.031783  ( -0.984856   0.103538  -0.226104)
  12:       399.88    4.218569  (  0.386719   0.155778  -2.011157)
  13:       465.01    2.631461  (  1.324778   0.845069   0.402842)
  14:       772.77    8.067078  ( -0.105018   1.867293  -2.137584)
  15:       812.53    5.714887  (  0.016534   2.141933  -1.061478)
  16:       834.75    8.987289  ( -0.982312   2.526387  -1.280515)
  17:       873.52    3.446559  (  1.676264  -0.665697   0.439937)
  18:       924.54   11.324135  ( -2.547233  -2.101722   0.646920)
  19:       978.85    3.433719  (  0.141249  -1.776193  -0.508827)
  20:      1018.88    6.442730  (  1.477068   0.185982   2.055823)
  21:      1058.93   10.858060  (  1.143246   1.724751  -2.564426)
  22:      1067.21   12.471029  (  2.579302   0.749140   2.292819)
  23:      1092.76    7.921868  (  1.285124  -1.293802   2.143922)
  24:      1108.18    4.364737  ( -1.874686   0.281835  -0.877986)
  25:      1137.59    0.543223  (  0.193968   0.679912  -0.208132)
  26:      1183.86    4.281987  (  1.496234   0.404140   1.371110)
  27:      1204.35    1.301420  ( -0.609313  -0.925826  -0.270191)
  28:      1220.64    0.227733  (  0.010279   0.416110  -0.233410)
  29:      1252.18    2.675176  ( -1.319068   0.451710  -0.855098)
  30:      1335.14    1.668329  ( -0.203578   0.993692  -0.799664)
  31:      1383.88    1.565663  ( -0.201156  -0.647565   1.051598)
  32:      1404.52   34.244528  (  4.369584   1.506786   3.588992)
  33:      1424.76    8.860031  ( -0.139040   1.615349   2.496267)
  34:      1443.65    4.272723  (  0.452852  -0.298150  -1.994682)
  35:      1459.18    2.387837  (  1.004496   0.650646   0.977488)
  36:      1480.71    6.896484  ( -1.421277   1.472367  -1.645779)
  37:      1488.78   15.481467  ( -3.277806  -2.164637  -0.227599)
  38:      1491.11   24.814513  ( -0.944372  -4.847185   0.653813)
  39:      1495.70   23.676493  (  0.222429   1.178643   4.715699)
  40:      1513.75    7.951411  (  2.176319  -1.631034   0.744832)
  41:      1648.46   54.622338  ( -4.907914   3.153521   4.537623)
  42:      3061.90    5.299869  ( -1.234949   0.896770   1.723535)
  43:      3094.20    0.086596  (  0.245764   0.003574   0.161813)
  44:      3129.06    4.202013  ( -0.837495  -0.234629   1.856223)
  45:      3143.44    6.661635  (  2.172020   0.947988   1.022391)
  46:      3146.68    5.204344  (  0.087995   2.277091   0.107037)
  47:      3151.95    3.140225  ( -0.308948  -0.837950  -1.530561)
  48:      3194.21    0.166712  ( -0.350707   0.197816  -0.067717)
  49:      3201.62    0.067755  (  0.024661   0.084788  -0.244863)
  50:      3201.88    0.241334  (  0.031272  -0.361508  -0.331161)
  51:      3241.80    0.253697  (  0.291907   0.408907   0.035807)
  52:      3431.40   43.747276  ( -4.717079   0.054644   4.636104)
  53:      3481.70   63.860140  ( -0.282213  -7.750350   1.926803)

--------------------------
THERMOCHEMISTRY AT 298.15K
--------------------------

Temperature         ... 298.15 K
Pressure            ... 1.00 atm
Total Mass          ... 86.16 AMU

Throughout the following assumptions are being made:
  (1) The electronic state is orbitally nondegenerate
  (2) There are no thermally accessible electronically excited states
  (3) Hindered rotations indicated by low frequency modes) are not
      treated as such but are treated as vibrations and this may
      case some error
  (4) All equations used are the standard statistical mechanics
      equations for an ideal gas
  (5) All vibrations are strinctly harmonic

------------
INNER ENERGY
------------

The inner energy is: U= E(el) + E(ZPE) + E(vib) + E(rot) + E(trans)
    E(el)   - is the total energy from the electronic structure calculation
              = E(kin-el) + E(nuc-el) + E(el-el) + E(nuc-nuc)
    E(ZPE)  - the the zero temperature vibrational energy from the frequency calculation
    E(vib)  - the the finite temperature correction to E(ZPE) due to population
              of excietd vibrational states
    E(rot)  - is the rotational thermal energy
    E(trans)- is the translational thermal energy

Summary of contributions to the inner energy U:
Electronic energy                ...   -252.02365327 Eh
Zero point energy                ...      0.17033399 Eh     106.89 kcal/mol
Thermal vibrational correction   ...      0.00450144 Eh       2.82 kcal/mol
Thermal rotational correction    ...      0.00141627 Eh       0.89 kcal/mol
Thermal translational correction ...      0.00141627 Eh       0.89 kcal/mol
-----------------------------------------------------------------------
Total thermal energy                   -251.84598529 Eh

Summary of corrections to the electronic energy:
(perhaps to be used in another calculation)
Total thermal correction                  0.00733398 Eh       4.60 kcal/mol
Non-thermal (ZPE) correction              0.17033399 Eh     106.89 kcal/mol
-----------------------------------------------------------------------
Total correction                          0.17766797 Eh     111.49 kcal/mol

--------
ENTHALPY
--------

The enthalpy is H = U + kB*T
                kB is Boltzmann's constant
Total free energy                 ...   -251.84598529 Eh
Thermal Enthalpy correction       ...      0.00094421 Eh       0.59 kcal/mol
-----------------------------------------------------------------------
Total Enthalpy                    ...   -251.84504109 Eh

-------
ENTROPY
-------

The entropy contributions are T*S = T*(S(el)+S(vib)+S(rot)+S(trans)
     S(el)   - electronic entropy
     S(vib)  - vibrational entropy
     S(rot)  - rotational entropy
     S(trans)- translational entropy
The entropies will be listed as mutliplied by the temperature to get
units of energy

Electronic entropy                ...      0.00000000 Eh      0.00 kcal/mol
Vibrational entropy               ...      0.00777281 Eh      4.88 kcal/mol
Rotational entropy                ...      0.01175770 Eh      7.38 kcal/mol
Translational entropy             ...      0.01866024 Eh     11.71 kcal/mol
-----------------------------------------------------------------------
Final entropy term                ...      0.03819075 Eh     23.97 kcal/mol

CAUTION: The rotational entropy is not quite correctly treated here
         because it includes a symmetry number that is not yet correctly
         implemented in ORCA!
For a nonlinear molecule the correct rotational entropy is:
    S(rot) = R*(ln(qrot/sn)+1.5)
    R    = 8.31441 J/mol/K = 1.987191683e-3 kcal/mol/K
    qrot = 171342.0841591
    sn is the rotational symmetry number. We have assumed 3 here
       if it is different for your molecule then you should correct
       the printed rotational entropy by manually evaluating the equation
       as given above

For convenience we print out the resulting values for sn=1 - 12:
 sn= 1  qrot/sn=  171342.0842 T*S(rot)=     8.03 kcal/mol T*S(tot)=    24.62 kcal/mol
 sn= 2  qrot/sn=   85671.0421 T*S(rot)=     7.62 kcal/mol T*S(tot)=    24.21 kcal/mol
 sn= 3  qrot/sn=   57114.0281 T*S(rot)=     7.38 kcal/mol T*S(tot)=    23.97 kcal/mol
 sn= 4  qrot/sn=   42835.5210 T*S(rot)=     7.21 kcal/mol T*S(tot)=    23.79 kcal/mol
 sn= 5  qrot/sn=   34268.4168 T*S(rot)=     7.08 kcal/mol T*S(tot)=    23.66 kcal/mol
 sn= 6  qrot/sn=   28557.0140 T*S(rot)=     6.97 kcal/mol T*S(tot)=    23.55 kcal/mol
 sn= 7  qrot/sn=   24477.4406 T*S(rot)=     6.88 kcal/mol T*S(tot)=    23.46 kcal/mol
 sn= 8  qrot/sn=   21417.7605 T*S(rot)=     6.80 kcal/mol T*S(tot)=    23.38 kcal/mol
 sn= 9  qrot/sn=   19038.0094 T*S(rot)=     6.73 kcal/mol T*S(tot)=    23.31 kcal/mol
 sn=10  qrot/sn=   17134.2084 T*S(rot)=     6.66 kcal/mol T*S(tot)=    23.25 kcal/mol
 sn=11  qrot/sn=   15576.5531 T*S(rot)=     6.61 kcal/mol T*S(tot)=    23.20 kcal/mol
 sn=12  qrot/sn=   14278.5070 T*S(rot)=     6.56 kcal/mol T*S(tot)=    23.14 kcal/mol

-------------------
GIBBS FREE ENTHALPY
-------------------

The Gibbs free enthalpy is G = H - T*S

Total enthalpy                    ...   -251.84504109 Eh
Total entropy correction          ...     -0.03819075 Eh    -23.97 kcal/mol
-----------------------------------------------------------------------
Final Gibbs free enthalpy         ...   -251.88323183 Eh

For completeness - the Gibbs free enthalpy minus the electronic energy
G-E(el)                           ...      0.14042143 Eh     88.12 kcal/mol

                             ****ORCA TERMINATED NORMALLY****
TOTAL RUN TIME: 0 days 0 hours 21 minutes 35 seconds 910 msec
