                         Program Version 3.0.3 - RELEASE   -
|  1> ! NORI PBE0 def2-TZVP UseSym TightOPT Freq TightSCF Grid3 FinalGrid5 XYZFile
|  2> % pal
|  3>     nprocs 8
|  4> end
|  5> %method
|  6>     SymThresh 5.0e-2
|  7> end
|  8> % geom
|  9>     MaxIter 10
| 10> end
| 11> % maxcore 2000
| 12> % output
| 13>     printlevel mini
| 14>     print[ P_Basis ] 0
| 15>     print[ P_SCFInfo ] 1
| 16>     print[ P_SCFIterInfo ] 1
| 17>     print[ P_OrbEn ] 0
| 18>     print[ P_Cartesian ] 0
| 19> end
| 20> % elprop
| 21>     Dipole false
| 22> end
| 23> *xyz 1 1
| 24>  C        2.8317013929    -1.1404590374    -0.0968109680
| 25>  N        2.2658736559     0.2171295107     0.1242524519
| 26>  C        2.8146927552     1.2713850581    -0.7903899653
| 27>  C        2.3903515677     2.7176375727    -0.5315235190
| 28>  C        3.8337987462     3.1185142122    -0.9071689434
| 29>  C        4.2797619765     1.6703236957    -0.6081025262
| 30>  H        2.3931057295    -1.8342721474     0.6179866362
| 31>  H        3.9099537649    -1.0911204492     0.0400975710
| 32>  H        2.5990824372    -1.4521012257    -1.1131087187
| 33>  H        1.2489557184     0.1870712790     0.0224452917
| 34>  H        2.4441080612     0.5074875053     1.0879812423
| 35>  H        2.5896141844     0.9393460731    -1.8053878363
| 36>  H        1.5615794838     3.1156999891    -1.1145097692
| 37>  H        2.2009982235     2.8990418864     0.5305605817
| 38>  H        3.9241954739     3.3582420501    -1.9660907571
| 39>  H        4.2965306545     3.9102859556    -0.3234598690
| 40>  H        4.5970601035     1.5683467753     0.4342675587
| 41>  H        5.0206760706     1.2035012963    -1.2546484610
| 42> *
| 43>
| 44>                          ****END OF INPUT****
 Total Charge           Charge          ....    1
 Multiplicity           Mult            ....    1
 Number of Electrons    NEL             ....   48
FINAL SINGLE POINT ENERGY      -252.029402809143
FINAL SINGLE POINT ENERGY      -252.029404302076

CARTESIAN COORDINATES (ANGSTROEM)
---------------------------------
  C      1.365243   -0.002831    2.012454
  N      0.000037    0.001045    1.421179
  C     -0.048539   -0.413076   -0.019716
  C     -1.393885   -0.301822   -0.738840
  C     -0.595014    0.153090   -1.979987
  C      0.575924    0.532684   -1.046707
  H      1.310406    0.327623    3.048158
  H      1.992916    0.672618    1.435219
  H      1.762246   -1.014697    1.962040
  H     -0.611503   -0.613137    1.963426
  H     -0.402016    0.937702    1.496893
  H      0.371608   -1.419288   -0.060740
  H     -2.009834   -1.197435   -0.804647
  H     -1.997791    0.519979   -0.342100
  H     -0.340415   -0.686094   -2.626899
  H     -1.025936    0.948354   -2.583430
  H      0.498249    1.577875   -0.731144
  H      1.595239    0.332571   -1.372705

FINAL SINGLE POINT ENERGY      -252.029404910253
                    ***********************HURRAY********************
 Multiplicity           Mult            ....    1
 Number of Electrons    NEL             ....   48
 Basis Dimension        Dim             ....  258
FINAL SINGLE POINT ENERGY      -252.029405152946

VIBRATIONAL FREQUENCIES
-----------------------

   0:         0.00 cm**-1
   1:         0.00 cm**-1
   2:         0.00 cm**-1
   3:         0.00 cm**-1
   4:         0.00 cm**-1
   5:         0.00 cm**-1
   6:       100.25 cm**-1
   7:       148.86 cm**-1
   8:       199.68 cm**-1
   9:       242.97 cm**-1
  10:       406.88 cm**-1
  11:       411.20 cm**-1
  12:       605.24 cm**-1
  13:       760.52 cm**-1
  14:       789.28 cm**-1
  15:       834.72 cm**-1
  16:       903.45 cm**-1
  17:       948.58 cm**-1
  18:       953.12 cm**-1
  19:       976.57 cm**-1
  20:      1011.19 cm**-1
  21:      1040.87 cm**-1
  22:      1065.98 cm**-1
  23:      1097.38 cm**-1
  24:      1178.40 cm**-1
  25:      1193.25 cm**-1
  26:      1217.07 cm**-1
  27:      1256.90 cm**-1
  28:      1267.58 cm**-1
  29:      1270.44 cm**-1
  30:      1287.10 cm**-1
  31:      1303.94 cm**-1
  32:      1354.37 cm**-1
  33:      1404.22 cm**-1
  34:      1423.14 cm**-1
  35:      1458.44 cm**-1
  36:      1469.56 cm**-1
  37:      1483.12 cm**-1
  38:      1493.60 cm**-1
  39:      1495.52 cm**-1
  40:      1508.49 cm**-1
  41:      1648.62 cm**-1
  42:      3066.14 cm**-1
  43:      3070.05 cm**-1
  44:      3093.62 cm**-1
  45:      3111.43 cm**-1
  46:      3116.83 cm**-1
  47:      3152.63 cm**-1
  48:      3153.65 cm**-1
  49:      3177.06 cm**-1
  50:      3193.30 cm**-1
  51:      3197.93 cm**-1
  52:      3435.98 cm**-1
  53:      3487.50 cm**-1

IR SPECTRUM
-----------

 Mode    freq (cm**-1)   T**2         TX         TY         TZ
-------------------------------------------------------------------
   6:       100.25    1.739822  (  0.396298   1.254911  -0.089263)
   7:       148.86    0.646424  (  0.104345  -0.584228   0.542414)
   8:       199.68    0.056145  (  0.074647  -0.205819   0.090614)
   9:       242.97    2.195171  ( -0.119489  -1.467425  -0.166002)
  10:       406.88    4.408440  (  0.976537   0.159238   1.851880)
  11:       411.20    2.492323  (  0.740428   0.990412  -0.981414)
  12:       605.24    2.283698  ( -0.533129   1.295083   0.567656)
  13:       760.52    1.693147  ( -0.547986   0.107717   1.175268)
  14:       789.28    2.148525  ( -1.064146  -1.006272  -0.059451)
  15:       834.72   15.738789  (  0.299665  -3.081434   2.480676)
  16:       903.45   13.569936  (  0.989342   0.863234   3.441797)
  17:       948.58    2.216711  (  1.317069   0.676406  -0.156574)
  18:       953.12    2.891814  (  0.461804  -0.871242  -1.385456)
  19:       976.57    2.040268  (  0.915751   0.808838  -0.739898)
  20:      1011.19    8.344522  (  2.371766  -0.270330   1.626704)
  21:      1040.87    2.985251  ( -0.534163   0.087260  -1.640825)
  22:      1065.98   20.517262  ( -1.699841  -0.523971  -4.165724)
  23:      1097.38    2.424963  (  0.695295   0.229330   1.374385)
  24:      1178.40    7.010951  ( -1.970307  -0.984440  -1.469598)
  25:      1193.25    0.426343  ( -0.310335   0.536679   0.204965)
  26:      1217.07    0.376666  ( -0.139572  -0.271752  -0.532294)
  27:      1256.90    0.015941  (  0.076021   0.099217  -0.017834)
  28:      1267.58    0.198923  (  0.061624   0.153401  -0.414238)
  29:      1270.44    0.766941  (  0.845078  -0.181924   0.140312)
  30:      1287.10   11.835352  (  1.016340  -0.622329   3.227245)
  31:      1303.94    4.274927  (  1.842640   0.792167   0.502073)
  32:      1354.37    2.863498  ( -0.315395   1.246287  -1.100360)
  33:      1404.22   23.114456  (  2.381786   1.565203   3.871911)
  34:      1423.14   31.438368  (  1.706672  -0.002501   5.340939)
  35:      1458.44    8.237911  (  2.386753   0.351093   1.555010)
  36:      1469.56    8.069911  (  2.501145   1.113237  -0.758214)
  37:      1483.12    8.295932  (  0.342413  -1.667712  -2.323235)
  38:      1493.60   21.304383  ( -0.677740  -3.979341   2.238280)
  39:      1495.52   26.143729  ( -0.276888   2.462720   4.472368)
  40:      1508.49    4.714133  ( -0.859239   1.620251  -1.162166)
  41:      1648.62   51.909895  ( -5.620997   2.441664   3.788479)
  42:      3066.14    6.972280  (  1.899721   1.610687   0.876942)
  43:      3070.05   11.893387  (  1.286910  -1.696915  -2.712513)
  44:      3093.62    0.053529  ( -0.212504   0.002763  -0.091452)
  45:      3111.43    6.577837  (  0.237333   0.359040   2.528359)
  46:      3116.83    1.589268  (  0.524260  -1.098268   0.328979)
  47:      3152.63    5.433831  ( -1.410778  -1.749732  -0.618040)
  48:      3153.65    5.370236  ( -2.091528   0.108944   0.991906)
  49:      3177.06    3.719103  ( -0.792928   1.737649  -0.266356)
  50:      3193.30    0.123869  (  0.316386  -0.145160  -0.051933)
  51:      3197.93    0.036178  ( -0.056160  -0.107642   0.146416)
  52:      3435.98   39.976635  (  4.938909  -0.882657  -3.847691)
  53:      3487.50   63.525556  (  1.175086   7.485228  -2.473074)

--------------------------
THERMOCHEMISTRY AT 298.15K
--------------------------

Temperature         ... 298.15 K
Pressure            ... 1.00 atm
Total Mass          ... 86.16 AMU

Throughout the following assumptions are being made:
  (1) The electronic state is orbitally nondegenerate
  (2) There are no thermally accessible electronically excited states
  (3) Hindered rotations indicated by low frequency modes) are not
      treated as such but are treated as vibrations and this may
      case some error
  (4) All equations used are the standard statistical mechanics
      equations for an ideal gas
  (5) All vibrations are strinctly harmonic

------------
INNER ENERGY
------------

The inner energy is: U= E(el) + E(ZPE) + E(vib) + E(rot) + E(trans)
    E(el)   - is the total energy from the electronic structure calculation
              = E(kin-el) + E(nuc-el) + E(el-el) + E(nuc-nuc)
    E(ZPE)  - the the zero temperature vibrational energy from the frequency calculation
    E(vib)  - the the finite temperature correction to E(ZPE) due to population
              of excietd vibrational states
    E(rot)  - is the rotational thermal energy
    E(trans)- is the translational thermal energy

Summary of contributions to the inner energy U:
Electronic energy                ...   -252.02940515 Eh
Zero point energy                ...      0.17192563 Eh     107.88 kcal/mol
Thermal vibrational correction   ...      0.00390975 Eh       2.45 kcal/mol
Thermal rotational correction    ...      0.00141627 Eh       0.89 kcal/mol
Thermal translational correction ...      0.00141627 Eh       0.89 kcal/mol
-----------------------------------------------------------------------
Total thermal energy                   -251.85073722 Eh

Summary of corrections to the electronic energy:
(perhaps to be used in another calculation)
Total thermal correction                  0.00674229 Eh       4.23 kcal/mol
Non-thermal (ZPE) correction              0.17192563 Eh     107.88 kcal/mol
-----------------------------------------------------------------------
Total correction                          0.17866793 Eh     112.12 kcal/mol

--------
ENTHALPY
--------

The enthalpy is H = U + kB*T
                kB is Boltzmann's constant
Total free energy                 ...   -251.85073722 Eh
Thermal Enthalpy correction       ...      0.00094421 Eh       0.59 kcal/mol
-----------------------------------------------------------------------
Total Enthalpy                    ...   -251.84979301 Eh

-------
ENTROPY
-------

The entropy contributions are T*S = T*(S(el)+S(vib)+S(rot)+S(trans)
     S(el)   - electronic entropy
     S(vib)  - vibrational entropy
     S(rot)  - rotational entropy
     S(trans)- translational entropy
The entropies will be listed as mutliplied by the temperature to get
units of energy

Electronic entropy                ...      0.00000000 Eh      0.00 kcal/mol
Vibrational entropy               ...      0.00673717 Eh      4.23 kcal/mol
Rotational entropy                ...      0.01161430 Eh      7.29 kcal/mol
Translational entropy             ...      0.01866024 Eh     11.71 kcal/mol
-----------------------------------------------------------------------
Final entropy term                ...      0.03701171 Eh     23.23 kcal/mol

CAUTION: The rotational entropy is not quite correctly treated here
         because it includes a symmetry number that is not yet correctly
         implemented in ORCA!
For a nonlinear molecule the correct rotational entropy is:
    S(rot) = R*(ln(qrot/sn)+1.5)
    R    = 8.31441 J/mol/K = 1.987191683e-3 kcal/mol/K
    qrot = 147198.8068867
    sn is the rotational symmetry number. We have assumed 3 here
       if it is different for your molecule then you should correct
       the printed rotational entropy by manually evaluating the equation
       as given above

For convenience we print out the resulting values for sn=1 - 12:
 sn= 1  qrot/sn=  147198.8069 T*S(rot)=     7.94 kcal/mol T*S(tot)=    23.88 kcal/mol
 sn= 2  qrot/sn=   73599.4034 T*S(rot)=     7.53 kcal/mol T*S(tot)=    23.47 kcal/mol
 sn= 3  qrot/sn=   49066.2690 T*S(rot)=     7.29 kcal/mol T*S(tot)=    23.23 kcal/mol
 sn= 4  qrot/sn=   36799.7017 T*S(rot)=     7.12 kcal/mol T*S(tot)=    23.05 kcal/mol
 sn= 5  qrot/sn=   29439.7614 T*S(rot)=     6.99 kcal/mol T*S(tot)=    22.92 kcal/mol
 sn= 6  qrot/sn=   24533.1345 T*S(rot)=     6.88 kcal/mol T*S(tot)=    22.81 kcal/mol
 sn= 7  qrot/sn=   21028.4010 T*S(rot)=     6.79 kcal/mol T*S(tot)=    22.72 kcal/mol
 sn= 8  qrot/sn=   18399.8509 T*S(rot)=     6.71 kcal/mol T*S(tot)=    22.64 kcal/mol
 sn= 9  qrot/sn=   16355.4230 T*S(rot)=     6.64 kcal/mol T*S(tot)=    22.57 kcal/mol
 sn=10  qrot/sn=   14719.8807 T*S(rot)=     6.57 kcal/mol T*S(tot)=    22.51 kcal/mol
 sn=11  qrot/sn=   13381.7097 T*S(rot)=     6.52 kcal/mol T*S(tot)=    22.46 kcal/mol
 sn=12  qrot/sn=   12266.5672 T*S(rot)=     6.47 kcal/mol T*S(tot)=    22.40 kcal/mol

-------------------
GIBBS FREE ENTHALPY
-------------------

The Gibbs free enthalpy is G = H - T*S

Total enthalpy                    ...   -251.84979301 Eh
Total entropy correction          ...     -0.03701171 Eh    -23.23 kcal/mol
-----------------------------------------------------------------------
Final Gibbs free enthalpy         ...   -251.88680472 Eh

For completeness - the Gibbs free enthalpy minus the electronic energy
G-E(el)                           ...      0.14260043 Eh     89.48 kcal/mol

                             ****ORCA TERMINATED NORMALLY****
TOTAL RUN TIME: 0 days 0 hours 23 minutes 17 seconds 863 msec
