                         Program Version 3.0.3 - RELEASE   -
|  1> ! NORI PBE0 def2-TZVP UseSym TightOPT Freq TightSCF Grid3 FinalGrid5 XYZFile
|  2> % pal
|  3>     nprocs 8
|  4> end
|  5> %method
|  6>     SymThresh 5.0e-2
|  7> end
|  8> % geom
|  9>     MaxIter 10
| 10> end
| 11> % maxcore 2000
| 12> % output
| 13>     printlevel mini
| 14>     print[ P_Basis ] 0
| 15>     print[ P_SCFInfo ] 1
| 16>     print[ P_SCFIterInfo ] 1
| 17>     print[ P_OrbEn ] 0
| 18>     print[ P_Cartesian ] 0
| 19> end
| 20> % elprop
| 21>     Dipole false
| 22> end
| 23> *xyz 1 1
| 24>  C        1.2026296993     0.5005865413     0.0196757030
| 25>  N        1.9004086894    -0.2063817746    -1.0905092043
| 26>  C        2.9279793424    -1.2072648948    -0.6756867422
| 27>  C        4.0902973048    -0.5935592743     0.0433927754
| 28>  C        3.1041392424    -2.3437555909    -1.6280873879
| 29>  C        2.3881348438    -2.5524890653    -0.3242921589
| 30>  H        0.4293467636     1.1405088987    -0.4022988953
| 31>  H        1.9239487244     1.1030876444     0.5656841195
| 32>  H        0.7610118644    -0.2450090181     0.6776325247
| 33>  H        1.2051991877    -0.6835140993    -1.6673864931
| 34>  H        2.3466735807     0.4815446926    -1.7029383569
| 35>  H        4.5741732753     0.1824035411    -0.5575693765
| 36>  H        4.8354524780    -1.3662554077     0.2324539036
| 37>  H        3.8101200818    -0.1729179972     1.0109381279
| 38>  H        4.1071402512    -2.7318066431    -1.7459693901
| 39>  H        2.5123673025    -2.3715953269    -2.5371147798
| 40>  H        2.8891984217    -3.0895339024     0.4705114818
| 41>  H        1.3169089466    -2.7197783234    -0.3616758509
| 42> *
| 43>
| 44>                          ****END OF INPUT****
 Total Charge           Charge          ....    1
 Multiplicity           Mult            ....    1
 Number of Electrons    NEL             ....   48
FINAL SINGLE POINT ENERGY      -252.025394901523

CARTESIAN COORDINATES (ANGSTROEM)
---------------------------------
  C      1.423831    0.000590    1.603285
  N     -0.000345   -0.000079    1.165839
  C     -0.225070    0.133827   -0.304262
  C      0.240139    1.448270   -0.852325
  C     -1.464611   -0.532100   -0.803668
  C     -0.117502   -1.138741   -1.074626
  H      1.462040   -0.181088    2.676044
  H      1.864221    0.967639    1.376164
  H      1.948116   -0.786507    1.065860
  H     -0.442059   -0.866450    1.478247
  H     -0.501285    0.755578    1.640449
  H     -0.236833    2.291001   -0.342712
  H     -0.037245    1.509578   -1.904538
  H      1.324195    1.565423   -0.797472
  H     -1.992793   -0.040780   -1.610276
  H     -2.113693   -1.042093   -0.099537
  H      0.297127   -1.074349   -2.072169
  H      0.134109   -2.055099   -0.551472

FINAL SINGLE POINT ENERGY      -252.025395801777
                    ***********************HURRAY********************
 Multiplicity           Mult            ....    1
 Number of Electrons    NEL             ....   48
 Basis Dimension        Dim             ....  258
FINAL SINGLE POINT ENERGY      -252.025396121223

VIBRATIONAL FREQUENCIES
-----------------------

   0:         0.00 cm**-1
   1:         0.00 cm**-1
   2:         0.00 cm**-1
   3:         0.00 cm**-1
   4:         0.00 cm**-1
   5:         0.00 cm**-1
   6:        91.94 cm**-1
   7:       195.79 cm**-1
   8:       226.37 cm**-1
   9:       258.85 cm**-1
  10:       333.57 cm**-1
  11:       345.46 cm**-1
  12:       368.37 cm**-1
  13:       486.56 cm**-1
  14:       685.70 cm**-1
  15:       771.17 cm**-1
  16:       831.77 cm**-1
  17:       883.13 cm**-1
  18:       904.84 cm**-1
  19:       954.24 cm**-1
  20:       959.61 cm**-1
  21:      1020.60 cm**-1
  22:      1041.30 cm**-1
  23:      1072.06 cm**-1
  24:      1104.64 cm**-1
  25:      1117.48 cm**-1
  26:      1141.64 cm**-1
  27:      1184.18 cm**-1
  28:      1194.87 cm**-1
  29:      1281.04 cm**-1
  30:      1331.50 cm**-1
  31:      1400.88 cm**-1
  32:      1413.03 cm**-1
  33:      1450.02 cm**-1
  34:      1453.99 cm**-1
  35:      1466.28 cm**-1
  36:      1478.23 cm**-1
  37:      1486.76 cm**-1
  38:      1493.40 cm**-1
  39:      1501.88 cm**-1
  40:      1522.55 cm**-1
  41:      1642.66 cm**-1
  42:      3054.57 cm**-1
  43:      3098.34 cm**-1
  44:      3129.22 cm**-1
  45:      3150.65 cm**-1
  46:      3154.05 cm**-1
  47:      3157.53 cm**-1
  48:      3195.12 cm**-1
  49:      3208.89 cm**-1
  50:      3239.40 cm**-1
  51:      3250.01 cm**-1
  52:      3430.47 cm**-1
  53:      3486.82 cm**-1

IR SPECTRUM
-----------

 Mode    freq (cm**-1)   T**2         TX         TY         TZ
-------------------------------------------------------------------
   6:        91.94    1.445778  ( -0.216716   1.182407  -0.026913)
   7:       195.79    0.015171  (  0.013826   0.099800  -0.070850)
   8:       226.37    0.422664  ( -0.388662   0.466104  -0.233137)
   9:       258.85    0.045321  ( -0.005602  -0.199077   0.075221)
  10:       333.57    0.354108  ( -0.102575  -0.242186  -0.533790)
  11:       345.46    6.711551  (  0.652588  -0.134223   2.503531)
  12:       368.37    2.982230  (  0.001036   1.726783   0.021229)
  13:       486.56    4.866195  (  1.931472  -0.967304   0.447138)
  14:       685.70    3.100402  (  1.295780   0.654730   0.996336)
  15:       771.17    0.948496  (  0.385448   0.890500   0.083285)
  16:       831.77   12.504767  ( -0.459246  -3.503846   0.130086)
  17:       883.13    3.039054  ( -0.861841  -1.487076   0.291360)
  18:       904.84    1.556879  ( -1.005491   0.714357   0.188575)
  19:       954.24    7.443885  ( -0.138895  -1.788929  -2.055317)
  20:       959.61    2.365427  ( -0.909217  -1.184287  -0.369075)
  21:      1020.60    4.271941  (  1.994073  -0.083548   0.537247)
  22:      1041.30    5.428654  (  0.992756   1.611070   1.359243)
  23:      1072.06   11.964522  ( -1.286822  -2.473973  -2.046478)
  24:      1104.64    2.151219  ( -1.333128   0.587064  -0.171300)
  25:      1117.48    3.083133  (  0.649796  -0.124678  -1.626454)
  26:      1141.64   18.388107  (  1.858057   0.737913   3.793575)
  27:      1184.18    1.564895  ( -0.967255   0.371433  -0.700964)
  28:      1194.87    7.922741  ( -2.107422   1.031729  -1.554686)
  29:      1281.04    9.912066  (  0.774883  -0.540977   3.003159)
  30:      1331.50    1.069817  ( -0.623422   0.306930  -0.766131)
  31:      1400.88   27.251114  (  3.744135  -0.999117   3.497761)
  32:      1413.03   26.160728  ( -1.441071   1.800476  -4.565340)
  33:      1450.02    2.312899  (  0.250551   1.216166  -0.878103)
  34:      1453.99    8.085501  (  2.687184   0.673693   0.640843)
  35:      1466.28   13.984859  ( -2.792592   1.992562   1.488619)
  36:      1478.23    5.447860  ( -2.030020   1.017244   0.540457)
  37:      1486.76   18.633269  ( -0.338257   3.645096   2.287384)
  38:      1493.40   21.558741  (  0.426732   2.519705  -3.876561)
  39:      1501.88   12.547049  ( -0.870606  -0.958859  -3.296920)
  40:      1522.55    4.740736  ( -1.241403  -1.776594  -0.208252)
  41:      1642.66   58.268105  ( -5.195482  -1.275233   5.445076)
  42:      3054.57    6.521588  ( -0.761146  -1.982315  -1.418687)
  43:      3098.34    0.096575  (  0.130088   0.150909   0.238492)
  44:      3129.22    4.985845  (  2.044448  -0.775656  -0.452145)
  45:      3150.65    0.472646  ( -0.263134   0.158570   0.615030)
  46:      3154.05    3.766306  ( -0.787370  -0.257483  -1.755009)
  47:      3157.53    1.506483  ( -0.718802  -0.903421   0.416696)
  48:      3195.12    0.098413  (  0.194334  -0.031196  -0.244283)
  49:      3208.89    0.047706  (  0.100652  -0.188699  -0.044364)
  50:      3239.40    0.263782  (  0.487051  -0.134734  -0.091707)
  51:      3250.01    0.269400  ( -0.038120   0.054450  -0.514764)
  52:      3430.47   37.474382  ( -4.503892   1.341461   3.922986)
  53:      3486.82   53.739910  (  0.613384   7.292215  -0.432754)

--------------------------
THERMOCHEMISTRY AT 298.15K
--------------------------

Temperature         ... 298.15 K
Pressure            ... 1.00 atm
Total Mass          ... 86.16 AMU

Throughout the following assumptions are being made:
  (1) The electronic state is orbitally nondegenerate
  (2) There are no thermally accessible electronically excited states
  (3) Hindered rotations indicated by low frequency modes) are not
      treated as such but are treated as vibrations and this may
      case some error
  (4) All equations used are the standard statistical mechanics
      equations for an ideal gas
  (5) All vibrations are strinctly harmonic

------------
INNER ENERGY
------------

The inner energy is: U= E(el) + E(ZPE) + E(vib) + E(rot) + E(trans)
    E(el)   - is the total energy from the electronic structure calculation
              = E(kin-el) + E(nuc-el) + E(el-el) + E(nuc-nuc)
    E(ZPE)  - the the zero temperature vibrational energy from the frequency calculation
    E(vib)  - the the finite temperature correction to E(ZPE) due to population
              of excietd vibrational states
    E(rot)  - is the rotational thermal energy
    E(trans)- is the translational thermal energy

Summary of contributions to the inner energy U:
Electronic energy                ...   -252.02539612 Eh
Zero point energy                ...      0.17006845 Eh     106.72 kcal/mol
Thermal vibrational correction   ...      0.00438610 Eh       2.75 kcal/mol
Thermal rotational correction    ...      0.00141627 Eh       0.89 kcal/mol
Thermal translational correction ...      0.00141627 Eh       0.89 kcal/mol
-----------------------------------------------------------------------
Total thermal energy                   -251.84810903 Eh

Summary of corrections to the electronic energy:
(perhaps to be used in another calculation)
Total thermal correction                  0.00721864 Eh       4.53 kcal/mol
Non-thermal (ZPE) correction              0.17006845 Eh     106.72 kcal/mol
-----------------------------------------------------------------------
Total correction                          0.17728709 Eh     111.25 kcal/mol

--------
ENTHALPY
--------

The enthalpy is H = U + kB*T
                kB is Boltzmann's constant
Total free energy                 ...   -251.84810903 Eh
Thermal Enthalpy correction       ...      0.00094421 Eh       0.59 kcal/mol
-----------------------------------------------------------------------
Total Enthalpy                    ...   -251.84716482 Eh

-------
ENTROPY
-------

The entropy contributions are T*S = T*(S(el)+S(vib)+S(rot)+S(trans)
     S(el)   - electronic entropy
     S(vib)  - vibrational entropy
     S(rot)  - rotational entropy
     S(trans)- translational entropy
The entropies will be listed as mutliplied by the temperature to get
units of energy

Electronic entropy                ...      0.00000000 Eh      0.00 kcal/mol
Vibrational entropy               ...      0.00737150 Eh      4.63 kcal/mol
Rotational entropy                ...      0.01161311 Eh      7.29 kcal/mol
Translational entropy             ...      0.01866024 Eh     11.71 kcal/mol
-----------------------------------------------------------------------
Final entropy term                ...      0.03764484 Eh     23.62 kcal/mol

CAUTION: The rotational entropy is not quite correctly treated here
         because it includes a symmetry number that is not yet correctly
         implemented in ORCA!
For a nonlinear molecule the correct rotational entropy is:
    S(rot) = R*(ln(qrot/sn)+1.5)
    R    = 8.31441 J/mol/K = 1.987191683e-3 kcal/mol/K
    qrot = 147012.5219579
    sn is the rotational symmetry number. We have assumed 3 here
       if it is different for your molecule then you should correct
       the printed rotational entropy by manually evaluating the equation
       as given above

For convenience we print out the resulting values for sn=1 - 12:
 sn= 1  qrot/sn=  147012.5220 T*S(rot)=     7.94 kcal/mol T*S(tot)=    24.27 kcal/mol
 sn= 2  qrot/sn=   73506.2610 T*S(rot)=     7.53 kcal/mol T*S(tot)=    23.86 kcal/mol
 sn= 3  qrot/sn=   49004.1740 T*S(rot)=     7.29 kcal/mol T*S(tot)=    23.62 kcal/mol
 sn= 4  qrot/sn=   36753.1305 T*S(rot)=     7.12 kcal/mol T*S(tot)=    23.45 kcal/mol
 sn= 5  qrot/sn=   29402.5044 T*S(rot)=     6.98 kcal/mol T*S(tot)=    23.32 kcal/mol
 sn= 6  qrot/sn=   24502.0870 T*S(rot)=     6.88 kcal/mol T*S(tot)=    23.21 kcal/mol
 sn= 7  qrot/sn=   21001.7889 T*S(rot)=     6.79 kcal/mol T*S(tot)=    23.12 kcal/mol
 sn= 8  qrot/sn=   18376.5652 T*S(rot)=     6.71 kcal/mol T*S(tot)=    23.04 kcal/mol
 sn= 9  qrot/sn=   16334.7247 T*S(rot)=     6.64 kcal/mol T*S(tot)=    22.97 kcal/mol
 sn=10  qrot/sn=   14701.2522 T*S(rot)=     6.57 kcal/mol T*S(tot)=    22.91 kcal/mol
 sn=11  qrot/sn=   13364.7747 T*S(rot)=     6.52 kcal/mol T*S(tot)=    22.85 kcal/mol
 sn=12  qrot/sn=   12251.0435 T*S(rot)=     6.47 kcal/mol T*S(tot)=    22.80 kcal/mol

-------------------
GIBBS FREE ENTHALPY
-------------------

The Gibbs free enthalpy is G = H - T*S

Total enthalpy                    ...   -251.84716482 Eh
Total entropy correction          ...     -0.03764484 Eh    -23.62 kcal/mol
-----------------------------------------------------------------------
Final Gibbs free enthalpy         ...   -251.88480966 Eh

For completeness - the Gibbs free enthalpy minus the electronic energy
G-E(el)                           ...      0.14058646 Eh     88.22 kcal/mol

                             ****ORCA TERMINATED NORMALLY****
TOTAL RUN TIME: 0 days 0 hours 22 minutes 44 seconds 138 msec
