                         Program Version 3.0.3 - RELEASE   -
|  1> ! NORI PBE0 def2-TZVP UseSym TightOPT Freq TightSCF Grid3 FinalGrid5 XYZFile
|  2> % pal
|  3>     nprocs 8
|  4> end
|  5> %method
|  6>     SymThresh 5.0e-2
|  7> end
|  8> % geom
|  9>     MaxIter 10
| 10> end
| 11> % maxcore 2000
| 12> % output
| 13>     printlevel mini
| 14>     print[ P_Basis ] 0
| 15>     print[ P_SCFInfo ] 1
| 16>     print[ P_SCFIterInfo ] 1
| 17>     print[ P_OrbEn ] 0
| 18>     print[ P_Cartesian ] 0
| 19> end
| 20> % elprop
| 21>     Dipole false
| 22> end
| 23> *xyz 1 1
| 24>  C        1.0929565754    -0.1194861361    -0.3548445497
| 25>  N        2.5396077429    -0.4446596891    -0.4506976804
| 26>  C        3.4228360819     0.2853456300     0.5296361866
| 27>  C        4.8535480684    -0.0519220470     0.2884184960
| 28>  C        5.5770907718     0.5873390157    -0.8711307443
| 29>  C        5.8938250838     1.0015875282     0.5243903646
| 30>  H        0.5447884263    -0.6940903192    -1.0988574483
| 31>  H        0.9633108025     0.9459510426    -0.5347997834
| 32>  H        0.7437924147    -0.3719446656     0.6444162064
| 33>  H        2.8889080232    -0.2376997558    -1.3893557724
| 34>  H        2.6766384289    -1.4491821374    -0.3231996391
| 35>  H        3.0772345179     0.0026782525     1.5261681432
| 36>  H        3.2270022735     1.3493116470     0.3821014989
| 37>  H        5.1375501629    -1.0674798487     0.5472631874
| 38>  H        5.0383028080     1.2970930911    -1.4909909913
| 39>  H        6.2971951773    -0.0158852934    -1.4082203182
| 40>  H        5.5602657900     1.9783082974     0.8525241576
| 41>  H        6.8304568507     0.6796653881     0.9583286865
| 42> *
| 43>
| 44>                          ****END OF INPUT****
 Total Charge           Charge          ....    1
 Multiplicity           Mult            ....    1
 Number of Electrons    NEL             ....   48
FINAL SINGLE POINT ENERGY      -252.025783428669
FINAL SINGLE POINT ENERGY      -252.025784870140

CARTESIAN COORDINATES (ANGSTROEM)
---------------------------------
  C      1.011703   -0.000988    2.570041
  N      0.000323   -0.000440    1.481202
  C      0.494922   -0.510742    0.150593
  C     -0.574017   -0.387757   -0.879804
  C     -0.860307    0.963059   -1.487958
  C     -0.182905   -0.089856   -2.296519
  H      0.557066    0.379102    3.483348
  H      1.843305    0.635000    2.273568
  H      1.360509   -1.020488    2.722337
  H     -0.360647    0.944597    1.331470
  H     -0.807168   -0.560286    1.761305
  H      0.815742   -1.541315    0.315526
  H      1.370702    0.090663   -0.100183
  H     -1.418037   -1.058862   -0.750512
  H     -0.260328    1.810856   -1.172849
  H     -1.890953    1.204887   -1.711506
  H      0.870083    0.036795   -2.516190
  H     -0.746126   -0.584157   -3.076375

FINAL SINGLE POINT ENERGY      -252.025785727734
                    ***********************HURRAY********************
 Multiplicity           Mult            ....    1
 Number of Electrons    NEL             ....   48
 Basis Dimension        Dim             ....  258
FINAL SINGLE POINT ENERGY      -252.025785977744

VIBRATIONAL FREQUENCIES
-----------------------

   0:         0.00 cm**-1
   1:         0.00 cm**-1
   2:         0.00 cm**-1
   3:         0.00 cm**-1
   4:         0.00 cm**-1
   5:         0.00 cm**-1
   6:        82.61 cm**-1
   7:       110.16 cm**-1
   8:       170.53 cm**-1
   9:       230.32 cm**-1
  10:       320.25 cm**-1
  11:       384.02 cm**-1
  12:       445.00 cm**-1
  13:       785.85 cm**-1
  14:       793.48 cm**-1
  15:       837.83 cm**-1
  16:       846.79 cm**-1
  17:       903.30 cm**-1
  18:       920.50 cm**-1
  19:       970.10 cm**-1
  20:      1012.75 cm**-1
  21:      1030.54 cm**-1
  22:      1065.53 cm**-1
  23:      1092.82 cm**-1
  24:      1103.23 cm**-1
  25:      1133.27 cm**-1
  26:      1170.60 cm**-1
  27:      1199.59 cm**-1
  28:      1235.00 cm**-1
  29:      1242.88 cm**-1
  30:      1313.66 cm**-1
  31:      1349.25 cm**-1
  32:      1392.61 cm**-1
  33:      1414.83 cm**-1
  34:      1436.63 cm**-1
  35:      1461.17 cm**-1
  36:      1465.43 cm**-1
  37:      1485.04 cm**-1
  38:      1493.79 cm**-1
  39:      1498.12 cm**-1
  40:      1512.73 cm**-1
  41:      1656.96 cm**-1
  42:      3086.94 cm**-1
  43:      3092.43 cm**-1
  44:      3142.37 cm**-1
  45:      3144.53 cm**-1
  46:      3165.69 cm**-1
  47:      3166.20 cm**-1
  48:      3191.74 cm**-1
  49:      3195.19 cm**-1
  50:      3238.79 cm**-1
  51:      3257.93 cm**-1
  52:      3439.09 cm**-1
  53:      3488.89 cm**-1

IR SPECTRUM
-----------

 Mode    freq (cm**-1)   T**2         TX         TY         TZ
-------------------------------------------------------------------
   6:        82.61    2.219481  ( -0.690528  -1.237520  -0.459562)
   7:       110.16    4.542611  ( -0.208789  -1.434472   1.562469)
   8:       170.53    1.417624  (  0.086062   0.254294   1.159979)
   9:       230.32    2.013316  (  0.206631   1.283797  -0.567878)
  10:       320.25    1.773452  (  1.018096  -0.284617   0.809893)
  11:       384.02    2.710482  (  0.481910  -0.469081  -1.502733)
  12:       445.00    3.125082  (  0.088371   1.103331   1.378381)
  13:       785.85    2.331488  ( -0.839012  -1.269868  -0.122402)
  14:       793.48   18.216907  ( -0.735804  -3.432348   2.427856)
  15:       837.83    1.230634  (  0.282185  -0.650308   0.853291)
  16:       846.79    6.852819  ( -0.824713   1.079292   2.237811)
  17:       903.30   22.024680  (  0.869243  -2.371942  -3.955122)
  18:       920.50    2.661098  (  0.207457   1.510827  -0.579191)
  19:       970.10   28.705411  (  1.112033  -0.712158   5.192458)
  20:      1012.75   12.509509  ( -0.376530   2.122681  -2.803918)
  21:      1030.54    9.093820  (  1.893655   0.955411   2.143614)
  22:      1065.53    9.400360  (  0.313195   1.876572  -2.404318)
  23:      1092.82    0.516284  ( -0.240247  -0.663563   0.135093)
  24:      1103.23    5.536488  ( -0.993422   1.632581   1.372692)
  25:      1133.27    4.132006  ( -0.176592   0.727680   1.889789)
  26:      1170.60    5.608949  (  0.672040   0.446254   2.226695)
  27:      1199.59    0.921655  ( -0.142729   0.673125   0.669467)
  28:      1235.00    0.655535  (  0.657419  -0.140928   0.451081)
  29:      1242.88    7.031006  (  0.131622   0.863959  -2.503449)
  30:      1313.66    2.070233  ( -0.039722   1.433495  -0.117252)
  31:      1349.25    7.801065  (  0.463135   1.676801   2.185156)
  32:      1392.61    6.063435  ( -0.563408   0.487273  -2.347034)
  33:      1414.83   59.140948  ( -1.288641  -0.838802  -7.535036)
  34:      1436.63   20.548639  ( -0.366305   0.695796  -4.464339)
  35:      1461.17    6.351571  (  1.277879  -0.755446   2.036639)
  36:      1465.43    9.627850  ( -1.331418   1.647655   2.267247)
  37:      1485.04   17.522378  (  1.487639   0.933856   3.799634)
  38:      1493.79   22.479365  ( -1.013187  -4.521546   1.004209)
  39:      1498.12   22.258110  (  3.468621  -1.407234  -2.871666)
  40:      1512.73    4.909929  ( -1.917088  -0.773575   0.797674)
  41:      1656.96   42.044305  ( -5.976825   2.413646   0.704402)
  42:      3086.94    3.981039  ( -1.481760   0.517722  -1.231824)
  43:      3092.43    0.403321  (  0.525828  -0.104314   0.340507)
  44:      3142.37    0.551722  (  0.469225  -0.177903   0.547632)
  45:      3144.53    4.582308  (  0.474264   1.630575   1.303307)
  46:      3165.69    3.274148  ( -1.134235  -0.898727   1.086254)
  47:      3166.20    0.985599  ( -0.605125   0.684203  -0.388960)
  48:      3191.74    0.163104  (  0.353001  -0.196073   0.007017)
  49:      3195.19    0.013736  ( -0.036764  -0.111142  -0.005611)
  50:      3238.79    0.437619  (  0.335024   0.401314   0.405370)
  51:      3257.93    0.077966  (  0.260277   0.088967  -0.048029)
  52:      3439.09   38.026660  ( -5.624817   2.458827   0.585035)
  53:      3488.89   68.943477  ( -2.963128  -7.104954   3.111747)

--------------------------
THERMOCHEMISTRY AT 298.15K
--------------------------

Temperature         ... 298.15 K
Pressure            ... 1.00 atm
Total Mass          ... 86.16 AMU

Throughout the following assumptions are being made:
  (1) The electronic state is orbitally nondegenerate
  (2) There are no thermally accessible electronically excited states
  (3) Hindered rotations indicated by low frequency modes) are not
      treated as such but are treated as vibrations and this may
      case some error
  (4) All equations used are the standard statistical mechanics
      equations for an ideal gas
  (5) All vibrations are strinctly harmonic

------------
INNER ENERGY
------------

The inner energy is: U= E(el) + E(ZPE) + E(vib) + E(rot) + E(trans)
    E(el)   - is the total energy from the electronic structure calculation
              = E(kin-el) + E(nuc-el) + E(el-el) + E(nuc-nuc)
    E(ZPE)  - the the zero temperature vibrational energy from the frequency calculation
    E(vib)  - the the finite temperature correction to E(ZPE) due to population
              of excietd vibrational states
    E(rot)  - is the rotational thermal energy
    E(trans)- is the translational thermal energy

Summary of contributions to the inner energy U:
Electronic energy                ...   -252.02578598 Eh
Zero point energy                ...      0.17126571 Eh     107.47 kcal/mol
Thermal vibrational correction   ...      0.00434503 Eh       2.73 kcal/mol
Thermal rotational correction    ...      0.00141627 Eh       0.89 kcal/mol
Thermal translational correction ...      0.00141627 Eh       0.89 kcal/mol
-----------------------------------------------------------------------
Total thermal energy                   -251.84734269 Eh

Summary of corrections to the electronic energy:
(perhaps to be used in another calculation)
Total thermal correction                  0.00717757 Eh       4.50 kcal/mol
Non-thermal (ZPE) correction              0.17126571 Eh     107.47 kcal/mol
-----------------------------------------------------------------------
Total correction                          0.17844328 Eh     111.97 kcal/mol

--------
ENTHALPY
--------

The enthalpy is H = U + kB*T
                kB is Boltzmann's constant
Total free energy                 ...   -251.84734269 Eh
Thermal Enthalpy correction       ...      0.00094421 Eh       0.59 kcal/mol
-----------------------------------------------------------------------
Total Enthalpy                    ...   -251.84639849 Eh

-------
ENTROPY
-------

The entropy contributions are T*S = T*(S(el)+S(vib)+S(rot)+S(trans)
     S(el)   - electronic entropy
     S(vib)  - vibrational entropy
     S(rot)  - rotational entropy
     S(trans)- translational entropy
The entropies will be listed as mutliplied by the temperature to get
units of energy

Electronic entropy                ...      0.00000000 Eh      0.00 kcal/mol
Vibrational entropy               ...      0.00782093 Eh      4.91 kcal/mol
Rotational entropy                ...      0.01172415 Eh      7.36 kcal/mol
Translational entropy             ...      0.01866024 Eh     11.71 kcal/mol
-----------------------------------------------------------------------
Final entropy term                ...      0.03820532 Eh     23.97 kcal/mol

CAUTION: The rotational entropy is not quite correctly treated here
         because it includes a symmetry number that is not yet correctly
         implemented in ORCA!
For a nonlinear molecule the correct rotational entropy is:
    S(rot) = R*(ln(qrot/sn)+1.5)
    R    = 8.31441 J/mol/K = 1.987191683e-3 kcal/mol/K
    qrot = 165360.1802762
    sn is the rotational symmetry number. We have assumed 3 here
       if it is different for your molecule then you should correct
       the printed rotational entropy by manually evaluating the equation
       as given above

For convenience we print out the resulting values for sn=1 - 12:
 sn= 1  qrot/sn=  165360.1803 T*S(rot)=     8.01 kcal/mol T*S(tot)=    24.63 kcal/mol
 sn= 2  qrot/sn=   82680.0901 T*S(rot)=     7.60 kcal/mol T*S(tot)=    24.21 kcal/mol
 sn= 3  qrot/sn=   55120.0601 T*S(rot)=     7.36 kcal/mol T*S(tot)=    23.97 kcal/mol
 sn= 4  qrot/sn=   41340.0451 T*S(rot)=     7.19 kcal/mol T*S(tot)=    23.80 kcal/mol
 sn= 5  qrot/sn=   33072.0361 T*S(rot)=     7.05 kcal/mol T*S(tot)=    23.67 kcal/mol
 sn= 6  qrot/sn=   27560.0300 T*S(rot)=     6.95 kcal/mol T*S(tot)=    23.56 kcal/mol
 sn= 7  qrot/sn=   23622.8829 T*S(rot)=     6.85 kcal/mol T*S(tot)=    23.47 kcal/mol
 sn= 8  qrot/sn=   20670.0225 T*S(rot)=     6.78 kcal/mol T*S(tot)=    23.39 kcal/mol
 sn= 9  qrot/sn=   18373.3534 T*S(rot)=     6.71 kcal/mol T*S(tot)=    23.32 kcal/mol
 sn=10  qrot/sn=   16536.0180 T*S(rot)=     6.64 kcal/mol T*S(tot)=    23.26 kcal/mol
 sn=11  qrot/sn=   15032.7437 T*S(rot)=     6.59 kcal/mol T*S(tot)=    23.20 kcal/mol
 sn=12  qrot/sn=   13780.0150 T*S(rot)=     6.54 kcal/mol T*S(tot)=    23.15 kcal/mol

-------------------
GIBBS FREE ENTHALPY
-------------------

The Gibbs free enthalpy is G = H - T*S

Total enthalpy                    ...   -251.84639849 Eh
Total entropy correction          ...     -0.03820532 Eh    -23.97 kcal/mol
-----------------------------------------------------------------------
Final Gibbs free enthalpy         ...   -251.88460380 Eh

For completeness - the Gibbs free enthalpy minus the electronic energy
G-E(el)                           ...      0.14118217 Eh     88.59 kcal/mol

                             ****ORCA TERMINATED NORMALLY****
TOTAL RUN TIME: 0 days 0 hours 21 minutes 37 seconds 669 msec
