                         Program Version 3.0.3 - RELEASE   -
|  1> ! NORI PBE0 def2-TZVP UseSym TightOPT Freq TightSCF Grid3 FinalGrid5 XYZFile
|  2> % pal
|  3>     nprocs 8
|  4> end
|  5> %method
|  6>     SymThresh 5.0e-2
|  7> end
|  8> % geom
|  9>     MaxIter 10
| 10> end
| 11> % maxcore 2000
| 12> % output
| 13>     printlevel mini
| 14>     print[ P_Basis ] 0
| 15>     print[ P_SCFInfo ] 1
| 16>     print[ P_SCFIterInfo ] 1
| 17>     print[ P_OrbEn ] 0
| 18>     print[ P_Cartesian ] 0
| 19> end
| 20> % elprop
| 21>     Dipole false
| 22> end
| 23> *xyz 1 1
| 24>  C        1.0183858157    -0.2469462824    -0.0523041379
| 25>  N        2.4973734961    -0.0784133996     0.0307271663
| 26>  C        3.1794561478    -1.3985375499     0.0784565685
| 27>  C        2.9655059837     0.8581936875    -1.0279463668
| 28>  C        4.3681841018     0.8865897295    -1.5219911295
| 29>  C        3.2614992699     0.3975888093    -2.4108181820
| 30>  H        0.5481129721     0.7336892226    -0.0188457387
| 31>  H        0.6802054980    -0.8538557377     0.7858207098
| 32>  H        0.7836348148    -0.7377460825    -0.9947989696
| 33>  H        2.7000951333     0.3831356775     0.9199960868
| 34>  H        2.9871728640    -1.9353054587    -0.8475157577
| 35>  H        2.7696709237    -1.9602953848     0.9159021202
| 36>  H        4.2467117021    -1.2538765989     0.2236618892
| 37>  H        2.4524445304     1.8043436892    -0.9072548134
| 38>  H        4.7958002394     1.8651227437    -1.6965010855
| 39>  H        5.0788009878     0.1493341641    -1.1727347349
| 40>  H        3.2474271534    -0.6617153801    -2.6335889527
| 41>  H        2.9091783658     1.0231941512    -3.2199546722
| 42> *
| 43>
| 44>                          ****END OF INPUT****
 Total Charge           Charge          ....    1
 Multiplicity           Mult            ....    1
 Number of Electrons    NEL             ....   48
FINAL SINGLE POINT ENERGY      -252.013766790285
FINAL SINGLE POINT ENERGY      -252.013767892063
FINAL SINGLE POINT ENERGY      -252.013769062840
FINAL SINGLE POINT ENERGY      -252.013770147997
FINAL SINGLE POINT ENERGY      -252.013771348073
FINAL SINGLE POINT ENERGY      -252.013773313124
FINAL SINGLE POINT ENERGY      -252.013774170868

CARTESIAN COORDINATES (ANGSTROEM)
---------------------------------
  C      1.385075   -0.014107    1.454086
  N      0.003634    0.004016    0.893372
  C     -0.521042    1.393615    0.830700
  C     -0.041897   -0.766557   -0.379715
  C     -1.138280   -0.619894   -1.373731
  C      0.246115   -0.135982   -1.695829
  H      1.708344   -1.047156    1.566534
  H      1.384609    0.485771    2.421187
  H      2.041299    0.505940    0.758992
  H     -0.595861   -0.502960    1.547956
  H      0.119788    1.988381    0.184459
  H     -0.505539    1.806214    1.837817
  H     -1.541189    1.384797    0.456419
  H      0.344930   -1.761941   -0.198544
  H     -1.502449   -1.532582   -1.826910
  H     -1.900011    0.134820   -1.229295
  H      0.385293    0.935864   -1.753281
  H      0.863448   -0.699918   -2.382386

FINAL SINGLE POINT ENERGY      -252.013774766598
                    ***********************HURRAY********************
 Multiplicity           Mult            ....    1
 Number of Electrons    NEL             ....   48
 Basis Dimension        Dim             ....  258
FINAL SINGLE POINT ENERGY      -252.013775150445

VIBRATIONAL FREQUENCIES
-----------------------

   0:         0.00 cm**-1
   1:         0.00 cm**-1
   2:         0.00 cm**-1
   3:         0.00 cm**-1
   4:         0.00 cm**-1
   5:         0.00 cm**-1
   6:        18.97 cm**-1
   7:       202.21 cm**-1
   8:       248.97 cm**-1
   9:       278.97 cm**-1
  10:       290.60 cm**-1
  11:       399.07 cm**-1
  12:       450.34 cm**-1
  13:       528.01 cm**-1
  14:       716.94 cm**-1
  15:       774.87 cm**-1
  16:       844.86 cm**-1
  17:       905.67 cm**-1
  18:       971.79 cm**-1
  19:       989.67 cm**-1
  20:      1013.06 cm**-1
  21:      1050.03 cm**-1
  22:      1072.38 cm**-1
  23:      1103.90 cm**-1
  24:      1108.99 cm**-1
  25:      1137.21 cm**-1
  26:      1190.97 cm**-1
  27:      1192.84 cm**-1
  28:      1213.32 cm**-1
  29:      1247.22 cm**-1
  30:      1285.25 cm**-1
  31:      1386.69 cm**-1
  32:      1410.86 cm**-1
  33:      1436.72 cm**-1
  34:      1445.50 cm**-1
  35:      1458.26 cm**-1
  36:      1470.69 cm**-1
  37:      1482.89 cm**-1
  38:      1488.57 cm**-1
  39:      1502.47 cm**-1
  40:      1508.78 cm**-1
  41:      1522.58 cm**-1
  42:      3089.90 cm**-1
  43:      3101.41 cm**-1
  44:      3171.25 cm**-1
  45:      3173.39 cm**-1
  46:      3190.03 cm**-1
  47:      3193.68 cm**-1
  48:      3195.14 cm**-1
  49:      3198.85 cm**-1
  50:      3210.41 cm**-1
  51:      3252.34 cm**-1
  52:      3263.33 cm**-1
  53:      3447.06 cm**-1

IR SPECTRUM
-----------

 Mode    freq (cm**-1)   T**2         TX         TY         TZ
-------------------------------------------------------------------
   7:       202.21    0.007687  ( -0.063066   0.060303  -0.008554)
   8:       248.97    0.195846  (  0.159162   0.326093   0.253332)
   9:       278.97    0.480844  ( -0.179461   0.637497   0.205513)
  10:       290.60    0.316937  (  0.232570  -0.354135  -0.370724)
  11:       399.07    0.077593  (  0.262938   0.062211  -0.067724)
  12:       450.34    1.134033  ( -1.029954   0.179213  -0.202755)
  13:       528.01    1.041802  ( -0.249601  -0.654255  -0.742598)
  14:       716.94    2.874774  (  0.292289  -0.330061   1.637193)
  15:       774.87    1.492742  ( -0.314183   1.127522  -0.350323)
  16:       844.86   11.433876  ( -3.113539  -1.084797  -0.750310)
  17:       905.67    8.230549  ( -1.189154  -0.105407  -2.608707)
  18:       971.79    5.521036  (  0.642310  -1.754609  -1.424717)
  19:       989.67    8.688198  (  0.962614   2.340252  -1.511553)
  20:      1013.06   19.622116  ( -3.426116   2.367547  -1.509492)
  21:      1050.03    1.073000  (  0.963307  -0.250306  -0.287032)
  22:      1072.38   18.781493  (  1.110294  -0.315385   4.177233)
  23:      1103.90    4.220008  ( -1.937903  -0.663147   0.157399)
  24:      1108.99    1.505572  (  1.030531   0.315066   0.586780)
  25:      1137.21    2.747160  (  1.304276   0.834284   0.591604)
  26:      1190.97    3.098291  ( -0.588752  -1.451210  -0.803525)
  27:      1192.84    6.471064  ( -0.346610   1.562297   1.977411)
  28:      1213.32    1.717726  ( -1.164585  -0.096988  -0.593347)
  29:      1247.22    1.968475  ( -0.429763  -0.172021  -1.324457)
  30:      1285.25    1.495235  ( -0.509349   0.916264  -0.629491)
  31:      1386.69    7.799750  (  0.984021   2.034208   1.641173)
  32:      1410.86    9.690577  (  2.756267  -0.079370   1.444738)
  33:      1436.72    4.569579  (  1.863069  -1.004205   0.300211)
  34:      1445.50    6.075127  ( -0.167858   2.347354   0.732722)
  35:      1458.26    4.362296  (  1.370908   1.432518  -0.656355)
  36:      1470.69    8.269772  (  0.187508   2.571519  -1.273540)
  37:      1482.89    1.060028  ( -0.440425  -0.648101   0.667846)
  38:      1488.57   16.678364  ( -3.246089   2.476457  -0.091827)
  39:      1502.47   30.108217  ( -3.979245  -3.691565  -0.803850)
  40:      1508.78   48.331513  (  1.739919  -0.424092  -6.717465)
  41:      1522.58   12.919751  (  2.523446  -2.397090   0.897737)
  42:      3089.90    0.277132  (  0.288972  -0.035144   0.438625)
  43:      3101.41    0.126739  (  0.177404  -0.273586   0.142888)
  44:      3171.25    0.377244  (  0.076627   0.409887   0.450960)
  45:      3173.39    2.641171  (  0.060615  -0.986288  -1.290245)
  46:      3190.03    0.340944  (  0.115434   0.249213   0.515278)
  47:      3193.68    0.012546  ( -0.090665  -0.064236   0.014114)
  48:      3195.14    0.108791  ( -0.206795   0.256543   0.014570)
  49:      3198.85    0.278336  ( -0.040960   0.249230   0.463187)
  50:      3210.41    0.085360  (  0.157987  -0.235871  -0.069025)
  51:      3252.34    0.024186  ( -0.143829   0.052864   0.026544)
  52:      3263.33    0.349386  (  0.116512  -0.559917  -0.149345)
  53:      3447.06   56.902074  (  4.264589   3.931635  -4.822614)

--------------------------
THERMOCHEMISTRY AT 298.15K
--------------------------

Temperature         ... 298.15 K
Pressure            ... 1.00 atm
Total Mass          ... 86.16 AMU

Throughout the following assumptions are being made:
  (1) The electronic state is orbitally nondegenerate
  (2) There are no thermally accessible electronically excited states
  (3) Hindered rotations indicated by low frequency modes) are not
      treated as such but are treated as vibrations and this may
      case some error
  (4) All equations used are the standard statistical mechanics
      equations for an ideal gas
  (5) All vibrations are strinctly harmonic

------------
INNER ENERGY
------------

The inner energy is: U= E(el) + E(ZPE) + E(vib) + E(rot) + E(trans)
    E(el)   - is the total energy from the electronic structure calculation
              = E(kin-el) + E(nuc-el) + E(el-el) + E(nuc-nuc)
    E(ZPE)  - the the zero temperature vibrational energy from the frequency calculation
    E(vib)  - the the finite temperature correction to E(ZPE) due to population
              of excietd vibrational states
    E(rot)  - is the rotational thermal energy
    E(trans)- is the translational thermal energy

Summary of contributions to the inner energy U:
Electronic energy                ...   -252.01377515 Eh
Zero point energy                ...      0.17044773 Eh     106.96 kcal/mol
Thermal vibrational correction   ...      0.00339621 Eh       2.13 kcal/mol
Thermal rotational correction    ...      0.00141627 Eh       0.89 kcal/mol
Thermal translational correction ...      0.00141627 Eh       0.89 kcal/mol
-----------------------------------------------------------------------
Total thermal energy                   -251.83709866 Eh

Summary of corrections to the electronic energy:
(perhaps to be used in another calculation)
Total thermal correction                  0.00622875 Eh       3.91 kcal/mol
Non-thermal (ZPE) correction              0.17044773 Eh     106.96 kcal/mol
-----------------------------------------------------------------------
Total correction                          0.17667649 Eh     110.87 kcal/mol

--------
ENTHALPY
--------

The enthalpy is H = U + kB*T
                kB is Boltzmann's constant
Total free energy                 ...   -251.83709866 Eh
Thermal Enthalpy correction       ...      0.00094421 Eh       0.59 kcal/mol
-----------------------------------------------------------------------
Total Enthalpy                    ...   -251.83615446 Eh

-------
ENTROPY
-------

The entropy contributions are T*S = T*(S(el)+S(vib)+S(rot)+S(trans)
     S(el)   - electronic entropy
     S(vib)  - vibrational entropy
     S(rot)  - rotational entropy
     S(trans)- translational entropy
The entropies will be listed as mutliplied by the temperature to get
units of energy

Electronic entropy                ...      0.00000000 Eh      0.00 kcal/mol
Vibrational entropy               ...      0.00522273 Eh      3.28 kcal/mol
Rotational entropy                ...      0.01159705 Eh      7.28 kcal/mol
Translational entropy             ...      0.01866024 Eh     11.71 kcal/mol
-----------------------------------------------------------------------
Final entropy term                ...      0.03548001 Eh     22.26 kcal/mol

CAUTION: The rotational entropy is not quite correctly treated here
         because it includes a symmetry number that is not yet correctly
         implemented in ORCA!
For a nonlinear molecule the correct rotational entropy is:
    S(rot) = R*(ln(qrot/sn)+1.5)
    R    = 8.31441 J/mol/K = 1.987191683e-3 kcal/mol/K
    qrot = 144533.4519890
    sn is the rotational symmetry number. We have assumed 3 here
       if it is different for your molecule then you should correct
       the printed rotational entropy by manually evaluating the equation
       as given above

For convenience we print out the resulting values for sn=1 - 12:
 sn= 1  qrot/sn=  144533.4520 T*S(rot)=     7.93 kcal/mol T*S(tot)=    22.91 kcal/mol
 sn= 2  qrot/sn=   72266.7260 T*S(rot)=     7.52 kcal/mol T*S(tot)=    22.50 kcal/mol
 sn= 3  qrot/sn=   48177.8173 T*S(rot)=     7.28 kcal/mol T*S(tot)=    22.26 kcal/mol
 sn= 4  qrot/sn=   36133.3630 T*S(rot)=     7.11 kcal/mol T*S(tot)=    22.09 kcal/mol
 sn= 5  qrot/sn=   28906.6904 T*S(rot)=     6.97 kcal/mol T*S(tot)=    21.96 kcal/mol
 sn= 6  qrot/sn=   24088.9087 T*S(rot)=     6.87 kcal/mol T*S(tot)=    21.85 kcal/mol
 sn= 7  qrot/sn=   20647.6360 T*S(rot)=     6.78 kcal/mol T*S(tot)=    21.76 kcal/mol
 sn= 8  qrot/sn=   18066.6815 T*S(rot)=     6.70 kcal/mol T*S(tot)=    21.68 kcal/mol
 sn= 9  qrot/sn=   16059.2724 T*S(rot)=     6.63 kcal/mol T*S(tot)=    21.61 kcal/mol
 sn=10  qrot/sn=   14453.3452 T*S(rot)=     6.56 kcal/mol T*S(tot)=    21.55 kcal/mol
 sn=11  qrot/sn=   13139.4047 T*S(rot)=     6.51 kcal/mol T*S(tot)=    21.49 kcal/mol
 sn=12  qrot/sn=   12044.4543 T*S(rot)=     6.46 kcal/mol T*S(tot)=    21.44 kcal/mol

-------------------
GIBBS FREE ENTHALPY
-------------------

The Gibbs free enthalpy is G = H - T*S

Total enthalpy                    ...   -251.83615446 Eh
Total entropy correction          ...     -0.03548001 Eh    -22.26 kcal/mol
-----------------------------------------------------------------------
Final Gibbs free enthalpy         ...   -251.87163447 Eh

For completeness - the Gibbs free enthalpy minus the electronic energy
G-E(el)                           ...      0.14214068 Eh     89.19 kcal/mol

                             ****ORCA TERMINATED NORMALLY****
TOTAL RUN TIME: 0 days 0 hours 28 minutes 10 seconds 14 msec
