                         Program Version 3.0.3 - RELEASE   -
|  1> ! NORI PBE0 def2-TZVP UseSym TightOPT Freq TightSCF Grid3 FinalGrid5 XYZFile
|  2> % pal
|  3>     nprocs 8
|  4> end
|  5> %method
|  6>     SymThresh 5.0e-2
|  7> end
|  8> % geom
|  9>     MaxIter 10
| 10> end
| 11> % maxcore 2000
| 12> % output
| 13>     printlevel mini
| 14>     print[ P_Basis ] 0
| 15>     print[ P_SCFInfo ] 1
| 16>     print[ P_SCFIterInfo ] 1
| 17>     print[ P_OrbEn ] 0
| 18>     print[ P_Cartesian ] 0
| 19> end
| 20> % elprop
| 21>     Dipole false
| 22> end
| 23> *xyz 1 1
| 24>  C        0.8574822323    -0.2594857050    -0.1790417849
| 25>  N        2.2783786569     0.1341468993    -0.3660006387
| 26>  C        2.5721636125     0.4558614499    -1.7872205887
| 27>  C        2.6674321853     1.2603350210     0.5658813471
| 28>  C        4.1386911857     1.4807380539     0.5939848777
| 29>  C        4.7091376806     2.6214905652     0.2344873331
| 30>  H        0.6236365237    -1.0841753350    -0.8500843149
| 31>  H        0.2277886722     0.5976646738    -0.4127525147
| 32>  H        0.7024287069    -0.5625909846     0.8549225723
| 33>  H        2.8575164597    -0.6680338138    -0.1102449628
| 34>  H        1.9338575213     1.2850309584    -2.0896282307
| 35>  H        2.3608515467    -0.4191881614    -2.3991092334
| 36>  H        3.6181850035     0.7400129654    -1.8776595794
| 37>  H        2.2875348343     0.9746583815     1.5502547723
| 38>  H        2.1252762388     2.1443547794     0.2264492815
| 39>  H        4.7467966261     0.6692185290     0.9893992841
| 40>  H        4.1295320256     3.4629373687    -0.1319034591
| 41>  H        5.7798902879     2.7645143543     0.3156358392
| 42> *
| 43>
| 44>                          ****END OF INPUT****
 Total Charge           Charge          ....    1
 Multiplicity           Mult            ....    1
 Number of Electrons    NEL             ....   48
FINAL SINGLE POINT ENERGY      -252.020818208111
FINAL SINGLE POINT ENERGY      -252.020819498219

CARTESIAN COORDINATES (ANGSTROEM)
---------------------------------
  C      1.019334   -0.001443    2.047194
  N     -0.000411    0.001206    0.965963
  C     -0.623263    1.341827    0.807389
  C      0.571164   -0.519046   -0.334837
  C     -0.487280   -0.792141   -1.344403
  C     -0.549480   -0.175385   -2.515601
  H      0.564033    0.356425    2.968964
  H      1.833538    0.660143    1.755614
  H      1.394186   -1.014346    2.183363
  H     -0.741425   -0.647307    1.238829
  H      0.160718    2.055984    0.559121
  H     -1.099597    1.623695    1.744693
  H     -1.356149    1.299286    0.004763
  H      1.118662   -1.428577   -0.075150
  H      1.284725    0.230379   -0.680614
  H     -1.195603   -1.584186   -1.108488
  H      0.161363    0.595572   -2.796506
  H     -1.303541   -0.435933   -3.248369

FINAL SINGLE POINT ENERGY      -252.020820478238
                    ***********************HURRAY********************
 Multiplicity           Mult            ....    1
 Number of Electrons    NEL             ....   48
 Basis Dimension        Dim             ....  258
FINAL SINGLE POINT ENERGY      -252.020820698944

VIBRATIONAL FREQUENCIES
-----------------------

   0:         0.00 cm**-1
   1:         0.00 cm**-1
   2:         0.00 cm**-1
   3:         0.00 cm**-1
   4:         0.00 cm**-1
   5:         0.00 cm**-1
   6:        79.64 cm**-1
   7:       106.08 cm**-1
   8:       209.18 cm**-1
   9:       235.40 cm**-1
  10:       265.05 cm**-1
  11:       363.31 cm**-1
  12:       401.80 cm**-1
  13:       436.95 cm**-1
  14:       460.82 cm**-1
  15:       642.69 cm**-1
  16:       854.61 cm**-1
  17:       916.26 cm**-1
  18:       954.25 cm**-1
  19:       982.45 cm**-1
  20:      1020.04 cm**-1
  21:      1026.29 cm**-1
  22:      1032.56 cm**-1
  23:      1052.22 cm**-1
  24:      1102.17 cm**-1
  25:      1169.08 cm**-1
  26:      1220.63 cm**-1
  27:      1250.20 cm**-1
  28:      1310.68 cm**-1
  29:      1330.19 cm**-1
  30:      1371.22 cm**-1
  31:      1418.77 cm**-1
  32:      1425.04 cm**-1
  33:      1441.88 cm**-1
  34:      1456.07 cm**-1
  35:      1471.27 cm**-1
  36:      1473.91 cm**-1
  37:      1484.38 cm**-1
  38:      1492.82 cm**-1
  39:      1498.83 cm**-1
  40:      1507.02 cm**-1
  41:      1725.85 cm**-1
  42:      3080.25 cm**-1
  43:      3087.22 cm**-1
  44:      3089.72 cm**-1
  45:      3140.63 cm**-1
  46:      3158.31 cm**-1
  47:      3162.91 cm**-1
  48:      3185.92 cm**-1
  49:      3188.07 cm**-1
  50:      3189.57 cm**-1
  51:      3196.50 cm**-1
  52:      3257.02 cm**-1
  53:      3454.38 cm**-1

IR SPECTRUM
-----------

 Mode    freq (cm**-1)   T**2         TX         TY         TZ
-------------------------------------------------------------------
   6:        79.64    0.717249  ( -0.282231   0.463596  -0.650134)
   7:       106.08    0.272623  ( -0.405127  -0.027055  -0.328274)
   8:       209.18    0.024479  (  0.008313   0.126117  -0.092217)
   9:       235.40    0.582661  ( -0.452253   0.475138   0.390349)
  10:       265.05    0.245491  ( -0.236014   0.415676   0.130391)
  11:       363.31    0.553755  ( -0.405927   0.164307  -0.601649)
  12:       401.80    1.916844  ( -0.882154   1.037158  -0.250905)
  13:       436.95    0.649693  (  0.031852   0.077294  -0.801688)
  14:       460.82    0.440509  (  0.469455  -0.325752  -0.337649)
  15:       642.69   11.800023  (  1.693668  -2.586534  -1.497114)
  16:       854.61    9.667073  ( -1.247271   0.780662   2.738970)
  17:       916.26    7.496627  ( -0.559442   1.937322   1.852143)
  18:       954.25   41.806900  ( -0.560833  -1.916884  -6.149628)
  19:       982.45   14.222536  (  0.388743  -2.638545  -2.666363)
  20:      1020.04   40.541088  ( -2.989945   4.080635   3.866489)
  21:      1026.29   26.565921  ( -3.915849   3.324513  -0.423860)
  22:      1032.56    1.886659  (  1.127033  -0.784291   0.036657)
  23:      1052.22    2.258325  ( -0.797350   0.841623  -0.956153)
  24:      1102.17    6.167155  (  0.962124  -0.562089  -2.219353)
  25:      1169.08    2.699539  ( -1.329189   0.889263   0.376837)
  26:      1220.63    1.970807  (  0.437572  -0.377056   1.279519)
  27:      1250.20    0.546612  ( -0.358941   0.126713  -0.633812)
  28:      1310.68    1.397340  ( -0.292786   0.371373  -1.083374)
  29:      1330.19    5.221604  ( -0.426394  -0.974545   2.022388)
  30:      1371.22    0.160121  ( -0.126704  -0.368597  -0.090570)
  31:      1418.77   23.589079  ( -1.205125  -0.666873  -4.657471)
  32:      1425.04    3.196800  (  0.524897  -1.560139  -0.698031)
  33:      1441.88    9.160791  (  2.170035  -2.071426   0.401166)
  34:      1456.07   13.946371  ( -0.720259   2.077730  -3.018383)
  35:      1471.27   11.446372  ( -0.100327  -0.305124  -3.367968)
  36:      1473.91    7.100966  (  0.484664  -2.535741   0.660366)
  37:      1484.38    6.949003  (  0.652577  -1.271530   2.215030)
  38:      1492.82   27.804804  (  4.636118   0.149634   2.507753)
  39:      1498.83   20.863063  (  1.167122   4.415897  -0.027182)
  40:      1507.02   49.856136  (  4.808732  -0.386876  -5.155828)
  41:      1725.85    1.753017  ( -0.453635  -0.824487  -0.931372)
  42:      3080.25    2.342012  (  1.185585  -0.077868   0.964540)
  43:      3087.22    0.340699  ( -0.401866   0.396545  -0.148172)
  44:      3089.72    0.769609  (  0.371077   0.401201   0.686257)
  45:      3140.63    0.142197  (  0.009076   0.261015   0.272003)
  46:      3158.31    1.910185  ( -1.029315  -0.919192   0.076048)
  47:      3162.91    0.544621  ( -0.355465  -0.053155  -0.644546)
  48:      3185.92    0.144533  (  0.274178  -0.230269  -0.127810)
  49:      3188.07    0.159982  (  0.029786  -0.032978   0.397501)
  50:      3189.57    0.040453  (  0.047100  -0.146873  -0.129087)
  51:      3196.50    0.558725  (  0.005056   0.460451   0.588800)
  52:      3257.02    0.212871  ( -0.080125   0.173670  -0.419869)
  53:      3454.38   48.028009  ( -4.915760  -4.358793   2.205500)

--------------------------
THERMOCHEMISTRY AT 298.15K
--------------------------

Temperature         ... 298.15 K
Pressure            ... 1.00 atm
Total Mass          ... 86.16 AMU

Throughout the following assumptions are being made:
  (1) The electronic state is orbitally nondegenerate
  (2) There are no thermally accessible electronically excited states
  (3) Hindered rotations indicated by low frequency modes) are not
      treated as such but are treated as vibrations and this may
      case some error
  (4) All equations used are the standard statistical mechanics
      equations for an ideal gas
  (5) All vibrations are strinctly harmonic

------------
INNER ENERGY
------------

The inner energy is: U= E(el) + E(ZPE) + E(vib) + E(rot) + E(trans)
    E(el)   - is the total energy from the electronic structure calculation
              = E(kin-el) + E(nuc-el) + E(el-el) + E(nuc-nuc)
    E(ZPE)  - the the zero temperature vibrational energy from the frequency calculation
    E(vib)  - the the finite temperature correction to E(ZPE) due to population
              of excietd vibrational states
    E(rot)  - is the rotational thermal energy
    E(trans)- is the translational thermal energy

Summary of contributions to the inner energy U:
Electronic energy                ...   -252.02082070 Eh
Zero point energy                ...      0.16945043 Eh     106.33 kcal/mol
Thermal vibrational correction   ...      0.00482791 Eh       3.03 kcal/mol
Thermal rotational correction    ...      0.00141627 Eh       0.89 kcal/mol
Thermal translational correction ...      0.00141627 Eh       0.89 kcal/mol
-----------------------------------------------------------------------
Total thermal energy                   -251.84370982 Eh

Summary of corrections to the electronic energy:
(perhaps to be used in another calculation)
Total thermal correction                  0.00766045 Eh       4.81 kcal/mol
Non-thermal (ZPE) correction              0.16945043 Eh     106.33 kcal/mol
-----------------------------------------------------------------------
Total correction                          0.17711088 Eh     111.14 kcal/mol

--------
ENTHALPY
--------

The enthalpy is H = U + kB*T
                kB is Boltzmann's constant
Total free energy                 ...   -251.84370982 Eh
Thermal Enthalpy correction       ...      0.00094421 Eh       0.59 kcal/mol
-----------------------------------------------------------------------
Total Enthalpy                    ...   -251.84276561 Eh

-------
ENTROPY
-------

The entropy contributions are T*S = T*(S(el)+S(vib)+S(rot)+S(trans)
     S(el)   - electronic entropy
     S(vib)  - vibrational entropy
     S(rot)  - rotational entropy
     S(trans)- translational entropy
The entropies will be listed as mutliplied by the temperature to get
units of energy

Electronic entropy                ...      0.00000000 Eh      0.00 kcal/mol
Vibrational entropy               ...      0.00856782 Eh      5.38 kcal/mol
Rotational entropy                ...      0.01176382 Eh      7.38 kcal/mol
Translational entropy             ...      0.01866024 Eh     11.71 kcal/mol
-----------------------------------------------------------------------
Final entropy term                ...      0.03899188 Eh     24.47 kcal/mol

CAUTION: The rotational entropy is not quite correctly treated here
         because it includes a symmetry number that is not yet correctly
         implemented in ORCA!
For a nonlinear molecule the correct rotational entropy is:
    S(rot) = R*(ln(qrot/sn)+1.5)
    R    = 8.31441 J/mol/K = 1.987191683e-3 kcal/mol/K
    qrot = 172456.6527747
    sn is the rotational symmetry number. We have assumed 3 here
       if it is different for your molecule then you should correct
       the printed rotational entropy by manually evaluating the equation
       as given above

For convenience we print out the resulting values for sn=1 - 12:
 sn= 1  qrot/sn=  172456.6528 T*S(rot)=     8.03 kcal/mol T*S(tot)=    25.12 kcal/mol
 sn= 2  qrot/sn=   86228.3264 T*S(rot)=     7.62 kcal/mol T*S(tot)=    24.71 kcal/mol
 sn= 3  qrot/sn=   57485.5509 T*S(rot)=     7.38 kcal/mol T*S(tot)=    24.47 kcal/mol
 sn= 4  qrot/sn=   43114.1632 T*S(rot)=     7.21 kcal/mol T*S(tot)=    24.30 kcal/mol
 sn= 5  qrot/sn=   34491.3306 T*S(rot)=     7.08 kcal/mol T*S(tot)=    24.17 kcal/mol
 sn= 6  qrot/sn=   28742.7755 T*S(rot)=     6.97 kcal/mol T*S(tot)=    24.06 kcal/mol
 sn= 7  qrot/sn=   24636.6647 T*S(rot)=     6.88 kcal/mol T*S(tot)=    23.97 kcal/mol
 sn= 8  qrot/sn=   21557.0816 T*S(rot)=     6.80 kcal/mol T*S(tot)=    23.89 kcal/mol
 sn= 9  qrot/sn=   19161.8503 T*S(rot)=     6.73 kcal/mol T*S(tot)=    23.82 kcal/mol
 sn=10  qrot/sn=   17245.6653 T*S(rot)=     6.67 kcal/mol T*S(tot)=    23.75 kcal/mol
 sn=11  qrot/sn=   15677.8775 T*S(rot)=     6.61 kcal/mol T*S(tot)=    23.70 kcal/mol
 sn=12  qrot/sn=   14371.3877 T*S(rot)=     6.56 kcal/mol T*S(tot)=    23.65 kcal/mol

-------------------
GIBBS FREE ENTHALPY
-------------------

The Gibbs free enthalpy is G = H - T*S

Total enthalpy                    ...   -251.84276561 Eh
Total entropy correction          ...     -0.03899188 Eh    -24.47 kcal/mol
-----------------------------------------------------------------------
Final Gibbs free enthalpy         ...   -251.88175749 Eh

For completeness - the Gibbs free enthalpy minus the electronic energy
G-E(el)                           ...      0.13906321 Eh     87.26 kcal/mol

                             ****ORCA TERMINATED NORMALLY****
TOTAL RUN TIME: 0 days 0 hours 21 minutes 52 seconds 574 msec
