                         Program Version 3.0.3 - RELEASE   -
|  1> ! NORI PBE0 def2-TZVP UseSym TightOPT Freq TightSCF Grid3 FinalGrid5 XYZFile
|  2> % pal
|  3>     nprocs 8
|  4> end
|  5> %method
|  6>     SymThresh 5.0e-2
|  7> end
|  8> % geom
|  9>     MaxIter 10
| 10> end
| 11> % maxcore 2000
| 12> % output
| 13>     printlevel mini
| 14>     print[ P_Basis ] 0
| 15>     print[ P_SCFInfo ] 1
| 16>     print[ P_SCFIterInfo ] 1
| 17>     print[ P_OrbEn ] 0
| 18>     print[ P_Cartesian ] 0
| 19> end
| 20> % elprop
| 21>     Dipole false
| 22> end
| 23> *xyz 1 1
| 24>  C        0.8640789563     0.1582158022     0.1018506318
| 25>  N        2.3356726698     0.0049924901    -0.0409907663
| 26>  C        2.7096620090    -1.3647976728    -0.4876037776
| 27>  C        2.9107370073     1.0667589699    -0.9455227133
| 28>  C        4.3535310386     1.0723879137    -0.8918728097
| 29>  C        5.5501901079     1.0941321608    -0.8395097641
| 30>  H        0.6429209657     1.1469657465     0.5000834283
| 31>  H        0.4930515305    -0.6087119956     0.7791075593
| 32>  H        0.4051115674     0.0399471443    -0.8785317883
| 33>  H        2.7611573850     0.1525483822     0.8769890117
| 34>  H        2.2375663608    -1.5527054538    -1.4509421191
| 35>  H        2.3549490302    -2.0834738408     0.2485437220
| 36>  H        3.7926022396    -1.4188138894    -0.5817604519
| 37>  H        2.5379530904     0.8600881167    -1.9523209181
| 38>  H        2.5002638079     2.0247212051    -0.6172005194
| 39>  H        6.6172522335     1.1246049211    -0.8013987253
| 40> *
| 41>
| 42>                          ****END OF INPUT****
 Total Charge           Charge          ....    1
 Multiplicity           Mult            ....    1
 Number of Electrons    NEL             ....   46
FINAL SINGLE POINT ENERGY      -250.762709251922
FINAL SINGLE POINT ENERGY      -250.762709918145

CARTESIAN COORDINATES (ANGSTROEM)
---------------------------------
  C      0.894377    0.000373    2.053049
  N     -0.000585   -0.000535    0.865865
  C     -0.812836    1.244244    0.783991
  C      0.776325   -0.248453   -0.403748
  C     -0.108076   -0.491424   -1.518871
  C     -0.835541   -0.710702   -2.445216
  H      1.410532   -0.956298    2.114321
  H      0.294807    0.159406    2.947297
  H      1.615915    0.808633    1.942728
  H     -0.651685   -0.783374    0.958752
  H     -0.133432    2.092825    0.717090
  H     -1.423706    1.324460    1.681175
  H     -1.442073    1.193905   -0.102280
  H      1.407442    0.629694   -0.564075
  H      1.424975   -1.108593   -0.220612
  H     -1.473285   -0.908244   -3.278800

FINAL SINGLE POINT ENERGY      -250.762710193670
                    ***********************HURRAY********************
 Multiplicity           Mult            ....    1
 Number of Electrons    NEL             ....   46
 Basis Dimension        Dim             ....  246
FINAL SINGLE POINT ENERGY      -250.762710262986

VIBRATIONAL FREQUENCIES
-----------------------

   0:         0.00 cm**-1
   1:         0.00 cm**-1
   2:         0.00 cm**-1
   3:         0.00 cm**-1
   4:         0.00 cm**-1
   5:         0.00 cm**-1
   6:        85.51 cm**-1
   7:       151.62 cm**-1
   8:       210.36 cm**-1
   9:       252.52 cm**-1
  10:       332.33 cm**-1
  11:       346.31 cm**-1
  12:       375.35 cm**-1
  13:       437.41 cm**-1
  14:       528.62 cm**-1
  15:       724.38 cm**-1
  16:       776.87 cm**-1
  17:       842.10 cm**-1
  18:       941.34 cm**-1
  19:       967.79 cm**-1
  20:      1013.24 cm**-1
  21:      1027.84 cm**-1
  22:      1053.04 cm**-1
  23:      1155.72 cm**-1
  24:      1186.81 cm**-1
  25:      1251.16 cm**-1
  26:      1306.61 cm**-1
  27:      1371.29 cm**-1
  28:      1420.50 cm**-1
  29:      1427.94 cm**-1
  30:      1441.89 cm**-1
  31:      1463.83 cm**-1
  32:      1471.18 cm**-1
  33:      1483.77 cm**-1
  34:      1489.19 cm**-1
  35:      1498.07 cm**-1
  36:      1506.34 cm**-1
  37:      2257.14 cm**-1
  38:      3076.63 cm**-1
  39:      3087.28 cm**-1
  40:      3089.62 cm**-1
  41:      3127.12 cm**-1
  42:      3187.47 cm**-1
  43:      3188.74 cm**-1
  44:      3191.56 cm**-1
  45:      3195.93 cm**-1
  46:      3449.63 cm**-1
  47:      3453.05 cm**-1

IR SPECTRUM
-----------

 Mode    freq (cm**-1)   T**2         TX         TY         TZ
-------------------------------------------------------------------
   6:        85.51    0.248167  (  0.275080  -0.273458   0.312599)
   7:       151.62    0.659731  (  0.750937   0.236637   0.199569)
   8:       210.36    0.035296  (  0.026154   0.163992  -0.087856)
   9:       252.52    0.274194  ( -0.407511  -0.304638   0.123796)
  10:       332.33   16.324000  (  0.172978   3.918546  -0.969061)
  11:       346.31    7.324317  (  2.181219  -1.116913  -1.148523)
  12:       375.35    0.899241  ( -0.268603  -0.253143   0.873506)
  13:       437.41    1.250904  ( -0.855723   0.059313   0.717722)
  14:       528.62   13.669930  (  1.763218  -0.154189  -3.246108)
  15:       724.38   41.164024  (  0.263839  -6.288046   1.246952)
  16:       776.87   28.985785  ( -4.645600   0.398406   2.691738)
  17:       842.10    8.170619  ( -1.261504  -0.618326   2.489358)
  18:       941.34   34.796802  ( -1.686458   2.022419   5.278492)
  19:       967.79    6.606876  ( -1.545380  -0.456142  -2.002651)
  20:      1013.24   13.347240  (  0.070873  -1.941551  -3.093961)
  21:      1027.84   15.491372  ( -2.652561   1.521371  -2.478049)
  22:      1053.04    2.404626  ( -0.796870   0.511496  -1.228005)
  23:      1155.72    2.473876  ( -1.207807   0.753946   0.668315)
  24:      1186.81    1.307492  ( -0.454684   0.609738  -0.853800)
  25:      1251.16    0.049347  ( -0.194983   0.100715  -0.034425)
  26:      1306.61    0.417261  (  0.166858   0.594568  -0.189495)
  27:      1371.29    3.789136  (  1.528894   0.859341   0.844484)
  28:      1420.50   32.829235  (  2.322214   0.565912   5.207331)
  29:      1427.94    9.809421  ( -0.185356   1.774895   2.573871)
  30:      1441.89   10.953014  ( -2.509694   2.033244  -0.721366)
  31:      1463.83    2.650405  ( -0.556061   0.571930   1.419189)
  32:      1471.18    8.111397  (  0.232931  -2.747594  -0.712647)
  33:      1483.77    2.018932  (  1.145425   0.752577  -0.374916)
  34:      1489.19   34.068628  (  4.243221  -1.225197   3.816096)
  35:      1498.07   22.120757  ( -0.379874  -4.301372  -1.864042)
  36:      1506.34   50.169365  ( -5.160996  -1.491134   4.616276)
  37:      2257.14   31.910352  (  2.493204   1.147175   4.937436)
  38:      3076.63    2.203102  ( -0.291294  -0.294922  -1.425227)
  39:      3087.28    0.125424  ( -0.077794   0.258551   0.229181)
  40:      3089.62    0.348920  (  0.230100   0.255604   0.480251)
  41:      3127.12    1.021918  ( -0.079422   0.881501  -0.488432)
  42:      3187.47    0.046202  (  0.179292  -0.061688   0.101249)
  43:      3188.74    0.158772  (  0.057245  -0.220784  -0.326726)
  44:      3191.56    0.035922  ( -0.183160  -0.022927  -0.042999)
  45:      3195.93    0.756176  ( -0.050279   0.310143   0.810839)
  46:      3449.63   49.594545  (  3.854668   5.433246  -2.283838)
  47:      3453.05  103.684067  (  6.186991   2.812469   7.582560)

--------------------------
THERMOCHEMISTRY AT 298.15K
--------------------------

Temperature         ... 298.15 K
Pressure            ... 1.00 atm
Total Mass          ... 84.14 AMU

Throughout the following assumptions are being made:
  (1) The electronic state is orbitally nondegenerate
  (2) There are no thermally accessible electronically excited states
  (3) Hindered rotations indicated by low frequency modes) are not
      treated as such but are treated as vibrations and this may
      case some error
  (4) All equations used are the standard statistical mechanics
      equations for an ideal gas
  (5) All vibrations are strinctly harmonic

------------
INNER ENERGY
------------

The inner energy is: U= E(el) + E(ZPE) + E(vib) + E(rot) + E(trans)
    E(el)   - is the total energy from the electronic structure calculation
              = E(kin-el) + E(nuc-el) + E(el-el) + E(nuc-nuc)
    E(ZPE)  - the the zero temperature vibrational energy from the frequency calculation
    E(vib)  - the the finite temperature correction to E(ZPE) due to population
              of excietd vibrational states
    E(rot)  - is the rotational thermal energy
    E(trans)- is the translational thermal energy

Summary of contributions to the inner energy U:
Electronic energy                ...   -250.76271026 Eh
Zero point energy                ...      0.14544974 Eh      91.27 kcal/mol
Thermal vibrational correction   ...      0.00455387 Eh       2.86 kcal/mol
Thermal rotational correction    ...      0.00141627 Eh       0.89 kcal/mol
Thermal translational correction ...      0.00141627 Eh       0.89 kcal/mol
-----------------------------------------------------------------------
Total thermal energy                   -250.60987411 Eh

Summary of corrections to the electronic energy:
(perhaps to be used in another calculation)
Total thermal correction                  0.00738641 Eh       4.64 kcal/mol
Non-thermal (ZPE) correction              0.14544974 Eh      91.27 kcal/mol
-----------------------------------------------------------------------
Total correction                          0.15283615 Eh      95.91 kcal/mol

--------
ENTHALPY
--------

The enthalpy is H = U + kB*T
                kB is Boltzmann's constant
Total free energy                 ...   -250.60987411 Eh
Thermal Enthalpy correction       ...      0.00094421 Eh       0.59 kcal/mol
-----------------------------------------------------------------------
Total Enthalpy                    ...   -250.60892990 Eh

-------
ENTROPY
-------

The entropy contributions are T*S = T*(S(el)+S(vib)+S(rot)+S(trans)
     S(el)   - electronic entropy
     S(vib)  - vibrational entropy
     S(rot)  - rotational entropy
     S(trans)- translational entropy
The entropies will be listed as mutliplied by the temperature to get
units of energy

Electronic entropy                ...      0.00000000 Eh      0.00 kcal/mol
Vibrational entropy               ...      0.00785453 Eh      4.93 kcal/mol
Rotational entropy                ...      0.01169680 Eh      7.34 kcal/mol
Translational entropy             ...      0.01862670 Eh     11.69 kcal/mol
-----------------------------------------------------------------------
Final entropy term                ...      0.03817803 Eh     23.96 kcal/mol

CAUTION: The rotational entropy is not quite correctly treated here
         because it includes a symmetry number that is not yet correctly
         implemented in ORCA!
For a nonlinear molecule the correct rotational entropy is:
    S(rot) = R*(ln(qrot/sn)+1.5)
    R    = 8.31441 J/mol/K = 1.987191683e-3 kcal/mol/K
    qrot = 160638.3877205
    sn is the rotational symmetry number. We have assumed 3 here
       if it is different for your molecule then you should correct
       the printed rotational entropy by manually evaluating the equation
       as given above

For convenience we print out the resulting values for sn=1 - 12:
 sn= 1  qrot/sn=  160638.3877 T*S(rot)=     7.99 kcal/mol T*S(tot)=    24.61 kcal/mol
 sn= 2  qrot/sn=   80319.1939 T*S(rot)=     7.58 kcal/mol T*S(tot)=    24.20 kcal/mol
 sn= 3  qrot/sn=   53546.1292 T*S(rot)=     7.34 kcal/mol T*S(tot)=    23.96 kcal/mol
 sn= 4  qrot/sn=   40159.5969 T*S(rot)=     7.17 kcal/mol T*S(tot)=    23.79 kcal/mol
 sn= 5  qrot/sn=   32127.6775 T*S(rot)=     7.04 kcal/mol T*S(tot)=    23.65 kcal/mol
 sn= 6  qrot/sn=   26773.0646 T*S(rot)=     6.93 kcal/mol T*S(tot)=    23.55 kcal/mol
 sn= 7  qrot/sn=   22948.3411 T*S(rot)=     6.84 kcal/mol T*S(tot)=    23.46 kcal/mol
 sn= 8  qrot/sn=   20079.7985 T*S(rot)=     6.76 kcal/mol T*S(tot)=    23.38 kcal/mol
 sn= 9  qrot/sn=   17848.7097 T*S(rot)=     6.69 kcal/mol T*S(tot)=    23.31 kcal/mol
 sn=10  qrot/sn=   16063.8388 T*S(rot)=     6.63 kcal/mol T*S(tot)=    23.24 kcal/mol
 sn=11  qrot/sn=   14603.4898 T*S(rot)=     6.57 kcal/mol T*S(tot)=    23.19 kcal/mol
 sn=12  qrot/sn=   13386.5323 T*S(rot)=     6.52 kcal/mol T*S(tot)=    23.14 kcal/mol

-------------------
GIBBS FREE ENTHALPY
-------------------

The Gibbs free enthalpy is G = H - T*S

Total enthalpy                    ...   -250.60892990 Eh
Total entropy correction          ...     -0.03817803 Eh    -23.96 kcal/mol
-----------------------------------------------------------------------
Final Gibbs free enthalpy         ...   -250.64710793 Eh

For completeness - the Gibbs free enthalpy minus the electronic energy
G-E(el)                           ...      0.11560233 Eh     72.54 kcal/mol

                             ****ORCA TERMINATED NORMALLY****
TOTAL RUN TIME: 0 days 0 hours 18 minutes 16 seconds 150 msec
