                         Program Version 3.0.3 - RELEASE   -
|  1> ! NORI PBE0 def2-TZVP UseSym TightOPT Freq TightSCF Grid3 FinalGrid5 XYZFile
|  2> % pal
|  3>     nprocs 8
|  4> end
|  5> %method
|  6>     SymThresh 5.0e-2
|  7> end
|  8> % geom
|  9>     MaxIter 10
| 10> end
| 11> % maxcore 2000
| 12> % output
| 13>     printlevel mini
| 14>     print[ P_Basis ] 0
| 15>     print[ P_SCFInfo ] 1
| 16>     print[ P_SCFIterInfo ] 1
| 17>     print[ P_OrbEn ] 0
| 18>     print[ P_Cartesian ] 0
| 19> end
| 20> % elprop
| 21>     Dipole false
| 22> end
| 23> *xyz 1 1
| 24>  C        2.6483023451    -0.7803510007     1.1497275045
| 25>  N        2.3419581570     0.1470958684     0.0297878027
| 26>  C        2.9305074503     1.5671184389     0.0697036493
| 27>  C        2.4156725355     2.2379795996    -1.1944422834
| 28>  C        2.4122582206     2.2642909856     1.3140472613
| 29>  C        4.4434386394     1.4557381257     0.0596694635
| 30>  H        2.1575121968    -1.7323862163     0.9540749067
| 31>  H        2.2730723842    -0.3575976704     2.0775442391
| 32>  H        3.7231463475    -0.9278457650     1.2093759418
| 33>  H        2.6497093220    -0.2787610829    -0.8466910034
| 34>  H        1.3280664566     0.2462598805    -0.0510226496
| 35>  H        2.7591906647     1.7258961701    -2.0982075304
| 36>  H        2.7923437500     3.2598603274    -1.2384356600
| 37>  H        1.3230778875     2.2924413429    -1.2112106568
| 38>  H        1.3191428693     2.2675681667     1.3573151434
| 39>  H        2.7373521356     3.3049356902     1.2868972608
| 40>  H        2.8050743873     1.8294191760     2.2340987659
| 41>  H        4.8067828770     0.8886200495    -0.8021340360
| 42>  H        4.8379565886     1.0094578215     0.9734120799
| 43>  H        4.8645147850     2.4591800920    -0.0143701991
| 44> *
| 45>
| 46>                          ****END OF INPUT****
 Total Charge           Charge          ....    1
 Multiplicity           Mult            ....    1
 Number of Electrons    NEL             ....   50
FINAL SINGLE POINT ENERGY      -253.266395299363
FINAL SINGLE POINT ENERGY      -253.266396934162

CARTESIAN COORDINATES (ANGSTROEM)
---------------------------------
  C      1.413430   -0.002369    1.582639
  N      0.000206    0.001324    1.123862
  C     -0.283571    0.000646   -0.387712
  C     -1.800198    0.014605   -0.499437
  C      0.327196    1.253569   -0.987578
  C      0.303060   -1.266973   -0.980994
  H      1.422543   -0.005335    2.671547
  H      1.912833    0.889675    1.214824
  H      1.909746   -0.894175    1.210107
  H     -0.477498   -0.811591    1.517551
  H     -0.472656    0.817681    1.516221
  H     -2.251630   -0.869069   -0.039602
  H     -2.083816    0.012975   -1.551978
  H     -2.234697    0.910555   -0.047035
  H     -0.036391    2.161521   -0.498330
  H      0.034086    1.313762   -2.036309
  H      1.417543    1.243581   -0.959328
  H     -0.082808   -2.165451   -0.491140
  H      1.393274   -1.280762   -0.947262
  H      0.014408   -1.323884   -2.031111

FINAL SINGLE POINT ENERGY      -253.266397820769
                    ***********************HURRAY********************
 Multiplicity           Mult            ....    1
 Number of Electrons    NEL             ....   50
 Basis Dimension        Dim             ....  270
FINAL SINGLE POINT ENERGY      -253.266397937171

VIBRATIONAL FREQUENCIES
-----------------------

   0:         0.00 cm**-1
   1:         0.00 cm**-1
   2:         0.00 cm**-1
   3:         0.00 cm**-1
   4:         0.00 cm**-1
   5:         0.00 cm**-1
   6:        70.02 cm**-1
   7:       189.58 cm**-1
   8:       244.77 cm**-1
   9:       252.25 cm**-1
  10:       278.77 cm**-1
  11:       284.42 cm**-1
  12:       332.26 cm**-1
  13:       352.52 cm**-1
  14:       406.88 cm**-1
  15:       415.62 cm**-1
  16:       485.95 cm**-1
  17:       696.56 cm**-1
  18:       819.77 cm**-1
  19:       846.15 cm**-1
  20:       941.90 cm**-1
  21:       946.62 cm**-1
  22:       968.81 cm**-1
  23:      1019.66 cm**-1
  24:      1026.66 cm**-1
  25:      1048.05 cm**-1
  26:      1126.41 cm**-1
  27:      1138.92 cm**-1
  28:      1205.31 cm**-1
  29:      1287.50 cm**-1
  30:      1300.10 cm**-1
  31:      1386.65 cm**-1
  32:      1408.18 cm**-1
  33:      1412.93 cm**-1
  34:      1414.70 cm**-1
  35:      1439.25 cm**-1
  36:      1456.00 cm**-1
  37:      1465.77 cm**-1
  38:      1467.18 cm**-1
  39:      1471.82 cm**-1
  40:      1495.02 cm**-1
  41:      1499.35 cm**-1
  42:      1504.91 cm**-1
  43:      1509.31 cm**-1
  44:      1511.60 cm**-1
  45:      1641.48 cm**-1
  46:      3048.90 cm**-1
  47:      3057.47 cm**-1
  48:      3061.14 cm**-1
  49:      3102.20 cm**-1
  50:      3122.47 cm**-1
  51:      3137.52 cm**-1
  52:      3139.61 cm**-1
  53:      3152.36 cm**-1
  54:      3152.91 cm**-1
  55:      3158.22 cm**-1
  56:      3193.64 cm**-1
  57:      3214.30 cm**-1
  58:      3439.15 cm**-1
  59:      3492.36 cm**-1

IR SPECTRUM
-----------

 Mode    freq (cm**-1)   T**2         TX         TY         TZ
-------------------------------------------------------------------
   6:        70.02    1.304118  (  0.002304   1.141976  -0.001863)
   7:       189.58    0.007012  (  0.001792  -0.083665   0.003032)
   8:       244.77    0.070664  (  0.004746   0.265784   0.000740)
   9:       252.25    0.019382  (  0.105260  -0.008577   0.090713)
  10:       278.77    0.428728  ( -0.612099  -0.084007  -0.216808)
  11:       284.42    1.148896  (  0.046843  -1.070672   0.019026)
  12:       332.26    1.356636  ( -0.002711  -1.164742   0.002023)
  13:       352.52    0.758804  ( -0.812812  -0.000007  -0.313274)
  14:       406.88    5.077903  (  0.822095  -0.009196   2.098089)
  15:       415.62    1.340679  ( -0.006949  -1.157752  -0.015530)
  16:       485.95    0.805937  (  0.896744  -0.003441   0.042148)
  17:       696.56    4.222413  (  0.872604   0.002962   1.860367)
  18:       819.77   12.177358  ( -0.018372  -3.489553  -0.006404)
  19:       846.15    5.375511  ( -0.487229   0.009958  -2.266720)
  20:       941.90    0.559065  ( -0.743271   0.023821   0.077758)
  21:       946.62    0.878646  (  0.021091   0.937121  -0.002495)
  22:       968.81    0.019938  ( -0.007377  -0.141008   0.000796)
  23:      1019.66   13.566775  (  2.595868  -0.011359   2.613066)
  24:      1026.66    1.013200  (  0.009964   1.006525   0.002782)
  25:      1048.05    1.648746  ( -0.711737   0.006296   1.068708)
  26:      1126.41    0.009781  (  0.010288   0.096069   0.021115)
  27:      1138.92   29.765740  ( -2.069242  -0.001751  -5.048165)
  28:      1205.31   35.349364  (  2.063297  -0.002058   5.576035)
  29:      1287.50    5.122852  ( -0.987036   0.025347   2.036656)
  30:      1300.10    6.628668  (  0.016212   2.574517  -0.016286)
  31:      1386.65    0.281975  ( -0.008205   0.530791  -0.012999)
  32:      1408.18   54.943218  (  3.455309  -0.020742   6.557715)
  33:      1412.93   30.481876  (  5.520738  -0.057682  -0.001839)
  34:      1414.70   28.124613  (  0.074994   5.302727   0.008730)
  35:      1439.25    3.808223  (  0.096630  -0.011646   1.949038)
  36:      1456.00    5.670021  (  2.366716  -0.020821   0.261236)
  37:      1465.77    0.085297  ( -0.021592   0.285693  -0.056662)
  38:      1467.18    1.201740  ( -0.496125  -0.012032  -0.977474)
  39:      1471.82    0.762336  (  0.011877   0.872087   0.040738)
  40:      1495.02   11.843655  (  1.446676   0.158133  -3.118618)
  41:      1499.35   21.341568  (  0.027868  -4.614561  -0.215910)
  42:      1504.91   27.198329  (  2.143420  -0.035273   4.754244)
  43:      1509.31    6.017042  (  0.010595  -2.450391   0.111867)
  44:      1511.60   10.637670  (  0.982199   0.032735  -3.109965)
  45:      1641.48   58.175883  (  5.733436  -0.047266  -5.030046)
  46:      3048.90    3.888803  ( -1.311102   0.023370   1.472843)
  47:      3057.47    4.525268  (  0.006370   2.126252  -0.065413)
  48:      3061.14    4.533802  (  0.576762   0.055006   2.048932)
  49:      3102.20    0.091239  ( -0.187961   0.003026  -0.236433)
  50:      3122.47    7.530412  (  0.022195   2.744045  -0.011775)
  51:      3137.52    5.153694  ( -0.154206  -2.264633   0.036747)
  52:      3139.61    6.548854  ( -2.384435   0.130301   0.919971)
  53:      3152.36    0.317570  (  0.198437  -0.526215  -0.035925)
  54:      3152.91    5.914881  (  2.370795   0.016905  -0.542151)
  55:      3158.22    2.745740  ( -1.339571   0.017110  -0.975190)
  56:      3193.64    0.092362  ( -0.142566   0.002638  -0.268384)
  57:      3214.30    0.008260  (  0.007975   0.090482   0.003055)
  58:      3439.15   31.630775  ( -4.009259   0.016013   3.944155)
  59:      3492.36   47.893074  (  0.018268   6.920454  -0.007354)

--------------------------
THERMOCHEMISTRY AT 298.15K
--------------------------

Temperature         ... 298.15 K
Pressure            ... 1.00 atm
Total Mass          ... 88.17 AMU

Throughout the following assumptions are being made:
  (1) The electronic state is orbitally nondegenerate
  (2) There are no thermally accessible electronically excited states
  (3) Hindered rotations indicated by low frequency modes) are not
      treated as such but are treated as vibrations and this may
      case some error
  (4) All equations used are the standard statistical mechanics
      equations for an ideal gas
  (5) All vibrations are strinctly harmonic

------------
INNER ENERGY
------------

The inner energy is: U= E(el) + E(ZPE) + E(vib) + E(rot) + E(trans)
    E(el)   - is the total energy from the electronic structure calculation
              = E(kin-el) + E(nuc-el) + E(el-el) + E(nuc-nuc)
    E(ZPE)  - the the zero temperature vibrational energy from the frequency calculation
    E(vib)  - the the finite temperature correction to E(ZPE) due to population
              of excietd vibrational states
    E(rot)  - is the rotational thermal energy
    E(trans)- is the translational thermal energy

Summary of contributions to the inner energy U:
Electronic energy                ...   -253.26639794 Eh
Zero point energy                ...      0.19191707 Eh     120.43 kcal/mol
Thermal vibrational correction   ...      0.00545954 Eh       3.43 kcal/mol
Thermal rotational correction    ...      0.00141627 Eh       0.89 kcal/mol
Thermal translational correction ...      0.00141627 Eh       0.89 kcal/mol
-----------------------------------------------------------------------
Total thermal energy                   -253.06618878 Eh

Summary of corrections to the electronic energy:
(perhaps to be used in another calculation)
Total thermal correction                  0.00829208 Eh       5.20 kcal/mol
Non-thermal (ZPE) correction              0.19191707 Eh     120.43 kcal/mol
-----------------------------------------------------------------------
Total correction                          0.20020915 Eh     125.63 kcal/mol

--------
ENTHALPY
--------

The enthalpy is H = U + kB*T
                kB is Boltzmann's constant
Total free energy                 ...   -253.06618878 Eh
Thermal Enthalpy correction       ...      0.00094421 Eh       0.59 kcal/mol
-----------------------------------------------------------------------
Total Enthalpy                    ...   -253.06524457 Eh

-------
ENTROPY
-------

The entropy contributions are T*S = T*(S(el)+S(vib)+S(rot)+S(trans)
     S(el)   - electronic entropy
     S(vib)  - vibrational entropy
     S(rot)  - rotational entropy
     S(trans)- translational entropy
The entropies will be listed as mutliplied by the temperature to get
units of energy

Electronic entropy                ...      0.00000000 Eh      0.00 kcal/mol
Vibrational entropy               ...      0.00928006 Eh      5.82 kcal/mol
Rotational entropy                ...      0.01172000 Eh      7.35 kcal/mol
Translational entropy             ...      0.01869299 Eh     11.73 kcal/mol
-----------------------------------------------------------------------
Final entropy term                ...      0.03969305 Eh     24.91 kcal/mol

CAUTION: The rotational entropy is not quite correctly treated here
         because it includes a symmetry number that is not yet correctly
         implemented in ORCA!
For a nonlinear molecule the correct rotational entropy is:
    S(rot) = R*(ln(qrot/sn)+1.5)
    R    = 8.31441 J/mol/K = 1.987191683e-3 kcal/mol/K
    qrot = 164635.5933075
    sn is the rotational symmetry number. We have assumed 3 here
       if it is different for your molecule then you should correct
       the printed rotational entropy by manually evaluating the equation
       as given above

For convenience we print out the resulting values for sn=1 - 12:
 sn= 1  qrot/sn=  164635.5933 T*S(rot)=     8.01 kcal/mol T*S(tot)=    25.56 kcal/mol
 sn= 2  qrot/sn=   82317.7967 T*S(rot)=     7.59 kcal/mol T*S(tot)=    25.15 kcal/mol
 sn= 3  qrot/sn=   54878.5311 T*S(rot)=     7.35 kcal/mol T*S(tot)=    24.91 kcal/mol
 sn= 4  qrot/sn=   41158.8983 T*S(rot)=     7.18 kcal/mol T*S(tot)=    24.74 kcal/mol
 sn= 5  qrot/sn=   32927.1187 T*S(rot)=     7.05 kcal/mol T*S(tot)=    24.61 kcal/mol
 sn= 6  qrot/sn=   27439.2656 T*S(rot)=     6.94 kcal/mol T*S(tot)=    24.50 kcal/mol
 sn= 7  qrot/sn=   23519.3705 T*S(rot)=     6.85 kcal/mol T*S(tot)=    24.41 kcal/mol
 sn= 8  qrot/sn=   20579.4492 T*S(rot)=     6.77 kcal/mol T*S(tot)=    24.33 kcal/mol
 sn= 9  qrot/sn=   18292.8437 T*S(rot)=     6.70 kcal/mol T*S(tot)=    24.26 kcal/mol
 sn=10  qrot/sn=   16463.5593 T*S(rot)=     6.64 kcal/mol T*S(tot)=    24.19 kcal/mol
 sn=11  qrot/sn=   14966.8721 T*S(rot)=     6.58 kcal/mol T*S(tot)=    24.14 kcal/mol
 sn=12  qrot/sn=   13719.6328 T*S(rot)=     6.53 kcal/mol T*S(tot)=    24.09 kcal/mol

-------------------
GIBBS FREE ENTHALPY
-------------------

The Gibbs free enthalpy is G = H - T*S

Total enthalpy                    ...   -253.06524457 Eh
Total entropy correction          ...     -0.03969305 Eh    -24.91 kcal/mol
-----------------------------------------------------------------------
Final Gibbs free enthalpy         ...   -253.10493762 Eh

For completeness - the Gibbs free enthalpy minus the electronic energy
G-E(el)                           ...      0.16146031 Eh    101.32 kcal/mol

                             ****ORCA TERMINATED NORMALLY****
TOTAL RUN TIME: 0 days 0 hours 29 minutes 50 seconds 76 msec
