                         Program Version 3.0.3 - RELEASE   -
|  1> ! NORI PBE0 def2-TZVP UseSym TightOPT Freq TightSCF Grid3 FinalGrid5 XYZFile
|  2> % pal
|  3>     nprocs 8
|  4> end
|  5> %method
|  6>     SymThresh 5.0e-2
|  7> end
|  8> % geom
|  9>     MaxIter 10
| 10> end
| 11> % maxcore 2000
| 12> % output
| 13>     printlevel mini
| 14>     print[ P_Basis ] 0
| 15>     print[ P_SCFInfo ] 1
| 16>     print[ P_SCFIterInfo ] 1
| 17>     print[ P_OrbEn ] 0
| 18>     print[ P_Cartesian ] 0
| 19> end
| 20> % elprop
| 21>     Dipole false
| 22> end
| 23> *xyz 1 1
| 24>  C        0.9214213002    -0.2536825513    -0.1057814080
| 25>  N        2.3728897457     0.0311624206     0.0387496549
| 26>  C        2.9298151661     1.1775515544    -0.8037757136
| 27>  C        2.3089989404     2.4893361448    -0.3748299054
| 28>  C        4.4182048702     1.1497200612    -0.6641764195
| 29>  C        5.2306266610     0.7676404295    -1.6391582754
| 30>  H        0.6765938443    -1.1387793465     0.4790205563
| 31>  H        0.7042625832    -0.4305412208    -1.1573138116
| 32>  H        0.3501881999     0.5960862769     0.2574291876
| 33>  H        2.5876256337     0.2254469039     1.0195043867
| 34>  H        2.9129570931    -0.8022443188    -0.2029267985
| 35>  H        2.6466866773     0.9258241290    -1.8288330744
| 36>  H        2.5212948332     2.7082498933     0.6756282959
| 37>  H        1.2307551278     2.5221613555    -0.5364991215
| 38>  H        2.7517115014     3.2889582108    -0.9688340132
| 39>  H        4.8236582984     1.4961136872     0.2851917013
| 40>  H        4.8562640724     0.4503714824    -2.6076868423
| 41>  H        6.3066154517     0.7787748880    -1.5113683993
| 42> *
| 43>
| 44>                          ****END OF INPUT****
 Total Charge           Charge          ....    1
 Multiplicity           Mult            ....    1
 Number of Electrons    NEL             ....   48
FINAL SINGLE POINT ENERGY      -252.028187423296
FINAL SINGLE POINT ENERGY      -252.028189002996

CARTESIAN COORDINATES (ANGSTROEM)
---------------------------------
  C      1.219069   -0.000256    2.044686
  N     -0.000105    0.000729    1.194824
  C      0.223729   -0.037297   -0.316484
  C      0.883062   -1.340395   -0.712562
  C     -1.103400    0.179810   -0.969898
  C     -1.429482    1.301826   -1.595400
  H      0.922690    0.117451    3.085731
  H      1.854459    0.830038    1.742281
  H      1.746266   -0.941567    1.916916
  H     -0.594773   -0.791777    1.447514
  H     -0.554715    0.836582    1.390266
  H      0.881708    0.812408   -0.515772
  H      0.262631   -2.200563   -0.444835
  H      1.874600   -1.464157   -0.276393
  H      1.000357   -1.349702   -1.796644
  H     -1.800424   -0.656095   -0.941431
  H     -0.742152    2.139434   -1.669184
  H     -2.392595    1.417391   -2.077415

FINAL SINGLE POINT ENERGY      -252.028189923434
                    ***********************HURRAY********************
 Multiplicity           Mult            ....    1
 Number of Electrons    NEL             ....   48
 Basis Dimension        Dim             ....  258
FINAL SINGLE POINT ENERGY      -252.028190225861

VIBRATIONAL FREQUENCIES
-----------------------

   0:         0.00 cm**-1
   1:         0.00 cm**-1
   2:         0.00 cm**-1
   3:         0.00 cm**-1
   4:         0.00 cm**-1
   5:         0.00 cm**-1
   6:        73.47 cm**-1
   7:        95.87 cm**-1
   8:       202.33 cm**-1
   9:       223.61 cm**-1
  10:       265.53 cm**-1
  11:       310.39 cm**-1
  12:       339.99 cm**-1
  13:       422.37 cm**-1
  14:       501.76 cm**-1
  15:       678.45 cm**-1
  16:       799.57 cm**-1
  17:       835.40 cm**-1
  18:       891.03 cm**-1
  19:       986.15 cm**-1
  20:      1018.80 cm**-1
  21:      1022.39 cm**-1
  22:      1031.28 cm**-1
  23:      1043.77 cm**-1
  24:      1062.68 cm**-1
  25:      1142.82 cm**-1
  26:      1209.72 cm**-1
  27:      1223.02 cm**-1
  28:      1313.81 cm**-1
  29:      1330.21 cm**-1
  30:      1342.17 cm**-1
  31:      1398.84 cm**-1
  32:      1409.40 cm**-1
  33:      1424.99 cm**-1
  34:      1455.41 cm**-1
  35:      1459.79 cm**-1
  36:      1481.50 cm**-1
  37:      1488.68 cm**-1
  38:      1493.99 cm**-1
  39:      1503.28 cm**-1
  40:      1647.61 cm**-1
  41:      1722.04 cm**-1
  42:      3060.01 cm**-1
  43:      3096.05 cm**-1
  44:      3096.28 cm**-1
  45:      3142.72 cm**-1
  46:      3153.67 cm**-1
  47:      3158.96 cm**-1
  48:      3159.84 cm**-1
  49:      3189.67 cm**-1
  50:      3207.24 cm**-1
  51:      3255.34 cm**-1
  52:      3435.84 cm**-1
  53:      3488.35 cm**-1

IR SPECTRUM
-----------

 Mode    freq (cm**-1)   T**2         TX         TY         TZ
-------------------------------------------------------------------
   6:        73.47    1.413468  (  0.212516   1.168860   0.045515)
   7:        95.87    2.313510  (  0.526039  -1.252064   0.684929)
   8:       202.33    0.368790  ( -0.078554  -0.426904   0.424702)
   9:       223.61    1.014743  (  0.223664   0.908933  -0.372234)
  10:       265.53    0.400941  (  0.204973   0.091575   0.592065)
  11:       310.39    1.807522  ( -0.654567   0.915744  -0.735170)
  12:       339.99    1.905284  ( -0.020361   1.332945   0.357949)
  13:       422.37    1.033334  (  0.876377   0.391659   0.334515)
  14:       501.76    1.697695  ( -0.124850  -0.829439  -0.997065)
  15:       678.45   10.656792  (  1.498015  -0.765758  -2.797563)
  16:       799.57   23.213772  (  0.110282   2.717712   3.976890)
  17:       835.40    9.294916  (  0.540009  -2.012435   2.225626)
  18:       891.03    4.337417  (  0.323498  -0.868757  -1.864947)
  19:       986.15    3.443177  ( -1.676796  -0.017529   0.794497)
  20:      1018.80   28.389824  (  0.377009  -1.858281  -4.979406)
  21:      1022.39   35.105166  (  3.336452  -2.026497  -4.457193)
  22:      1031.28    2.023901  ( -0.200846   0.788951  -1.166670)
  23:      1043.77   31.191578  ( -1.397342   0.827460  -5.343625)
  24:      1062.68   26.831180  (  0.472778   0.324641   5.148035)
  25:      1142.82    0.201368  ( -0.386857   0.141056   0.178361)
  26:      1209.72   12.272828  ( -1.971858   1.535692  -2.454843)
  27:      1223.02    1.360170  (  0.887297  -0.183169   0.734387)
  28:      1313.81    1.562848  ( -0.360327  -0.926857  -0.757594)
  29:      1330.21    6.091284  (  0.028419  -0.577202   2.399440)
  30:      1342.17    4.110561  ( -0.773671  -1.671112  -0.848161)
  31:      1398.84   19.353464  (  1.156040   0.577721   4.205148)
  32:      1409.40   50.914621  (  2.224941   0.182827   6.777229)
  33:      1424.99   15.561318  (  2.436837  -3.076052   0.401301)
  34:      1455.41    4.469761  ( -1.339953   0.078036  -1.633461)
  35:      1459.79   23.776671  ( -1.535994   3.669626  -2.819794)
  36:      1481.50    3.281352  ( -0.407925   1.458693  -0.993560)
  37:      1488.68   27.220637  ( -2.296934  -4.545316   1.133505)
  38:      1493.99   29.567851  (  2.451446  -1.183812  -4.707107)
  39:      1503.28    9.101384  ( -0.918357   1.603179  -2.384915)
  40:      1647.61   51.636753  ( -6.732111   0.497853   2.463244)
  41:      1722.04    1.248070  ( -0.536209  -0.152982  -0.968063)
  42:      3060.01    3.629966  (  0.048211   1.036171  -1.598121)
  43:      3096.05    0.372707  ( -0.038678   0.603705   0.082162)
  44:      3096.28    1.234432  ( -0.458835  -0.980205  -0.251199)
  45:      3142.72    3.748803  (  1.640513   0.888077   0.518497)
  46:      3153.67    2.317307  ( -1.090141  -1.062374   0.016163)
  47:      3158.96    3.275089  ( -1.639720   0.640093  -0.420341)
  48:      3159.84    0.832358  ( -0.794216   0.104386  -0.436672)
  49:      3189.67    0.068139  (  0.183604   0.017248  -0.184746)
  50:      3207.24    0.060414  ( -0.125563  -0.049719  -0.205368)
  51:      3255.34    0.238286  ( -0.179089   0.360117  -0.276639)
  52:      3435.84   37.673501  ( -5.441884  -0.045082   2.838550)
  53:      3488.35   60.797002  ( -0.372406   7.783977  -0.260791)

--------------------------
THERMOCHEMISTRY AT 298.15K
--------------------------

Temperature         ... 298.15 K
Pressure            ... 1.00 atm
Total Mass          ... 86.16 AMU

Throughout the following assumptions are being made:
  (1) The electronic state is orbitally nondegenerate
  (2) There are no thermally accessible electronically excited states
  (3) Hindered rotations indicated by low frequency modes) are not
      treated as such but are treated as vibrations and this may
      case some error
  (4) All equations used are the standard statistical mechanics
      equations for an ideal gas
  (5) All vibrations are strinctly harmonic

------------
INNER ENERGY
------------

The inner energy is: U= E(el) + E(ZPE) + E(vib) + E(rot) + E(trans)
    E(el)   - is the total energy from the electronic structure calculation
              = E(kin-el) + E(nuc-el) + E(el-el) + E(nuc-nuc)
    E(ZPE)  - the the zero temperature vibrational energy from the frequency calculation
    E(vib)  - the the finite temperature correction to E(ZPE) due to population
              of excietd vibrational states
    E(rot)  - is the rotational thermal energy
    E(trans)- is the translational thermal energy

Summary of contributions to the inner energy U:
Electronic energy                ...   -252.02819023 Eh
Zero point energy                ...      0.16925894 Eh     106.21 kcal/mol
Thermal vibrational correction   ...      0.00503176 Eh       3.16 kcal/mol
Thermal rotational correction    ...      0.00141627 Eh       0.89 kcal/mol
Thermal translational correction ...      0.00141627 Eh       0.89 kcal/mol
-----------------------------------------------------------------------
Total thermal energy                   -251.85106698 Eh

Summary of corrections to the electronic energy:
(perhaps to be used in another calculation)
Total thermal correction                  0.00786430 Eh       4.93 kcal/mol
Non-thermal (ZPE) correction              0.16925894 Eh     106.21 kcal/mol
-----------------------------------------------------------------------
Total correction                          0.17712324 Eh     111.15 kcal/mol

--------
ENTHALPY
--------

The enthalpy is H = U + kB*T
                kB is Boltzmann's constant
Total free energy                 ...   -251.85106698 Eh
Thermal Enthalpy correction       ...      0.00094421 Eh       0.59 kcal/mol
-----------------------------------------------------------------------
Total Enthalpy                    ...   -251.85012278 Eh

-------
ENTROPY
-------

The entropy contributions are T*S = T*(S(el)+S(vib)+S(rot)+S(trans)
     S(el)   - electronic entropy
     S(vib)  - vibrational entropy
     S(rot)  - rotational entropy
     S(trans)- translational entropy
The entropies will be listed as mutliplied by the temperature to get
units of energy

Electronic entropy                ...      0.00000000 Eh      0.00 kcal/mol
Vibrational entropy               ...      0.00906714 Eh      5.69 kcal/mol
Rotational entropy                ...      0.01183828 Eh      7.43 kcal/mol
Translational entropy             ...      0.01866024 Eh     11.71 kcal/mol
-----------------------------------------------------------------------
Final entropy term                ...      0.03956566 Eh     24.83 kcal/mol

CAUTION: The rotational entropy is not quite correctly treated here
         because it includes a symmetry number that is not yet correctly
         implemented in ORCA!
For a nonlinear molecule the correct rotational entropy is:
    S(rot) = R*(ln(qrot/sn)+1.5)
    R    = 8.31441 J/mol/K = 1.987191683e-3 kcal/mol/K
    qrot = 186606.9789464
    sn is the rotational symmetry number. We have assumed 3 here
       if it is different for your molecule then you should correct
       the printed rotational entropy by manually evaluating the equation
       as given above

For convenience we print out the resulting values for sn=1 - 12:
 sn= 1  qrot/sn=  186606.9789 T*S(rot)=     8.08 kcal/mol T*S(tot)=    25.48 kcal/mol
 sn= 2  qrot/sn=   93303.4895 T*S(rot)=     7.67 kcal/mol T*S(tot)=    25.07 kcal/mol
 sn= 3  qrot/sn=   62202.3263 T*S(rot)=     7.43 kcal/mol T*S(tot)=    24.83 kcal/mol
 sn= 4  qrot/sn=   46651.7447 T*S(rot)=     7.26 kcal/mol T*S(tot)=    24.66 kcal/mol
 sn= 5  qrot/sn=   37321.3958 T*S(rot)=     7.13 kcal/mol T*S(tot)=    24.53 kcal/mol
 sn= 6  qrot/sn=   31101.1632 T*S(rot)=     7.02 kcal/mol T*S(tot)=    24.42 kcal/mol
 sn= 7  qrot/sn=   26658.1398 T*S(rot)=     6.93 kcal/mol T*S(tot)=    24.33 kcal/mol
 sn= 8  qrot/sn=   23325.8724 T*S(rot)=     6.85 kcal/mol T*S(tot)=    24.25 kcal/mol
 sn= 9  qrot/sn=   20734.1088 T*S(rot)=     6.78 kcal/mol T*S(tot)=    24.18 kcal/mol
 sn=10  qrot/sn=   18660.6979 T*S(rot)=     6.72 kcal/mol T*S(tot)=    24.11 kcal/mol
 sn=11  qrot/sn=   16964.2708 T*S(rot)=     6.66 kcal/mol T*S(tot)=    24.06 kcal/mol
 sn=12  qrot/sn=   15550.5816 T*S(rot)=     6.61 kcal/mol T*S(tot)=    24.01 kcal/mol

-------------------
GIBBS FREE ENTHALPY
-------------------

The Gibbs free enthalpy is G = H - T*S

Total enthalpy                    ...   -251.85012278 Eh
Total entropy correction          ...     -0.03956566 Eh    -24.83 kcal/mol
-----------------------------------------------------------------------
Final Gibbs free enthalpy         ...   -251.88968843 Eh

For completeness - the Gibbs free enthalpy minus the electronic energy
G-E(el)                           ...      0.13850179 Eh     86.91 kcal/mol

                             ****ORCA TERMINATED NORMALLY****
TOTAL RUN TIME: 0 days 0 hours 21 minutes 42 seconds 878 msec
