                         Program Version 3.0.3 - RELEASE   -
|  1> ! NORI PBE0 def2-TZVP UseSym TightOPT Freq TightSCF Grid3 FinalGrid5 XYZFile
|  2> % pal
|  3>     nprocs 8
|  4> end
|  5> %method
|  6>     SymThresh 5.0e-2
|  7> end
|  8> % geom
|  9>     MaxIter 10
| 10> end
| 11> % maxcore 2000
| 12> % output
| 13>     printlevel mini
| 14>     print[ P_Basis ] 0
| 15>     print[ P_SCFInfo ] 1
| 16>     print[ P_SCFIterInfo ] 1
| 17>     print[ P_OrbEn ] 0
| 18>     print[ P_Cartesian ] 0
| 19> end
| 20> % elprop
| 21>     Dipole false
| 22> end
| 23> *xyz 1 1
| 24>  C        1.1915666973    -0.2391325597     0.3173310835
| 25>  N        2.6600117677    -0.0176142416     0.2688635292
| 26>  C        3.3010468558    -0.2940839315    -1.0768068633
| 27>  C        4.7629644529    -0.0423705381    -1.0254751919
| 28>  C        5.6629551595    -1.0231575908    -1.0740919226
| 29>  C        7.1329028386    -0.8407525114    -1.0646563806
| 30>  H        0.8268727627    -0.0167182677     1.3186076936
| 31>  H        0.9873285300    -1.2783717506     0.0675782388
| 32>  H        0.7152818734     0.4169231186    -0.4081669482
| 33>  H        2.8740365938     0.9454050799     0.5347990914
| 34>  H        3.1307298379    -0.6034183277     0.9615332076
| 35>  H        3.0723764538    -1.3336701603    -1.3137004372
| 36>  H        2.7797042114     0.3509595891    -1.7875038877
| 37>  H        5.0890219348     0.9950985730    -0.9863853992
| 38>  H        5.3060076570    -2.0506409558    -1.1506607124
| 39>  H        7.4190917075     0.2076379306    -0.9833530702
| 40>  H        7.5681478352    -1.2531660442    -1.9799941723
| 41>  H        7.5821928305    -1.3971074120    -0.2368978584
| 42> *
| 43>
| 44>                          ****END OF INPUT****
 Total Charge           Charge          ....    1
 Multiplicity           Mult            ....    1
 Number of Electrons    NEL             ....   48
FINAL SINGLE POINT ENERGY      -252.033297207295
FINAL SINGLE POINT ENERGY      -252.033298341986

CARTESIAN COORDINATES (ANGSTROEM)
---------------------------------
  C      0.877001   -0.002905    2.879339
  N      0.000153    0.000121    1.679502
  C      0.663230   -0.484816    0.405212
  C     -0.292502   -0.451064   -0.729985
  C     -0.186614    0.418869   -1.733244
  C     -1.081944    0.482520   -2.911942
  H      0.314031    0.359998    3.737444
  H      1.729518    0.646034    2.689417
  H      1.218535   -1.020463    3.059166
  H     -0.824570   -0.577902    1.852111
  H     -0.357454    0.941280    1.503170
  H      1.520387    0.169309    0.240837
  H      1.026397   -1.490582    0.629315
  H     -1.078951   -1.203160   -0.741185
  H      0.634635    1.135899   -1.713505
  H     -1.881711   -0.256755   -2.863924
  H     -0.507612    0.318748   -3.828663
  H     -1.524608    1.478710   -3.002635

FINAL SINGLE POINT ENERGY      -252.033299080558
                    ***********************HURRAY********************
 Multiplicity           Mult            ....    1
 Number of Electrons    NEL             ....   48
 Basis Dimension        Dim             ....  258
FINAL SINGLE POINT ENERGY      -252.033299209226

VIBRATIONAL FREQUENCIES
-----------------------

   0:         0.00 cm**-1
   1:         0.00 cm**-1
   2:         0.00 cm**-1
   3:         0.00 cm**-1
   4:         0.00 cm**-1
   5:         0.00 cm**-1
   6:        75.38 cm**-1
   7:        92.90 cm**-1
   8:       153.35 cm**-1
   9:       211.96 cm**-1
  10:       231.86 cm**-1
  11:       289.50 cm**-1
  12:       313.62 cm**-1
  13:       391.90 cm**-1
  14:       542.00 cm**-1
  15:       784.28 cm**-1
  16:       799.33 cm**-1
  17:       886.83 cm**-1
  18:       917.99 cm**-1
  19:       963.52 cm**-1
  20:      1001.08 cm**-1
  21:      1021.88 cm**-1
  22:      1072.61 cm**-1
  23:      1078.72 cm**-1
  24:      1116.61 cm**-1
  25:      1162.19 cm**-1
  26:      1196.45 cm**-1
  27:      1301.54 cm**-1
  28:      1325.71 cm**-1
  29:      1342.59 cm**-1
  30:      1371.39 cm**-1
  31:      1391.96 cm**-1
  32:      1406.84 cm**-1
  33:      1416.26 cm**-1
  34:      1458.36 cm**-1
  35:      1462.50 cm**-1
  36:      1474.36 cm**-1
  37:      1482.87 cm**-1
  38:      1493.34 cm**-1
  39:      1497.80 cm**-1
  40:      1655.71 cm**-1
  41:      1737.96 cm**-1
  42:      3051.41 cm**-1
  43:      3085.09 cm**-1
  44:      3092.55 cm**-1
  45:      3110.94 cm**-1
  46:      3132.61 cm**-1
  47:      3144.97 cm**-1
  48:      3155.52 cm**-1
  49:      3162.31 cm**-1
  50:      3192.39 cm**-1
  51:      3194.92 cm**-1
  52:      3441.96 cm**-1
  53:      3492.37 cm**-1

IR SPECTRUM
-----------

 Mode    freq (cm**-1)   T**2         TX         TY         TZ
-------------------------------------------------------------------
   6:        75.38    0.788163  (  0.628720   0.472497   0.411851)
   7:        92.90    5.197599  (  0.205484  -1.968615   1.131339)
   8:       153.35    0.477801  ( -0.327431  -0.479203  -0.375439)
   9:       211.96    1.556737  (  0.407896  -0.883146  -0.781289)
  10:       231.86    2.352112  (  0.531428   1.073337  -0.957937)
  11:       289.50    1.987446  (  0.636263  -1.258014  -0.003977)
  12:       313.62    3.627059  ( -1.502126   0.682619   0.951162)
  13:       391.90    7.267326  ( -0.568229   1.167905   2.362295)
  14:       542.00    0.395593  (  0.183140  -0.456388  -0.392126)
  15:       784.28    2.984555  ( -0.116343  -1.723657  -0.005037)
  16:       799.33    8.262270  ( -1.242013  -2.565789   0.369324)
  17:       886.83   39.565486  (  0.702964   0.473566  -6.232741)
  18:       917.99   19.475780  (  0.780545  -2.816403  -3.306721)
  19:       963.52    7.935672  (  0.392612   0.463454  -2.750770)
  20:      1001.08   47.065135  ( -3.207854   3.944200   4.606310)
  21:      1021.88   18.989013  ( -1.964973   0.763040  -3.813878)
  22:      1072.61    2.042406  ( -0.261962   1.371584  -0.304204)
  23:      1078.72    4.324947  (  1.326032   0.595686  -1.487193)
  24:      1116.61    0.407703  (  0.509421   0.166938   0.346879)
  25:      1162.19    4.050090  ( -0.586763  -0.559784  -1.841858)
  26:      1196.45    6.761572  ( -0.870285   0.524366  -2.393578)
  27:      1301.54    2.168109  ( -0.391301  -1.295022   0.581300)
  28:      1325.71   10.432119  (  0.153623  -1.957156   2.564773)
  29:      1342.59    1.889862  (  0.594395  -0.145666  -1.230991)
  30:      1371.39    9.059883  (  0.101660   0.875763   2.877948)
  31:      1391.96    2.346644  ( -0.159375   0.425749  -1.462868)
  32:      1406.84   10.621784  ( -1.740002   0.539724  -2.702383)
  33:      1416.26   99.124269  (  1.021887  -0.101529   9.903015)
  34:      1458.36    4.241452  ( -0.953566  -0.057522  -1.824515)
  35:      1462.50   12.445409  (  2.158010  -2.269492  -1.624133)
  36:      1474.36   27.221062  (  1.437551   3.706846  -3.378432)
  37:      1482.87   12.181412  ( -1.906401  -1.397184  -2.568059)
  38:      1493.34   21.932275  (  1.288465   4.338180  -1.205124)
  39:      1497.80   27.615408  ( -4.089027   1.529852   2.924863)
  40:      1655.71   44.936798  ( -6.291771   2.212821  -0.673673)
  41:      1737.96   47.728737  (  1.805415  -1.482504   6.501645)
  42:      3051.41    0.453313  (  0.643369   0.120840   0.157438)
  43:      3085.09    5.511514  (  1.435039  -0.481779   1.794455)
  44:      3092.55    0.287530  ( -0.424936   0.090520  -0.314269)
  45:      3110.94    0.816731  ( -0.571516   0.680471   0.164497)
  46:      3132.61    2.261594  (  1.198722   0.321697   0.849218)
  47:      3144.97    0.267219  ( -0.141418   0.297807  -0.398159)
  48:      3155.52    7.456869  (  2.139131   1.400173   0.959428)
  49:      3162.31    5.595302  (  1.929051   1.249055   0.560291)
  50:      3192.39    0.132308  (  0.327617  -0.157234  -0.015896)
  51:      3194.92    0.013258  (  0.044688   0.074500  -0.075568)
  52:      3441.96   38.483584  ( -5.831003   1.949201   0.826801)
  53:      3492.37   68.462413  (  2.649500   7.563589  -2.057834)

--------------------------
THERMOCHEMISTRY AT 298.15K
--------------------------

Temperature         ... 298.15 K
Pressure            ... 1.00 atm
Total Mass          ... 86.16 AMU

Throughout the following assumptions are being made:
  (1) The electronic state is orbitally nondegenerate
  (2) There are no thermally accessible electronically excited states
  (3) Hindered rotations indicated by low frequency modes) are not
      treated as such but are treated as vibrations and this may
      case some error
  (4) All equations used are the standard statistical mechanics
      equations for an ideal gas
  (5) All vibrations are strinctly harmonic

------------
INNER ENERGY
------------

The inner energy is: U= E(el) + E(ZPE) + E(vib) + E(rot) + E(trans)
    E(el)   - is the total energy from the electronic structure calculation
              = E(kin-el) + E(nuc-el) + E(el-el) + E(nuc-nuc)
    E(ZPE)  - the the zero temperature vibrational energy from the frequency calculation
    E(vib)  - the the finite temperature correction to E(ZPE) due to population
              of excietd vibrational states
    E(rot)  - is the rotational thermal energy
    E(trans)- is the translational thermal energy

Summary of contributions to the inner energy U:
Electronic energy                ...   -252.03329921 Eh
Zero point energy                ...      0.16945057 Eh     106.33 kcal/mol
Thermal vibrational correction   ...      0.00516672 Eh       3.24 kcal/mol
Thermal rotational correction    ...      0.00141627 Eh       0.89 kcal/mol
Thermal translational correction ...      0.00141627 Eh       0.89 kcal/mol
-----------------------------------------------------------------------
Total thermal energy                   -251.85584937 Eh

Summary of corrections to the electronic energy:
(perhaps to be used in another calculation)
Total thermal correction                  0.00799926 Eh       5.02 kcal/mol
Non-thermal (ZPE) correction              0.16945057 Eh     106.33 kcal/mol
-----------------------------------------------------------------------
Total correction                          0.17744984 Eh     111.35 kcal/mol

--------
ENTHALPY
--------

The enthalpy is H = U + kB*T
                kB is Boltzmann's constant
Total free energy                 ...   -251.85584937 Eh
Thermal Enthalpy correction       ...      0.00094421 Eh       0.59 kcal/mol
-----------------------------------------------------------------------
Total Enthalpy                    ...   -251.85490516 Eh

-------
ENTROPY
-------

The entropy contributions are T*S = T*(S(el)+S(vib)+S(rot)+S(trans)
     S(el)   - electronic entropy
     S(vib)  - vibrational entropy
     S(rot)  - rotational entropy
     S(trans)- translational entropy
The entropies will be listed as mutliplied by the temperature to get
units of energy

Electronic entropy                ...      0.00000000 Eh      0.00 kcal/mol
Vibrational entropy               ...      0.00951027 Eh      5.97 kcal/mol
Rotational entropy                ...      0.01183539 Eh      7.43 kcal/mol
Translational entropy             ...      0.01866024 Eh     11.71 kcal/mol
-----------------------------------------------------------------------
Final entropy term                ...      0.04000589 Eh     25.10 kcal/mol

CAUTION: The rotational entropy is not quite correctly treated here
         because it includes a symmetry number that is not yet correctly
         implemented in ORCA!
For a nonlinear molecule the correct rotational entropy is:
    S(rot) = R*(ln(qrot/sn)+1.5)
    R    = 8.31441 J/mol/K = 1.987191683e-3 kcal/mol/K
    qrot = 186036.2314977
    sn is the rotational symmetry number. We have assumed 3 here
       if it is different for your molecule then you should correct
       the printed rotational entropy by manually evaluating the equation
       as given above

For convenience we print out the resulting values for sn=1 - 12:
 sn= 1  qrot/sn=  186036.2315 T*S(rot)=     8.08 kcal/mol T*S(tot)=    25.75 kcal/mol
 sn= 2  qrot/sn=   93018.1157 T*S(rot)=     7.67 kcal/mol T*S(tot)=    25.34 kcal/mol
 sn= 3  qrot/sn=   62012.0772 T*S(rot)=     7.43 kcal/mol T*S(tot)=    25.10 kcal/mol
 sn= 4  qrot/sn=   46509.0579 T*S(rot)=     7.26 kcal/mol T*S(tot)=    24.93 kcal/mol
 sn= 5  qrot/sn=   37207.2463 T*S(rot)=     7.12 kcal/mol T*S(tot)=    24.80 kcal/mol
 sn= 6  qrot/sn=   31006.0386 T*S(rot)=     7.02 kcal/mol T*S(tot)=    24.69 kcal/mol
 sn= 7  qrot/sn=   26576.6045 T*S(rot)=     6.92 kcal/mol T*S(tot)=    24.60 kcal/mol
 sn= 8  qrot/sn=   23254.5289 T*S(rot)=     6.85 kcal/mol T*S(tot)=    24.52 kcal/mol
 sn= 9  qrot/sn=   20670.6924 T*S(rot)=     6.78 kcal/mol T*S(tot)=    24.45 kcal/mol
 sn=10  qrot/sn=   18603.6231 T*S(rot)=     6.71 kcal/mol T*S(tot)=    24.39 kcal/mol
 sn=11  qrot/sn=   16912.3847 T*S(rot)=     6.66 kcal/mol T*S(tot)=    24.33 kcal/mol
 sn=12  qrot/sn=   15503.0193 T*S(rot)=     6.61 kcal/mol T*S(tot)=    24.28 kcal/mol

-------------------
GIBBS FREE ENTHALPY
-------------------

The Gibbs free enthalpy is G = H - T*S

Total enthalpy                    ...   -251.85490516 Eh
Total entropy correction          ...     -0.04000589 Eh    -25.10 kcal/mol
-----------------------------------------------------------------------
Final Gibbs free enthalpy         ...   -251.89491105 Eh

For completeness - the Gibbs free enthalpy minus the electronic energy
G-E(el)                           ...      0.13838816 Eh     86.84 kcal/mol

                             ****ORCA TERMINATED NORMALLY****
TOTAL RUN TIME: 0 days 0 hours 18 minutes 56 seconds 937 msec
