                         Program Version 3.0.3 - RELEASE   -
|  1> ! NORI PBE0 def2-TZVP UseSym TightOPT Freq TightSCF Grid3 FinalGrid5 XYZFile
|  2> % pal
|  3>     nprocs 8
|  4> end
|  5> %method
|  6>     SymThresh 5.0e-2
|  7> end
|  8> % geom
|  9>     MaxIter 10
| 10> end
| 11> % maxcore 2000
| 12> % output
| 13>     printlevel mini
| 14>     print[ P_Basis ] 0
| 15>     print[ P_SCFInfo ] 1
| 16>     print[ P_SCFIterInfo ] 1
| 17>     print[ P_OrbEn ] 0
| 18>     print[ P_Cartesian ] 0
| 19> end
| 20> % elprop
| 21>     Dipole false
| 22> end
| 23> *xyz 1 1
| 24>  C        0.9889477490    -1.2553743373     1.9999302485
| 25>  N        2.4704523525    -1.3592115725     1.9346196687
| 26>  C        3.1662145259    -0.1067458206     1.4873298027
| 27>  C        4.6758041964    -0.2747077471     1.4529234419
| 28>  C        5.2873084665     1.0195153968     0.9284189046
| 29>  C        5.2462541774    -0.6437386661     2.8172859264
| 30>  H        0.5761832340    -2.2066943757     2.3310869706
| 31>  H        0.6125144788    -1.0082532299     1.0093646828
| 32>  H        0.7262863684    -0.4680204717     2.7035709135
| 33>  H        2.8405709532    -1.6186637523     2.8511956798
| 34>  H        2.7337156442    -2.1191284874     1.3041109827
| 35>  H        2.7618621503     0.1359005010     0.5031074927
| 36>  H        2.8684301913     0.6767041350     2.1879305052
| 37>  H        4.9122867001    -1.0748150309     0.7378526934
| 38>  H        5.0890081948     1.8510363469     1.6102467326
| 39>  H        4.8960901154     1.2837092223    -0.0561452915
| 40>  H        6.3691623931     0.9147330383     0.8394769093
| 41>  H        4.9941680267     0.1108104515     3.5689189681
| 42>  H        6.3345244645    -0.7002184144     2.7658761711
| 43>  H        4.9159656177    -1.6222671859     3.1838185971
| 44> *
| 45>
| 46>                          ****END OF INPUT****
 Total Charge           Charge          ....    1
 Multiplicity           Mult            ....    1
 Number of Electrons    NEL             ....   50
FINAL SINGLE POINT ENERGY      -253.260779441460

CARTESIAN COORDINATES (ANGSTROEM)
---------------------------------
  C      1.003762   -0.000065    2.558610
  N      0.000015    0.000042    1.461932
  C      0.562386    0.279855    0.098930
  C     -0.510584    0.254493   -0.976441
  C      0.139821    0.611339   -2.308027
  C     -1.220938   -1.091917   -1.049735
  H      0.504333   -0.210302    3.502807
  H      1.479687    0.977741    2.596064
  H      1.747144   -0.766610    2.349382
  H     -0.478097   -0.902719    1.429692
  H     -0.726054    0.691130    1.661356
  H      1.052344    1.253097    0.161256
  H      1.324901   -0.481802   -0.080830
  H     -1.246975    1.034874   -0.739906
  H      0.877894   -0.141317   -2.598065
  H      0.638332    1.582285   -2.269584
  H     -0.614248    0.655715   -3.094394
  H     -0.512406   -1.903117   -1.242581
  H     -1.943333   -1.090859   -1.866919
  H     -1.793739   -1.338407   -0.148357

FINAL SINGLE POINT ENERGY      -253.260780176320
                    ***********************HURRAY********************
 Multiplicity           Mult            ....    1
 Number of Electrons    NEL             ....   50
 Basis Dimension        Dim             ....  270
FINAL SINGLE POINT ENERGY      -253.260780389711

VIBRATIONAL FREQUENCIES
-----------------------

   0:         0.00 cm**-1
   1:         0.00 cm**-1
   2:         0.00 cm**-1
   3:         0.00 cm**-1
   4:         0.00 cm**-1
   5:         0.00 cm**-1
   6:        79.22 cm**-1
   7:       101.10 cm**-1
   8:       175.56 cm**-1
   9:       218.00 cm**-1
  10:       234.97 cm**-1
  11:       249.62 cm**-1
  12:       325.73 cm**-1
  13:       371.22 cm**-1
  14:       435.76 cm**-1
  15:       453.07 cm**-1
  16:       798.11 cm**-1
  17:       841.76 cm**-1
  18:       903.93 cm**-1
  19:       922.14 cm**-1
  20:       935.78 cm**-1
  21:       974.33 cm**-1
  22:       980.74 cm**-1
  23:      1036.40 cm**-1
  24:      1066.94 cm**-1
  25:      1120.14 cm**-1
  26:      1187.92 cm**-1
  27:      1207.24 cm**-1
  28:      1220.08 cm**-1
  29:      1312.28 cm**-1
  30:      1325.63 cm**-1
  31:      1359.62 cm**-1
  32:      1390.04 cm**-1
  33:      1398.73 cm**-1
  34:      1405.26 cm**-1
  35:      1418.51 cm**-1
  36:      1432.31 cm**-1
  37:      1460.18 cm**-1
  38:      1470.47 cm**-1
  39:      1486.63 cm**-1
  40:      1488.73 cm**-1
  41:      1493.22 cm**-1
  42:      1496.79 cm**-1
  43:      1500.83 cm**-1
  44:      1509.89 cm**-1
  45:      1657.94 cm**-1
  46:      3020.57 cm**-1
  47:      3033.03 cm**-1
  48:      3056.02 cm**-1
  49:      3083.40 cm**-1
  50:      3092.56 cm**-1
  51:      3101.38 cm**-1
  52:      3129.78 cm**-1
  53:      3141.77 cm**-1
  54:      3144.89 cm**-1
  55:      3149.41 cm**-1
  56:      3192.20 cm**-1
  57:      3195.82 cm**-1
  58:      3439.35 cm**-1
  59:      3487.26 cm**-1

IR SPECTRUM
-----------

 Mode    freq (cm**-1)   T**2         TX         TY         TZ
-------------------------------------------------------------------
   6:        79.22    4.126268  ( -0.566269   1.949850  -0.060769)
   7:       101.10    1.527828  (  0.306923   0.922444   0.763363)
   8:       175.56    2.951047  ( -0.178611  -0.293420  -1.683167)
   9:       218.00    0.347504  (  0.036454  -0.518472   0.278140)
  10:       234.97    1.716768  (  0.133478  -1.171564  -0.571305)
  11:       249.62    0.098136  (  0.039507   0.303408   0.067221)
  12:       325.73    6.100985  ( -1.121994  -0.284584  -2.182000)
  13:       371.22    1.452468  (  0.295211   0.456307  -1.075687)
  14:       435.76    1.765394  ( -0.350459   0.431829   1.206688)
  15:       453.07    1.183158  (  0.326696  -0.344846   0.978524)
  16:       798.11   12.209394  (  0.170320  -3.421284  -0.689351)
  17:       841.76    1.975501  (  0.521047   0.488969  -1.210339)
  18:       903.93    4.132568  (  1.476314  -0.888326  -1.078861)
  19:       922.14    4.858583  (  0.122253  -0.526334   2.136963)
  20:       935.78    8.080900  ( -0.404468  -1.557218   2.343583)
  21:       974.33    2.317480  (  0.277355  -0.195345  -1.484047)
  22:       980.74    1.847306  ( -0.340770  -0.137341  -1.308556)
  23:      1036.40   20.176015  (  1.833510  -0.410409   4.079929)
  24:      1066.94    0.026240  (  0.089340   0.111642  -0.076121)
  25:      1120.14   11.650911  (  0.653526   0.005779   3.350191)
  26:      1187.92    6.149028  ( -1.225994   0.330049  -2.130032)
  27:      1207.24    0.509018  (  0.177283   0.364423  -0.587184)
  28:      1220.08    0.660251  ( -0.623532   0.166054  -0.493847)
  29:      1312.28    3.720404  ( -0.870077   1.069620  -1.348808)
  30:      1325.63    3.458757  ( -0.493337   0.677947  -1.660049)
  31:      1359.62    4.677637  (  0.674929  -0.150932   2.049226)
  32:      1390.04   27.542309  (  2.099828   1.525932   4.561202)
  33:      1398.73    2.212737  (  0.118662   0.778856  -1.261761)
  34:      1405.26    7.296447  (  1.662430   1.353003   1.643824)
  35:      1418.51   33.754515  ( -0.039229  -2.193228   5.379845)
  36:      1432.31   28.316589  ( -0.128011   1.173510   5.188745)
  37:      1460.18    1.806710  (  0.809455   0.238225   1.046299)
  38:      1470.47    1.021287  (  0.063460  -0.074533  -1.005835)
  39:      1486.63   16.335523  ( -0.450432   1.169008  -3.842663)
  40:      1488.73    1.989117  ( -0.183676  -0.945584  -1.030171)
  41:      1493.22   31.759855  (  0.891850  -5.548369  -0.424337)
  42:      1496.79   18.151203  ( -0.564362  -0.420675   4.201872)
  43:      1500.83    8.304145  ( -2.585752  -0.640316  -1.099103)
  44:      1509.89   32.652894  (  5.371870  -0.961973  -1.694259)
  45:      1657.94   37.184989  (  5.932043   1.411600   0.056948)
  46:      3020.57    9.927966  ( -1.471342   2.384814   1.440758)
  47:      3033.03   24.465447  ( -1.234792  -2.481520   4.096681)
  48:      3056.02    5.963019  ( -1.849175  -0.273461   1.571239)
  49:      3083.40    3.289615  ( -1.696259   0.007111  -0.642083)
  50:      3092.56    0.334072  (  0.356351   0.062928   0.450695)
  51:      3101.38   21.442360  ( -2.563541   0.862968   3.758445)
  52:      3129.78   10.307247  ( -0.543414   3.126417   0.487302)
  53:      3141.77    1.572748  (  0.809003  -0.329984   0.899652)
  54:      3144.89    4.903972  ( -0.318947   2.153658   0.404973)
  55:      3149.41    6.167789  (  2.219004   0.308875   1.071637)
  56:      3192.20    0.179372  ( -0.405414  -0.075566  -0.096444)
  57:      3195.82    0.023284  (  0.065752  -0.128965   0.048260)
  58:      3439.35   41.172043  ( -6.266651  -1.350206   0.279423)
  59:      3487.26   70.461599  (  0.935644  -7.976905  -2.440319)

--------------------------
THERMOCHEMISTRY AT 298.15K
--------------------------

Temperature         ... 298.15 K
Pressure            ... 1.00 atm
Total Mass          ... 88.17 AMU

Throughout the following assumptions are being made:
  (1) The electronic state is orbitally nondegenerate
  (2) There are no thermally accessible electronically excited states
  (3) Hindered rotations indicated by low frequency modes) are not
      treated as such but are treated as vibrations and this may
      case some error
  (4) All equations used are the standard statistical mechanics
      equations for an ideal gas
  (5) All vibrations are strinctly harmonic

------------
INNER ENERGY
------------

The inner energy is: U= E(el) + E(ZPE) + E(vib) + E(rot) + E(trans)
    E(el)   - is the total energy from the electronic structure calculation
              = E(kin-el) + E(nuc-el) + E(el-el) + E(nuc-nuc)
    E(ZPE)  - the the zero temperature vibrational energy from the frequency calculation
    E(vib)  - the the finite temperature correction to E(ZPE) due to population
              of excietd vibrational states
    E(rot)  - is the rotational thermal energy
    E(trans)- is the translational thermal energy

Summary of contributions to the inner energy U:
Electronic energy                ...   -253.26078039 Eh
Zero point energy                ...      0.19299330 Eh     121.10 kcal/mol
Thermal vibrational correction   ...      0.00551933 Eh       3.46 kcal/mol
Thermal rotational correction    ...      0.00141627 Eh       0.89 kcal/mol
Thermal translational correction ...      0.00141627 Eh       0.89 kcal/mol
-----------------------------------------------------------------------
Total thermal energy                   -253.05943521 Eh

Summary of corrections to the electronic energy:
(perhaps to be used in another calculation)
Total thermal correction                  0.00835188 Eh       5.24 kcal/mol
Non-thermal (ZPE) correction              0.19299330 Eh     121.10 kcal/mol
-----------------------------------------------------------------------
Total correction                          0.20134518 Eh     126.35 kcal/mol

--------
ENTHALPY
--------

The enthalpy is H = U + kB*T
                kB is Boltzmann's constant
Total free energy                 ...   -253.05943521 Eh
Thermal Enthalpy correction       ...      0.00094421 Eh       0.59 kcal/mol
-----------------------------------------------------------------------
Total Enthalpy                    ...   -253.05849100 Eh

-------
ENTROPY
-------

The entropy contributions are T*S = T*(S(el)+S(vib)+S(rot)+S(trans)
     S(el)   - electronic entropy
     S(vib)  - vibrational entropy
     S(rot)  - rotational entropy
     S(trans)- translational entropy
The entropies will be listed as mutliplied by the temperature to get
units of energy

Electronic entropy                ...      0.00000000 Eh      0.00 kcal/mol
Vibrational entropy               ...      0.00989302 Eh      6.21 kcal/mol
Rotational entropy                ...      0.01192615 Eh      7.48 kcal/mol
Translational entropy             ...      0.01869299 Eh     11.73 kcal/mol
-----------------------------------------------------------------------
Final entropy term                ...      0.04051216 Eh     25.42 kcal/mol

CAUTION: The rotational entropy is not quite correctly treated here
         because it includes a symmetry number that is not yet correctly
         implemented in ORCA!
For a nonlinear molecule the correct rotational entropy is:
    S(rot) = R*(ln(qrot/sn)+1.5)
    R    = 8.31441 J/mol/K = 1.987191683e-3 kcal/mol/K
    qrot = 204806.2127748
    sn is the rotational symmetry number. We have assumed 3 here
       if it is different for your molecule then you should correct
       the printed rotational entropy by manually evaluating the equation
       as given above

For convenience we print out the resulting values for sn=1 - 12:
 sn= 1  qrot/sn=  204806.2128 T*S(rot)=     8.13 kcal/mol T*S(tot)=    26.07 kcal/mol
 sn= 2  qrot/sn=  102403.1064 T*S(rot)=     7.72 kcal/mol T*S(tot)=    25.66 kcal/mol
 sn= 3  qrot/sn=   68268.7376 T*S(rot)=     7.48 kcal/mol T*S(tot)=    25.42 kcal/mol
 sn= 4  qrot/sn=   51201.5532 T*S(rot)=     7.31 kcal/mol T*S(tot)=    25.25 kcal/mol
 sn= 5  qrot/sn=   40961.2426 T*S(rot)=     7.18 kcal/mol T*S(tot)=    25.12 kcal/mol
 sn= 6  qrot/sn=   34134.3688 T*S(rot)=     7.07 kcal/mol T*S(tot)=    25.01 kcal/mol
 sn= 7  qrot/sn=   29258.0304 T*S(rot)=     6.98 kcal/mol T*S(tot)=    24.92 kcal/mol
 sn= 8  qrot/sn=   25600.7766 T*S(rot)=     6.90 kcal/mol T*S(tot)=    24.84 kcal/mol
 sn= 9  qrot/sn=   22756.2459 T*S(rot)=     6.83 kcal/mol T*S(tot)=    24.77 kcal/mol
 sn=10  qrot/sn=   20480.6213 T*S(rot)=     6.77 kcal/mol T*S(tot)=    24.71 kcal/mol
 sn=11  qrot/sn=   18618.7466 T*S(rot)=     6.71 kcal/mol T*S(tot)=    24.65 kcal/mol
 sn=12  qrot/sn=   17067.1844 T*S(rot)=     6.66 kcal/mol T*S(tot)=    24.60 kcal/mol

-------------------
GIBBS FREE ENTHALPY
-------------------

The Gibbs free enthalpy is G = H - T*S

Total enthalpy                    ...   -253.05849100 Eh
Total entropy correction          ...     -0.04051216 Eh    -25.42 kcal/mol
-----------------------------------------------------------------------
Final Gibbs free enthalpy         ...   -253.09900316 Eh

For completeness - the Gibbs free enthalpy minus the electronic energy
G-E(el)                           ...      0.16177723 Eh    101.52 kcal/mol

                             ****ORCA TERMINATED NORMALLY****
TOTAL RUN TIME: 0 days 0 hours 25 minutes 59 seconds 73 msec
