                         Program Version 3.0.3 - RELEASE   -
|  1> ! NORI PBE0 def2-TZVP UseSym TightOPT Freq TightSCF Grid3 FinalGrid5 XYZFile
|  2> % pal
|  3>     nprocs 8
|  4> end
|  5> %method
|  6>     SymThresh 5.0e-2
|  7> end
|  8> % geom
|  9>     MaxIter 10
| 10> end
| 11> % maxcore 2000
| 12> % output
| 13>     printlevel mini
| 14>     print[ P_Basis ] 0
| 15>     print[ P_SCFInfo ] 1
| 16>     print[ P_SCFIterInfo ] 1
| 17>     print[ P_OrbEn ] 0
| 18>     print[ P_Cartesian ] 0
| 19> end
| 20> % elprop
| 21>     Dipole false
| 22> end
| 23> *xyz 1 1
| 24>  C        1.3427424323     0.2649281463    -0.0579505393
| 25>  N        2.8201832602     0.4059244704     0.0202833466
| 26>  C        3.5297337138    -0.7497857001     0.6858550152
| 27>  C        5.0078896074    -0.5128689445     0.7196287803
| 28>  C        5.7418520730    -0.6128984445    -0.5816793537
| 29>  C        5.5972786775    -0.2622322696     1.8843958227
| 30>  H        0.9238222129     1.1436051877    -0.5452692742
| 31>  H        0.9479877819     0.1731233441     0.9518141233
| 32>  H        1.1070909403    -0.6293977871    -0.6314143913
| 33>  H        3.0651813735     1.2568509952     0.5311527566
| 34>  H        3.2053081741     0.5253023578    -0.9182900866
| 35>  H        3.2605438535    -1.6374545578     0.1082613372
| 36>  H        3.1044893813    -0.8351763675     1.6853616455
| 37>  H        5.6117172332    -1.6038690121    -1.0285493434
| 38>  H        6.8085982215    -0.4432024290    -0.4416622766
| 39>  H        5.4019271040     0.1193367574    -1.3247908129
| 40>  H        6.6672098927    -0.1027682333     1.9514138397
| 41>  H        5.0404840669    -0.2283975134     2.8147194108
| 42> *
| 43>
| 44>                          ****END OF INPUT****
 Total Charge           Charge          ....    1
 Multiplicity           Mult            ....    1
 Number of Electrons    NEL             ....   48
FINAL SINGLE POINT ENERGY      -252.029257741038
FINAL SINGLE POINT ENERGY      -252.029259314770
FINAL SINGLE POINT ENERGY      -252.029260418740

CARTESIAN COORDINATES (ANGSTROEM)
---------------------------------
  C      0.887663   -0.007092    2.537390
  N     -0.001267    0.002861    1.345751
  C      0.721125    0.079507    0.021055
  C     -0.254564    0.073211   -1.114936
  C     -0.963705   -1.216062   -1.392579
  C     -0.419525    1.178487   -1.834772
  H      0.278996   -0.060429    3.438328
  H      1.478981    0.906452    2.538500
  H      1.542867   -0.873765    2.476020
  H     -0.647045    0.793948    1.395284
  H     -0.586948   -0.834287    1.346476
  H      1.393555   -0.781955   -0.001324
  H      1.315387    0.992656    0.048109
  H     -0.249530   -2.015101   -1.614920
  H     -1.635457   -1.116755   -2.243963
  H     -1.574516   -1.559282   -0.548403
  H     -1.101545    1.205018   -2.676568
  H      0.133965    2.087890   -1.626777

FINAL SINGLE POINT ENERGY      -252.029260670454
                    ***********************HURRAY********************
 Multiplicity           Mult            ....    1
 Number of Electrons    NEL             ....   48
 Basis Dimension        Dim             ....  258
FINAL SINGLE POINT ENERGY      -252.029260822470

VIBRATIONAL FREQUENCIES
-----------------------

   0:         0.00 cm**-1
   1:         0.00 cm**-1
   2:         0.00 cm**-1
   3:         0.00 cm**-1
   4:         0.00 cm**-1
   5:         0.00 cm**-1
   6:        64.63 cm**-1
   7:        79.93 cm**-1
   8:       166.55 cm**-1
   9:       186.81 cm**-1
  10:       229.20 cm**-1
  11:       320.38 cm**-1
  12:       397.04 cm**-1
  13:       447.58 cm**-1
  14:       536.80 cm**-1
  15:       723.94 cm**-1
  16:       798.78 cm**-1
  17:       852.07 cm**-1
  18:       909.48 cm**-1
  19:       945.48 cm**-1
  20:       992.33 cm**-1
  21:       999.72 cm**-1
  22:      1023.36 cm**-1
  23:      1030.56 cm**-1
  24:      1065.74 cm**-1
  25:      1134.94 cm**-1
  26:      1164.48 cm**-1
  27:      1299.27 cm**-1
  28:      1313.61 cm**-1
  29:      1366.85 cm**-1
  30:      1386.14 cm**-1
  31:      1413.19 cm**-1
  32:      1420.35 cm**-1
  33:      1448.35 cm**-1
  34:      1459.16 cm**-1
  35:      1472.73 cm**-1
  36:      1479.22 cm**-1
  37:      1488.03 cm**-1
  38:      1493.43 cm**-1
  39:      1498.54 cm**-1
  40:      1656.75 cm**-1
  41:      1733.64 cm**-1
  42:      3028.14 cm**-1
  43:      3083.89 cm**-1
  44:      3088.35 cm**-1
  45:      3092.33 cm**-1
  46:      3155.17 cm**-1
  47:      3158.75 cm**-1
  48:      3163.48 cm**-1
  49:      3192.46 cm**-1
  50:      3195.18 cm**-1
  51:      3253.78 cm**-1
  52:      3440.65 cm**-1
  53:      3490.65 cm**-1

IR SPECTRUM
-----------

 Mode    freq (cm**-1)   T**2         TX         TY         TZ
-------------------------------------------------------------------
   6:        64.63    2.218466  (  0.058230   1.487299   0.054936)
   7:        79.93    2.760043  ( -0.136515   1.636579  -0.251027)
   8:       166.55    1.404959  (  0.239649  -0.495316  -1.049852)
   9:       186.81    3.955705  ( -0.498951  -0.076442  -1.923775)
  10:       229.20    1.773281  (  0.069942  -1.320834  -0.154224)
  11:       320.38    3.051493  (  1.324124   0.388606   1.071062)
  12:       397.04    1.313024  ( -1.005113   0.511338  -0.203235)
  13:       447.58    4.328615  (  0.729313  -0.756200  -1.795795)
  14:       536.80   13.044314  (  2.150953  -0.621393  -2.834006)
  15:       723.94    0.135251  ( -0.017185   0.032210  -0.365948)
  16:       798.78   10.392311  ( -0.202863  -3.189006  -0.425909)
  17:       852.07    3.322571  ( -0.612346  -1.066400   1.345509)
  18:       909.48   30.415016  ( -1.215161  -0.503522   5.355825)
  19:       945.48    3.578979  ( -1.124318   1.331499   0.736206)
  20:       992.33    0.906495  ( -0.254570   0.786818  -0.471812)
  21:       999.72   37.815875  (  4.485323  -2.099345  -3.645614)
  22:      1023.36    7.141208  (  0.959222   0.201590   2.486054)
  23:      1030.56   12.239191  ( -1.847725   1.338918  -2.651867)
  24:      1065.74    0.324502  ( -0.373076   0.142130   0.406344)
  25:      1134.94    6.644346  ( -0.296462   1.182323  -2.271248)
  26:      1164.48    8.790846  (  0.942697   0.088043   2.809700)
  27:      1299.27    0.076635  ( -0.076057   0.116867  -0.239149)
  28:      1313.61    4.461954  ( -0.359442   1.826892  -0.997608)
  29:      1366.85   13.257765  (  0.229112   1.060400   3.475748)
  30:      1386.14    3.936087  (  0.724783   1.421845   1.178615)
  31:      1413.19   55.622655  (  1.496233   0.317004   7.299551)
  32:      1420.35   24.362547  (  0.334872   2.873897  -3.998890)
  33:      1448.35    0.907033  (  0.224235   0.550381  -0.744199)
  34:      1459.16    0.869415  (  0.578208  -0.227130   0.695344)
  35:      1472.73   36.952197  ( -0.866470   0.741105  -5.970946)
  36:      1479.22   18.908553  ( -3.830069   1.956823  -0.640288)
  37:      1488.03    6.703944  (  0.760249  -2.337600  -0.813383)
  38:      1493.43   19.973864  (  0.584817   4.421174  -0.291681)
  39:      1498.54   35.153684  ( -4.521005  -0.859229   3.738439)
  40:      1656.75   40.265500  ( -6.336457  -0.226600  -0.251926)
  41:      1733.64    5.393198  ( -0.436399  -2.226114  -0.497162)
  42:      3028.14   16.621383  (  1.285674   2.230963  -3.160891)
  43:      3083.89    4.176768  ( -1.141496   0.599575  -1.585644)
  44:      3088.35    6.992473  (  1.704294  -0.611278  -1.927224)
  45:      3092.33    0.224584  (  0.439696  -0.084481   0.155286)
  46:      3155.17    0.777521  (  0.330815   0.761192   0.297773)
  47:      3158.75    1.483719  (  0.627010  -0.324129   0.992732)
  48:      3163.48    0.542118  (  0.503716   0.337238   0.417921)
  49:      3192.46    0.178413  (  0.414628   0.040591  -0.069640)
  50:      3195.18    0.046472  (  0.033957  -0.194479   0.086584)
  51:      3253.78    0.645931  (  0.381402   0.690638   0.153241)
  52:      3440.65   39.404070  ( -6.259826   0.316940   0.343804)
  53:      3490.65   66.506254  ( -0.164850  -8.097217  -0.956118)

--------------------------
THERMOCHEMISTRY AT 298.15K
--------------------------

Temperature         ... 298.15 K
Pressure            ... 1.00 atm
Total Mass          ... 86.16 AMU

Throughout the following assumptions are being made:
  (1) The electronic state is orbitally nondegenerate
  (2) There are no thermally accessible electronically excited states
  (3) Hindered rotations indicated by low frequency modes) are not
      treated as such but are treated as vibrations and this may
      case some error
  (4) All equations used are the standard statistical mechanics
      equations for an ideal gas
  (5) All vibrations are strinctly harmonic

------------
INNER ENERGY
------------

The inner energy is: U= E(el) + E(ZPE) + E(vib) + E(rot) + E(trans)
    E(el)   - is the total energy from the electronic structure calculation
              = E(kin-el) + E(nuc-el) + E(el-el) + E(nuc-nuc)
    E(ZPE)  - the the zero temperature vibrational energy from the frequency calculation
    E(vib)  - the the finite temperature correction to E(ZPE) due to population
              of excietd vibrational states
    E(rot)  - is the rotational thermal energy
    E(trans)- is the translational thermal energy

Summary of contributions to the inner energy U:
Electronic energy                ...   -252.02926082 Eh
Zero point energy                ...      0.16936327 Eh     106.28 kcal/mol
Thermal vibrational correction   ...      0.00511295 Eh       3.21 kcal/mol
Thermal rotational correction    ...      0.00141627 Eh       0.89 kcal/mol
Thermal translational correction ...      0.00141627 Eh       0.89 kcal/mol
-----------------------------------------------------------------------
Total thermal energy                   -251.85195206 Eh

Summary of corrections to the electronic energy:
(perhaps to be used in another calculation)
Total thermal correction                  0.00794549 Eh       4.99 kcal/mol
Non-thermal (ZPE) correction              0.16936327 Eh     106.28 kcal/mol
-----------------------------------------------------------------------
Total correction                          0.17730876 Eh     111.26 kcal/mol

--------
ENTHALPY
--------

The enthalpy is H = U + kB*T
                kB is Boltzmann's constant
Total free energy                 ...   -251.85195206 Eh
Thermal Enthalpy correction       ...      0.00094421 Eh       0.59 kcal/mol
-----------------------------------------------------------------------
Total Enthalpy                    ...   -251.85100786 Eh

-------
ENTROPY
-------

The entropy contributions are T*S = T*(S(el)+S(vib)+S(rot)+S(trans)
     S(el)   - electronic entropy
     S(vib)  - vibrational entropy
     S(rot)  - rotational entropy
     S(trans)- translational entropy
The entropies will be listed as mutliplied by the temperature to get
units of energy

Electronic entropy                ...      0.00000000 Eh      0.00 kcal/mol
Vibrational entropy               ...      0.00957188 Eh      6.01 kcal/mol
Rotational entropy                ...      0.01185168 Eh      7.44 kcal/mol
Translational entropy             ...      0.01866024 Eh     11.71 kcal/mol
-----------------------------------------------------------------------
Final entropy term                ...      0.04008379 Eh     25.15 kcal/mol

CAUTION: The rotational entropy is not quite correctly treated here
         because it includes a symmetry number that is not yet correctly
         implemented in ORCA!
For a nonlinear molecule the correct rotational entropy is:
    S(rot) = R*(ln(qrot/sn)+1.5)
    R    = 8.31441 J/mol/K = 1.987191683e-3 kcal/mol/K
    qrot = 189274.3037904
    sn is the rotational symmetry number. We have assumed 3 here
       if it is different for your molecule then you should correct
       the printed rotational entropy by manually evaluating the equation
       as given above

For convenience we print out the resulting values for sn=1 - 12:
 sn= 1  qrot/sn=  189274.3038 T*S(rot)=     8.09 kcal/mol T*S(tot)=    25.80 kcal/mol
 sn= 2  qrot/sn=   94637.1519 T*S(rot)=     7.68 kcal/mol T*S(tot)=    25.39 kcal/mol
 sn= 3  qrot/sn=   63091.4346 T*S(rot)=     7.44 kcal/mol T*S(tot)=    25.15 kcal/mol
 sn= 4  qrot/sn=   47318.5759 T*S(rot)=     7.27 kcal/mol T*S(tot)=    24.98 kcal/mol
 sn= 5  qrot/sn=   37854.8608 T*S(rot)=     7.13 kcal/mol T*S(tot)=    24.85 kcal/mol
 sn= 6  qrot/sn=   31545.7173 T*S(rot)=     7.03 kcal/mol T*S(tot)=    24.74 kcal/mol
 sn= 7  qrot/sn=   27039.1863 T*S(rot)=     6.94 kcal/mol T*S(tot)=    24.65 kcal/mol
 sn= 8  qrot/sn=   23659.2880 T*S(rot)=     6.86 kcal/mol T*S(tot)=    24.57 kcal/mol
 sn= 9  qrot/sn=   21030.4782 T*S(rot)=     6.79 kcal/mol T*S(tot)=    24.50 kcal/mol
 sn=10  qrot/sn=   18927.4304 T*S(rot)=     6.72 kcal/mol T*S(tot)=    24.44 kcal/mol
 sn=11  qrot/sn=   17206.7549 T*S(rot)=     6.67 kcal/mol T*S(tot)=    24.38 kcal/mol
 sn=12  qrot/sn=   15772.8586 T*S(rot)=     6.62 kcal/mol T*S(tot)=    24.33 kcal/mol

-------------------
GIBBS FREE ENTHALPY
-------------------

The Gibbs free enthalpy is G = H - T*S

Total enthalpy                    ...   -251.85100786 Eh
Total entropy correction          ...     -0.04008379 Eh    -25.15 kcal/mol
-----------------------------------------------------------------------
Final Gibbs free enthalpy         ...   -251.89109165 Eh

For completeness - the Gibbs free enthalpy minus the electronic energy
G-E(el)                           ...      0.13816917 Eh     86.70 kcal/mol

                             ****ORCA TERMINATED NORMALLY****
TOTAL RUN TIME: 0 days 0 hours 21 minutes 48 seconds 119 msec
