                         Program Version 3.0.3 - RELEASE   -
|  1> ! NORI PBE0 def2-TZVP UseSym TightOPT Freq TightSCF Grid3 FinalGrid5 XYZFile
|  2> % pal
|  3>     nprocs 8
|  4> end
|  5> %method
|  6>     SymThresh 5.0e-2
|  7> end
|  8> % geom
|  9>     MaxIter 10
| 10> end
| 11> % maxcore 2000
| 12> % output
| 13>     printlevel mini
| 14>     print[ P_Basis ] 0
| 15>     print[ P_SCFInfo ] 1
| 16>     print[ P_SCFIterInfo ] 1
| 17>     print[ P_OrbEn ] 0
| 18>     print[ P_Cartesian ] 0
| 19> end
| 20> % elprop
| 21>     Dipole false
| 22> end
| 23> *xyz 1 1
| 24>  C        0.9079820267    -0.0600898397     0.0653044689
| 25>  N        2.3913933076    -0.0253754988    -0.0146229420
| 26>  C        2.9506032368     1.1070865316    -0.8465959648
| 27>  C        4.3897040386     1.0513932083    -0.8546363420
| 28>  C        5.5919885584     1.0116217595    -0.8706078701
| 29>  C        7.0364261264     0.9812633555    -0.9029728472
| 30>  H        0.6044956724    -0.9019892841     0.6847567667
| 31>  H        0.5057670353    -0.1714511365    -0.9395500833
| 32>  H        0.5598563167     0.8723011976     0.5053133719
| 33>  H        2.7971654976     0.0461865509     0.9209870603
| 34>  H        2.7481758165    -0.9017899436    -0.4014698272
| 35>  H        2.5208086087     0.9995903461    -1.8456062477
| 36>  H        2.5688144120     2.0320714711    -0.4068067015
| 37>  H        7.3994879389     1.4369120810    -1.8272412218
| 38>  H        7.4018273965    -0.0470627849    -0.8660933759
| 39>  H        7.4567740107     1.5313419858    -0.0586582441
| 40> *
| 41>
| 42>                          ****END OF INPUT****
 Total Charge           Charge          ....    1
 Multiplicity           Mult            ....    1
 Number of Electrons    NEL             ....   46
FINAL SINGLE POINT ENERGY      -250.782470687932

CARTESIAN COORDINATES (ANGSTROEM)
---------------------------------
  C      0.702727    0.000202    2.946213
  N     -0.000207   -0.000484    1.636792
  C      0.914005    0.003003    0.431761
  C      0.135707   -0.001439   -0.780049
  C     -0.505287   -0.001630   -1.798085
  C     -1.256900   -0.001366   -3.032328
  H     -0.035058   -0.005840    3.746353
  H      1.318400    0.895131    3.012311
  H      1.327993   -0.888398    3.007648
  H     -0.611920   -0.816187    1.560965
  H     -0.616459    0.811921    1.562633
  H      1.543702    0.891819    0.522966
  H      1.551593   -0.880054    0.524359
  H     -0.674868    0.475545   -3.824412
  H     -2.189949    0.554261   -2.916062
  H     -1.494262   -1.020418   -3.344086

FINAL SINGLE POINT ENERGY      -250.782470977951
                    ***********************HURRAY********************
 Multiplicity           Mult            ....    1
 Number of Electrons    NEL             ....   46
 Basis Dimension        Dim             ....  246
FINAL SINGLE POINT ENERGY      -250.782471098463

VIBRATIONAL FREQUENCIES
-----------------------

   0:         0.00 cm**-1
   1:         0.00 cm**-1
   2:         0.00 cm**-1
   3:         0.00 cm**-1
   4:         0.00 cm**-1
   5:         0.00 cm**-1
   6:        -4.14 cm**-1
   7:        76.22 cm**-1
   8:        95.90 cm**-1
   9:       211.36 cm**-1
  10:       225.10 cm**-1
  11:       299.76 cm**-1
  12:       355.15 cm**-1
  13:       399.59 cm**-1
  14:       494.46 cm**-1
  15:       790.35 cm**-1
  16:       801.71 cm**-1
  17:       896.17 cm**-1
  18:       960.26 cm**-1
  19:      1024.71 cm**-1
  20:      1036.09 cm**-1
  21:      1042.33 cm**-1
  22:      1140.00 cm**-1
  23:      1163.33 cm**-1
  24:      1206.21 cm**-1
  25:      1303.14 cm**-1
  26:      1366.08 cm**-1
  27:      1386.82 cm**-1
  28:      1403.90 cm**-1
  29:      1424.64 cm**-1
  30:      1454.28 cm**-1
  31:      1457.01 cm**-1
  32:      1459.09 cm**-1
  33:      1477.77 cm**-1
  34:      1492.64 cm**-1
  35:      1496.85 cm**-1
  36:      1656.53 cm**-1
  37:      2372.95 cm**-1
  38:      3059.95 cm**-1
  39:      3073.58 cm**-1
  40:      3092.76 cm**-1
  41:      3122.17 cm**-1
  42:      3135.58 cm**-1
  43:      3140.00 cm**-1
  44:      3194.03 cm**-1
  45:      3194.61 cm**-1
  46:      3439.86 cm**-1
  47:      3487.86 cm**-1

IR SPECTRUM
-----------

 Mode    freq (cm**-1)   T**2         TX         TY         TZ
-------------------------------------------------------------------
   7:        76.22    0.883723  (  0.021279  -0.939823   0.001709)
   8:        95.90    3.233617  (  1.720899   0.028537   0.520872)
   9:       211.36   10.214443  ( -0.014534  -3.195836   0.029442)
  10:       225.10   10.434482  ( -0.010095   3.230221  -0.007281)
  11:       299.76   14.033410  (  3.011958   0.003389  -2.227444)
  12:       355.15    2.968550  (  0.327110  -0.005770  -1.691601)
  13:       399.59    0.651473  ( -0.018674   0.805608   0.046051)
  14:       494.46   12.348482  (  1.272000  -0.001001  -3.275744)
  15:       790.35    2.104122  (  1.343265  -0.116669   0.534928)
  16:       801.71   12.903423  (  0.006471   3.592128  -0.000020)
  17:       896.17   45.668998  (  1.878083   0.060376  -6.491391)
  18:       960.26    3.182432  ( -0.079452  -1.779699   0.093754)
  19:      1024.71   19.832336  (  1.430034  -0.228047   4.211334)
  20:      1036.09    2.598641  (  1.370940   0.280100  -0.800443)
  21:      1042.33    2.256541  (  0.156721  -1.423436  -0.453662)
  22:      1140.00    0.004248  (  0.010739  -0.064039   0.005636)
  23:      1163.33    3.779034  (  0.126971   0.005465  -1.939815)
  24:      1206.21    0.969334  ( -0.205083   0.006744  -0.962928)
  25:      1303.14    2.544908  (  0.053299  -1.594173  -0.026087)
  26:      1366.08    5.723468  ( -2.357835  -0.020826   0.404538)
  27:      1386.82    0.467885  (  0.095697  -0.675638  -0.047344)
  28:      1403.90    1.839844  ( -0.630377   0.405428  -1.130530)
  29:      1424.64  126.527913  (  2.074711  -0.100398  11.055017)
  30:      1454.28   13.890057  ( -0.012276   3.723151  -0.167485)
  31:      1457.01   13.433088  (  3.231669  -0.203703  -1.716947)
  32:      1459.09   12.274191  (  1.094961  -0.001134   3.327950)
  33:      1477.77    6.965542  (  1.179004   0.016701   2.361189)
  34:      1492.64   23.409320  ( -0.018601   4.838282   0.002399)
  35:      1496.85   30.615139  (  4.284372  -0.000571  -3.501327)
  36:      1656.53   44.031134  (  6.543309   0.031157   1.102394)
  37:      2372.95  154.570709  (  5.063115  -0.130218  11.354234)
  38:      3059.95    0.692007  (  0.095227  -0.100953   0.820212)
  39:      3073.58    7.051748  ( -1.076799  -0.012879  -2.427362)
  40:      3092.76    0.073852  (  0.230194  -0.000350  -0.144438)
  41:      3122.17    0.334592  (  0.015383   0.578056  -0.014387)
  42:      3135.58    0.442391  ( -0.281618  -0.133144   0.587669)
  43:      3140.00    0.320084  ( -0.085825   0.335308  -0.447533)
  44:      3194.03    0.353510  ( -0.547231  -0.027653   0.230831)
  45:      3194.61    0.055438  ( -0.053510   0.228118   0.023174)
  46:      3439.86   43.230983  (  6.569323   0.058406  -0.267509)
  47:      3487.86   79.294642  (  0.046039  -8.904618  -0.017300)

--------------------------
THERMOCHEMISTRY AT 298.15K
--------------------------

Temperature         ... 298.15 K
Pressure            ... 1.00 atm
Total Mass          ... 84.14 AMU

Throughout the following assumptions are being made:
  (1) The electronic state is orbitally nondegenerate
  (2) There are no thermally accessible electronically excited states
  (3) Hindered rotations indicated by low frequency modes) are not
      treated as such but are treated as vibrations and this may
      case some error
  (4) All equations used are the standard statistical mechanics
      equations for an ideal gas
  (5) All vibrations are strinctly harmonic

------------
INNER ENERGY
------------

The inner energy is: U= E(el) + E(ZPE) + E(vib) + E(rot) + E(trans)
    E(el)   - is the total energy from the electronic structure calculation
              = E(kin-el) + E(nuc-el) + E(el-el) + E(nuc-nuc)
    E(ZPE)  - the the zero temperature vibrational energy from the frequency calculation
    E(vib)  - the the finite temperature correction to E(ZPE) due to population
              of excietd vibrational states
    E(rot)  - is the rotational thermal energy
    E(trans)- is the translational thermal energy

Summary of contributions to the inner energy U:
Electronic energy                ...   -250.78247110 Eh
Zero point energy                ...      0.14559950 Eh      91.36 kcal/mol
Thermal vibrational correction   ...      0.00439142 Eh       2.76 kcal/mol
Thermal rotational correction    ...      0.00141627 Eh       0.89 kcal/mol
Thermal translational correction ...      0.00141627 Eh       0.89 kcal/mol
-----------------------------------------------------------------------
Total thermal energy                   -250.62964764 Eh

Summary of corrections to the electronic energy:
(perhaps to be used in another calculation)
Total thermal correction                  0.00722396 Eh       4.53 kcal/mol
Non-thermal (ZPE) correction              0.14559950 Eh      91.36 kcal/mol
-----------------------------------------------------------------------
Total correction                          0.15282346 Eh      95.90 kcal/mol

--------
ENTHALPY
--------

The enthalpy is H = U + kB*T
                kB is Boltzmann's constant
Total free energy                 ...   -250.62964764 Eh
Thermal Enthalpy correction       ...      0.00094421 Eh       0.59 kcal/mol
-----------------------------------------------------------------------
Total Enthalpy                    ...   -250.62870343 Eh

-------
ENTROPY
-------

The entropy contributions are T*S = T*(S(el)+S(vib)+S(rot)+S(trans)
     S(el)   - electronic entropy
     S(vib)  - vibrational entropy
     S(rot)  - rotational entropy
     S(trans)- translational entropy
The entropies will be listed as mutliplied by the temperature to get
units of energy

Electronic entropy                ...      0.00000000 Eh      0.00 kcal/mol
Vibrational entropy               ...      0.00803652 Eh      5.04 kcal/mol
Rotational entropy                ...      0.01175745 Eh      7.38 kcal/mol
Translational entropy             ...      0.01862670 Eh     11.69 kcal/mol
-----------------------------------------------------------------------
Final entropy term                ...      0.03842067 Eh     24.11 kcal/mol

CAUTION: The rotational entropy is not quite correctly treated here
         because it includes a symmetry number that is not yet correctly
         implemented in ORCA!
For a nonlinear molecule the correct rotational entropy is:
    S(rot) = R*(ln(qrot/sn)+1.5)
    R    = 8.31441 J/mol/K = 1.987191683e-3 kcal/mol/K
    qrot = 171296.4463176
    sn is the rotational symmetry number. We have assumed 3 here
       if it is different for your molecule then you should correct
       the printed rotational entropy by manually evaluating the equation
       as given above

For convenience we print out the resulting values for sn=1 - 12:
 sn= 1  qrot/sn=  171296.4463 T*S(rot)=     8.03 kcal/mol T*S(tot)=    24.76 kcal/mol
 sn= 2  qrot/sn=   85648.2232 T*S(rot)=     7.62 kcal/mol T*S(tot)=    24.35 kcal/mol
 sn= 3  qrot/sn=   57098.8154 T*S(rot)=     7.38 kcal/mol T*S(tot)=    24.11 kcal/mol
 sn= 4  qrot/sn=   42824.1116 T*S(rot)=     7.21 kcal/mol T*S(tot)=    23.94 kcal/mol
 sn= 5  qrot/sn=   34259.2893 T*S(rot)=     7.08 kcal/mol T*S(tot)=    23.81 kcal/mol
 sn= 6  qrot/sn=   28549.4077 T*S(rot)=     6.97 kcal/mol T*S(tot)=    23.70 kcal/mol
 sn= 7  qrot/sn=   24470.9209 T*S(rot)=     6.88 kcal/mol T*S(tot)=    23.61 kcal/mol
 sn= 8  qrot/sn=   21412.0558 T*S(rot)=     6.80 kcal/mol T*S(tot)=    23.53 kcal/mol
 sn= 9  qrot/sn=   19032.9385 T*S(rot)=     6.73 kcal/mol T*S(tot)=    23.46 kcal/mol
 sn=10  qrot/sn=   17129.6446 T*S(rot)=     6.66 kcal/mol T*S(tot)=    23.40 kcal/mol
 sn=11  qrot/sn=   15572.4042 T*S(rot)=     6.61 kcal/mol T*S(tot)=    23.34 kcal/mol
 sn=12  qrot/sn=   14274.7039 T*S(rot)=     6.56 kcal/mol T*S(tot)=    23.29 kcal/mol

-------------------
GIBBS FREE ENTHALPY
-------------------

The Gibbs free enthalpy is G = H - T*S

Total enthalpy                    ...   -250.62870343 Eh
Total entropy correction          ...     -0.03842067 Eh    -24.11 kcal/mol
-----------------------------------------------------------------------
Final Gibbs free enthalpy         ...   -250.66712410 Eh

For completeness - the Gibbs free enthalpy minus the electronic energy
G-E(el)                           ...      0.11534700 Eh     72.38 kcal/mol

                             ****ORCA TERMINATED NORMALLY****
TOTAL RUN TIME: 0 days 0 hours 15 minutes 7 seconds 485 msec
