                         Program Version 3.0.3 - RELEASE   -
|  1> ! NORI PBE0 def2-TZVP UseSym TightOPT Freq TightSCF Grid3 FinalGrid5 XYZFile
|  2> % pal
|  3>     nprocs 8
|  4> end
|  5> %method
|  6>     SymThresh 5.0e-2
|  7> end
|  8> % geom
|  9>     MaxIter 10
| 10> end
| 11> % maxcore 2000
| 12> % output
| 13>     printlevel mini
| 14>     print[ P_Basis ] 0
| 15>     print[ P_SCFInfo ] 1
| 16>     print[ P_SCFIterInfo ] 1
| 17>     print[ P_OrbEn ] 0
| 18>     print[ P_Cartesian ] 0
| 19> end
| 20> % elprop
| 21>     Dipole false
| 22> end
| 23> *xyz 1 1
| 24>  C        0.8409439249    -0.0652586389    -0.0707853190
| 25>  N        2.3275321187    -0.0482490528    -0.0121187089
| 26>  C        2.9152150321     1.2003272207     0.5810721197
| 27>  C        4.4309002572     1.1370015376     0.6103306147
| 28>  C        4.9925357827     2.3563675065     1.2755032697
| 29>  C        5.7663403178     3.2403855656     0.6660335813
| 30>  H        0.5097082383    -1.0037756957    -0.5119746676
| 31>  H        0.5068133985     0.7733132038    -0.6783681996
| 32>  H        0.4525368601     0.0305507688     0.9410920189
| 33>  H        2.7085433650    -0.1724523276    -0.9524093038
| 34>  H        2.6573838230    -0.8515135275     0.5270064655
| 35>  H        2.4921040018     1.2957133886     1.5827240815
| 36>  H        2.5577323305     2.0342700856    -0.0244659310
| 37>  H        4.8254503180     1.0586276099    -0.4082406240
| 38>  H        4.7485054474     0.2396764707     1.1585001781
| 39>  H        4.7371269415     2.4915843196     2.3241291765
| 40>  H        6.0543643276     3.1309084798    -0.3748621279
| 41>  H        6.1541635150     4.1040530855     1.1921033760
| 42> *
| 43>
| 44>                          ****END OF INPUT****
 Total Charge           Charge          ....    1
 Multiplicity           Mult            ....    1
 Number of Electrons    NEL             ....   48
FINAL SINGLE POINT ENERGY      -252.023779110423
FINAL SINGLE POINT ENERGY      -252.023781887001
FINAL SINGLE POINT ENERGY      -252.023785318799
FINAL SINGLE POINT ENERGY      -252.023785920648

CARTESIAN COORDINATES (ANGSTROEM)
---------------------------------
  C      1.125306    0.007218    2.764126
  N     -0.000421   -0.003709    1.791074
  C      0.416662   -0.129205    0.353553
  C     -0.786508   -0.132935   -0.571149
  C     -0.355930   -0.336957   -1.991804
  C     -0.503575    0.568917   -2.945517
  H      0.726476    0.103103    3.772498
  H      1.774044    0.850311    2.535489
  H      1.678370   -0.924712    2.666507
  H     -0.550564    0.851210    1.896736
  H     -0.637728   -0.771223    2.013633
  H      0.992730   -1.053240    0.277952
  H      1.082207    0.709737    0.145257
  H     -1.331281    0.812994   -0.484840
  H     -1.472082   -0.938458   -0.275675
  H      0.095141   -1.298949   -2.223914
  H     -0.962333    1.534134   -2.754747
  H     -0.182011    0.372435   -3.960901

FINAL SINGLE POINT ENERGY      -252.023786240570
                    ***********************HURRAY********************
 Multiplicity           Mult            ....    1
 Number of Electrons    NEL             ....   48
 Basis Dimension        Dim             ....  258
FINAL SINGLE POINT ENERGY      -252.023786287049

VIBRATIONAL FREQUENCIES
-----------------------

   0:         0.00 cm**-1
   1:         0.00 cm**-1
   2:         0.00 cm**-1
   3:         0.00 cm**-1
   4:         0.00 cm**-1
   5:         0.00 cm**-1
   6:        69.68 cm**-1
   7:        93.04 cm**-1
   8:       115.90 cm**-1
   9:       178.94 cm**-1
  10:       231.50 cm**-1
  11:       358.36 cm**-1
  12:       364.01 cm**-1
  13:       457.83 cm**-1
  14:       654.47 cm**-1
  15:       775.21 cm**-1
  16:       829.54 cm**-1
  17:       911.80 cm**-1
  18:       952.44 cm**-1
  19:       996.51 cm**-1
  20:       999.39 cm**-1
  21:      1027.00 cm**-1
  22:      1028.64 cm**-1
  23:      1063.63 cm**-1
  24:      1075.22 cm**-1
  25:      1168.32 cm**-1
  26:      1202.82 cm**-1
  27:      1289.10 cm**-1
  28:      1305.12 cm**-1
  29:      1327.94 cm**-1
  30:      1335.67 cm**-1
  31:      1389.45 cm**-1
  32:      1396.74 cm**-1
  33:      1423.53 cm**-1
  34:      1455.23 cm**-1
  35:      1460.45 cm**-1
  36:      1474.48 cm**-1
  37:      1491.14 cm**-1
  38:      1493.52 cm**-1
  39:      1502.89 cm**-1
  40:      1657.75 cm**-1
  41:      1729.01 cm**-1
  42:      3021.99 cm**-1
  43:      3081.40 cm**-1
  44:      3092.28 cm**-1
  45:      3094.88 cm**-1
  46:      3154.65 cm**-1
  47:      3158.35 cm**-1
  48:      3165.55 cm**-1
  49:      3192.91 cm**-1
  50:      3196.69 cm**-1
  51:      3253.93 cm**-1
  52:      3440.55 cm**-1
  53:      3488.84 cm**-1

IR SPECTRUM
-----------

 Mode    freq (cm**-1)   T**2         TX         TY         TZ
-------------------------------------------------------------------
   6:        69.68    0.536523  (  0.222316  -0.652432  -0.247854)
   7:        93.04    1.891251  (  0.033345  -1.346916   0.275602)
   8:       115.90    2.308895  (  0.247668   1.473601  -0.275781)
   9:       178.94    1.560200  ( -0.415428  -0.207253   1.159597)
  10:       231.50    1.724786  (  0.036253   1.310404  -0.079458)
  11:       358.36    5.784718  (  0.052290  -0.073758  -2.403444)
  12:       364.01    1.706627  ( -1.290952  -0.186099  -0.073742)
  13:       457.83    0.154660  (  0.314048   0.232779   0.042987)
  14:       654.47   16.653396  (  3.527763   1.751168   1.068502)
  15:       775.21    8.981101  (  0.348280  -2.928341   0.533500)
  16:       829.54    6.008489  ( -0.743261  -2.332396  -0.126421)
  17:       911.80    9.147012  ( -0.172521   0.581456   2.962964)
  18:       952.44    7.371903  (  0.714975   0.855359   2.475697)
  19:       996.51   28.221919  ( -3.307272   0.334740  -4.143889)
  20:       999.39   39.216550  ( -5.415783  -3.130836   0.289317)
  21:      1027.00   28.539865  (  3.495277   1.040821   3.903793)
  22:      1028.64    1.643303  (  0.870344   0.612068  -0.714966)
  23:      1063.63    1.668227  ( -0.422420   0.430484  -1.142135)
  24:      1075.22    4.838524  (  0.509775   0.227042   2.127699)
  25:      1168.32    9.360975  ( -0.334449  -0.104828  -3.039429)
  26:      1202.82    0.221723  ( -0.194509   0.421174   0.080631)
  27:      1289.10    0.031199  ( -0.094184   0.146568   0.029101)
  28:      1305.12    1.273319  (  0.113826  -0.854300  -0.728377)
  29:      1327.94    6.671148  ( -0.451135   1.805652  -1.790879)
  30:      1335.67    2.590880  ( -0.693349  -0.415941  -1.391812)
  31:      1389.45    4.990204  (  0.945757  -0.120777   2.020188)
  32:      1396.74    0.880643  (  0.334121   0.014260   0.876814)
  33:      1423.53   60.827808  ( -1.236878  -0.498248  -7.684380)
  34:      1455.23   11.280932  ( -0.595358   2.044004  -2.597793)
  35:      1460.45    2.173752  (  1.065305   0.202175   0.999001)
  36:      1474.48    7.094195  (  1.084862  -1.560565  -1.865986)
  37:      1491.14   21.228224  ( -0.788118   0.274389  -4.531203)
  38:      1493.52   23.513844  (  0.342670   4.833510  -0.183301)
  39:      1502.89   22.055722  (  4.205664  -0.463461  -2.037969)
  40:      1657.75   45.448077  (  6.556805  -0.541725  -1.470685)
  41:      1729.01    2.800529  (  0.219141   0.977854  -1.340264)
  42:      3021.99   16.737416  ( -2.198682  -0.803298   3.355283)
  43:      3081.40    5.221289  (  0.404156  -2.226612  -0.316461)
  44:      3092.28    0.245089  ( -0.442437   0.212152  -0.065806)
  45:      3094.88    2.377220  ( -1.396338   0.430346  -0.492202)
  46:      3154.65    0.449436  ( -0.095196  -0.650852   0.129480)
  47:      3158.35    4.297781  ( -0.856230   1.764764   0.671014)
  48:      3165.55    1.470835  ( -0.366520   1.078737   0.415720)
  49:      3192.91    0.214144  (  0.461363  -0.034382  -0.010281)
  50:      3196.69    0.055376  ( -0.023092  -0.231906   0.032591)
  51:      3253.93    1.016546  (  0.428943  -0.854556  -0.319825)
  52:      3440.55   41.249144  ( -5.910423   0.295382   2.495754)
  53:      3488.84   67.660284  (  0.414876   8.201788  -0.467805)

--------------------------
THERMOCHEMISTRY AT 298.15K
--------------------------

Temperature         ... 298.15 K
Pressure            ... 1.00 atm
Total Mass          ... 86.16 AMU

Throughout the following assumptions are being made:
  (1) The electronic state is orbitally nondegenerate
  (2) There are no thermally accessible electronically excited states
  (3) Hindered rotations indicated by low frequency modes) are not
      treated as such but are treated as vibrations and this may
      case some error
  (4) All equations used are the standard statistical mechanics
      equations for an ideal gas
  (5) All vibrations are strinctly harmonic

------------
INNER ENERGY
------------

The inner energy is: U= E(el) + E(ZPE) + E(vib) + E(rot) + E(trans)
    E(el)   - is the total energy from the electronic structure calculation
              = E(kin-el) + E(nuc-el) + E(el-el) + E(nuc-nuc)
    E(ZPE)  - the the zero temperature vibrational energy from the frequency calculation
    E(vib)  - the the finite temperature correction to E(ZPE) due to population
              of excietd vibrational states
    E(rot)  - is the rotational thermal energy
    E(trans)- is the translational thermal energy

Summary of contributions to the inner energy U:
Electronic energy                ...   -252.02378629 Eh
Zero point energy                ...      0.17001572 Eh     106.69 kcal/mol
Thermal vibrational correction   ...      0.00502780 Eh       3.15 kcal/mol
Thermal rotational correction    ...      0.00141627 Eh       0.89 kcal/mol
Thermal translational correction ...      0.00141627 Eh       0.89 kcal/mol
-----------------------------------------------------------------------
Total thermal energy                   -251.84591022 Eh

Summary of corrections to the electronic energy:
(perhaps to be used in another calculation)
Total thermal correction                  0.00786034 Eh       4.93 kcal/mol
Non-thermal (ZPE) correction              0.17001572 Eh     106.69 kcal/mol
-----------------------------------------------------------------------
Total correction                          0.17787606 Eh     111.62 kcal/mol

--------
ENTHALPY
--------

The enthalpy is H = U + kB*T
                kB is Boltzmann's constant
Total free energy                 ...   -251.84591022 Eh
Thermal Enthalpy correction       ...      0.00094421 Eh       0.59 kcal/mol
-----------------------------------------------------------------------
Total Enthalpy                    ...   -251.84496601 Eh

-------
ENTROPY
-------

The entropy contributions are T*S = T*(S(el)+S(vib)+S(rot)+S(trans)
     S(el)   - electronic entropy
     S(vib)  - vibrational entropy
     S(rot)  - rotational entropy
     S(trans)- translational entropy
The entropies will be listed as mutliplied by the temperature to get
units of energy

Electronic entropy                ...      0.00000000 Eh      0.00 kcal/mol
Vibrational entropy               ...      0.00949912 Eh      5.96 kcal/mol
Rotational entropy                ...      0.01184059 Eh      7.43 kcal/mol
Translational entropy             ...      0.01866024 Eh     11.71 kcal/mol
-----------------------------------------------------------------------
Final entropy term                ...      0.03999995 Eh     25.10 kcal/mol

CAUTION: The rotational entropy is not quite correctly treated here
         because it includes a symmetry number that is not yet correctly
         implemented in ORCA!
For a nonlinear molecule the correct rotational entropy is:
    S(rot) = R*(ln(qrot/sn)+1.5)
    R    = 8.31441 J/mol/K = 1.987191683e-3 kcal/mol/K
    qrot = 187064.6959006
    sn is the rotational symmetry number. We have assumed 3 here
       if it is different for your molecule then you should correct
       the printed rotational entropy by manually evaluating the equation
       as given above

For convenience we print out the resulting values for sn=1 - 12:
 sn= 1  qrot/sn=  187064.6959 T*S(rot)=     8.08 kcal/mol T*S(tot)=    25.75 kcal/mol
 sn= 2  qrot/sn=   93532.3480 T*S(rot)=     7.67 kcal/mol T*S(tot)=    25.34 kcal/mol
 sn= 3  qrot/sn=   62354.8986 T*S(rot)=     7.43 kcal/mol T*S(tot)=    25.10 kcal/mol
 sn= 4  qrot/sn=   46766.1740 T*S(rot)=     7.26 kcal/mol T*S(tot)=    24.93 kcal/mol
 sn= 5  qrot/sn=   37412.9392 T*S(rot)=     7.13 kcal/mol T*S(tot)=    24.80 kcal/mol
 sn= 6  qrot/sn=   31177.4493 T*S(rot)=     7.02 kcal/mol T*S(tot)=    24.69 kcal/mol
 sn= 7  qrot/sn=   26723.5280 T*S(rot)=     6.93 kcal/mol T*S(tot)=    24.60 kcal/mol
 sn= 8  qrot/sn=   23383.0870 T*S(rot)=     6.85 kcal/mol T*S(tot)=    24.52 kcal/mol
 sn= 9  qrot/sn=   20784.9662 T*S(rot)=     6.78 kcal/mol T*S(tot)=    24.45 kcal/mol
 sn=10  qrot/sn=   18706.4696 T*S(rot)=     6.72 kcal/mol T*S(tot)=    24.39 kcal/mol
 sn=11  qrot/sn=   17005.8814 T*S(rot)=     6.66 kcal/mol T*S(tot)=    24.33 kcal/mol
 sn=12  qrot/sn=   15588.7247 T*S(rot)=     6.61 kcal/mol T*S(tot)=    24.28 kcal/mol

-------------------
GIBBS FREE ENTHALPY
-------------------

The Gibbs free enthalpy is G = H - T*S

Total enthalpy                    ...   -251.84496601 Eh
Total entropy correction          ...     -0.03999995 Eh    -25.10 kcal/mol
-----------------------------------------------------------------------
Final Gibbs free enthalpy         ...   -251.88496596 Eh

For completeness - the Gibbs free enthalpy minus the electronic energy
G-E(el)                           ...      0.13882032 Eh     87.11 kcal/mol

                             ****ORCA TERMINATED NORMALLY****
TOTAL RUN TIME: 0 days 0 hours 22 minutes 11 seconds 573 msec
