                         Program Version 3.0.3 - RELEASE   -
|  1> ! NORI PBE0 def2-TZVP UseSym TightOPT Freq TightSCF Grid3 FinalGrid5 XYZFile
|  2> % pal
|  3>     nprocs 8
|  4> end
|  5> %method
|  6>     SymThresh 5.0e-2
|  7> end
|  8> % geom
|  9>     MaxIter 10
| 10> end
| 11> % maxcore 2000
| 12> % output
| 13>     printlevel mini
| 14>     print[ P_Basis ] 0
| 15>     print[ P_SCFInfo ] 1
| 16>     print[ P_SCFIterInfo ] 1
| 17>     print[ P_OrbEn ] 0
| 18>     print[ P_Cartesian ] 0
| 19> end
| 20> % elprop
| 21>     Dipole false
| 22> end
| 23> *xyz 1 1
| 24>  C        1.1009005706     0.1225369254    -0.0355300306
| 25>  N        2.5786942460    -0.0334182572    -0.1340192783
| 26>  C        3.0274723860    -1.4079476452    -0.5330819940
| 27>  C        4.5450031164    -1.4886050501    -0.6100747065
| 28>  C        4.9474515633    -2.8283984956    -0.9933209148
| 29>  C        5.2546467159    -3.9415431459    -1.3116849676
| 30>  H        0.8687545487     1.1459637214     0.2533170132
| 31>  H        0.7272181767    -0.5733634504     0.7127420351
| 32>  H        0.6630146533    -0.1026246400    -1.0059245484
| 33>  H        2.9464929359     0.6429311620    -0.8065541889
| 34>  H        3.0058416705     0.2063156035     0.7634514423
| 35>  H        2.6292031563    -2.1009092013     0.2082977390
| 36>  H        2.5671558899    -1.6266224410    -1.4970950371
| 37>  H        4.9287801673    -0.7664682371    -1.3411677795
| 38>  H        4.9898444400    -1.2348408322     0.3601695277
| 39>  H        5.5419257631    -4.9290960163    -1.5941443116
| 40> *
| 41>
| 42>                          ****END OF INPUT****
 Total Charge           Charge          ....    1
 Multiplicity           Mult            ....    1
 Number of Electrons    NEL             ....   46
FINAL SINGLE POINT ENERGY      -250.767654922073

CARTESIAN COORDINATES (ANGSTROEM)
---------------------------------
  C      2.656566    1.183864    0.000000
  N      1.753205   -0.000221   -0.000000
  C      0.292502    0.340452   -0.000000
  C     -0.564553   -0.916969    0.000000
  C     -1.969010   -0.554607    0.000000
  C     -3.121914   -0.229952   -0.000000
  H      3.690563    0.843600   -0.000000
  H      2.455047    1.774134    0.891538
  H      2.455047    1.774134   -0.891538
  H      1.957203   -0.582234   -0.815352
  H      1.957203   -0.582234    0.815352
  H      0.107176    0.948816    0.885522
  H      0.107176    0.948816   -0.885522
  H     -0.343246   -1.529327   -0.882858
  H     -0.343246   -1.529327    0.882858
  H     -4.152449    0.045308   -0.000000

FINAL SINGLE POINT ENERGY      -250.767655168775
                    ***********************HURRAY********************
 Multiplicity           Mult            ....    1
 Number of Electrons    NEL             ....   46
 Basis Dimension        Dim             ....  246
FINAL SINGLE POINT ENERGY      -250.767655292231

VIBRATIONAL FREQUENCIES
-----------------------

   0:         0.00 cm**-1
   1:         0.00 cm**-1
   2:         0.00 cm**-1
   3:         0.00 cm**-1
   4:         0.00 cm**-1
   5:         0.00 cm**-1
   6:        88.52 cm**-1
   7:       100.28 cm**-1
   8:       116.53 cm**-1
   9:       230.94 cm**-1
  10:       273.63 cm**-1
  11:       335.38 cm**-1
  12:       388.87 cm**-1
  13:       506.74 cm**-1
  14:       720.65 cm**-1
  15:       742.31 cm**-1
  16:       772.55 cm**-1
  17:       829.85 cm**-1
  18:       919.19 cm**-1
  19:       991.76 cm**-1
  20:      1014.70 cm**-1
  21:      1029.16 cm**-1
  22:      1063.57 cm**-1
  23:      1136.83 cm**-1
  24:      1171.83 cm**-1
  25:      1285.60 cm**-1
  26:      1316.43 cm**-1
  27:      1330.95 cm**-1
  28:      1397.09 cm**-1
  29:      1399.10 cm**-1
  30:      1426.86 cm**-1
  31:      1461.37 cm**-1
  32:      1468.23 cm**-1
  33:      1489.94 cm**-1
  34:      1493.41 cm**-1
  35:      1502.00 cm**-1
  36:      1657.84 cm**-1
  37:      2258.67 cm**-1
  38:      3028.90 cm**-1
  39:      3068.37 cm**-1
  40:      3093.09 cm**-1
  41:      3106.36 cm**-1
  42:      3167.73 cm**-1
  43:      3194.11 cm**-1
  44:      3197.85 cm**-1
  45:      3438.30 cm**-1
  46:      3464.23 cm**-1
  47:      3486.84 cm**-1

IR SPECTRUM
-----------

 Mode    freq (cm**-1)   T**2         TX         TY         TZ
-------------------------------------------------------------------
   6:        88.52    1.969025  ( -0.000003   0.000008  -1.403220)
   7:       100.28    3.269887  (  0.000019   0.000099  -1.808283)
   8:       116.53    0.377114  ( -0.092910  -0.607027  -0.000376)
   9:       230.94    2.717989  (  0.000034  -0.000007   1.648632)
  10:       273.63    7.646293  ( -1.739275   2.149702   0.000022)
  11:       335.38   11.988617  ( -0.000362   0.000101  -3.462458)
  12:       388.87    6.088187  (  2.134750   1.237348  -0.000031)
  13:       506.74   14.955107  ( -2.325704  -3.089694   0.000027)
  14:       720.65   42.374330  (  0.000035   0.000026   6.509557)
  15:       742.31   36.902910  (  1.273062   5.939884  -0.000008)
  16:       772.55    6.791223  ( -0.000067   0.000031   2.605998)
  17:       829.85    9.217883  ( -0.000090   0.000032  -3.036097)
  18:       919.19   15.241245  (  3.893736  -0.282962  -0.000015)
  19:       991.76   17.723393  (  3.922357   1.529217   0.000009)
  20:      1014.70    0.671440  (  0.000205   0.000055  -0.819414)
  21:      1029.16   14.122526  ( -2.857984  -2.440175  -0.000052)
  22:      1063.57    0.879891  ( -0.934018   0.086607  -0.000001)
  23:      1136.83    0.002312  ( -0.000132   0.000043  -0.048088)
  24:      1171.83    8.746995  (  2.863987   0.737953   0.000008)
  25:      1285.60    0.009366  (  0.000011   0.000006   0.096781)
  26:      1316.43    1.599593  (  0.241504  -1.241478  -0.000008)
  27:      1330.95    2.862554  ( -0.000028  -0.000012  -1.691908)
  28:      1397.09    0.160470  ( -0.000360  -0.000065   0.400587)
  29:      1399.10   19.755433  ( -4.411065  -0.545838  -0.000033)
  30:      1426.86   56.757101  (  7.339882   1.698007   0.000002)
  31:      1461.37    2.589711  ( -0.955921  -1.294576  -0.000126)
  32:      1468.23    3.736475  ( -1.471296   1.253699  -0.000043)
  33:      1489.94   23.200114  (  4.628597   1.332744  -0.000509)
  34:      1493.41   24.522314  (  0.000248   0.000347   4.952001)
  35:      1502.00   23.102142  ( -2.676761   3.992129  -0.000308)
  36:      1657.84   46.392261  ( -1.966064   6.521262  -0.000029)
  37:      2258.67    4.387591  ( -2.081512   0.234307   0.000000)
  38:      3028.90   15.450421  (  3.687712  -1.360587   0.000009)
  39:      3068.37    1.182525  ( -0.000069   0.000027  -1.087440)
  40:      3093.09    0.002286  ( -0.040473   0.025447   0.000007)
  41:      3106.36    0.906351  (  0.601135   0.738233   0.000003)
  42:      3167.73    0.011562  (  0.000005   0.000011  -0.107529)
  43:      3194.11    0.307778  ( -0.177525   0.525607   0.000059)
  44:      3197.85    0.146288  ( -0.000027   0.000075  -0.382476)
  45:      3438.30   45.643993  ( -3.114950   5.995088  -0.000098)
  46:      3464.23   92.365670  ( -9.390319   2.046356   0.000002)
  47:      3486.84   72.053134  (  0.000031  -0.000099  -8.488412)

--------------------------
THERMOCHEMISTRY AT 298.15K
--------------------------

Temperature         ... 298.15 K
Pressure            ... 1.00 atm
Total Mass          ... 84.14 AMU

Throughout the following assumptions are being made:
  (1) The electronic state is orbitally nondegenerate
  (2) There are no thermally accessible electronically excited states
  (3) Hindered rotations indicated by low frequency modes) are not
      treated as such but are treated as vibrations and this may
      case some error
  (4) All equations used are the standard statistical mechanics
      equations for an ideal gas
  (5) All vibrations are strinctly harmonic

------------
INNER ENERGY
------------

The inner energy is: U= E(el) + E(ZPE) + E(vib) + E(rot) + E(trans)
    E(el)   - is the total energy from the electronic structure calculation
              = E(kin-el) + E(nuc-el) + E(el-el) + E(nuc-nuc)
    E(ZPE)  - the the zero temperature vibrational energy from the frequency calculation
    E(vib)  - the the finite temperature correction to E(ZPE) due to population
              of excietd vibrational states
    E(rot)  - is the rotational thermal energy
    E(trans)- is the translational thermal energy

Summary of contributions to the inner energy U:
Electronic energy                ...   -250.76765529 Eh
Zero point energy                ...      0.14618227 Eh      91.73 kcal/mol
Thermal vibrational correction   ...      0.00474624 Eh       2.98 kcal/mol
Thermal rotational correction    ...      0.00141627 Eh       0.89 kcal/mol
Thermal translational correction ...      0.00141627 Eh       0.89 kcal/mol
-----------------------------------------------------------------------
Total thermal energy                   -250.61389424 Eh

Summary of corrections to the electronic energy:
(perhaps to be used in another calculation)
Total thermal correction                  0.00757879 Eh       4.76 kcal/mol
Non-thermal (ZPE) correction              0.14618227 Eh      91.73 kcal/mol
-----------------------------------------------------------------------
Total correction                          0.15376105 Eh      96.49 kcal/mol

--------
ENTHALPY
--------

The enthalpy is H = U + kB*T
                kB is Boltzmann's constant
Total free energy                 ...   -250.61389424 Eh
Thermal Enthalpy correction       ...      0.00094421 Eh       0.59 kcal/mol
-----------------------------------------------------------------------
Total Enthalpy                    ...   -250.61295003 Eh

-------
ENTROPY
-------

The entropy contributions are T*S = T*(S(el)+S(vib)+S(rot)+S(trans)
     S(el)   - electronic entropy
     S(vib)  - vibrational entropy
     S(rot)  - rotational entropy
     S(trans)- translational entropy
The entropies will be listed as mutliplied by the temperature to get
units of energy

Electronic entropy                ...      0.00000000 Eh      0.00 kcal/mol
Vibrational entropy               ...      0.00871943 Eh      5.47 kcal/mol
Rotational entropy                ...      0.01175708 Eh      7.38 kcal/mol
Translational entropy             ...      0.01862670 Eh     11.69 kcal/mol
-----------------------------------------------------------------------
Final entropy term                ...      0.03910321 Eh     24.54 kcal/mol

CAUTION: The rotational entropy is not quite correctly treated here
         because it includes a symmetry number that is not yet correctly
         implemented in ORCA!
For a nonlinear molecule the correct rotational entropy is:
    S(rot) = R*(ln(qrot/sn)+1.5)
    R    = 8.31441 J/mol/K = 1.987191683e-3 kcal/mol/K
    qrot = 171228.7244265
    sn is the rotational symmetry number. We have assumed 3 here
       if it is different for your molecule then you should correct
       the printed rotational entropy by manually evaluating the equation
       as given above

For convenience we print out the resulting values for sn=1 - 12:
 sn= 1  qrot/sn=  171228.7244 T*S(rot)=     8.03 kcal/mol T*S(tot)=    25.19 kcal/mol
 sn= 2  qrot/sn=   85614.3622 T*S(rot)=     7.62 kcal/mol T*S(tot)=    24.78 kcal/mol
 sn= 3  qrot/sn=   57076.2415 T*S(rot)=     7.38 kcal/mol T*S(tot)=    24.54 kcal/mol
 sn= 4  qrot/sn=   42807.1811 T*S(rot)=     7.21 kcal/mol T*S(tot)=    24.37 kcal/mol
 sn= 5  qrot/sn=   34245.7449 T*S(rot)=     7.08 kcal/mol T*S(tot)=    24.23 kcal/mol
 sn= 6  qrot/sn=   28538.1207 T*S(rot)=     6.97 kcal/mol T*S(tot)=    24.13 kcal/mol
 sn= 7  qrot/sn=   24461.2463 T*S(rot)=     6.88 kcal/mol T*S(tot)=    24.04 kcal/mol
 sn= 8  qrot/sn=   21403.5906 T*S(rot)=     6.80 kcal/mol T*S(tot)=    23.96 kcal/mol
 sn= 9  qrot/sn=   19025.4138 T*S(rot)=     6.73 kcal/mol T*S(tot)=    23.89 kcal/mol
 sn=10  qrot/sn=   17122.8724 T*S(rot)=     6.66 kcal/mol T*S(tot)=    23.82 kcal/mol
 sn=11  qrot/sn=   15566.2477 T*S(rot)=     6.61 kcal/mol T*S(tot)=    23.77 kcal/mol
 sn=12  qrot/sn=   14269.0604 T*S(rot)=     6.56 kcal/mol T*S(tot)=    23.72 kcal/mol

-------------------
GIBBS FREE ENTHALPY
-------------------

The Gibbs free enthalpy is G = H - T*S

Total enthalpy                    ...   -250.61295003 Eh
Total entropy correction          ...     -0.03910321 Eh    -24.54 kcal/mol
-----------------------------------------------------------------------
Final Gibbs free enthalpy         ...   -250.65205323 Eh

For completeness - the Gibbs free enthalpy minus the electronic energy
G-E(el)                           ...      0.11560206 Eh     72.54 kcal/mol

                             ****ORCA TERMINATED NORMALLY****
TOTAL RUN TIME: 0 days 0 hours 15 minutes 38 seconds 517 msec
