                         Program Version 3.0.3 - RELEASE   -
|  1> ! NORI PBE0 def2-TZVP UseSym TightOPT Freq TightSCF Grid3 FinalGrid5 XYZFile
|  2> % pal
|  3>     nprocs 8
|  4> end
|  5> %method
|  6>     SymThresh 5.0e-2
|  7> end
|  8> % geom
|  9>     MaxIter 10
| 10> end
| 11> % maxcore 2000
| 12> % output
| 13>     printlevel mini
| 14>     print[ P_Basis ] 0
| 15>     print[ P_SCFInfo ] 1
| 16>     print[ P_SCFIterInfo ] 1
| 17>     print[ P_OrbEn ] 0
| 18>     print[ P_Cartesian ] 0
| 19> end
| 20> % elprop
| 21>     Dipole false
| 22> end
| 23> *xyz 1 1
| 24>  C        0.8010964000     0.1411171111    -0.3097811136
| 25>  N        2.2634998095     0.0201029788    -0.0488973861
| 26>  C        2.5508045820    -0.2262564043     1.3953134234
| 27>  C        2.8768285239    -1.0251845708    -0.9334056950
| 28>  C        4.3217788260    -1.0210055336    -0.8004372831
| 29>  N        5.4620899821    -0.9832917380    -0.6734186533
| 30>  H        0.6415762447     0.3822823573    -1.3594129932
| 31>  H        0.4001646272     0.9326574698     0.3203437154
| 32>  H        0.3249649033    -0.8067648038    -0.0631576590
| 33>  H        2.6996239644     0.9119260175    -0.2973240065
| 34>  H        2.0766647581    -1.1631062475     1.6846636815
| 35>  H        2.1378364957     0.5973240251     1.9743312211
| 36>  H        3.6285819716    -0.2849882368     1.5385625842
| 37>  H        2.4621021866    -1.9941581548    -0.6460167218
| 38>  H        2.5902167250    -0.8130942700    -1.9656931140
| 39> *
| 40>
| 41>                          ****END OF INPUT****
 Total Charge           Charge          ....    1
 Multiplicity           Mult            ....    1
 Number of Electrons    NEL             ....   46
FINAL SINGLE POINT ENERGY      -266.834830587443

CARTESIAN COORDINATES (ANGSTROEM)
---------------------------------
  C     -0.723750    0.524132    2.066239
  N      0.000367   -0.000222    0.873677
  C     -0.141193   -1.481058    0.745821
  C     -0.433741    0.718789   -0.369865
  C      0.391665    0.329205   -1.498009
  N      1.069510    0.001362   -2.364551
  H     -0.541622    1.593898    2.155938
  H     -0.356566    0.007114    2.950675
  H     -1.787941    0.331206    1.938445
  H      0.995895    0.199874    1.000102
  H     -1.198408   -1.716029    0.630506
  H      0.249147   -1.943945    1.650079
  H      0.420709   -1.818698   -0.123532
  H     -1.482579    0.472795   -0.551212
  H     -0.350896    1.793238   -0.192346

FINAL SINGLE POINT ENERGY      -266.834830933921
                    ***********************HURRAY********************
 Multiplicity           Mult            ....    1
 Number of Electrons    NEL             ....   46
 Basis Dimension        Dim             ....  240
FINAL SINGLE POINT ENERGY      -266.834831051975

VIBRATIONAL FREQUENCIES
-----------------------

   0:         0.00 cm**-1
   1:         0.00 cm**-1
   2:         0.00 cm**-1
   3:         0.00 cm**-1
   4:         0.00 cm**-1
   5:         0.00 cm**-1
   6:        84.79 cm**-1
   7:       154.48 cm**-1
   8:       211.54 cm**-1
   9:       254.12 cm**-1
  10:       349.90 cm**-1
  11:       368.78 cm**-1
  12:       380.66 cm**-1
  13:       438.56 cm**-1
  14:       553.89 cm**-1
  15:       841.81 cm**-1
  16:       943.07 cm**-1
  17:       967.62 cm**-1
  18:      1005.37 cm**-1
  19:      1023.10 cm**-1
  20:      1052.06 cm**-1
  21:      1159.05 cm**-1
  22:      1189.06 cm**-1
  23:      1252.36 cm**-1
  24:      1306.98 cm**-1
  25:      1374.40 cm**-1
  26:      1418.49 cm**-1
  27:      1439.41 cm**-1
  28:      1444.40 cm**-1
  29:      1459.64 cm**-1
  30:      1473.47 cm**-1
  31:      1481.72 cm**-1
  32:      1487.96 cm**-1
  33:      1498.02 cm**-1
  34:      1505.98 cm**-1
  35:      2401.76 cm**-1
  36:      3086.27 cm**-1
  37:      3087.68 cm**-1
  38:      3090.73 cm**-1
  39:      3144.06 cm**-1
  40:      3188.69 cm**-1
  41:      3190.08 cm**-1
  42:      3192.44 cm**-1
  43:      3195.01 cm**-1
  44:      3442.14 cm**-1

IR SPECTRUM
-----------

 Mode    freq (cm**-1)   T**2         TX         TY         TZ
-------------------------------------------------------------------
   6:        84.79    7.995618  (  1.663085   2.076468   0.958149)
   7:       154.48   11.433618  (  0.911336  -1.862782   2.670792)
   8:       211.54    0.282089  ( -0.155383  -0.504470   0.058782)
   9:       254.12    0.234017  ( -0.075336  -0.136990  -0.457794)
  10:       349.90    0.985897  ( -0.644297   0.453171   0.604495)
  11:       368.78    0.105845  ( -0.014839  -0.085919  -0.313437)
  12:       380.66    0.489122  (  0.338340  -0.605233   0.091325)
  13:       438.56    0.244900  ( -0.192249   0.453713   0.045658)
  14:       553.89    3.133809  ( -0.328967   0.149195   1.733012)
  15:       841.81    3.433288  (  1.324263   0.654102   1.118823)
  16:       943.07   17.234509  (  0.463983  -2.540548   3.250360)
  17:       967.62    4.245553  (  0.750921  -1.535105  -1.151140)
  18:      1005.37   22.157595  ( -1.196312  -1.412292   4.328032)
  19:      1023.10   13.753407  ( -1.127269   2.851528   2.086015)
  20:      1052.06    3.317911  ( -0.381198   1.225676   1.292408)
  21:      1159.05    1.895579  (  0.694815  -1.158224   0.267074)
  22:      1189.06    2.115725  ( -0.082227  -0.603330  -1.320968)
  23:      1252.36    0.021410  (  0.012789  -0.139454   0.042413)
  24:      1306.98    0.290026  ( -0.449756  -0.276099  -0.107307)
  25:      1374.40    0.958876  (  0.953832   0.014661   0.221058)
  26:      1418.49   12.791685  (  1.209920  -2.214344  -2.534651)
  27:      1439.41   14.930696  ( -1.733714  -0.598130   3.401055)
  28:      1444.40    8.086894  ( -0.500606   2.754068   0.501395)
  29:      1459.64    2.704738  ( -0.755150   1.106186  -0.954379)
  30:      1473.47    7.690826  (  1.385077   2.387842  -0.265706)
  31:      1481.72    4.976024  ( -2.157339   0.336965   0.456475)
  32:      1487.96   34.266156  (  2.237347  -4.058055  -3.576678)
  33:      1498.02   25.055738  ( -2.810200  -3.102813   2.744278)
  34:      1505.98   53.742260  ( -5.360742   2.088821  -4.543295)
  35:      2401.76    7.735239  ( -1.260994   0.393039   2.447581)
  36:      3086.27    0.551260  ( -0.027979  -0.008114   0.741897)
  37:      3087.68    1.517685  ( -0.709554   0.944398  -0.349759)
  38:      3090.73    1.099364  (  0.724925  -0.683485   0.326644)
  39:      3144.06    5.348700  ( -1.361819  -1.729863  -0.708324)
  40:      3188.69    0.087603  ( -0.233830  -0.172139   0.057404)
  41:      3190.08    0.590212  (  0.556282   0.140258  -0.510970)
  42:      3192.44    0.329541  ( -0.346521   0.362927   0.278833)
  43:      3195.01    1.337585  (  0.137598  -0.350289   1.093595)
  44:      3442.14   69.596331  (  8.041111   1.587456   1.554619)

--------------------------
THERMOCHEMISTRY AT 298.15K
--------------------------

Temperature         ... 298.15 K
Pressure            ... 1.00 atm
Total Mass          ... 85.13 AMU

Throughout the following assumptions are being made:
  (1) The electronic state is orbitally nondegenerate
  (2) There are no thermally accessible electronically excited states
  (3) Hindered rotations indicated by low frequency modes) are not
      treated as such but are treated as vibrations and this may
      case some error
  (4) All equations used are the standard statistical mechanics
      equations for an ideal gas
  (5) All vibrations are strinctly harmonic

------------
INNER ENERGY
------------

The inner energy is: U= E(el) + E(ZPE) + E(vib) + E(rot) + E(trans)
    E(el)   - is the total energy from the electronic structure calculation
              = E(kin-el) + E(nuc-el) + E(el-el) + E(nuc-nuc)
    E(ZPE)  - the the zero temperature vibrational energy from the frequency calculation
    E(vib)  - the the finite temperature correction to E(ZPE) due to population
              of excietd vibrational states
    E(rot)  - is the rotational thermal energy
    E(trans)- is the translational thermal energy

Summary of contributions to the inner energy U:
Electronic energy                ...   -266.83483105 Eh
Zero point energy                ...      0.13472977 Eh      84.54 kcal/mol
Thermal vibrational correction   ...      0.00429111 Eh       2.69 kcal/mol
Thermal rotational correction    ...      0.00141627 Eh       0.89 kcal/mol
Thermal translational correction ...      0.00141627 Eh       0.89 kcal/mol
-----------------------------------------------------------------------
Total thermal energy                   -266.69297763 Eh

Summary of corrections to the electronic energy:
(perhaps to be used in another calculation)
Total thermal correction                  0.00712365 Eh       4.47 kcal/mol
Non-thermal (ZPE) correction              0.13472977 Eh      84.54 kcal/mol
-----------------------------------------------------------------------
Total correction                          0.14185342 Eh      89.01 kcal/mol

--------
ENTHALPY
--------

The enthalpy is H = U + kB*T
                kB is Boltzmann's constant
Total free energy                 ...   -266.69297763 Eh
Thermal Enthalpy correction       ...      0.00094421 Eh       0.59 kcal/mol
-----------------------------------------------------------------------
Total Enthalpy                    ...   -266.69203342 Eh

-------
ENTROPY
-------

The entropy contributions are T*S = T*(S(el)+S(vib)+S(rot)+S(trans)
     S(el)   - electronic entropy
     S(vib)  - vibrational entropy
     S(rot)  - rotational entropy
     S(trans)- translational entropy
The entropies will be listed as mutliplied by the temperature to get
units of energy

Electronic entropy                ...      0.00000000 Eh      0.00 kcal/mol
Vibrational entropy               ...      0.00747306 Eh      4.69 kcal/mol
Rotational entropy                ...      0.01167332 Eh      7.33 kcal/mol
Translational entropy             ...      0.01864324 Eh     11.70 kcal/mol
-----------------------------------------------------------------------
Final entropy term                ...      0.03778961 Eh     23.71 kcal/mol

CAUTION: The rotational entropy is not quite correctly treated here
         because it includes a symmetry number that is not yet correctly
         implemented in ORCA!
For a nonlinear molecule the correct rotational entropy is:
    S(rot) = R*(ln(qrot/sn)+1.5)
    R    = 8.31441 J/mol/K = 1.987191683e-3 kcal/mol/K
    qrot = 156693.5959094
    sn is the rotational symmetry number. We have assumed 3 here
       if it is different for your molecule then you should correct
       the printed rotational entropy by manually evaluating the equation
       as given above

For convenience we print out the resulting values for sn=1 - 12:
 sn= 1  qrot/sn=  156693.5959 T*S(rot)=     7.98 kcal/mol T*S(tot)=    24.36 kcal/mol
 sn= 2  qrot/sn=   78346.7980 T*S(rot)=     7.57 kcal/mol T*S(tot)=    23.95 kcal/mol
 sn= 3  qrot/sn=   52231.1986 T*S(rot)=     7.33 kcal/mol T*S(tot)=    23.71 kcal/mol
 sn= 4  qrot/sn=   39173.3990 T*S(rot)=     7.15 kcal/mol T*S(tot)=    23.54 kcal/mol
 sn= 5  qrot/sn=   31338.7192 T*S(rot)=     7.02 kcal/mol T*S(tot)=    23.41 kcal/mol
 sn= 6  qrot/sn=   26115.5993 T*S(rot)=     6.91 kcal/mol T*S(tot)=    23.30 kcal/mol
 sn= 7  qrot/sn=   22384.7994 T*S(rot)=     6.82 kcal/mol T*S(tot)=    23.21 kcal/mol
 sn= 8  qrot/sn=   19586.6995 T*S(rot)=     6.74 kcal/mol T*S(tot)=    23.13 kcal/mol
 sn= 9  qrot/sn=   17410.3995 T*S(rot)=     6.67 kcal/mol T*S(tot)=    23.06 kcal/mol
 sn=10  qrot/sn=   15669.3596 T*S(rot)=     6.61 kcal/mol T*S(tot)=    23.00 kcal/mol
 sn=11  qrot/sn=   14244.8724 T*S(rot)=     6.56 kcal/mol T*S(tot)=    22.94 kcal/mol
 sn=12  qrot/sn=   13057.7997 T*S(rot)=     6.50 kcal/mol T*S(tot)=    22.89 kcal/mol

-------------------
GIBBS FREE ENTHALPY
-------------------

The Gibbs free enthalpy is G = H - T*S

Total enthalpy                    ...   -266.69203342 Eh
Total entropy correction          ...     -0.03778961 Eh    -23.71 kcal/mol
-----------------------------------------------------------------------
Final Gibbs free enthalpy         ...   -266.72982304 Eh

For completeness - the Gibbs free enthalpy minus the electronic energy
G-E(el)                           ...      0.10500802 Eh     65.89 kcal/mol

                             ****ORCA TERMINATED NORMALLY****
TOTAL RUN TIME: 0 days 0 hours 17 minutes 0 seconds 988 msec
