                         Program Version 3.0.3 - RELEASE   -
|  1> ! NORI PBE0 def2-TZVP UseSym TightOPT Freq TightSCF Grid3 FinalGrid5 XYZFile
|  2> % pal
|  3>     nprocs 8
|  4> end
|  5> %method
|  6>     SymThresh 5.0e-2
|  7> end
|  8> % geom
|  9>     MaxIter 10
| 10> end
| 11> % maxcore 2000
| 12> % output
| 13>     printlevel mini
| 14>     print[ P_Basis ] 0
| 15>     print[ P_SCFInfo ] 1
| 16>     print[ P_SCFIterInfo ] 1
| 17>     print[ P_OrbEn ] 0
| 18>     print[ P_Cartesian ] 0
| 19> end
| 20> % elprop
| 21>     Dipole false
| 22> end
| 23> *xyz 1 1
| 24>  C        2.6475445796     1.1139140016    -0.9346777491
| 25>  N        2.3199442764    -0.0183355652    -0.0185300104
| 26>  C        2.8712539936     0.1045048601     1.3858397243
| 27>  C        2.3850805984    -1.0462565447     2.2479446833
| 28>  C        4.3242670630     0.1602890677     1.2849137977
| 29>  N        5.4675141486     0.1804040835     1.1798710955
| 30>  H        2.1952920661     0.9159403264    -1.9045826174
| 31>  H        3.7298616740     1.1812784884    -1.0277303781
| 32>  H        2.2444893383     2.0312420595    -0.5101143357
| 33>  H        2.6646189397    -0.8938632710    -0.4222408759
| 34>  H        1.3049640675    -0.1198058127     0.0560448043
| 35>  H        2.5046128790     1.0624839852     1.7664402596
| 36>  H        2.7315202647    -2.0074538516     1.8633315380
| 37>  H        1.2950531724    -1.0451496400     2.3167257382
| 38>  H        2.7842829387    -0.9271521872     3.2552243258
| 39> *
| 40>
| 41>                          ****END OF INPUT****
 Total Charge           Charge          ....    1
 Multiplicity           Mult            ....    1
 Number of Electrons    NEL             ....   46
FINAL SINGLE POINT ENERGY      -266.843364692726

CARTESIAN COORDINATES (ANGSTROEM)
---------------------------------
  C      0.866043   -1.183901    1.539726
  N      0.000301    0.000033    1.261851
  C     -0.684020   -0.000708   -0.088568
  C     -1.615162    1.191781   -0.211158
  C      0.356411   -0.011925   -1.109252
  N      1.194983    0.000989   -1.893487
  H      1.295118   -1.072715    2.533834
  H      1.653261   -1.220606    0.789053
  H      0.252428   -2.081512    1.491515
  H      0.557940    0.855441    1.337633
  H     -0.727621    0.070733    1.976832
  H     -1.241297   -0.940919   -0.138880
  H     -1.068551    2.134403   -0.143326
  H     -2.391746    1.157219    0.555910
  H     -2.104528    1.159803   -1.184789

FINAL SINGLE POINT ENERGY      -266.843365128409
                    ***********************HURRAY********************
 Multiplicity           Mult            ....    1
 Number of Electrons    NEL             ....   46
 Basis Dimension        Dim             ....  240
FINAL SINGLE POINT ENERGY      -266.843365436982

VIBRATIONAL FREQUENCIES
-----------------------

   0:         0.00 cm**-1
   1:         0.00 cm**-1
   2:         0.00 cm**-1
   3:         0.00 cm**-1
   4:         0.00 cm**-1
   5:         0.00 cm**-1
   6:        98.57 cm**-1
   7:       159.39 cm**-1
   8:       211.66 cm**-1
   9:       226.98 cm**-1
  10:       269.40 cm**-1
  11:       270.05 cm**-1
  12:       408.94 cm**-1
  13:       553.41 cm**-1
  14:       580.33 cm**-1
  15:       768.74 cm**-1
  16:       855.89 cm**-1
  17:       901.38 cm**-1
  18:      1007.98 cm**-1
  19:      1020.79 cm**-1
  20:      1081.59 cm**-1
  21:      1104.50 cm**-1
  22:      1173.10 cm**-1
  23:      1210.56 cm**-1
  24:      1332.04 cm**-1
  25:      1335.43 cm**-1
  26:      1410.13 cm**-1
  27:      1412.10 cm**-1
  28:      1428.31 cm**-1
  29:      1458.42 cm**-1
  30:      1475.62 cm**-1
  31:      1488.18 cm**-1
  32:      1494.12 cm**-1
  33:      1496.29 cm**-1
  34:      1644.91 cm**-1
  35:      2396.16 cm**-1
  36:      3064.87 cm**-1
  37:      3090.91 cm**-1
  38:      3092.01 cm**-1
  39:      3151.08 cm**-1
  40:      3162.35 cm**-1
  41:      3194.88 cm**-1
  42:      3197.21 cm**-1
  43:      3426.71 cm**-1
  44:      3480.81 cm**-1

IR SPECTRUM
-----------

 Mode    freq (cm**-1)   T**2         TX         TY         TZ
-------------------------------------------------------------------
   6:        98.57    2.755727  ( -1.597002   0.216173  -0.398223)
   7:       159.39    8.631938  ( -0.383561   1.229954  -2.640460)
   8:       211.66    2.600069  ( -0.123509  -1.502729  -0.571508)
   9:       226.98    0.399872  ( -0.630054   0.037452   0.038744)
  10:       269.40    2.666369  ( -1.631332   0.070182  -0.014149)
  11:       270.05    3.354657  ( -0.319519   0.061764  -1.802429)
  12:       408.94    1.232681  ( -0.747645   0.695678  -0.435592)
  13:       553.41    3.595771  (  1.039713   0.195938  -1.573650)
  14:       580.33    1.103726  (  0.229651   0.218375  -1.001648)
  15:       768.74    3.027139  (  0.361713   1.123421  -1.278369)
  16:       855.89    6.252997  (  2.064082   1.231256  -0.690340)
  17:       901.38    6.460768  (  0.861091   0.281725  -2.374852)
  18:      1007.98    7.038008  (  0.667953  -2.336960   1.063233)
  19:      1020.79   22.261680  ( -3.787002   0.530113  -2.763924)
  20:      1081.59   16.954238  (  1.335758  -0.700832   3.831295)
  21:      1104.50   20.651493  ( -0.346592   1.336291  -4.329630)
  22:      1173.10    6.152476  (  2.397230  -0.185881   0.609274)
  23:      1210.56    2.834367  ( -1.056581   1.163612   0.603333)
  24:      1332.04    6.272480  ( -0.504431   1.046136  -2.218925)
  25:      1335.43    1.801986  (  0.673630   0.665120  -0.951748)
  26:      1410.13   25.967846  ( -4.809998   1.657316   0.291661)
  27:      1412.10   42.910562  (  2.509702  -3.879718   4.643248)
  28:      1428.31    6.423824  ( -1.556545   0.434853  -1.952408)
  29:      1458.42    6.980487  ( -1.378260   1.707551  -1.471447)
  30:      1475.62   10.557240  ( -2.190822  -1.335119  -1.993739)
  31:      1488.18    3.556653  (  1.258153   0.345416  -1.361761)
  32:      1494.12   23.163607  ( -0.524019  -1.229419   4.623585)
  33:      1496.29   30.357096  (  4.643745   2.666013   1.298116)
  34:      1644.91   58.362140  ( -0.940212   5.492653   5.225792)
  35:      2396.16    6.784035  (  1.335614   0.109427  -2.233427)
  36:      3064.87    4.414919  (  0.717374  -0.215553   1.963118)
  37:      3090.91    1.209890  ( -1.038757  -0.281282  -0.227495)
  38:      3092.01    0.801398  (  0.315272   0.804876   0.232757)
  39:      3151.08    0.657661  ( -0.709404  -0.169270   0.354619)
  40:      3162.35    2.066583  ( -1.031998   0.364180  -0.932167)
  41:      3194.88    0.948226  (  0.216670   0.435197   0.843732)
  42:      3197.21    1.562126  (  0.734203   0.135476  -1.002356)
  43:      3426.71   55.083856  ( -0.262199  -5.517721  -4.956800)
  44:      3480.81   80.553834  (  7.067705   3.592181  -4.206854)

--------------------------
THERMOCHEMISTRY AT 298.15K
--------------------------

Temperature         ... 298.15 K
Pressure            ... 1.00 atm
Total Mass          ... 85.13 AMU

Throughout the following assumptions are being made:
  (1) The electronic state is orbitally nondegenerate
  (2) There are no thermally accessible electronically excited states
  (3) Hindered rotations indicated by low frequency modes) are not
      treated as such but are treated as vibrations and this may
      case some error
  (4) All equations used are the standard statistical mechanics
      equations for an ideal gas
  (5) All vibrations are strinctly harmonic

------------
INNER ENERGY
------------

The inner energy is: U= E(el) + E(ZPE) + E(vib) + E(rot) + E(trans)
    E(el)   - is the total energy from the electronic structure calculation
              = E(kin-el) + E(nuc-el) + E(el-el) + E(nuc-nuc)
    E(ZPE)  - the the zero temperature vibrational energy from the frequency calculation
    E(vib)  - the the finite temperature correction to E(ZPE) due to population
              of excietd vibrational states
    E(rot)  - is the rotational thermal energy
    E(trans)- is the translational thermal energy

Summary of contributions to the inner energy U:
Electronic energy                ...   -266.84336544 Eh
Zero point energy                ...      0.13472125 Eh      84.54 kcal/mol
Thermal vibrational correction   ...      0.00443592 Eh       2.78 kcal/mol
Thermal rotational correction    ...      0.00141627 Eh       0.89 kcal/mol
Thermal translational correction ...      0.00141627 Eh       0.89 kcal/mol
-----------------------------------------------------------------------
Total thermal energy                   -266.70137572 Eh

Summary of corrections to the electronic energy:
(perhaps to be used in another calculation)
Total thermal correction                  0.00726846 Eh       4.56 kcal/mol
Non-thermal (ZPE) correction              0.13472125 Eh      84.54 kcal/mol
-----------------------------------------------------------------------
Total correction                          0.14198972 Eh      89.10 kcal/mol

--------
ENTHALPY
--------

The enthalpy is H = U + kB*T
                kB is Boltzmann's constant
Total free energy                 ...   -266.70137572 Eh
Thermal Enthalpy correction       ...      0.00094421 Eh       0.59 kcal/mol
-----------------------------------------------------------------------
Total Enthalpy                    ...   -266.70043151 Eh

-------
ENTROPY
-------

The entropy contributions are T*S = T*(S(el)+S(vib)+S(rot)+S(trans)
     S(el)   - electronic entropy
     S(vib)  - vibrational entropy
     S(rot)  - rotational entropy
     S(trans)- translational entropy
The entropies will be listed as mutliplied by the temperature to get
units of energy

Electronic entropy                ...      0.00000000 Eh      0.00 kcal/mol
Vibrational entropy               ...      0.00770568 Eh      4.84 kcal/mol
Rotational entropy                ...      0.01175385 Eh      7.38 kcal/mol
Translational entropy             ...      0.01864324 Eh     11.70 kcal/mol
-----------------------------------------------------------------------
Final entropy term                ...      0.03810277 Eh     23.91 kcal/mol

CAUTION: The rotational entropy is not quite correctly treated here
         because it includes a symmetry number that is not yet correctly
         implemented in ORCA!
For a nonlinear molecule the correct rotational entropy is:
    S(rot) = R*(ln(qrot/sn)+1.5)
    R    = 8.31441 J/mol/K = 1.987191683e-3 kcal/mol/K
    qrot = 170644.3256278
    sn is the rotational symmetry number. We have assumed 3 here
       if it is different for your molecule then you should correct
       the printed rotational entropy by manually evaluating the equation
       as given above

For convenience we print out the resulting values for sn=1 - 12:
 sn= 1  qrot/sn=  170644.3256 T*S(rot)=     8.03 kcal/mol T*S(tot)=    24.56 kcal/mol
 sn= 2  qrot/sn=   85322.1628 T*S(rot)=     7.62 kcal/mol T*S(tot)=    24.15 kcal/mol
 sn= 3  qrot/sn=   56881.4419 T*S(rot)=     7.38 kcal/mol T*S(tot)=    23.91 kcal/mol
 sn= 4  qrot/sn=   42661.0814 T*S(rot)=     7.21 kcal/mol T*S(tot)=    23.74 kcal/mol
 sn= 5  qrot/sn=   34128.8651 T*S(rot)=     7.07 kcal/mol T*S(tot)=    23.61 kcal/mol
 sn= 6  qrot/sn=   28440.7209 T*S(rot)=     6.96 kcal/mol T*S(tot)=    23.50 kcal/mol
 sn= 7  qrot/sn=   24377.7608 T*S(rot)=     6.87 kcal/mol T*S(tot)=    23.41 kcal/mol
 sn= 8  qrot/sn=   21330.5407 T*S(rot)=     6.79 kcal/mol T*S(tot)=    23.33 kcal/mol
 sn= 9  qrot/sn=   18960.4806 T*S(rot)=     6.72 kcal/mol T*S(tot)=    23.26 kcal/mol
 sn=10  qrot/sn=   17064.4326 T*S(rot)=     6.66 kcal/mol T*S(tot)=    23.20 kcal/mol
 sn=11  qrot/sn=   15513.1205 T*S(rot)=     6.61 kcal/mol T*S(tot)=    23.14 kcal/mol
 sn=12  qrot/sn=   14220.3605 T*S(rot)=     6.55 kcal/mol T*S(tot)=    23.09 kcal/mol

-------------------
GIBBS FREE ENTHALPY
-------------------

The Gibbs free enthalpy is G = H - T*S

Total enthalpy                    ...   -266.70043151 Eh
Total entropy correction          ...     -0.03810277 Eh    -23.91 kcal/mol
-----------------------------------------------------------------------
Final Gibbs free enthalpy         ...   -266.73853428 Eh

For completeness - the Gibbs free enthalpy minus the electronic energy
G-E(el)                           ...      0.10483116 Eh     65.78 kcal/mol

                             ****ORCA TERMINATED NORMALLY****
TOTAL RUN TIME: 0 days 0 hours 16 minutes 38 seconds 598 msec
