                         Program Version 3.0.3 - RELEASE   -
|  1> ! NORI PBE0 def2-TZVP UseSym TightOPT Freq TightSCF Grid3 FinalGrid5 XYZFile
|  2> % pal
|  3>     nprocs 8
|  4> end
|  5> %method
|  6>     SymThresh 5.0e-2
|  7> end
|  8> % geom
|  9>     MaxIter 10
| 10> end
| 11> % maxcore 2000
| 12> % output
| 13>     printlevel mini
| 14>     print[ P_Basis ] 0
| 15>     print[ P_SCFInfo ] 1
| 16>     print[ P_SCFIterInfo ] 1
| 17>     print[ P_OrbEn ] 0
| 18>     print[ P_Cartesian ] 0
| 19> end
| 20> % elprop
| 21>     Dipole false
| 22> end
| 23> *xyz 1 1
| 24>  C        1.3148896107    -0.2260358164    -0.3221539300
| 25>  N        2.7876633629    -0.0903779478    -0.1228701883
| 26>  C        3.2000077577     1.2244205187     0.4617264738
| 27>  C        4.7115638306     1.3016884910     0.6393169524
| 28>  C        5.0605123062     2.5909490645     1.2126691556
| 29>  N        5.2924020960     3.6194653117     1.6665962989
| 30>  H        1.1051256091    -1.2052724709    -0.7488495368
| 31>  H        0.9827854789     0.5588604473    -0.9988300021
| 32>  H        0.8226590473    -0.1233977178     0.6427996559
| 33>  H        3.2611673979    -0.2246723640    -1.0194265665
| 34>  H        3.1151548616    -0.8467149620     0.4827612811
| 35>  H        2.6826410790     1.3264360694     1.4159248859
| 36>  H        2.8393117950     2.0016432193    -0.2125238139
| 37>  H        5.2313716472     1.1938715180    -0.3188948536
| 38>  H        5.0745541199     0.5128866388     1.3071641875
| 39> *
| 40>
| 41>                          ****END OF INPUT****
 Total Charge           Charge          ....    1
 Multiplicity           Mult            ....    1
 Number of Electrons    NEL             ....   46
FINAL SINGLE POINT ENERGY      -266.846401251163

CARTESIAN COORDINATES (ANGSTROEM)
---------------------------------
  C      2.662745    1.195025   -0.000000
  N      1.769165   -0.000218   -0.000000
  C      0.310509    0.336052    0.000000
  C     -0.547911   -0.923096    0.000000
  C     -1.951372   -0.544979   -0.000000
  N     -3.047184   -0.203358   -0.000000
  H      3.698775    0.861114    0.000000
  H      2.456442    1.782421    0.892386
  H      2.456442    1.782421   -0.892386
  H      1.982457   -0.578382    0.816211
  H      1.982457   -0.578382   -0.816211
  H      0.122472    0.944682   -0.884886
  H      0.122472    0.944682    0.884886
  H     -0.352159   -1.538422    0.884888
  H     -0.352159   -1.538422   -0.884888

FINAL SINGLE POINT ENERGY      -266.846401445156
                    ***********************HURRAY********************
 Multiplicity           Mult            ....    1
 Number of Electrons    NEL             ....   46
 Basis Dimension        Dim             ....  240
FINAL SINGLE POINT ENERGY      -266.846401517664

VIBRATIONAL FREQUENCIES
-----------------------

   0:         0.00 cm**-1
   1:         0.00 cm**-1
   2:         0.00 cm**-1
   3:         0.00 cm**-1
   4:         0.00 cm**-1
   5:         0.00 cm**-1
   6:        84.57 cm**-1
   7:       102.97 cm**-1
   8:       119.95 cm**-1
   9:       231.45 cm**-1
  10:       281.47 cm**-1
  11:       374.51 cm**-1
  12:       391.28 cm**-1
  13:       537.45 cm**-1
  14:       774.10 cm**-1
  15:       832.01 cm**-1
  16:       923.20 cm**-1
  17:       983.92 cm**-1
  18:      1016.34 cm**-1
  19:      1020.41 cm**-1
  20:      1064.39 cm**-1
  21:      1146.41 cm**-1
  22:      1173.79 cm**-1
  23:      1286.05 cm**-1
  24:      1320.84 cm**-1
  25:      1336.52 cm**-1
  26:      1403.26 cm**-1
  27:      1406.25 cm**-1
  28:      1433.44 cm**-1
  29:      1462.88 cm**-1
  30:      1465.71 cm**-1
  31:      1489.97 cm**-1
  32:      1492.87 cm**-1
  33:      1502.96 cm**-1
  34:      1657.35 cm**-1
  35:      2402.26 cm**-1
  36:      3051.04 cm**-1
  37:      3093.30 cm**-1
  38:      3096.39 cm**-1
  39:      3106.81 cm**-1
  40:      3167.43 cm**-1
  41:      3195.93 cm**-1
  42:      3198.83 cm**-1
  43:      3434.28 cm**-1
  44:      3482.84 cm**-1

IR SPECTRUM
-----------

 Mode    freq (cm**-1)   T**2         TX         TY         TZ
-------------------------------------------------------------------
   6:        84.57    0.377924  ( -0.000058  -0.000030  -0.614755)
   7:       102.97    1.212969  ( -0.000110  -0.000367  -1.101348)
   8:       119.95    5.919003  ( -0.899764  -2.260404   0.000194)
   9:       231.45    0.915728  (  0.000044   0.000030   0.956937)
  10:       281.47    7.518713  ( -2.730146  -0.254979   0.000006)
  11:       374.51    0.102786  ( -0.000102   0.000040   0.320603)
  12:       391.28    3.511603  ( -1.859039  -0.235748   0.000005)
  13:       537.45    1.545923  ( -1.223086  -0.223568  -0.000009)
  14:       774.10   10.976915  ( -0.000041   0.000021   3.313143)
  15:       832.01    6.162558  ( -0.000044   0.000008  -2.482450)
  16:       923.20    8.093797  ( -2.732193   0.793043  -0.000014)
  17:       983.92   11.500470  ( -3.277890  -0.869430  -0.000008)
  18:      1016.34    1.283625  (  0.000174   0.000206   1.132972)
  19:      1020.41   18.231109  ( -3.411271  -2.567944   0.000088)
  20:      1064.39    1.700541  ( -1.283527  -0.230432  -0.000002)
  21:      1146.41    0.069912  (  0.000097  -0.000003  -0.264408)
  22:      1173.79   10.029411  (  3.037413   0.896402   0.000000)
  23:      1286.05    0.016117  (  0.000000   0.000017  -0.126953)
  24:      1320.84    2.783623  ( -1.091933  -1.261470  -0.000015)
  25:      1336.52    2.623936  ( -0.000003   0.000002  -1.619857)
  26:      1403.26    0.327286  (  0.000024   0.000012  -0.572089)
  27:      1406.25   15.297065  (  3.789992   0.965932  -0.000003)
  28:      1433.44   43.638013  (  6.371289   1.744902   0.000002)
  29:      1462.88    4.255152  (  1.756087   1.082270   0.000001)
  30:      1465.71    6.394813  (  1.228693  -2.210232  -0.000001)
  31:      1489.97   25.577855  (  4.881523   1.322341   0.000056)
  32:      1492.87   25.373029  ( -0.000078   0.000013   5.037165)
  33:      1502.96   24.523793  (  2.584929  -4.223971   0.000044)
  34:      1657.35   48.650747  ( -2.192923   6.621317  -0.000002)
  35:      2402.26    0.023962  ( -0.153598   0.019226  -0.000000)
  36:      3051.04    3.755266  ( -1.936500  -0.072356  -0.000000)
  37:      3093.30    0.171157  ( -0.392116  -0.131917   0.000000)
  38:      3096.39    0.150185  ( -0.000040   0.000013   0.387537)
  39:      3106.81    0.449177  ( -0.668538  -0.047269  -0.000011)
  40:      3167.43    0.432757  ( -0.000012   0.000003   0.657843)
  41:      3195.93    0.724050  ( -0.521302   0.672529   0.000000)
  42:      3198.83    0.405381  (  0.000001  -0.000000   0.636696)
  43:      3434.28   48.737964  (  3.245079  -6.181216   0.000007)
  44:      3482.84   77.622819  ( -0.000002   0.000005   8.810381)

--------------------------
THERMOCHEMISTRY AT 298.15K
--------------------------

Temperature         ... 298.15 K
Pressure            ... 1.00 atm
Total Mass          ... 85.13 AMU

Throughout the following assumptions are being made:
  (1) The electronic state is orbitally nondegenerate
  (2) There are no thermally accessible electronically excited states
  (3) Hindered rotations indicated by low frequency modes) are not
      treated as such but are treated as vibrations and this may
      case some error
  (4) All equations used are the standard statistical mechanics
      equations for an ideal gas
  (5) All vibrations are strinctly harmonic

------------
INNER ENERGY
------------

The inner energy is: U= E(el) + E(ZPE) + E(vib) + E(rot) + E(trans)
    E(el)   - is the total energy from the electronic structure calculation
              = E(kin-el) + E(nuc-el) + E(el-el) + E(nuc-nuc)
    E(ZPE)  - the the zero temperature vibrational energy from the frequency calculation
    E(vib)  - the the finite temperature correction to E(ZPE) due to population
              of excietd vibrational states
    E(rot)  - is the rotational thermal energy
    E(trans)- is the translational thermal energy

Summary of contributions to the inner energy U:
Electronic energy                ...   -266.84640152 Eh
Zero point energy                ...      0.13565449 Eh      85.12 kcal/mol
Thermal vibrational correction   ...      0.00446171 Eh       2.80 kcal/mol
Thermal rotational correction    ...      0.00141627 Eh       0.89 kcal/mol
Thermal translational correction ...      0.00141627 Eh       0.89 kcal/mol
-----------------------------------------------------------------------
Total thermal energy                   -266.70345277 Eh

Summary of corrections to the electronic energy:
(perhaps to be used in another calculation)
Total thermal correction                  0.00729425 Eh       4.58 kcal/mol
Non-thermal (ZPE) correction              0.13565449 Eh      85.12 kcal/mol
-----------------------------------------------------------------------
Total correction                          0.14294874 Eh      89.70 kcal/mol

--------
ENTHALPY
--------

The enthalpy is H = U + kB*T
                kB is Boltzmann's constant
Total free energy                 ...   -266.70345277 Eh
Thermal Enthalpy correction       ...      0.00094421 Eh       0.59 kcal/mol
-----------------------------------------------------------------------
Total Enthalpy                    ...   -266.70250857 Eh

-------
ENTROPY
-------

The entropy contributions are T*S = T*(S(el)+S(vib)+S(rot)+S(trans)
     S(el)   - electronic entropy
     S(vib)  - vibrational entropy
     S(rot)  - rotational entropy
     S(trans)- translational entropy
The entropies will be listed as mutliplied by the temperature to get
units of energy

Electronic entropy                ...      0.00000000 Eh      0.00 kcal/mol
Vibrational entropy               ...      0.00830588 Eh      5.21 kcal/mol
Rotational entropy                ...      0.01174742 Eh      7.37 kcal/mol
Translational entropy             ...      0.01864324 Eh     11.70 kcal/mol
-----------------------------------------------------------------------
Final entropy term                ...      0.03869654 Eh     24.28 kcal/mol

CAUTION: The rotational entropy is not quite correctly treated here
         because it includes a symmetry number that is not yet correctly
         implemented in ORCA!
For a nonlinear molecule the correct rotational entropy is:
    S(rot) = R*(ln(qrot/sn)+1.5)
    R    = 8.31441 J/mol/K = 1.987191683e-3 kcal/mol/K
    qrot = 169486.4211353
    sn is the rotational symmetry number. We have assumed 3 here
       if it is different for your molecule then you should correct
       the printed rotational entropy by manually evaluating the equation
       as given above

For convenience we print out the resulting values for sn=1 - 12:
 sn= 1  qrot/sn=  169486.4211 T*S(rot)=     8.02 kcal/mol T*S(tot)=    24.93 kcal/mol
 sn= 2  qrot/sn=   84743.2106 T*S(rot)=     7.61 kcal/mol T*S(tot)=    24.52 kcal/mol
 sn= 3  qrot/sn=   56495.4737 T*S(rot)=     7.37 kcal/mol T*S(tot)=    24.28 kcal/mol
 sn= 4  qrot/sn=   42371.6053 T*S(rot)=     7.20 kcal/mol T*S(tot)=    24.11 kcal/mol
 sn= 5  qrot/sn=   33897.2842 T*S(rot)=     7.07 kcal/mol T*S(tot)=    23.98 kcal/mol
 sn= 6  qrot/sn=   28247.7369 T*S(rot)=     6.96 kcal/mol T*S(tot)=    23.87 kcal/mol
 sn= 7  qrot/sn=   24212.3459 T*S(rot)=     6.87 kcal/mol T*S(tot)=    23.78 kcal/mol
 sn= 8  qrot/sn=   21185.8026 T*S(rot)=     6.79 kcal/mol T*S(tot)=    23.70 kcal/mol
 sn= 9  qrot/sn=   18831.8246 T*S(rot)=     6.72 kcal/mol T*S(tot)=    23.63 kcal/mol
 sn=10  qrot/sn=   16948.6421 T*S(rot)=     6.66 kcal/mol T*S(tot)=    23.57 kcal/mol
 sn=11  qrot/sn=   15407.8565 T*S(rot)=     6.60 kcal/mol T*S(tot)=    23.51 kcal/mol
 sn=12  qrot/sn=   14123.8684 T*S(rot)=     6.55 kcal/mol T*S(tot)=    23.46 kcal/mol

-------------------
GIBBS FREE ENTHALPY
-------------------

The Gibbs free enthalpy is G = H - T*S

Total enthalpy                    ...   -266.70250857 Eh
Total entropy correction          ...     -0.03869654 Eh    -24.28 kcal/mol
-----------------------------------------------------------------------
Final Gibbs free enthalpy         ...   -266.74120511 Eh

For completeness - the Gibbs free enthalpy minus the electronic energy
G-E(el)                           ...      0.10519641 Eh     66.01 kcal/mol

                             ****ORCA TERMINATED NORMALLY****
TOTAL RUN TIME: 0 days 0 hours 13 minutes 55 seconds 166 msec
