                         Program Version 3.0.3 - RELEASE   -
|  1> ! NORI PBE0 def2-TZVP UseSym TightOPT Freq TightSCF Grid3 FinalGrid5 XYZFile
|  2> % pal
|  3>     nprocs 8
|  4> end
|  5> %method
|  6>     SymThresh 5.0e-2
|  7> end
|  8> % geom
|  9>     MaxIter 10
| 10> end
| 11> % maxcore 2000
| 12> % output
| 13>     printlevel mini
| 14>     print[ P_Basis ] 0
| 15>     print[ P_SCFInfo ] 1
| 16>     print[ P_SCFIterInfo ] 1
| 17>     print[ P_OrbEn ] 0
| 18>     print[ P_Cartesian ] 0
| 19> end
| 20> % elprop
| 21>     Dipole false
| 22> end
| 23> *xyz 1 1
| 24>  N        1.0471467010    -0.1393477737     0.1498616633
| 25>  C        2.5107090520    -0.0138510436    -0.0651217810
| 26>  C        3.0917986914    -0.6053261197    -1.3007271559
| 27>  C        3.0046707582     0.8852394527    -1.1559523288
| 28>  C        4.1927005633     1.7388030534    -0.9131947976
| 29>  C        5.4333762181     1.4044905552    -1.2314988467
| 30>  H        0.8045986749    -1.0465243408     0.5581090797
| 31>  H        0.5411893943    -0.0573801403    -0.7349659099
| 32>  H        0.6962570088     0.5920076532     0.7741189888
| 33>  H        3.0477216573    -0.0693125139     0.8731043883
| 34>  H        4.0511466333    -1.0940628707    -1.1939149920
| 35>  H        2.4278928443    -1.0818526022    -2.0140453386
| 36>  H        2.2220546922     1.3563984836    -1.7503967119
| 37>  H        3.9900539164     2.7047282528    -0.4582229591
| 38>  H        5.6754711951     0.4634887677    -1.7134692109
| 39>  H        6.2595519995     2.0756211861    -1.0320540878
| 40> *
| 41>
| 42>                          ****END OF INPUT****
 Total Charge           Charge          ....    1
 Multiplicity           Mult            ....    1
 Number of Electrons    NEL             ....   46
FINAL SINGLE POINT ENERGY      -250.788314285063

CARTESIAN COORDINATES (ANGSTROEM)
---------------------------------
  N      0.000322    0.000176    2.351636
  C      0.457546   -0.000242    0.939208
  C      0.234057   -1.228456    0.129286
  C     -0.569287    0.007093   -0.150620
  C     -0.351245    0.851479   -1.349819
  C      0.200616    0.426106   -2.475463
  H      0.687357   -0.442690    2.968164
  H     -0.876798   -0.516235    2.450195
  H     -0.162839    0.951459    2.692150
  H      1.369273    0.571991    0.825503
  H      1.030083   -1.508583   -0.547816
  H     -0.277462   -2.069135    0.585141
  H     -1.602616   -0.032918    0.193470
  H     -0.696829    1.878669   -1.268450
  H      0.532123   -0.598166   -2.608494
  H      0.328184    1.092272   -3.319627

FINAL SINGLE POINT ENERGY      -250.788314724759
                    ***********************HURRAY********************
 Multiplicity           Mult            ....    1
 Number of Electrons    NEL             ....   46
 Basis Dimension        Dim             ....  246
FINAL SINGLE POINT ENERGY      -250.788314948610

VIBRATIONAL FREQUENCIES
-----------------------

   0:         0.00 cm**-1
   1:         0.00 cm**-1
   2:         0.00 cm**-1
   3:         0.00 cm**-1
   4:         0.00 cm**-1
   5:         0.00 cm**-1
   6:        83.93 cm**-1
   7:       189.59 cm**-1
   8:       195.41 cm**-1
   9:       276.07 cm**-1
  10:       325.33 cm**-1
  11:       399.93 cm**-1
  12:       534.84 cm**-1
  13:       656.84 cm**-1
  14:       791.76 cm**-1
  15:       825.77 cm**-1
  16:       883.27 cm**-1
  17:       919.65 cm**-1
  18:       970.65 cm**-1
  19:       999.18 cm**-1
  20:      1006.80 cm**-1
  21:      1023.05 cm**-1
  22:      1085.52 cm**-1
  23:      1098.84 cm**-1
  24:      1106.33 cm**-1
  25:      1136.34 cm**-1
  26:      1177.04 cm**-1
  27:      1183.09 cm**-1
  28:      1252.10 cm**-1
  29:      1329.49 cm**-1
  30:      1359.19 cm**-1
  31:      1429.94 cm**-1
  32:      1455.11 cm**-1
  33:      1494.51 cm**-1
  34:      1516.12 cm**-1
  35:      1651.76 cm**-1
  36:      1659.86 cm**-1
  37:      1725.55 cm**-1
  38:      3120.77 cm**-1
  39:      3158.98 cm**-1
  40:      3165.05 cm**-1
  41:      3173.67 cm**-1
  42:      3215.11 cm**-1
  43:      3250.72 cm**-1
  44:      3258.13 cm**-1
  45:      3407.27 cm**-1
  46:      3482.52 cm**-1
  47:      3495.21 cm**-1

IR SPECTRUM
-----------

 Mode    freq (cm**-1)   T**2         TX         TY         TZ
-------------------------------------------------------------------
   6:        83.93    3.777075  ( -1.698925  -0.926715  -0.178682)
   7:       189.59    2.295428  (  0.165824  -1.498695  -0.147795)
   8:       195.41    4.230182  ( -0.756097   1.911168  -0.077039)
   9:       276.07    2.993691  (  1.537758   0.411411   0.678034)
  10:       325.33    7.593502  ( -0.900825   1.682257  -1.987971)
  11:       399.93    4.888720  (  0.355746  -0.885273  -1.994607)
  12:       534.84    0.786163  (  0.049223   0.800197   0.378714)
  13:       656.84   16.021913  (  3.812628   0.141773   1.210654)
  14:       791.76    7.325047  ( -2.254350  -0.686248  -1.331171)
  15:       825.77    7.946441  (  1.941444  -1.281243   1.592373)
  16:       883.27    3.370685  ( -0.331758   1.744122  -0.467610)
  17:       919.65   10.395553  (  1.914364   2.106990   1.513723)
  18:       970.65   14.815786  (  1.894053   1.690938   2.892936)
  19:       999.18   48.872510  (  6.290174   1.878471   2.403658)
  20:      1006.80    3.726380  (  1.608212  -0.984111  -0.414198)
  21:      1023.05   13.280536  (  3.307621   0.593300   1.410027)
  22:      1085.52    8.057569  ( -0.620025   2.722892   0.508917)
  23:      1098.84   11.747618  (  2.243923  -1.534335   2.087641)
  24:      1106.33    2.624357  (  0.461372   1.075226   1.120439)
  25:      1136.34    3.409334  (  1.508708  -1.047550   0.189136)
  26:      1177.04   13.512747  ( -0.854300   2.805695  -2.216077)
  27:      1183.09    2.503695  (  0.922095  -0.333444  -1.241874)
  28:      1252.10    0.355664  ( -0.033885   0.527807  -0.275563)
  29:      1329.49    2.891337  (  0.117423   0.255182   1.677031)
  30:      1359.19    9.735867  (  0.699518   0.761832   2.943833)
  31:      1429.94    3.721095  (  0.949989  -0.486744   1.606766)
  32:      1455.11   17.222188  (  2.280711  -2.433001  -2.470030)
  33:      1494.51   40.888909  (  1.658255  -2.500264  -5.646926)
  34:      1516.12  102.257321  (  3.820693   1.912542  -9.165250)
  35:      1651.76   32.030665  ( -3.301737   4.515642  -0.859172)
  36:      1659.86   48.873752  (  5.501357   4.137346   1.221142)
  37:      1725.55    2.607025  ( -0.215846  -0.151233   1.592973)
  38:      3120.77    8.306683  ( -0.987525  -0.341316   2.686072)
  39:      3158.98    2.163428  ( -0.344800   0.118527   1.424953)
  40:      3165.05    3.599506  ( -0.532980   1.737151  -0.545660)
  41:      3173.67    0.593471  (  0.435294  -0.635562  -0.007134)
  42:      3215.11    1.201017  ( -0.966152  -0.503846   0.117070)
  43:      3250.72    0.922029  (  0.852726  -0.042847  -0.439376)
  44:      3258.13    0.681297  (  0.252268  -0.785821   0.011976)
  45:      3407.27   44.583007  ( -0.213173   0.611737   6.645551)
  46:      3482.52   96.658632  ( -6.126201   7.512489  -1.640366)
  47:      3495.21   86.207071  ( -6.809160  -6.108104  -1.591692)

--------------------------
THERMOCHEMISTRY AT 298.15K
--------------------------

Temperature         ... 298.15 K
Pressure            ... 1.00 atm
Total Mass          ... 84.14 AMU

Throughout the following assumptions are being made:
  (1) The electronic state is orbitally nondegenerate
  (2) There are no thermally accessible electronically excited states
  (3) Hindered rotations indicated by low frequency modes) are not
      treated as such but are treated as vibrations and this may
      case some error
  (4) All equations used are the standard statistical mechanics
      equations for an ideal gas
  (5) All vibrations are strinctly harmonic

------------
INNER ENERGY
------------

The inner energy is: U= E(el) + E(ZPE) + E(vib) + E(rot) + E(trans)
    E(el)   - is the total energy from the electronic structure calculation
              = E(kin-el) + E(nuc-el) + E(el-el) + E(nuc-nuc)
    E(ZPE)  - the the zero temperature vibrational energy from the frequency calculation
    E(vib)  - the the finite temperature correction to E(ZPE) due to population
              of excietd vibrational states
    E(rot)  - is the rotational thermal energy
    E(trans)- is the translational thermal energy

Summary of contributions to the inner energy U:
Electronic energy                ...   -250.78831495 Eh
Zero point energy                ...      0.14687423 Eh      92.16 kcal/mol
Thermal vibrational correction   ...      0.00399452 Eh       2.51 kcal/mol
Thermal rotational correction    ...      0.00141627 Eh       0.89 kcal/mol
Thermal translational correction ...      0.00141627 Eh       0.89 kcal/mol
-----------------------------------------------------------------------
Total thermal energy                   -250.63461366 Eh

Summary of corrections to the electronic energy:
(perhaps to be used in another calculation)
Total thermal correction                  0.00682706 Eh       4.28 kcal/mol
Non-thermal (ZPE) correction              0.14687423 Eh      92.16 kcal/mol
-----------------------------------------------------------------------
Total correction                          0.15370129 Eh      96.45 kcal/mol

--------
ENTHALPY
--------

The enthalpy is H = U + kB*T
                kB is Boltzmann's constant
Total free energy                 ...   -250.63461366 Eh
Thermal Enthalpy correction       ...      0.00094421 Eh       0.59 kcal/mol
-----------------------------------------------------------------------
Total Enthalpy                    ...   -250.63366945 Eh

-------
ENTROPY
-------

The entropy contributions are T*S = T*(S(el)+S(vib)+S(rot)+S(trans)
     S(el)   - electronic entropy
     S(vib)  - vibrational entropy
     S(rot)  - rotational entropy
     S(trans)- translational entropy
The entropies will be listed as mutliplied by the temperature to get
units of energy

Electronic entropy                ...      0.00000000 Eh      0.00 kcal/mol
Vibrational entropy               ...      0.00688162 Eh      4.32 kcal/mol
Rotational entropy                ...      0.01159977 Eh      7.28 kcal/mol
Translational entropy             ...      0.01862670 Eh     11.69 kcal/mol
-----------------------------------------------------------------------
Final entropy term                ...      0.03710809 Eh     23.29 kcal/mol

CAUTION: The rotational entropy is not quite correctly treated here
         because it includes a symmetry number that is not yet correctly
         implemented in ORCA!
For a nonlinear molecule the correct rotational entropy is:
    S(rot) = R*(ln(qrot/sn)+1.5)
    R    = 8.31441 J/mol/K = 1.987191683e-3 kcal/mol/K
    qrot = 144951.0059505
    sn is the rotational symmetry number. We have assumed 3 here
       if it is different for your molecule then you should correct
       the printed rotational entropy by manually evaluating the equation
       as given above

For convenience we print out the resulting values for sn=1 - 12:
 sn= 1  qrot/sn=  144951.0060 T*S(rot)=     7.93 kcal/mol T*S(tot)=    23.94 kcal/mol
 sn= 2  qrot/sn=   72475.5030 T*S(rot)=     7.52 kcal/mol T*S(tot)=    23.53 kcal/mol
 sn= 3  qrot/sn=   48317.0020 T*S(rot)=     7.28 kcal/mol T*S(tot)=    23.29 kcal/mol
 sn= 4  qrot/sn=   36237.7515 T*S(rot)=     7.11 kcal/mol T*S(tot)=    23.12 kcal/mol
 sn= 5  qrot/sn=   28990.2012 T*S(rot)=     6.98 kcal/mol T*S(tot)=    22.98 kcal/mol
 sn= 6  qrot/sn=   24158.5010 T*S(rot)=     6.87 kcal/mol T*S(tot)=    22.87 kcal/mol
 sn= 7  qrot/sn=   20707.2866 T*S(rot)=     6.78 kcal/mol T*S(tot)=    22.78 kcal/mol
 sn= 8  qrot/sn=   18118.8757 T*S(rot)=     6.70 kcal/mol T*S(tot)=    22.70 kcal/mol
 sn= 9  qrot/sn=   16105.6673 T*S(rot)=     6.63 kcal/mol T*S(tot)=    22.63 kcal/mol
 sn=10  qrot/sn=   14495.1006 T*S(rot)=     6.57 kcal/mol T*S(tot)=    22.57 kcal/mol
 sn=11  qrot/sn=   13177.3642 T*S(rot)=     6.51 kcal/mol T*S(tot)=    22.52 kcal/mol
 sn=12  qrot/sn=   12079.2505 T*S(rot)=     6.46 kcal/mol T*S(tot)=    22.46 kcal/mol

-------------------
GIBBS FREE ENTHALPY
-------------------

The Gibbs free enthalpy is G = H - T*S

Total enthalpy                    ...   -250.63366945 Eh
Total entropy correction          ...     -0.03710809 Eh    -23.29 kcal/mol
-----------------------------------------------------------------------
Final Gibbs free enthalpy         ...   -250.67077754 Eh

For completeness - the Gibbs free enthalpy minus the electronic energy
G-E(el)                           ...      0.11753741 Eh     73.76 kcal/mol

                             ****ORCA TERMINATED NORMALLY****
TOTAL RUN TIME: 0 days 0 hours 16 minutes 28 seconds 784 msec
