                         Program Version 3.0.3 - RELEASE   -
|  1> ! NORI PBE0 def2-TZVP UseSym TightOPT Freq TightSCF Grid3 FinalGrid5 XYZFile
|  2> % pal
|  3>     nprocs 8
|  4> end
|  5> %method
|  6>     SymThresh 5.0e-2
|  7> end
|  8> % geom
|  9>     MaxIter 10
| 10> end
| 11> % maxcore 2000
| 12> % output
| 13>     printlevel mini
| 14>     print[ P_Basis ] 0
| 15>     print[ P_SCFInfo ] 1
| 16>     print[ P_SCFIterInfo ] 1
| 17>     print[ P_OrbEn ] 0
| 18>     print[ P_Cartesian ] 0
| 19> end
| 20> % elprop
| 21>     Dipole false
| 22> end
| 23> *xyz 1 1
| 24>  N        1.0098448145    -0.0774090885     0.0739059156
| 25>  C        2.4914787207    -0.1210226771     0.0811753753
| 26>  C        3.1908182613    -0.8513383245    -1.0043029368
| 27>  C        3.2294925651     0.6606105292    -0.9652804295
| 28>  C        4.4169724795     1.3643529619    -0.5898432399
| 29>  C        5.4158607926     1.9497543855    -0.2795127569
| 30>  H        0.6601113697     0.7411268950     0.5803752273
| 31>  H        0.6109291587    -0.9138516375     0.5103456248
| 32>  H        0.6450328711    -0.0276059250    -0.8802330516
| 33>  H        2.8764513444    -0.1422465335     1.0921950900
| 34>  H        4.0838681201    -1.3961956470    -0.7292147810
| 35>  H        2.6054541818    -1.3039015643    -1.7970485336
| 36>  H        2.6186013091     1.1532960858    -1.7193605315
| 37>  H        6.3072040114     2.4712005399    -0.0123909721
| 38> *
| 39>
| 40>                          ****END OF INPUT****
 Total Charge           Charge          ....    1
 Multiplicity           Mult            ....    1
 Number of Electrons    NEL             ....   44
FINAL SINGLE POINT ENERGY      -249.532112792134

CARTESIAN COORDINATES (ANGSTROEM)
---------------------------------
  N     -0.000040    0.000120    2.269664
  C      0.502086   -0.000202    0.874901
  C      0.560322   -1.285201    0.136172
  C     -0.479318   -0.249578   -0.231981
  C     -0.371123    0.517959   -1.434330
  C     -0.278767    1.155120   -2.445292
  H     -0.374980    0.917141    2.528980
  H      0.743676   -0.236852    2.932924
  H     -0.749485   -0.684799    2.394013
  H      1.272999    0.746457    0.737244
  H      1.402007   -1.428152   -0.528123
  H      0.201018   -2.187213    0.618936
  H     -1.495744   -0.493989    0.070905
  H     -0.201858    1.715907   -3.349450

FINAL SINGLE POINT ENERGY      -249.532113074009
                    ***********************HURRAY********************
 Multiplicity           Mult            ....    1
 Number of Electrons    NEL             ....   44
 Basis Dimension        Dim             ....  234
FINAL SINGLE POINT ENERGY      -249.532113221435

VIBRATIONAL FREQUENCIES
-----------------------

   0:         0.00 cm**-1
   1:         0.00 cm**-1
   2:         0.00 cm**-1
   3:         0.00 cm**-1
   4:         0.00 cm**-1
   5:         0.00 cm**-1
   6:       146.00 cm**-1
   7:       164.99 cm**-1
   8:       204.96 cm**-1
   9:       322.62 cm**-1
  10:       367.00 cm**-1
  11:       486.06 cm**-1
  12:       513.38 cm**-1
  13:       717.24 cm**-1
  14:       746.64 cm**-1
  15:       790.34 cm**-1
  16:       810.93 cm**-1
  17:       894.21 cm**-1
  18:       911.21 cm**-1
  19:       980.52 cm**-1
  20:      1034.23 cm**-1
  21:      1091.39 cm**-1
  22:      1099.25 cm**-1
  23:      1135.94 cm**-1
  24:      1180.47 cm**-1
  25:      1183.66 cm**-1
  26:      1249.04 cm**-1
  27:      1354.42 cm**-1
  28:      1436.25 cm**-1
  29:      1492.98 cm**-1
  30:      1519.99 cm**-1
  31:      1651.43 cm**-1
  32:      1658.98 cm**-1
  33:      2258.09 cm**-1
  34:      3137.53 cm**-1
  35:      3160.18 cm**-1
  36:      3221.36 cm**-1
  37:      3258.53 cm**-1
  38:      3403.31 cm**-1
  39:      3463.38 cm**-1
  40:      3477.10 cm**-1
  41:      3491.36 cm**-1

IR SPECTRUM
-----------

 Mode    freq (cm**-1)   T**2         TX         TY         TZ
-------------------------------------------------------------------
   6:       146.00   10.097562  ( -0.366273   3.152496  -0.158665)
   7:       164.99    7.375985  (  2.655284  -0.333499   0.462850)
   8:       204.96    1.550594  (  1.026188   0.695601   0.116929)
   9:       322.62    5.991733  ( -0.309004   0.463583  -2.383556)
  10:       367.00    1.470017  (  0.136374  -0.021567   1.204556)
  11:       486.06   14.060727  (  3.081227   0.580216   2.056724)
  12:       513.38   11.659654  ( -1.911789   2.247264   1.718872)
  13:       717.24   39.692159  ( -1.334641   5.393518   2.969992)
  14:       746.64   36.628048  ( -5.913596  -0.918391  -0.902212)
  15:       790.34   10.434639  (  1.650956   1.632159   2.246117)
  16:       810.93    3.519257  ( -1.634754   0.210533  -0.895830)
  17:       894.21    6.797279  ( -1.661746   1.964247   0.421437)
  18:       911.21    6.921845  ( -0.724735  -2.395556  -0.811121)
  19:       980.52   17.888102  (  2.586707   2.387277   2.344772)
  20:      1034.23    4.996509  (  2.073527  -0.834852  -0.003831)
  21:      1091.39    8.393355  ( -0.179769   2.759959   0.862358)
  22:      1099.25    9.748731  (  2.361184  -1.515612   1.369839)
  23:      1135.94    6.704921  ( -1.861064   0.803875  -1.610946)
  24:      1180.47   13.992336  (  1.512430  -2.936725   1.755147)
  25:      1183.66    2.546143  (  1.211005   0.206895  -1.018236)
  26:      1249.04    0.258402  ( -0.055883  -0.460198  -0.208558)
  27:      1354.42   12.745080  ( -0.500821   0.225404  -3.527528)
  28:      1436.25    2.608431  ( -1.574430   0.219520  -0.285330)
  29:      1492.98   35.488504  (  1.946871  -3.466345  -4.436513)
  30:      1519.99  113.796983  (  3.856246   1.983187  -9.746452)
  31:      1651.43   32.781180  (  4.279813  -3.582245   1.277458)
  32:      1658.98   49.499850  ( -4.432437  -5.369128  -1.012828)
  33:      2258.09    4.370973  ( -0.463285  -1.010926   1.770415)
  34:      3137.53    8.277038  (  0.499868  -0.919640   2.679820)
  35:      3160.18    3.709158  ( -0.812386   0.600781   1.639588)
  36:      3221.36    2.662270  (  1.334839   0.938299   0.008280)
  37:      3258.53    3.370993  ( -1.589695  -0.026882   0.918227)
  38:      3403.31   51.207052  ( -0.505102   0.970391   7.071794)
  39:      3463.38   99.578018  ( -0.139177  -5.180666   8.527564)
  40:      3477.10  100.862235  ( -7.576098   6.239810  -2.128322)
  41:      3491.36   91.529339  ( -5.658296  -7.640106  -1.068553)

--------------------------
THERMOCHEMISTRY AT 298.15K
--------------------------

Temperature         ... 298.15 K
Pressure            ... 1.00 atm
Total Mass          ... 82.13 AMU

Throughout the following assumptions are being made:
  (1) The electronic state is orbitally nondegenerate
  (2) There are no thermally accessible electronically excited states
  (3) Hindered rotations indicated by low frequency modes) are not
      treated as such but are treated as vibrations and this may
      case some error
  (4) All equations used are the standard statistical mechanics
      equations for an ideal gas
  (5) All vibrations are strinctly harmonic

------------
INNER ENERGY
------------

The inner energy is: U= E(el) + E(ZPE) + E(vib) + E(rot) + E(trans)
    E(el)   - is the total energy from the electronic structure calculation
              = E(kin-el) + E(nuc-el) + E(el-el) + E(nuc-nuc)
    E(ZPE)  - the the zero temperature vibrational energy from the frequency calculation
    E(vib)  - the the finite temperature correction to E(ZPE) due to population
              of excietd vibrational states
    E(rot)  - is the rotational thermal energy
    E(trans)- is the translational thermal energy

Summary of contributions to the inner energy U:
Electronic energy                ...   -249.53211322 Eh
Zero point energy                ...      0.12305510 Eh      77.22 kcal/mol
Thermal vibrational correction   ...      0.00369485 Eh       2.32 kcal/mol
Thermal rotational correction    ...      0.00141627 Eh       0.89 kcal/mol
Thermal translational correction ...      0.00141627 Eh       0.89 kcal/mol
-----------------------------------------------------------------------
Total thermal energy                   -249.40253072 Eh

Summary of corrections to the electronic energy:
(perhaps to be used in another calculation)
Total thermal correction                  0.00652740 Eh       4.10 kcal/mol
Non-thermal (ZPE) correction              0.12305510 Eh      77.22 kcal/mol
-----------------------------------------------------------------------
Total correction                          0.12958250 Eh      81.31 kcal/mol

--------
ENTHALPY
--------

The enthalpy is H = U + kB*T
                kB is Boltzmann's constant
Total free energy                 ...   -249.40253072 Eh
Thermal Enthalpy correction       ...      0.00094421 Eh       0.59 kcal/mol
-----------------------------------------------------------------------
Total Enthalpy                    ...   -249.40158651 Eh

-------
ENTROPY
-------

The entropy contributions are T*S = T*(S(el)+S(vib)+S(rot)+S(trans)
     S(el)   - electronic entropy
     S(vib)  - vibrational entropy
     S(rot)  - rotational entropy
     S(trans)- translational entropy
The entropies will be listed as mutliplied by the temperature to get
units of energy

Electronic entropy                ...      0.00000000 Eh      0.00 kcal/mol
Vibrational entropy               ...      0.00608344 Eh      3.82 kcal/mol
Rotational entropy                ...      0.01158994 Eh      7.27 kcal/mol
Translational entropy             ...      0.01859236 Eh     11.67 kcal/mol
-----------------------------------------------------------------------
Final entropy term                ...      0.03626574 Eh     22.76 kcal/mol

CAUTION: The rotational entropy is not quite correctly treated here
         because it includes a symmetry number that is not yet correctly
         implemented in ORCA!
For a nonlinear molecule the correct rotational entropy is:
    S(rot) = R*(ln(qrot/sn)+1.5)
    R    = 8.31441 J/mol/K = 1.987191683e-3 kcal/mol/K
    qrot = 143448.7934768
    sn is the rotational symmetry number. We have assumed 3 here
       if it is different for your molecule then you should correct
       the printed rotational entropy by manually evaluating the equation
       as given above

For convenience we print out the resulting values for sn=1 - 12:
 sn= 1  qrot/sn=  143448.7935 T*S(rot)=     7.92 kcal/mol T*S(tot)=    23.41 kcal/mol
 sn= 2  qrot/sn=   71724.3967 T*S(rot)=     7.51 kcal/mol T*S(tot)=    23.00 kcal/mol
 sn= 3  qrot/sn=   47816.2645 T*S(rot)=     7.27 kcal/mol T*S(tot)=    22.76 kcal/mol
 sn= 4  qrot/sn=   35862.1984 T*S(rot)=     7.10 kcal/mol T*S(tot)=    22.59 kcal/mol
 sn= 5  qrot/sn=   28689.7587 T*S(rot)=     6.97 kcal/mol T*S(tot)=    22.45 kcal/mol
 sn= 6  qrot/sn=   23908.1322 T*S(rot)=     6.86 kcal/mol T*S(tot)=    22.35 kcal/mol
 sn= 7  qrot/sn=   20492.6848 T*S(rot)=     6.77 kcal/mol T*S(tot)=    22.26 kcal/mol
 sn= 8  qrot/sn=   17931.0992 T*S(rot)=     6.69 kcal/mol T*S(tot)=    22.18 kcal/mol
 sn= 9  qrot/sn=   15938.7548 T*S(rot)=     6.62 kcal/mol T*S(tot)=    22.11 kcal/mol
 sn=10  qrot/sn=   14344.8793 T*S(rot)=     6.56 kcal/mol T*S(tot)=    22.04 kcal/mol
 sn=11  qrot/sn=   13040.7994 T*S(rot)=     6.50 kcal/mol T*S(tot)=    21.99 kcal/mol
 sn=12  qrot/sn=   11954.0661 T*S(rot)=     6.45 kcal/mol T*S(tot)=    21.94 kcal/mol

-------------------
GIBBS FREE ENTHALPY
-------------------

The Gibbs free enthalpy is G = H - T*S

Total enthalpy                    ...   -249.40158651 Eh
Total entropy correction          ...     -0.03626574 Eh    -22.76 kcal/mol
-----------------------------------------------------------------------
Final Gibbs free enthalpy         ...   -249.43785225 Eh

For completeness - the Gibbs free enthalpy minus the electronic energy
G-E(el)                           ...      0.09426097 Eh     59.15 kcal/mol

                             ****ORCA TERMINATED NORMALLY****
TOTAL RUN TIME: 0 days 0 hours 13 minutes 47 seconds 15 msec
