                         Program Version 3.0.3 - RELEASE   -
|  1> ! NORI PBE0 def2-TZVP UseSym TightOPT Freq TightSCF Grid3 FinalGrid5 XYZFile
|  2> % pal
|  3>     nprocs 8
|  4> end
|  5> %method
|  6>     SymThresh 5.0e-2
|  7> end
|  8> % geom
|  9>     MaxIter 10
| 10> end
| 11> % maxcore 2000
| 12> % output
| 13>     printlevel mini
| 14>     print[ P_Basis ] 0
| 15>     print[ P_SCFInfo ] 1
| 16>     print[ P_SCFIterInfo ] 1
| 17>     print[ P_OrbEn ] 0
| 18>     print[ P_Cartesian ] 0
| 19> end
| 20> % elprop
| 21>     Dipole false
| 22> end
| 23> *xyz 1 1
| 24>  N        1.0617778297     0.0425107870    -0.0671511069
| 25>  C        2.5582788060     0.0320980759     0.1303098480
| 26>  C        3.0270638067     1.1663819897     1.0214135459
| 27>  C        4.4423014004     0.7126909299     1.3818144288
| 28>  C        4.3814138667    -0.8298240359     1.4440286641
| 29>  C        3.0264156658    -1.2340356590     0.8308698033
| 30>  H        0.7531160037    -0.7458107961    -0.6400199255
| 31>  H        0.7491200252     0.9033512858    -0.5211061692
| 32>  H        0.5857983918    -0.0234066228     0.8356869309
| 33>  H        2.9826118038     0.1189802917    -0.8731894619
| 34>  H        2.4004039483     1.2078250779     1.9210730457
| 35>  H        2.9940804297     2.1462663686     0.5407308532
| 36>  H        4.7803154488     1.1594458525     2.3157610232
| 37>  H        5.1402966582     1.0362828310     0.6066241638
| 38>  H        5.2078942075    -1.2749896510     0.8910720160
| 39>  H        4.4561692028    -1.1962948798     2.4672433508
| 40>  H        3.0944534662    -2.0932426231     0.1612801843
| 41>  H        2.3152290384    -1.4926892221     1.6243088054
| 42> *
| 43>
| 44>                          ****END OF INPUT****
 Total Charge           Charge          ....    1
 Multiplicity           Mult            ....    1
 Number of Electrons    NEL             ....   48
FINAL SINGLE POINT ENERGY      -252.061064201955
FINAL SINGLE POINT ENERGY      -252.061065235970

CARTESIAN COORDINATES (ANGSTROEM)
---------------------------------
  N      0.001521    0.000488    2.128401
  C      0.407733   -0.000580    0.674644
  C     -0.140365   -1.200377   -0.074462
  C      0.053961   -0.771502   -1.529539
  C     -0.142698    0.760895   -1.541332
  C     -0.146263    1.206765   -0.066002
  H      0.347423    0.830439    2.614282
  H      0.357656   -0.822728    2.618211
  H     -1.018082   -0.005024    2.209652
  H      1.500653   -0.004995    0.680386
  H     -1.209023   -1.313845    0.148167
  H      0.358418   -2.139705    0.172479
  H     -0.634356   -1.290053   -2.195508
  H      1.063583   -1.029102   -1.855767
  H      0.656726    1.251880   -2.095815
  H     -1.077800    1.045083   -2.022979
  H      0.428173    2.117392    0.111525
  H     -1.173237    1.396750    0.268417

FINAL SINGLE POINT ENERGY      -252.061065687862
                    ***********************HURRAY********************
 Multiplicity           Mult            ....    1
 Number of Electrons    NEL             ....   48
 Basis Dimension        Dim             ....  258
FINAL SINGLE POINT ENERGY      -252.061065815520

VIBRATIONAL FREQUENCIES
-----------------------

   0:         0.00 cm**-1
   1:         0.00 cm**-1
   2:         0.00 cm**-1
   3:         0.00 cm**-1
   4:         0.00 cm**-1
   5:         0.00 cm**-1
   6:        12.38 cm**-1
   7:       175.63 cm**-1
   8:       215.73 cm**-1
   9:       310.43 cm**-1
  10:       427.53 cm**-1
  11:       520.91 cm**-1
  12:       627.12 cm**-1
  13:       769.15 cm**-1
  14:       816.55 cm**-1
  15:       862.16 cm**-1
  16:       907.45 cm**-1
  17:       933.11 cm**-1
  18:       942.93 cm**-1
  19:       989.84 cm**-1
  20:      1006.48 cm**-1
  21:      1013.84 cm**-1
  22:      1041.27 cm**-1
  23:      1077.83 cm**-1
  24:      1179.94 cm**-1
  25:      1206.61 cm**-1
  26:      1225.96 cm**-1
  27:      1259.23 cm**-1
  28:      1287.18 cm**-1
  29:      1309.45 cm**-1
  30:      1330.43 cm**-1
  31:      1341.95 cm**-1
  32:      1351.23 cm**-1
  33:      1371.33 cm**-1
  34:      1411.68 cm**-1
  35:      1476.93 cm**-1
  36:      1486.96 cm**-1
  37:      1491.96 cm**-1
  38:      1500.45 cm**-1
  39:      1518.60 cm**-1
  40:      1653.87 cm**-1
  41:      1658.03 cm**-1
  42:      3034.79 cm**-1
  43:      3041.52 cm**-1
  44:      3087.75 cm**-1
  45:      3096.62 cm**-1
  46:      3103.99 cm**-1
  47:      3118.70 cm**-1
  48:      3124.17 cm**-1
  49:      3140.25 cm**-1
  50:      3155.91 cm**-1
  51:      3417.84 cm**-1
  52:      3501.12 cm**-1
  53:      3509.05 cm**-1

IR SPECTRUM
-----------

 Mode    freq (cm**-1)   T**2         TX         TY         TZ
-------------------------------------------------------------------
   7:       175.63    4.239963  (  1.979022   0.003542   0.568701)
   8:       215.73    0.031544  ( -0.136269   0.097899  -0.058227)
   9:       310.43    9.177100  (  0.013692  -3.028109   0.086406)
  10:       427.53    5.951426  ( -1.137521   0.041852  -2.157712)
  11:       520.91    5.528365  (  0.814631  -0.088167  -2.203853)
  12:       627.12    0.962597  (  0.361962  -0.874648   0.258014)
  13:       769.15    1.591597  (  1.050311   0.681383  -0.155436)
  14:       816.55    0.825586  (  0.148405   0.653912   0.613157)
  15:       862.16   10.123516  ( -1.703296   0.197870  -2.680139)
  16:       907.45    0.456661  (  0.670690   0.069055   0.045469)
  17:       933.11    2.133211  ( -0.057739   1.450940   0.157008)
  18:       942.93    1.435837  ( -0.799352  -0.055981  -0.890921)
  19:       989.84    4.517742  ( -0.484144  -1.560683  -1.359270)
  20:      1006.48    9.756191  (  0.662558   2.654705  -1.506569)
  21:      1013.84    6.547439  ( -0.040002  -1.532539  -2.048698)
  22:      1041.27    7.483580  ( -2.546636   0.853713  -0.519036)
  23:      1077.83    5.442764  ( -0.695372   0.085041   2.225307)
  24:      1179.94    8.809127  ( -0.214782   2.957452   0.128343)
  25:      1206.61    2.008113  ( -0.072631   1.389223   0.269992)
  26:      1225.96    3.063851  (  0.726990   0.503188  -1.510675)
  27:      1259.23    0.857178  (  0.684179  -0.196166   0.592112)
  28:      1287.18    1.472376  (  0.038392   0.103892   1.208349)
  29:      1309.45    0.536495  ( -0.161813  -0.411578   0.583879)
  30:      1330.43    0.527566  ( -0.265360   0.564482  -0.372169)
  31:      1341.95    1.181094  (  0.044827  -0.306328  -1.041752)
  32:      1351.23    1.157846  ( -0.418626   0.025227   0.990940)
  33:      1371.33    0.194533  (  0.118945  -0.377650   0.194333)
  34:      1411.68   25.817676  (  1.347252  -0.092907   4.898363)
  35:      1476.93    2.671265  (  0.530047   1.543540  -0.088318)
  36:      1486.96   23.929418  ( -0.228727   0.583761   4.851425)
  37:      1491.96    9.804016  ( -0.489525   2.907246  -1.054657)
  38:      1500.45  137.216515  ( -3.941759   0.021565  11.030802)
  39:      1518.60    5.055844  ( -1.904701   0.415434   1.120433)
  40:      1653.87   35.823050  (  0.376070   5.973400  -0.010870)
  41:      1658.03   50.027638  ( -6.810736   0.260340  -1.890431)
  42:      3034.79    7.475570  (  1.723302   1.361922  -1.628179)
  43:      3041.52   20.880911  (  2.705849  -0.854486  -3.581780)
  44:      3087.75    7.173978  (  1.613903  -1.441635  -1.578285)
  45:      3096.62    1.697399  (  1.005697   0.281408  -0.778962)
  46:      3103.99    8.504663  (  0.408479  -1.519291   2.455517)
  47:      3118.70   11.289105  (  0.578323  -3.306109  -0.155853)
  48:      3124.17    4.342681  ( -2.056036   0.097096  -0.325528)
  49:      3140.25    0.893723  ( -0.431054  -0.106384   0.834625)
  50:      3155.91    8.508782  ( -2.858672  -0.527352  -0.242239)
  51:      3417.84   39.865803  ( -1.272703   0.043180   6.184187)
  52:      3501.12   80.400347  (  8.300151   0.519113   3.352367)
  53:      3509.05   87.227946  (  0.415056  -9.328367   0.192989)

--------------------------
THERMOCHEMISTRY AT 298.15K
--------------------------

Temperature         ... 298.15 K
Pressure            ... 1.00 atm
Total Mass          ... 86.16 AMU

Throughout the following assumptions are being made:
  (1) The electronic state is orbitally nondegenerate
  (2) There are no thermally accessible electronically excited states
  (3) Hindered rotations indicated by low frequency modes) are not
      treated as such but are treated as vibrations and this may
      case some error
  (4) All equations used are the standard statistical mechanics
      equations for an ideal gas
  (5) All vibrations are strinctly harmonic

------------
INNER ENERGY
------------

The inner energy is: U= E(el) + E(ZPE) + E(vib) + E(rot) + E(trans)
    E(el)   - is the total energy from the electronic structure calculation
              = E(kin-el) + E(nuc-el) + E(el-el) + E(nuc-nuc)
    E(ZPE)  - the the zero temperature vibrational energy from the frequency calculation
    E(vib)  - the the finite temperature correction to E(ZPE) due to population
              of excietd vibrational states
    E(rot)  - is the rotational thermal energy
    E(trans)- is the translational thermal energy

Summary of contributions to the inner energy U:
Electronic energy                ...   -252.06106582 Eh
Zero point energy                ...      0.17321242 Eh     108.69 kcal/mol
Thermal vibrational correction   ...      0.00287914 Eh       1.81 kcal/mol
Thermal rotational correction    ...      0.00141627 Eh       0.89 kcal/mol
Thermal translational correction ...      0.00141627 Eh       0.89 kcal/mol
-----------------------------------------------------------------------
Total thermal energy                   -251.88214171 Eh

Summary of corrections to the electronic energy:
(perhaps to be used in another calculation)
Total thermal correction                  0.00571168 Eh       3.58 kcal/mol
Non-thermal (ZPE) correction              0.17321242 Eh     108.69 kcal/mol
-----------------------------------------------------------------------
Total correction                          0.17892410 Eh     112.28 kcal/mol

--------
ENTHALPY
--------

The enthalpy is H = U + kB*T
                kB is Boltzmann's constant
Total free energy                 ...   -251.88214171 Eh
Thermal Enthalpy correction       ...      0.00094421 Eh       0.59 kcal/mol
-----------------------------------------------------------------------
Total Enthalpy                    ...   -251.88119750 Eh

-------
ENTROPY
-------

The entropy contributions are T*S = T*(S(el)+S(vib)+S(rot)+S(trans)
     S(el)   - electronic entropy
     S(vib)  - vibrational entropy
     S(rot)  - rotational entropy
     S(trans)- translational entropy
The entropies will be listed as mutliplied by the temperature to get
units of energy

Electronic entropy                ...      0.00000000 Eh      0.00 kcal/mol
Vibrational entropy               ...      0.00446066 Eh      2.80 kcal/mol
Rotational entropy                ...      0.01155283 Eh      7.25 kcal/mol
Translational entropy             ...      0.01866024 Eh     11.71 kcal/mol
-----------------------------------------------------------------------
Final entropy term                ...      0.03467372 Eh     21.76 kcal/mol

CAUTION: The rotational entropy is not quite correctly treated here
         because it includes a symmetry number that is not yet correctly
         implemented in ORCA!
For a nonlinear molecule the correct rotational entropy is:
    S(rot) = R*(ln(qrot/sn)+1.5)
    R    = 8.31441 J/mol/K = 1.987191683e-3 kcal/mol/K
    qrot = 137920.2632712
    sn is the rotational symmetry number. We have assumed 3 here
       if it is different for your molecule then you should correct
       the printed rotational entropy by manually evaluating the equation
       as given above

For convenience we print out the resulting values for sn=1 - 12:
 sn= 1  qrot/sn=  137920.2633 T*S(rot)=     7.90 kcal/mol T*S(tot)=    22.41 kcal/mol
 sn= 2  qrot/sn=   68960.1316 T*S(rot)=     7.49 kcal/mol T*S(tot)=    22.00 kcal/mol
 sn= 3  qrot/sn=   45973.4211 T*S(rot)=     7.25 kcal/mol T*S(tot)=    21.76 kcal/mol
 sn= 4  qrot/sn=   34480.0658 T*S(rot)=     7.08 kcal/mol T*S(tot)=    21.59 kcal/mol
 sn= 5  qrot/sn=   27584.0527 T*S(rot)=     6.95 kcal/mol T*S(tot)=    21.46 kcal/mol
 sn= 6  qrot/sn=   22986.7105 T*S(rot)=     6.84 kcal/mol T*S(tot)=    21.35 kcal/mol
 sn= 7  qrot/sn=   19702.8948 T*S(rot)=     6.75 kcal/mol T*S(tot)=    21.26 kcal/mol
 sn= 8  qrot/sn=   17240.0329 T*S(rot)=     6.67 kcal/mol T*S(tot)=    21.18 kcal/mol
 sn= 9  qrot/sn=   15324.4737 T*S(rot)=     6.60 kcal/mol T*S(tot)=    21.11 kcal/mol
 sn=10  qrot/sn=   13792.0263 T*S(rot)=     6.54 kcal/mol T*S(tot)=    21.04 kcal/mol
 sn=11  qrot/sn=   12538.2058 T*S(rot)=     6.48 kcal/mol T*S(tot)=    20.99 kcal/mol
 sn=12  qrot/sn=   11493.3553 T*S(rot)=     6.43 kcal/mol T*S(tot)=    20.94 kcal/mol

-------------------
GIBBS FREE ENTHALPY
-------------------

The Gibbs free enthalpy is G = H - T*S

Total enthalpy                    ...   -251.88119750 Eh
Total entropy correction          ...     -0.03467372 Eh    -21.76 kcal/mol
-----------------------------------------------------------------------
Final Gibbs free enthalpy         ...   -251.91587123 Eh

For completeness - the Gibbs free enthalpy minus the electronic energy
G-E(el)                           ...      0.14519459 Eh     91.11 kcal/mol

                             ****ORCA TERMINATED NORMALLY****
TOTAL RUN TIME: 0 days 0 hours 23 minutes 15 seconds 819 msec
