                         Program Version 3.0.3 - RELEASE   -
|  1> ! NORI PBE0 def2-TZVP UseSym TightOPT Freq TightSCF Grid3 FinalGrid5 XYZFile
|  2> % pal
|  3>     nprocs 8
|  4> end
|  5> %method
|  6>     SymThresh 5.0e-2
|  7> end
|  8> % geom
|  9>     MaxIter 10
| 10> end
| 11> % maxcore 2000
| 12> % output
| 13>     printlevel mini
| 14>     print[ P_Basis ] 0
| 15>     print[ P_SCFInfo ] 1
| 16>     print[ P_SCFIterInfo ] 1
| 17>     print[ P_OrbEn ] 0
| 18>     print[ P_Cartesian ] 0
| 19> end
| 20> % elprop
| 21>     Dipole false
| 22> end
| 23> *xyz 1 1
| 24>  N        0.8311751369     0.0353281135     0.1936249178
| 25>  C        2.3417496054     0.0335108332     0.1475397482
| 26>  C        2.8603077758     1.2194551460    -0.6122474137
| 27>  C        3.6291551611     0.7684630914    -1.6082439185
| 28>  C        3.6273300389    -0.7025420630    -1.6091282214
| 29>  C        2.8573344061    -1.1527823605    -0.6136865599
| 30>  H        0.4691954442     0.8613249688     0.6751021720
| 31>  H        0.4671709074    -0.7923158666     0.6707206329
| 32>  H        0.4638916152     0.0383322888    -0.7614616437
| 33>  H        2.6831432381     0.0325180726     1.1887852939
| 34>  H        2.6800130562     2.2484855782    -0.3308230872
| 35>  H        4.1863397488     1.3786463536    -2.3064636269
| 36>  H        4.1830256308    -1.3132617873    -2.3080619966
| 37>  H        2.6743882351    -2.1816923688    -0.3335262971
| 38> *
| 39>
| 40>                          ****END OF INPUT****
 Total Charge           Charge          ....    1
 Multiplicity           Mult            ....    1
 Number of Electrons    NEL             ....   44
FINAL SINGLE POINT ENERGY      -249.600343270964

CARTESIAN COORDINATES (ANGSTROEM)
---------------------------------
  N      1.955232    0.000019   -0.000000
  C      0.568298    0.600936    0.000000
  C     -0.223299    0.132756    1.186178
  C     -1.343336   -0.440649    0.735525
  C     -1.343336   -0.440649   -0.735525
  C     -0.223299    0.132756   -1.186178
  H      2.487498    0.279467    0.826786
  H      2.487498    0.279467   -0.826786
  H      1.881348   -1.020636   -0.000000
  H      0.702507    1.688465    0.000000
  H      0.060458    0.309552    2.215021
  H     -2.144051   -0.835935    1.345943
  H     -2.144051   -0.835935   -1.345943
  H      0.060458    0.309552   -2.215021

FINAL SINGLE POINT ENERGY      -249.600343500388
                    ***********************HURRAY********************
 Multiplicity           Mult            ....    1
 Number of Electrons    NEL             ....   44
 Basis Dimension        Dim             ....  234
FINAL SINGLE POINT ENERGY      -249.600343541726

VIBRATIONAL FREQUENCIES
-----------------------

   0:         0.00 cm**-1
   1:         0.00 cm**-1
   2:         0.00 cm**-1
   3:         0.00 cm**-1
   4:         0.00 cm**-1
   5:         0.00 cm**-1
   6:       170.72 cm**-1
   7:       246.55 cm**-1
   8:       307.07 cm**-1
   9:       539.59 cm**-1
  10:       546.45 cm**-1
  11:       713.52 cm**-1
  12:       728.53 cm**-1
  13:       800.15 cm**-1
  14:       802.16 cm**-1
  15:       873.62 cm**-1
  16:       961.55 cm**-1
  17:       982.34 cm**-1
  18:       987.32 cm**-1
  19:      1002.45 cm**-1
  20:      1042.78 cm**-1
  21:      1069.98 cm**-1
  22:      1104.51 cm**-1
  23:      1126.43 cm**-1
  24:      1144.02 cm**-1
  25:      1288.55 cm**-1
  26:      1326.48 cm**-1
  27:      1356.58 cm**-1
  28:      1401.31 cm**-1
  29:      1499.73 cm**-1
  30:      1606.83 cm**-1
  31:      1647.57 cm**-1
  32:      1657.77 cm**-1
  33:      1674.62 cm**-1
  34:      3080.09 cm**-1
  35:      3230.94 cm**-1
  36:      3235.48 cm**-1
  37:      3250.44 cm**-1
  38:      3258.31 cm**-1
  39:      3414.85 cm**-1
  40:      3498.97 cm**-1
  41:      3504.75 cm**-1

IR SPECTRUM
-----------

 Mode    freq (cm**-1)   T**2         TX         TY         TZ
-------------------------------------------------------------------
   6:       170.72   15.058390  (  1.992821   3.329723   0.000000)
   7:       246.55    0.005133  ( -0.000000   0.000000   0.071643)
   8:       307.07    8.931011  (  0.000002  -0.000000   2.988480)
   9:       539.59    6.977884  (  2.529543   0.761114   0.000000)
  10:       546.45    1.319911  (  0.000001  -0.000000   1.148874)
  11:       713.52   58.480164  (  3.171667  -6.958498   0.000002)
  12:       728.53    0.004052  ( -0.000000  -0.000000  -0.063653)
  13:       800.15    5.746953  (  0.000001   0.000000   2.397280)
  14:       802.16   64.711279  ( -6.133831   5.204555   0.000002)
  15:       873.62    9.829178  ( -3.089415  -0.533566  -0.000005)
  16:       961.55    0.066319  (  0.000003   0.000000  -0.257524)
  17:       982.34    4.052565  ( -1.842184   0.811740   0.000000)
  18:       987.32    0.650636  ( -0.806205   0.025872   0.000000)
  19:      1002.45    0.035461  ( -0.000000   0.000000  -0.188310)
  20:      1042.78    1.787714  ( -1.233244  -0.516549   0.000002)
  21:      1069.98   30.179702  (  2.595545  -4.841782  -0.000000)
  22:      1104.51   29.223043  ( -0.000001   0.000000  -5.405834)
  23:      1126.43    2.391104  ( -0.000001   0.000000  -1.546319)
  24:      1144.02    0.053464  (  0.230549   0.017641   0.000001)
  25:      1288.55    0.116417  ( -0.000001   0.000000  -0.341199)
  26:      1326.48    0.159685  ( -0.000002  -0.000000   0.399606)
  27:      1356.58   11.844175  ( -2.916371  -1.827280   0.000000)
  28:      1401.31   46.706686  ( -6.443514  -2.277677   0.000002)
  29:      1499.73  141.530840  ( 10.647678  -5.306392   0.000000)
  30:      1606.83    3.831980  ( -1.796003  -0.778688  -0.000001)
  31:      1647.57   31.772643  (  0.000000  -0.000000  -5.636723)
  32:      1657.77   41.418348  ( -2.334544  -5.997354  -0.000000)
  33:      1674.62    0.018297  (  0.000001  -0.000000  -0.135266)
  34:      3080.09    0.862551  ( -0.183678  -0.910392   0.000000)
  35:      3230.94    3.374209  (  0.000001  -0.000000   1.836902)
  36:      3235.48    0.743360  ( -0.580302  -0.637660  -0.000002)
  37:      3250.44    2.670543  (  0.000001   0.000000   1.634180)
  38:      3258.31    1.878788  (  1.292999   0.454909  -0.000001)
  39:      3414.85   43.439673  ( -6.121617   2.442433   0.000000)
  40:      3498.97   94.343550  (  4.364995   8.677002  -0.000000)
  41:      3504.75   91.945797  (  0.000000  -0.000000  -9.588837)

--------------------------
THERMOCHEMISTRY AT 298.15K
--------------------------

Temperature         ... 298.15 K
Pressure            ... 1.00 atm
Total Mass          ... 82.13 AMU

Throughout the following assumptions are being made:
  (1) The electronic state is orbitally nondegenerate
  (2) There are no thermally accessible electronically excited states
  (3) Hindered rotations indicated by low frequency modes) are not
      treated as such but are treated as vibrations and this may
      case some error
  (4) All equations used are the standard statistical mechanics
      equations for an ideal gas
  (5) All vibrations are strinctly harmonic

------------
INNER ENERGY
------------

The inner energy is: U= E(el) + E(ZPE) + E(vib) + E(rot) + E(trans)
    E(el)   - is the total energy from the electronic structure calculation
              = E(kin-el) + E(nuc-el) + E(el-el) + E(nuc-nuc)
    E(ZPE)  - the the zero temperature vibrational energy from the frequency calculation
    E(vib)  - the the finite temperature correction to E(ZPE) due to population
              of excietd vibrational states
    E(rot)  - is the rotational thermal energy
    E(trans)- is the translational thermal energy

Summary of contributions to the inner energy U:
Electronic energy                ...   -249.60034354 Eh
Zero point energy                ...      0.12548839 Eh      78.74 kcal/mol
Thermal vibrational correction   ...      0.00266236 Eh       1.67 kcal/mol
Thermal rotational correction    ...      0.00141627 Eh       0.89 kcal/mol
Thermal translational correction ...      0.00141627 Eh       0.89 kcal/mol
-----------------------------------------------------------------------
Total thermal energy                   -249.46936025 Eh

Summary of corrections to the electronic energy:
(perhaps to be used in another calculation)
Total thermal correction                  0.00549490 Eh       3.45 kcal/mol
Non-thermal (ZPE) correction              0.12548839 Eh      78.74 kcal/mol
-----------------------------------------------------------------------
Total correction                          0.13098329 Eh      82.19 kcal/mol

--------
ENTHALPY
--------

The enthalpy is H = U + kB*T
                kB is Boltzmann's constant
Total free energy                 ...   -249.46936025 Eh
Thermal Enthalpy correction       ...      0.00094421 Eh       0.59 kcal/mol
-----------------------------------------------------------------------
Total Enthalpy                    ...   -249.46841604 Eh

-------
ENTROPY
-------

The entropy contributions are T*S = T*(S(el)+S(vib)+S(rot)+S(trans)
     S(el)   - electronic entropy
     S(vib)  - vibrational entropy
     S(rot)  - rotational entropy
     S(trans)- translational entropy
The entropies will be listed as mutliplied by the temperature to get
units of energy

Electronic entropy                ...      0.00000000 Eh      0.00 kcal/mol
Vibrational entropy               ...      0.00411457 Eh      2.58 kcal/mol
Rotational entropy                ...      0.01132508 Eh      7.11 kcal/mol
Translational entropy             ...      0.01859236 Eh     11.67 kcal/mol
-----------------------------------------------------------------------
Final entropy term                ...      0.03403201 Eh     21.36 kcal/mol

CAUTION: The rotational entropy is not quite correctly treated here
         because it includes a symmetry number that is not yet correctly
         implemented in ORCA!
For a nonlinear molecule the correct rotational entropy is:
    S(rot) = R*(ln(qrot/sn)+1.5)
    R    = 8.31441 J/mol/K = 1.987191683e-3 kcal/mol/K
    qrot = 108360.4551467
    sn is the rotational symmetry number. We have assumed 3 here
       if it is different for your molecule then you should correct
       the printed rotational entropy by manually evaluating the equation
       as given above

For convenience we print out the resulting values for sn=1 - 12:
 sn= 1  qrot/sn=  108360.4551 T*S(rot)=     7.76 kcal/mol T*S(tot)=    22.01 kcal/mol
 sn= 2  qrot/sn=   54180.2276 T*S(rot)=     7.35 kcal/mol T*S(tot)=    21.60 kcal/mol
 sn= 3  qrot/sn=   36120.1517 T*S(rot)=     7.11 kcal/mol T*S(tot)=    21.36 kcal/mol
 sn= 4  qrot/sn=   27090.1138 T*S(rot)=     6.94 kcal/mol T*S(tot)=    21.18 kcal/mol
 sn= 5  qrot/sn=   21672.0910 T*S(rot)=     6.80 kcal/mol T*S(tot)=    21.05 kcal/mol
 sn= 6  qrot/sn=   18060.0759 T*S(rot)=     6.70 kcal/mol T*S(tot)=    20.94 kcal/mol
 sn= 7  qrot/sn=   15480.0650 T*S(rot)=     6.60 kcal/mol T*S(tot)=    20.85 kcal/mol
 sn= 8  qrot/sn=   13545.0569 T*S(rot)=     6.53 kcal/mol T*S(tot)=    20.77 kcal/mol
 sn= 9  qrot/sn=   12040.0506 T*S(rot)=     6.46 kcal/mol T*S(tot)=    20.70 kcal/mol
 sn=10  qrot/sn=   10836.0455 T*S(rot)=     6.39 kcal/mol T*S(tot)=    20.64 kcal/mol
 sn=11  qrot/sn=    9850.9505 T*S(rot)=     6.34 kcal/mol T*S(tot)=    20.59 kcal/mol
 sn=12  qrot/sn=    9030.0379 T*S(rot)=     6.29 kcal/mol T*S(tot)=    20.53 kcal/mol

-------------------
GIBBS FREE ENTHALPY
-------------------

The Gibbs free enthalpy is G = H - T*S

Total enthalpy                    ...   -249.46841604 Eh
Total entropy correction          ...     -0.03403201 Eh    -21.36 kcal/mol
-----------------------------------------------------------------------
Final Gibbs free enthalpy         ...   -249.50244805 Eh

For completeness - the Gibbs free enthalpy minus the electronic energy
G-E(el)                           ...      0.09789549 Eh     61.43 kcal/mol

                             ****ORCA TERMINATED NORMALLY****
TOTAL RUN TIME: 0 days 0 hours 16 minutes 16 seconds 321 msec
