                         Program Version 3.0.3 - RELEASE   -
|  1> ! NORI PBE0 def2-TZVP UseSym TightOPT Freq TightSCF Grid3 FinalGrid5 XYZFile
|  2> % pal
|  3>     nprocs 8
|  4> end
|  5> %method
|  6>     SymThresh 5.0e-2
|  7> end
|  8> % geom
|  9>     MaxIter 10
| 10> end
| 11> % maxcore 2000
| 12> % output
| 13>     printlevel mini
| 14>     print[ P_Basis ] 0
| 15>     print[ P_SCFInfo ] 1
| 16>     print[ P_SCFIterInfo ] 1
| 17>     print[ P_OrbEn ] 0
| 18>     print[ P_Cartesian ] 0
| 19> end
| 20> % elprop
| 21>     Dipole false
| 22> end
| 23> *xyz 1 1
| 24>  N        1.1003136486    -0.0645173602    -0.0860347609
| 25>  C        2.6125148943    -0.0582563044     0.0183445821
| 26>  C        3.1220066080    -1.2711383347    -0.7584032282
| 27>  C        3.2268474364    -0.7275887461    -2.1580024869
| 28>  C        3.2215114116     0.6023787154    -2.1621322407
| 29>  C        3.1123795362     1.1537362060    -0.7659153232
| 30>  H        0.6847093984     0.7631394729     0.3440426742
| 31>  H        0.6911818662    -0.8930660831     0.3484945376
| 32>  H        0.8547976368    -0.0681724405    -1.0822575408
| 33>  H        2.8488268357    -0.0540113044     1.0816419901
| 34>  H        4.1041089004    -1.5693038776    -0.3763224842
| 35>  H        2.4794007219    -2.1522561691    -0.6574140113
| 36>  H        3.3566819664    -1.3603445392    -3.0262822303
| 37>  H        3.3462090969     1.2307145546    -3.0343707149
| 38>  H        2.4630639553     2.0305084681    -0.6701090953
| 39>  H        4.0922560869     1.4617177423    -0.3858996672
| 40> *
| 41>
| 42>                          ****END OF INPUT****
 Total Charge           Charge          ....    1
 Multiplicity           Mult            ....    1
 Number of Electrons    NEL             ....   46
FINAL SINGLE POINT ENERGY      -250.835143207648
FINAL SINGLE POINT ENERGY      -250.835144670235

CARTESIAN COORDINATES (ANGSTROEM)
---------------------------------
  N      1.782681   -0.000845    0.000000
  C      0.501058   -0.811957   -0.000000
  C     -0.314891   -0.366746    1.212471
  C     -1.078286    0.809250    0.665022
  C     -1.078286    0.809250   -0.665022
  C     -0.314891   -0.366746   -1.212471
  H      2.350789   -0.185910   -0.828100
  H      2.350789   -0.185910    0.828100
  H      1.526979    0.992946    0.000000
  H      0.799918   -1.859325   -0.000000
  H     -0.994472   -1.170605    1.516179
  H      0.299518   -0.144285    2.091278
  H     -1.605684    1.512969    1.295704
  H     -1.605684    1.512969   -1.295704
  H      0.299518   -0.144285   -2.091278
  H     -0.994472   -1.170605   -1.516179

FINAL SINGLE POINT ENERGY      -250.835145280004
                    ***********************HURRAY********************
 Multiplicity           Mult            ....    1
 Number of Electrons    NEL             ....   46
 Basis Dimension        Dim             ....  246
FINAL SINGLE POINT ENERGY      -250.835145423049

VIBRATIONAL FREQUENCIES
-----------------------

   0:         0.00 cm**-1
   1:         0.00 cm**-1
   2:         0.00 cm**-1
   3:         0.00 cm**-1
   4:         0.00 cm**-1
   5:         0.00 cm**-1
   6:       150.05 cm**-1
   7:       272.00 cm**-1
   8:       348.87 cm**-1
   9:       383.02 cm**-1
  10:       431.14 cm**-1
  11:       694.66 cm**-1
  12:       751.15 cm**-1
  13:       789.80 cm**-1
  14:       808.23 cm**-1
  15:       904.46 cm**-1
  16:       908.47 cm**-1
  17:       927.44 cm**-1
  18:       987.53 cm**-1
  19:       991.84 cm**-1
  20:       998.07 cm**-1
  21:      1009.68 cm**-1
  22:      1080.50 cm**-1
  23:      1094.86 cm**-1
  24:      1137.24 cm**-1
  25:      1183.84 cm**-1
  26:      1237.24 cm**-1
  27:      1291.18 cm**-1
  28:      1313.46 cm**-1
  29:      1341.16 cm**-1
  30:      1386.50 cm**-1
  31:      1395.19 cm**-1
  32:      1467.17 cm**-1
  33:      1473.25 cm**-1
  34:      1486.77 cm**-1
  35:      1648.96 cm**-1
  36:      1658.63 cm**-1
  37:      1686.02 cm**-1
  38:      3054.00 cm**-1
  39:      3054.23 cm**-1
  40:      3088.61 cm**-1
  41:      3089.37 cm**-1
  42:      3146.46 cm**-1
  43:      3226.64 cm**-1
  44:      3246.39 cm**-1
  45:      3393.87 cm**-1
  46:      3485.14 cm**-1
  47:      3521.10 cm**-1

IR SPECTRUM
-----------

 Mode    freq (cm**-1)   T**2         TX         TY         TZ
-------------------------------------------------------------------
   6:       150.05   13.667830  ( -3.264163   1.735819  -0.000012)
   7:       272.00    0.122488  (  0.000086  -0.000029   0.349983)
   8:       348.87    2.568508  ( -0.000080   0.000015  -1.602657)
   9:       383.02   10.530193  (  3.131530  -0.850713  -0.000061)
  10:       431.14    3.322620  ( -0.000093   0.000020  -1.822806)
  11:       694.66   45.627944  (  5.978477   3.144162   0.000002)
  12:       751.15   11.703603  (  1.334371   3.150088  -0.000018)
  13:       789.80    0.079094  ( -0.000011   0.000046   0.281237)
  14:       808.23   20.654686  ( -4.404490  -1.120338  -0.000021)
  15:       904.46    5.143799  (  0.000007   0.000163   2.267995)
  16:       908.47    4.269191  ( -0.210868  -2.055414   0.000196)
  17:       927.44    0.077493  ( -0.000005   0.000004  -0.278376)
  18:       987.53    0.428500  ( -0.179099   0.629621  -0.000586)
  19:       991.84   14.383470  ( -0.000044   0.000071   3.792555)
  20:       998.07    3.685328  ( -0.000000   0.000032   1.919721)
  21:      1009.68    3.600856  ( -1.794576   0.616728  -0.000040)
  22:      1080.50   11.972043  ( -3.334851   0.922393  -0.000020)
  23:      1094.86    0.337924  ( -0.000133   0.000028   0.581312)
  24:      1137.24    0.752298  ( -0.730308  -0.467918   0.000037)
  25:      1183.84    5.487545  (  0.000038   0.000056  -2.342551)
  26:      1237.24    6.346454  ( -0.698547  -2.420431  -0.000031)
  27:      1291.18    6.845072  ( -0.000024  -0.000026   2.616309)
  28:      1313.46    2.680745  (  0.000057  -0.000055   1.637298)
  29:      1341.16    3.870081  ( -1.313764   1.464276   0.000037)
  30:      1386.50    4.732861  (  0.000078  -0.000047   2.175514)
  31:      1395.19   22.871023  ( -4.196212   2.294085   0.000029)
  32:      1467.17   22.636631  ( -0.000440  -0.000310   4.757797)
  33:      1473.25  130.684889  (  9.441741   6.445031   0.000350)
  34:      1486.77   57.814795  ( -6.560516  -3.843751   0.000113)
  35:      1648.96   43.895553  (  4.129359  -5.181114   0.000451)
  36:      1658.63   21.765967  (  0.000538  -0.000431  -4.665401)
  37:      1686.02    0.164402  ( -0.295020   0.278145  -0.000002)
  38:      3054.00    9.990745  (  0.001444  -0.000492   3.160814)
  39:      3054.23    7.114335  ( -2.528726   0.848454   0.001797)
  40:      3088.61    3.278252  ( -1.802256  -0.173561  -0.000297)
  41:      3089.37    4.471327  ( -0.000275  -0.000010   2.114551)
  42:      3146.46    2.917641  ( -1.225308   1.190068  -0.000001)
  43:      3226.64    1.349712  (  0.000011  -0.000015  -1.161771)
  44:      3246.39    0.393869  ( -0.304522   0.548758  -0.000037)
  45:      3393.87   26.482250  ( -1.394858  -4.953445   0.000027)
  46:      3485.14  107.425315  (  8.584105  -5.808481  -0.000127)
  47:      3521.10   80.485639  (  0.000144  -0.000036   8.971379)

--------------------------
THERMOCHEMISTRY AT 298.15K
--------------------------

Temperature         ... 298.15 K
Pressure            ... 1.00 atm
Total Mass          ... 84.14 AMU

Throughout the following assumptions are being made:
  (1) The electronic state is orbitally nondegenerate
  (2) There are no thermally accessible electronically excited states
  (3) Hindered rotations indicated by low frequency modes) are not
      treated as such but are treated as vibrations and this may
      case some error
  (4) All equations used are the standard statistical mechanics
      equations for an ideal gas
  (5) All vibrations are strinctly harmonic

------------
INNER ENERGY
------------

The inner energy is: U= E(el) + E(ZPE) + E(vib) + E(rot) + E(trans)
    E(el)   - is the total energy from the electronic structure calculation
              = E(kin-el) + E(nuc-el) + E(el-el) + E(nuc-nuc)
    E(ZPE)  - the the zero temperature vibrational energy from the frequency calculation
    E(vib)  - the the finite temperature correction to E(ZPE) due to population
              of excietd vibrational states
    E(rot)  - is the rotational thermal energy
    E(trans)- is the translational thermal energy

Summary of contributions to the inner energy U:
Electronic energy                ...   -250.83514542 Eh
Zero point energy                ...      0.14932065 Eh      93.70 kcal/mol
Thermal vibrational correction   ...      0.00291523 Eh       1.83 kcal/mol
Thermal rotational correction    ...      0.00141627 Eh       0.89 kcal/mol
Thermal translational correction ...      0.00141627 Eh       0.89 kcal/mol
-----------------------------------------------------------------------
Total thermal energy                   -250.68007700 Eh

Summary of corrections to the electronic energy:
(perhaps to be used in another calculation)
Total thermal correction                  0.00574778 Eh       3.61 kcal/mol
Non-thermal (ZPE) correction              0.14932065 Eh      93.70 kcal/mol
-----------------------------------------------------------------------
Total correction                          0.15506842 Eh      97.31 kcal/mol

--------
ENTHALPY
--------

The enthalpy is H = U + kB*T
                kB is Boltzmann's constant
Total free energy                 ...   -250.68007700 Eh
Thermal Enthalpy correction       ...      0.00094421 Eh       0.59 kcal/mol
-----------------------------------------------------------------------
Total Enthalpy                    ...   -250.67913279 Eh

-------
ENTROPY
-------

The entropy contributions are T*S = T*(S(el)+S(vib)+S(rot)+S(trans)
     S(el)   - electronic entropy
     S(vib)  - vibrational entropy
     S(rot)  - rotational entropy
     S(trans)- translational entropy
The entropies will be listed as mutliplied by the temperature to get
units of energy

Electronic entropy                ...      0.00000000 Eh      0.00 kcal/mol
Vibrational entropy               ...      0.00451425 Eh      2.83 kcal/mol
Rotational entropy                ...      0.01137366 Eh      7.14 kcal/mol
Translational entropy             ...      0.01862670 Eh     11.69 kcal/mol
-----------------------------------------------------------------------
Final entropy term                ...      0.03451461 Eh     21.66 kcal/mol

CAUTION: The rotational entropy is not quite correctly treated here
         because it includes a symmetry number that is not yet correctly
         implemented in ORCA!
For a nonlinear molecule the correct rotational entropy is:
    S(rot) = R*(ln(qrot/sn)+1.5)
    R    = 8.31441 J/mol/K = 1.987191683e-3 kcal/mol/K
    qrot = 114082.4682816
    sn is the rotational symmetry number. We have assumed 3 here
       if it is different for your molecule then you should correct
       the printed rotational entropy by manually evaluating the equation
       as given above

For convenience we print out the resulting values for sn=1 - 12:
 sn= 1  qrot/sn=  114082.4683 T*S(rot)=     7.79 kcal/mol T*S(tot)=    22.31 kcal/mol
 sn= 2  qrot/sn=   57041.2341 T*S(rot)=     7.38 kcal/mol T*S(tot)=    21.90 kcal/mol
 sn= 3  qrot/sn=   38027.4894 T*S(rot)=     7.14 kcal/mol T*S(tot)=    21.66 kcal/mol
 sn= 4  qrot/sn=   28520.6171 T*S(rot)=     6.97 kcal/mol T*S(tot)=    21.49 kcal/mol
 sn= 5  qrot/sn=   22816.4937 T*S(rot)=     6.83 kcal/mol T*S(tot)=    21.36 kcal/mol
 sn= 6  qrot/sn=   19013.7447 T*S(rot)=     6.73 kcal/mol T*S(tot)=    21.25 kcal/mol
 sn= 7  qrot/sn=   16297.4955 T*S(rot)=     6.64 kcal/mol T*S(tot)=    21.16 kcal/mol
 sn= 8  qrot/sn=   14260.3085 T*S(rot)=     6.56 kcal/mol T*S(tot)=    21.08 kcal/mol
 sn= 9  qrot/sn=   12675.8298 T*S(rot)=     6.49 kcal/mol T*S(tot)=    21.01 kcal/mol
 sn=10  qrot/sn=   11408.2468 T*S(rot)=     6.42 kcal/mol T*S(tot)=    20.94 kcal/mol
 sn=11  qrot/sn=   10371.1335 T*S(rot)=     6.37 kcal/mol T*S(tot)=    20.89 kcal/mol
 sn=12  qrot/sn=    9506.8724 T*S(rot)=     6.32 kcal/mol T*S(tot)=    20.84 kcal/mol

-------------------
GIBBS FREE ENTHALPY
-------------------

The Gibbs free enthalpy is G = H - T*S

Total enthalpy                    ...   -250.67913279 Eh
Total entropy correction          ...     -0.03451461 Eh    -21.66 kcal/mol
-----------------------------------------------------------------------
Final Gibbs free enthalpy         ...   -250.71364740 Eh

For completeness - the Gibbs free enthalpy minus the electronic energy
G-E(el)                           ...      0.12149802 Eh     76.24 kcal/mol

                             ****ORCA TERMINATED NORMALLY****
TOTAL RUN TIME: 0 days 0 hours 19 minutes 43 seconds 837 msec
