                         Program Version 3.0.3 - RELEASE   -
|  1> ! NORI PBE0 def2-TZVP UseSym TightOPT Freq TightSCF Grid3 FinalGrid5 XYZFile
|  2> % pal
|  3>     nprocs 8
|  4> end
|  5> %method
|  6>     SymThresh 5.0e-2
|  7> end
|  8> % geom
|  9>     MaxIter 10
| 10> end
| 11> % maxcore 2000
| 12> % output
| 13>     printlevel mini
| 14>     print[ P_Basis ] 0
| 15>     print[ P_SCFInfo ] 1
| 16>     print[ P_SCFIterInfo ] 1
| 17>     print[ P_OrbEn ] 0
| 18>     print[ P_Cartesian ] 0
| 19> end
| 20> % elprop
| 21>     Dipole false
| 22> end
| 23> *xyz 1 1
| 24>  N        1.0628717730     0.0346022842    -0.0754575553
| 25>  C        2.5976252705    -0.0027941863    -0.0040758664
| 26>  C        3.0765592098    -1.2876894125     0.6752222473
| 27>  C        3.4498669390    -0.8853489459     2.1121618361
| 28>  C        3.5063476712     0.6057061712     2.0498013559
| 29>  C        3.0638632369     1.0961335652     0.8941951732
| 30>  H        0.6910695398    -0.7185675030    -0.6576757006
| 31>  H        0.7367344042     0.9237963719    -0.4591510225
| 32>  H        0.6690768090    -0.0562449590     0.8633701201
| 33>  H        2.9099364018     0.0879816746    -1.0461529658
| 34>  H        3.9619819403    -1.6355634250     0.1420737470
| 35>  H        2.3475984279    -2.1012490300     0.6225139336
| 36>  H        4.4063702508    -1.3158688361     2.4164298968
| 37>  H        2.7232595109    -1.2180911250     2.8618425756
| 38>  H        3.8780135578     1.2116705439     2.8677530752
| 39>  H        3.0331650573     2.1427668118     0.6149891497
| 40> *
| 41>
| 42>                          ****END OF INPUT****
 Total Charge           Charge          ....    1
 Multiplicity           Mult            ....    1
 Number of Electrons    NEL             ....   46
FINAL SINGLE POINT ENERGY      -250.835450289060

CARTESIAN COORDINATES (ANGSTROEM)
---------------------------------
  N      0.000477    0.000196    1.930628
  C      0.720400   -0.000221    0.572491
  C      0.288824    1.202854   -0.268969
  C     -0.720378    0.655532   -1.292548
  C     -0.528388   -0.823284   -1.210235
  C      0.270095   -1.190369   -0.210556
  H      0.253572    0.814076    2.494569
  H      0.228555   -0.840394    2.464988
  H     -1.011523    0.006507    1.787232
  H      1.779143    0.004627    0.838276
  H      1.172573    1.583908   -0.782007
  H     -0.098874    2.031311    0.329925
  H     -0.522887    1.035414   -2.297345
  H     -1.758326    0.928052   -1.071377
  H     -0.993581   -1.513071   -1.904544
  H      0.570095   -2.203978    0.027140

FINAL SINGLE POINT ENERGY      -250.835450971296
                    ***********************HURRAY********************
 Multiplicity           Mult            ....    1
 Number of Electrons    NEL             ....   46
 Basis Dimension        Dim             ....  246
FINAL SINGLE POINT ENERGY      -250.835451357243

VIBRATIONAL FREQUENCIES
-----------------------

   0:         0.00 cm**-1
   1:         0.00 cm**-1
   2:         0.00 cm**-1
   3:         0.00 cm**-1
   4:         0.00 cm**-1
   5:         0.00 cm**-1
   6:        97.43 cm**-1
   7:       219.71 cm**-1
   8:       268.75 cm**-1
   9:       353.11 cm**-1
  10:       485.37 cm**-1
  11:       694.12 cm**-1
  12:       709.35 cm**-1
  13:       778.66 cm**-1
  14:       794.23 cm**-1
  15:       850.78 cm**-1
  16:       914.39 cm**-1
  17:       929.63 cm**-1
  18:       965.84 cm**-1
  19:       980.65 cm**-1
  20:       999.24 cm**-1
  21:      1049.06 cm**-1
  22:      1087.30 cm**-1
  23:      1121.10 cm**-1
  24:      1143.93 cm**-1
  25:      1201.74 cm**-1
  26:      1243.74 cm**-1
  27:      1306.93 cm**-1
  28:      1323.95 cm**-1
  29:      1351.00 cm**-1
  30:      1383.72 cm**-1
  31:      1404.59 cm**-1
  32:      1467.46 cm**-1
  33:      1476.55 cm**-1
  34:      1489.30 cm**-1
  35:      1647.67 cm**-1
  36:      1657.11 cm**-1
  37:      1686.04 cm**-1
  38:      3058.00 cm**-1
  39:      3082.31 cm**-1
  40:      3108.06 cm**-1
  41:      3110.70 cm**-1
  42:      3136.10 cm**-1
  43:      3211.83 cm**-1
  44:      3232.42 cm**-1
  45:      3416.14 cm**-1
  46:      3510.82 cm**-1
  47:      3513.52 cm**-1

IR SPECTRUM
-----------

 Mode    freq (cm**-1)   T**2         TX         TY         TZ
-------------------------------------------------------------------
   6:        97.43    5.456425  (  2.031601  -0.068987   1.150767)
   7:       219.71    0.106399  ( -0.014361  -0.325872  -0.000933)
   8:       268.75    5.954936  ( -0.943410  -1.564594  -1.617702)
   9:       353.11    8.426254  (  0.536645  -2.265173   1.734145)
  10:       485.37    1.449966  (  0.626334   0.827513   0.610650)
  11:       694.12   14.288760  ( -3.604348  -0.130210   1.131585)
  12:       709.35    5.670078  ( -2.131782   0.173419  -1.046665)
  13:       778.66   49.530622  ( -3.707775   0.482779   5.962378)
  14:       794.23    1.848948  ( -0.183220  -0.136230   1.340455)
  15:       850.78    6.653185  ( -1.215881   0.310281  -2.253562)
  16:       914.39    6.858215  (  0.462139  -0.912517  -2.410800)
  17:       929.63    5.710606  ( -1.988664   1.273823   0.364956)
  18:       965.84    2.630871  (  0.478858  -1.284778   0.866552)
  19:       980.65   16.735248  ( -1.401373  -1.508961   3.534747)
  20:       999.24    4.536986  (  0.140123  -1.188083  -1.762331)
  21:      1049.06   12.140069  ( -0.143378   0.802844   3.387470)
  22:      1087.30   20.417744  (  4.073744   1.871370  -0.565976)
  23:      1121.10   11.067304  (  0.033195   3.270685  -0.607306)
  24:      1143.93    0.671393  (  0.259358  -0.714260   0.306529)
  25:      1201.74    1.628372  (  0.311898  -1.214143  -0.238636)
  26:      1243.74    2.027800  (  0.715451   0.864906  -0.876280)
  27:      1306.93    4.643181  (  0.460412   1.434363   1.540716)
  28:      1323.95    0.937901  (  0.704880  -0.662751   0.042498)
  29:      1351.00    4.381649  (  1.063340  -0.746545   1.641228)
  30:      1383.72    0.102924  ( -0.054941  -0.023756   0.315184)
  31:      1404.59   55.407563  ( -2.743743  -0.645118  -6.889358)
  32:      1467.46    8.486043  (  2.714973   0.909685  -0.536133)
  33:      1476.55  124.291386  ( -4.095564  -2.062754  10.161830)
  34:      1489.30   41.903219  (  4.013636  -3.460114  -3.717735)
  35:      1647.67   34.892537  (  3.504836  -4.376179   1.859495)
  36:      1657.11   42.281977  (  4.914568   3.224879   2.780136)
  37:      1686.04   13.882100  ( -1.332007   1.312302  -3.222688)
  38:      3058.00    4.655132  ( -2.032884   0.138407  -0.709479)
  39:      3082.31    9.124430  (  0.222858  -2.172511  -2.086854)
  40:      3108.06    0.146183  (  0.069032   0.351547  -0.133536)
  41:      3110.70    5.757750  ( -1.271797  -0.609038  -1.941483)
  42:      3136.10    1.341514  ( -0.817109   0.728098   0.379105)
  43:      3211.83    0.380360  ( -0.429573   0.304474  -0.321127)
  44:      3232.42    0.282553  (  0.085733   0.201557   0.484332)
  45:      3416.14   36.460074  (  1.814245   0.103306  -5.758291)
  46:      3510.82   78.030223  ( -7.547568   1.198500  -4.430355)
  47:      3513.52   80.986579  (  0.973082   8.945161  -0.154202)

--------------------------
THERMOCHEMISTRY AT 298.15K
--------------------------

Temperature         ... 298.15 K
Pressure            ... 1.00 atm
Total Mass          ... 84.14 AMU

Throughout the following assumptions are being made:
  (1) The electronic state is orbitally nondegenerate
  (2) There are no thermally accessible electronically excited states
  (3) Hindered rotations indicated by low frequency modes) are not
      treated as such but are treated as vibrations and this may
      case some error
  (4) All equations used are the standard statistical mechanics
      equations for an ideal gas
  (5) All vibrations are strinctly harmonic

------------
INNER ENERGY
------------

The inner energy is: U= E(el) + E(ZPE) + E(vib) + E(rot) + E(trans)
    E(el)   - is the total energy from the electronic structure calculation
              = E(kin-el) + E(nuc-el) + E(el-el) + E(nuc-nuc)
    E(ZPE)  - the the zero temperature vibrational energy from the frequency calculation
    E(vib)  - the the finite temperature correction to E(ZPE) due to population
              of excietd vibrational states
    E(rot)  - is the rotational thermal energy
    E(trans)- is the translational thermal energy

Summary of contributions to the inner energy U:
Electronic energy                ...   -250.83545136 Eh
Zero point energy                ...      0.14913425 Eh      93.58 kcal/mol
Thermal vibrational correction   ...      0.00319609 Eh       2.01 kcal/mol
Thermal rotational correction    ...      0.00141627 Eh       0.89 kcal/mol
Thermal translational correction ...      0.00141627 Eh       0.89 kcal/mol
-----------------------------------------------------------------------
Total thermal energy                   -250.68028848 Eh

Summary of corrections to the electronic energy:
(perhaps to be used in another calculation)
Total thermal correction                  0.00602863 Eh       3.78 kcal/mol
Non-thermal (ZPE) correction              0.14913425 Eh      93.58 kcal/mol
-----------------------------------------------------------------------
Total correction                          0.15516288 Eh      97.37 kcal/mol

--------
ENTHALPY
--------

The enthalpy is H = U + kB*T
                kB is Boltzmann's constant
Total free energy                 ...   -250.68028848 Eh
Thermal Enthalpy correction       ...      0.00094421 Eh       0.59 kcal/mol
-----------------------------------------------------------------------
Total Enthalpy                    ...   -250.67934427 Eh

-------
ENTROPY
-------

The entropy contributions are T*S = T*(S(el)+S(vib)+S(rot)+S(trans)
     S(el)   - electronic entropy
     S(vib)  - vibrational entropy
     S(rot)  - rotational entropy
     S(trans)- translational entropy
The entropies will be listed as mutliplied by the temperature to get
units of energy

Electronic entropy                ...      0.00000000 Eh      0.00 kcal/mol
Vibrational entropy               ...      0.00531515 Eh      3.34 kcal/mol
Rotational entropy                ...      0.01143039 Eh      7.17 kcal/mol
Translational entropy             ...      0.01862670 Eh     11.69 kcal/mol
-----------------------------------------------------------------------
Final entropy term                ...      0.03537224 Eh     22.20 kcal/mol

CAUTION: The rotational entropy is not quite correctly treated here
         because it includes a symmetry number that is not yet correctly
         implemented in ORCA!
For a nonlinear molecule the correct rotational entropy is:
    S(rot) = R*(ln(qrot/sn)+1.5)
    R    = 8.31441 J/mol/K = 1.987191683e-3 kcal/mol/K
    qrot = 121145.8927115
    sn is the rotational symmetry number. We have assumed 3 here
       if it is different for your molecule then you should correct
       the printed rotational entropy by manually evaluating the equation
       as given above

For convenience we print out the resulting values for sn=1 - 12:
 sn= 1  qrot/sn=  121145.8927 T*S(rot)=     7.82 kcal/mol T*S(tot)=    22.85 kcal/mol
 sn= 2  qrot/sn=   60572.9464 T*S(rot)=     7.41 kcal/mol T*S(tot)=    22.44 kcal/mol
 sn= 3  qrot/sn=   40381.9642 T*S(rot)=     7.17 kcal/mol T*S(tot)=    22.20 kcal/mol
 sn= 4  qrot/sn=   30286.4732 T*S(rot)=     7.00 kcal/mol T*S(tot)=    22.03 kcal/mol
 sn= 5  qrot/sn=   24229.1785 T*S(rot)=     6.87 kcal/mol T*S(tot)=    21.89 kcal/mol
 sn= 6  qrot/sn=   20190.9821 T*S(rot)=     6.76 kcal/mol T*S(tot)=    21.79 kcal/mol
 sn= 7  qrot/sn=   17306.5561 T*S(rot)=     6.67 kcal/mol T*S(tot)=    21.69 kcal/mol
 sn= 8  qrot/sn=   15143.2366 T*S(rot)=     6.59 kcal/mol T*S(tot)=    21.62 kcal/mol
 sn= 9  qrot/sn=   13460.6547 T*S(rot)=     6.52 kcal/mol T*S(tot)=    21.55 kcal/mol
 sn=10  qrot/sn=   12114.5893 T*S(rot)=     6.46 kcal/mol T*S(tot)=    21.48 kcal/mol
 sn=11  qrot/sn=   11013.2630 T*S(rot)=     6.40 kcal/mol T*S(tot)=    21.43 kcal/mol
 sn=12  qrot/sn=   10095.4911 T*S(rot)=     6.35 kcal/mol T*S(tot)=    21.38 kcal/mol

-------------------
GIBBS FREE ENTHALPY
-------------------

The Gibbs free enthalpy is G = H - T*S

Total enthalpy                    ...   -250.67934427 Eh
Total entropy correction          ...     -0.03537224 Eh    -22.20 kcal/mol
-----------------------------------------------------------------------
Final Gibbs free enthalpy         ...   -250.71471651 Eh

For completeness - the Gibbs free enthalpy minus the electronic energy
G-E(el)                           ...      0.12073485 Eh     75.76 kcal/mol

                             ****ORCA TERMINATED NORMALLY****
TOTAL RUN TIME: 0 days 0 hours 18 minutes 16 seconds 211 msec
