                         Program Version 3.0.3 - RELEASE   -
|  1> ! NORI PBE0 def2-TZVP UseSym TightOPT Freq TightSCF Grid3 FinalGrid5 XYZFile
|  2> % pal
|  3>     nprocs 8
|  4> end
|  5> %method
|  6>     SymThresh 5.0e-2
|  7> end
|  8> % geom
|  9>     MaxIter 10
| 10> end
| 11> % maxcore 2000
| 12> % output
| 13>     printlevel mini
| 14>     print[ P_Basis ] 0
| 15>     print[ P_SCFInfo ] 1
| 16>     print[ P_SCFIterInfo ] 1
| 17>     print[ P_OrbEn ] 0
| 18>     print[ P_Cartesian ] 0
| 19> end
| 20> % elprop
| 21>     Dipole false
| 22> end
| 23> *xyz 1 1
| 24>  N        3.3908981228    -0.0811099398    -1.0775306428
| 25>  C        2.4719417564     0.0924911332     0.1092357302
| 26>  C        2.9689994363    -0.7338497001     1.2625046102
| 27>  C        2.0310657619    -0.8876405417     2.4784639398
| 28>  C        2.4964822731    -2.3525484759     2.5878678365
| 29>  C        2.9785544291    -2.2739638792     1.1251300369
| 30>  H        3.0581139985     0.4181883574    -1.9042456295
| 31>  H        3.4694366283    -1.0733018000    -1.3138863083
| 32>  H        4.3312241374     0.2563250650    -0.8619353936
| 33>  H        1.4837894370    -0.2295143489    -0.2239754052
| 34>  H        2.4410566474     1.1611804764     0.3289395888
| 35>  H        3.9478336659    -0.3676737041     1.5921324738
| 36>  H        0.9807422674    -0.8217952870     2.1830388156
| 37>  H        2.1990221120    -0.2249117564     3.3263449013
| 38>  H        3.3337738020    -2.4588554590     3.2784561887
| 39>  H        1.7463673229    -3.1036585886     2.8275825691
| 40>  H        3.9196588040    -2.7661320148     0.8734706824
| 41>  H        2.1983893975    -2.6207895365     0.4383360060
| 42> *
| 43>
| 44>                          ****END OF INPUT****
 Total Charge           Charge          ....    1
 Multiplicity           Mult            ....    1
 Number of Electrons    NEL             ....   48
FINAL SINGLE POINT ENERGY      -252.028303751914

CARTESIAN COORDINATES (ANGSTROEM)
---------------------------------
  N      0.000240    0.000512    2.368348
  C      0.883727   -0.000484    1.142665
  C      0.087442    0.428129   -0.058383
  C      0.745099    0.249977   -1.443250
  C     -0.632717   -0.174571   -1.986706
  C     -1.075902   -0.470216   -0.539581
  H      0.486568   -0.340892    3.199413
  H     -0.816138   -0.595108    2.208668
  H     -0.343631    0.942109    2.568048
  H      1.256030   -1.021281    1.038870
  H      1.722989    0.662400    1.360016
  H     -0.247320    1.464581    0.063545
  H      1.451015   -0.584433   -1.444868
  H      1.230431    1.120635   -1.881779
  H     -1.178559    0.671181   -2.406027
  H     -0.662751   -0.998447   -2.696909
  H     -2.093582   -0.197790   -0.254218
  H     -0.902316   -1.521839   -0.286012

FINAL SINGLE POINT ENERGY      -252.028304354519
                    ***********************HURRAY********************
 Multiplicity           Mult            ....    1
 Number of Electrons    NEL             ....   48
 Basis Dimension        Dim             ....  258
FINAL SINGLE POINT ENERGY      -252.028304637228

VIBRATIONAL FREQUENCIES
-----------------------

   0:         0.00 cm**-1
   1:         0.00 cm**-1
   2:         0.00 cm**-1
   3:         0.00 cm**-1
   4:         0.00 cm**-1
   5:         0.00 cm**-1
   6:        98.23 cm**-1
   7:       139.69 cm**-1
   8:       190.63 cm**-1
   9:       233.28 cm**-1
  10:       398.57 cm**-1
  11:       412.11 cm**-1
  12:       613.55 cm**-1
  13:       763.01 cm**-1
  14:       788.49 cm**-1
  15:       839.13 cm**-1
  16:       895.41 cm**-1
  17:       919.06 cm**-1
  18:       959.20 cm**-1
  19:       970.48 cm**-1
  20:       978.77 cm**-1
  21:       999.99 cm**-1
  22:      1017.53 cm**-1
  23:      1106.20 cm**-1
  24:      1154.17 cm**-1
  25:      1201.73 cm**-1
  26:      1217.21 cm**-1
  27:      1261.55 cm**-1
  28:      1262.72 cm**-1
  29:      1265.37 cm**-1
  30:      1286.46 cm**-1
  31:      1292.06 cm**-1
  32:      1344.05 cm**-1
  33:      1370.33 cm**-1
  34:      1414.02 cm**-1
  35:      1470.44 cm**-1
  36:      1481.34 cm**-1
  37:      1492.74 cm**-1
  38:      1498.07 cm**-1
  39:      1509.13 cm**-1
  40:      1655.22 cm**-1
  41:      1663.33 cm**-1
  42:      3046.04 cm**-1
  43:      3054.08 cm**-1
  44:      3079.31 cm**-1
  45:      3091.99 cm**-1
  46:      3100.89 cm**-1
  47:      3119.74 cm**-1
  48:      3148.86 cm**-1
  49:      3152.33 cm**-1
  50:      3166.00 cm**-1
  51:      3419.11 cm**-1
  52:      3498.39 cm**-1
  53:      3512.04 cm**-1

IR SPECTRUM
-----------

 Mode    freq (cm**-1)   T**2         TX         TY         TZ
-------------------------------------------------------------------
   6:        98.23    9.704978  ( -1.157420  -2.011944  -2.077845)
   7:       139.69    2.035713  (  1.134673  -0.430770   0.750111)
   8:       190.63    6.740765  ( -1.324590   0.826504  -2.074396)
   9:       233.28    1.486511  ( -0.755675   0.401625  -0.868426)
  10:       398.57    5.896963  ( -0.013112  -0.214474   2.418841)
  11:       412.11    6.481994  (  0.112328  -0.928591   2.367931)
  12:       613.55    2.061841  ( -0.121448   1.358036   0.450366)
  13:       763.01    2.547708  ( -1.084211   0.059799  -1.169880)
  14:       788.49    1.282794  (  0.574556   0.704813  -0.675217)
  15:       839.13   10.525588  (  0.871089   2.742944   1.497682)
  16:       895.41   12.707445  (  0.377314  -0.962621   3.411516)
  17:       919.06    8.750183  (  0.019811  -0.407192   2.929844)
  18:       959.20    4.898428  (  1.991406   0.920143  -0.293374)
  19:       970.48    3.183381  (  0.323189   0.655305   1.627730)
  20:       978.77    2.852904  (  0.912313  -1.413874  -0.146793)
  21:       999.99    0.666470  ( -0.436334  -0.383166  -0.573818)
  22:      1017.53   10.605179  (  1.880402  -1.242305   2.350733)
  23:      1106.20    4.709983  ( -1.391607   0.397428   1.617240)
  24:      1154.17    9.157090  (  1.475118  -0.105523   2.640072)
  25:      1201.73    2.017244  ( -0.491889   0.675054  -1.148734)
  26:      1217.21    1.846438  ( -1.127763  -0.018602  -0.757787)
  27:      1261.55    3.102610  (  0.409795  -1.657215   0.433954)
  28:      1262.72    1.304940  ( -0.884009   0.581826   0.430054)
  29:      1265.37    0.718558  ( -0.769863   0.342302  -0.093267)
  30:      1286.46    2.874889  ( -0.658608  -1.278833  -0.897614)
  31:      1292.06    4.078895  (  1.867359   0.648810  -0.413413)
  32:      1344.05    2.536511  ( -0.653219  -1.363046  -0.501918)
  33:      1370.33   10.830866  (  1.172783   0.939180   2.928035)
  34:      1414.02    8.440857  (  0.706410  -0.145176  -2.814386)
  35:      1470.44    6.910160  (  2.086613   0.806194  -1.380672)
  36:      1481.34    4.304869  ( -1.420578   1.079254  -1.059263)
  37:      1492.74   16.059007  ( -3.640774   1.475983  -0.790727)
  38:      1498.07  144.097204  ( -5.540215  -0.823144  10.617234)
  39:      1509.13   15.948906  (  2.625332  -1.225775  -2.748456)
  40:      1655.22   49.723421  ( -1.615952  -6.816570  -0.804049)
  41:      1663.33   33.700571  (  4.162996  -1.142447   3.881346)
  42:      3046.04   15.485149  ( -1.416762  -1.386288   3.399432)
  43:      3054.08   14.256281  ( -1.079446  -3.612205   0.207494)
  44:      3079.31   11.768349  ( -3.098269   1.296878   0.697989)
  45:      3091.99    4.497187  ( -1.674082   0.943221  -0.897202)
  46:      3100.89    9.465992  (  0.877421  -0.114241   2.946706)
  47:      3119.74   17.780154  ( -4.009167   1.295782  -0.166372)
  48:      3148.86    7.247461  (  0.981501   1.374249  -2.096558)
  49:      3152.33    1.862871  ( -0.338193  -1.322162   0.019578)
  50:      3166.00   10.722942  (  0.371017  -3.133733  -0.874645)
  51:      3419.11   33.783368  (  3.242977   0.347876  -4.810972)
  52:      3498.39   96.254119  ( -4.292708  -7.163962  -5.148245)
  53:      3512.04   99.181295  ( -6.005322   6.037254  -5.164201)

--------------------------
THERMOCHEMISTRY AT 298.15K
--------------------------

Temperature         ... 298.15 K
Pressure            ... 1.00 atm
Total Mass          ... 86.16 AMU

Throughout the following assumptions are being made:
  (1) The electronic state is orbitally nondegenerate
  (2) There are no thermally accessible electronically excited states
  (3) Hindered rotations indicated by low frequency modes) are not
      treated as such but are treated as vibrations and this may
      case some error
  (4) All equations used are the standard statistical mechanics
      equations for an ideal gas
  (5) All vibrations are strinctly harmonic

------------
INNER ENERGY
------------

The inner energy is: U= E(el) + E(ZPE) + E(vib) + E(rot) + E(trans)
    E(el)   - is the total energy from the electronic structure calculation
              = E(kin-el) + E(nuc-el) + E(el-el) + E(nuc-nuc)
    E(ZPE)  - the the zero temperature vibrational energy from the frequency calculation
    E(vib)  - the the finite temperature correction to E(ZPE) due to population
              of excietd vibrational states
    E(rot)  - is the rotational thermal energy
    E(trans)- is the translational thermal energy

Summary of contributions to the inner energy U:
Electronic energy                ...   -252.02830464 Eh
Zero point energy                ...      0.17212023 Eh     108.01 kcal/mol
Thermal vibrational correction   ...      0.00398155 Eh       2.50 kcal/mol
Thermal rotational correction    ...      0.00141627 Eh       0.89 kcal/mol
Thermal translational correction ...      0.00141627 Eh       0.89 kcal/mol
-----------------------------------------------------------------------
Total thermal energy                   -251.84937031 Eh

Summary of corrections to the electronic energy:
(perhaps to be used in another calculation)
Total thermal correction                  0.00681409 Eh       4.28 kcal/mol
Non-thermal (ZPE) correction              0.17212023 Eh     108.01 kcal/mol
-----------------------------------------------------------------------
Total correction                          0.17893433 Eh     112.28 kcal/mol

--------
ENTHALPY
--------

The enthalpy is H = U + kB*T
                kB is Boltzmann's constant
Total free energy                 ...   -251.84937031 Eh
Thermal Enthalpy correction       ...      0.00094421 Eh       0.59 kcal/mol
-----------------------------------------------------------------------
Total Enthalpy                    ...   -251.84842610 Eh

-------
ENTROPY
-------

The entropy contributions are T*S = T*(S(el)+S(vib)+S(rot)+S(trans)
     S(el)   - electronic entropy
     S(vib)  - vibrational entropy
     S(rot)  - rotational entropy
     S(trans)- translational entropy
The entropies will be listed as mutliplied by the temperature to get
units of energy

Electronic entropy                ...      0.00000000 Eh      0.00 kcal/mol
Vibrational entropy               ...      0.00692136 Eh      4.34 kcal/mol
Rotational entropy                ...      0.01164525 Eh      7.31 kcal/mol
Translational entropy             ...      0.01866024 Eh     11.71 kcal/mol
-----------------------------------------------------------------------
Final entropy term                ...      0.03722685 Eh     23.36 kcal/mol

CAUTION: The rotational entropy is not quite correctly treated here
         because it includes a symmetry number that is not yet correctly
         implemented in ORCA!
For a nonlinear molecule the correct rotational entropy is:
    S(rot) = R*(ln(qrot/sn)+1.5)
    R    = 8.31441 J/mol/K = 1.987191683e-3 kcal/mol/K
    qrot = 152103.8114070
    sn is the rotational symmetry number. We have assumed 3 here
       if it is different for your molecule then you should correct
       the printed rotational entropy by manually evaluating the equation
       as given above

For convenience we print out the resulting values for sn=1 - 12:
 sn= 1  qrot/sn=  152103.8114 T*S(rot)=     7.96 kcal/mol T*S(tot)=    24.01 kcal/mol
 sn= 2  qrot/sn=   76051.9057 T*S(rot)=     7.55 kcal/mol T*S(tot)=    23.60 kcal/mol
 sn= 3  qrot/sn=   50701.2705 T*S(rot)=     7.31 kcal/mol T*S(tot)=    23.36 kcal/mol
 sn= 4  qrot/sn=   38025.9529 T*S(rot)=     7.14 kcal/mol T*S(tot)=    23.19 kcal/mol
 sn= 5  qrot/sn=   30420.7623 T*S(rot)=     7.00 kcal/mol T*S(tot)=    23.06 kcal/mol
 sn= 6  qrot/sn=   25350.6352 T*S(rot)=     6.90 kcal/mol T*S(tot)=    22.95 kcal/mol
 sn= 7  qrot/sn=   21729.1159 T*S(rot)=     6.81 kcal/mol T*S(tot)=    22.86 kcal/mol
 sn= 8  qrot/sn=   19012.9764 T*S(rot)=     6.73 kcal/mol T*S(tot)=    22.78 kcal/mol
 sn= 9  qrot/sn=   16900.4235 T*S(rot)=     6.66 kcal/mol T*S(tot)=    22.71 kcal/mol
 sn=10  qrot/sn=   15210.3811 T*S(rot)=     6.59 kcal/mol T*S(tot)=    22.65 kcal/mol
 sn=11  qrot/sn=   13827.6192 T*S(rot)=     6.54 kcal/mol T*S(tot)=    22.59 kcal/mol
 sn=12  qrot/sn=   12675.3176 T*S(rot)=     6.49 kcal/mol T*S(tot)=    22.54 kcal/mol

-------------------
GIBBS FREE ENTHALPY
-------------------

The Gibbs free enthalpy is G = H - T*S

Total enthalpy                    ...   -251.84842610 Eh
Total entropy correction          ...     -0.03722685 Eh    -23.36 kcal/mol
-----------------------------------------------------------------------
Final Gibbs free enthalpy         ...   -251.88565295 Eh

For completeness - the Gibbs free enthalpy minus the electronic energy
G-E(el)                           ...      0.14265169 Eh     89.52 kcal/mol

                             ****ORCA TERMINATED NORMALLY****
TOTAL RUN TIME: 0 days 0 hours 19 minutes 46 seconds 3 msec
