                         Program Version 3.0.3 - RELEASE   -
|  1> ! NORI PBE0 def2-TZVP UseSym TightOPT Freq TightSCF Grid3 FinalGrid5 XYZFile
|  2> % pal
|  3>     nprocs 8
|  4> end
|  5> %method
|  6>     SymThresh 5.0e-2
|  7> end
|  8> % geom
|  9>     MaxIter 10
| 10> end
| 11> % maxcore 2000
| 12> % output
| 13>     printlevel mini
| 14>     print[ P_Basis ] 0
| 15>     print[ P_SCFInfo ] 1
| 16>     print[ P_SCFIterInfo ] 1
| 17>     print[ P_OrbEn ] 0
| 18>     print[ P_Cartesian ] 0
| 19> end
| 20> % elprop
| 21>     Dipole false
| 22> end
| 23> *xyz 1 1
| 24>  N        0.9523400530    -0.2592331594     0.1266569372
| 25>  C        2.0794191520    -0.0609464761     0.0265315328
| 26>  C        3.5034858425     0.1697402245    -0.0464073454
| 27>  C        4.1636898140     1.1963309526     0.8982585671
| 28>  C        5.2223450376     0.1356869966     1.2222869458
| 29>  N        4.3329302481    -0.9349737132     0.6065750616
| 30>  H        3.8299107464     0.2711027007    -1.0829951476
| 31>  H        3.5288783209     1.4423602882     1.7479866664
| 32>  H        4.5128609325     2.1094599275     0.4245509307
| 33>  H        6.1347281471     0.2133635377     0.6346014239
| 34>  H        5.4577668960    -0.0702692476     2.2630700671
| 35>  H        4.7710108333    -1.6081979802    -0.0232839854
| 36>  H        3.7937339765    -1.4519340512     1.3036883458
| 37> *
| 38>
| 39>                          ****END OF INPUT****
 Total Charge           Charge          ....    1
 Multiplicity           Mult            ....    1
 Number of Electrons    NEL             ....   44
FINAL SINGLE POINT ENERGY      -265.610468701015

CARTESIAN COORDINATES (ANGSTROEM)
---------------------------------
  N     -0.000155   -0.000191    2.531720
  C     -0.072949   -0.263438    1.415908
  C     -0.145126   -0.542780    0.000533
  C     -1.090705    0.283382   -0.897089
  C      0.080815    0.466888   -1.868777
  N      1.045598    0.000062   -0.788144
  H     -0.211941   -1.616733   -0.182478
  H     -1.403268    1.211961   -0.421799
  H     -1.960879   -0.248077   -1.272151
  H      0.103090   -0.246842   -2.690045
  H      0.313585    1.466040   -2.227708
  H      1.761803   -0.676461   -1.054641
  H      1.501148    0.774564   -0.301559

FINAL SINGLE POINT ENERGY      -265.610468860848
                    ***********************HURRAY********************
 Multiplicity           Mult            ....    1
 Number of Electrons    NEL             ....   44
 Basis Dimension        Dim             ....  228
FINAL SINGLE POINT ENERGY      -265.610468905547

VIBRATIONAL FREQUENCIES
-----------------------

   0:         0.00 cm**-1
   1:         0.00 cm**-1
   2:         0.00 cm**-1
   3:         0.00 cm**-1
   4:         0.00 cm**-1
   5:         0.00 cm**-1
   6:       104.34 cm**-1
   7:       172.99 cm**-1
   8:       240.02 cm**-1
   9:       519.45 cm**-1
  10:       537.54 cm**-1
  11:       633.91 cm**-1
  12:       769.87 cm**-1
  13:       830.77 cm**-1
  14:       886.69 cm**-1
  15:       915.72 cm**-1
  16:       966.91 cm**-1
  17:       996.51 cm**-1
  18:      1063.04 cm**-1
  19:      1098.08 cm**-1
  20:      1140.99 cm**-1
  21:      1234.19 cm**-1
  22:      1272.79 cm**-1
  23:      1279.09 cm**-1
  24:      1296.17 cm**-1
  25:      1314.30 cm**-1
  26:      1343.30 cm**-1
  27:      1390.57 cm**-1
  28:      1487.61 cm**-1
  29:      1501.71 cm**-1
  30:      1643.00 cm**-1
  31:      2393.89 cm**-1
  32:      3121.10 cm**-1
  33:      3127.98 cm**-1
  34:      3131.70 cm**-1
  35:      3193.86 cm**-1
  36:      3205.56 cm**-1
  37:      3446.55 cm**-1
  38:      3517.06 cm**-1

IR SPECTRUM
-----------

 Mode    freq (cm**-1)   T**2         TX         TY         TZ
-------------------------------------------------------------------
   6:       104.34    6.543789  ( -0.014262   2.497619  -0.552706)
   7:       172.99    9.008662  ( -2.517135   0.559733   1.536031)
   8:       240.02    2.697517  (  0.550666   0.329253  -1.511911)
   9:       519.45    1.148323  (  0.450443  -0.204103   0.950666)
  10:       537.54    2.287861  ( -0.665673  -0.109367   1.353802)
  11:       633.91    2.248208  ( -0.659242   1.092742   0.787098)
  12:       769.87    3.922966  ( -0.368597  -1.922549   0.301509)
  13:       830.77    2.066178  ( -0.299469   1.399398   0.134840)
  14:       886.69    8.373362  (  1.658871  -1.046341  -2.127600)
  15:       915.72   13.642444  ( -2.283043   0.658516  -2.827811)
  16:       966.91   13.996558  ( -2.778665  -1.017828   2.289018)
  17:       996.51    0.821956  ( -0.069957   0.875268  -0.225762)
  18:      1063.04    4.292959  (  0.596824  -0.086865  -1.982225)
  19:      1098.08    0.378484  (  0.129205   0.410584   0.439558)
  20:      1140.99    4.563892  ( -0.319945  -1.325263  -1.644751)
  21:      1234.19    0.329904  (  0.202468   0.319097   0.432537)
  22:      1272.79   32.971851  ( -0.813220  -1.477901   5.488746)
  23:      1279.09    6.103823  ( -0.028850  -1.161787   2.180193)
  24:      1296.17    1.391022  ( -0.021504  -0.974784   0.663592)
  25:      1314.30   49.032347  (  1.214049   4.361972  -5.341501)
  26:      1343.30    3.416002  ( -0.689021   0.598923  -1.607030)
  27:      1390.57   23.488342  ( -0.660976  -0.088104   4.800384)
  28:      1487.61   16.107097  (  3.330263  -0.996851  -2.005675)
  29:      1501.71    8.737074  (  1.566980  -0.926901   2.328627)
  30:      1643.00   57.317267  (  7.419933   1.339647   0.683528)
  31:      2393.89   12.066272  (  0.318356  -0.439148  -3.431045)
  32:      3121.10    3.373095  (  0.659770   1.697582  -0.236674)
  33:      3127.98    1.468072  (  0.606329  -1.009788   0.284190)
  34:      3131.70    0.219403  (  0.089208  -0.459650  -0.012913)
  35:      3193.86    0.438274  (  0.367467   0.515117   0.194670)
  36:      3205.56    2.811046  ( -0.352824  -1.499691  -0.661428)
  37:      3446.55   78.500891  (  8.721880   1.319520   0.829805)
  38:      3517.06  104.335607  ( -2.163821   8.845940   4.626319)

--------------------------
THERMOCHEMISTRY AT 298.15K
--------------------------

Temperature         ... 298.15 K
Pressure            ... 1.00 atm
Total Mass          ... 83.11 AMU

Throughout the following assumptions are being made:
  (1) The electronic state is orbitally nondegenerate
  (2) There are no thermally accessible electronically excited states
  (3) Hindered rotations indicated by low frequency modes) are not
      treated as such but are treated as vibrations and this may
      case some error
  (4) All equations used are the standard statistical mechanics
      equations for an ideal gas
  (5) All vibrations are strinctly harmonic

------------
INNER ENERGY
------------

The inner energy is: U= E(el) + E(ZPE) + E(vib) + E(rot) + E(trans)
    E(el)   - is the total energy from the electronic structure calculation
              = E(kin-el) + E(nuc-el) + E(el-el) + E(nuc-nuc)
    E(ZPE)  - the the zero temperature vibrational energy from the frequency calculation
    E(vib)  - the the finite temperature correction to E(ZPE) due to population
              of excietd vibrational states
    E(rot)  - is the rotational thermal energy
    E(trans)- is the translational thermal energy

Summary of contributions to the inner energy U:
Electronic energy                ...   -265.61046891 Eh
Zero point energy                ...      0.11340094 Eh      71.16 kcal/mol
Thermal vibrational correction   ...      0.00289231 Eh       1.81 kcal/mol
Thermal rotational correction    ...      0.00141627 Eh       0.89 kcal/mol
Thermal translational correction ...      0.00141627 Eh       0.89 kcal/mol
-----------------------------------------------------------------------
Total thermal energy                   -265.49134311 Eh

Summary of corrections to the electronic energy:
(perhaps to be used in another calculation)
Total thermal correction                  0.00572485 Eh       3.59 kcal/mol
Non-thermal (ZPE) correction              0.11340094 Eh      71.16 kcal/mol
-----------------------------------------------------------------------
Total correction                          0.11912579 Eh      74.75 kcal/mol

--------
ENTHALPY
--------

The enthalpy is H = U + kB*T
                kB is Boltzmann's constant
Total free energy                 ...   -265.49134311 Eh
Thermal Enthalpy correction       ...      0.00094421 Eh       0.59 kcal/mol
-----------------------------------------------------------------------
Total Enthalpy                    ...   -265.49039891 Eh

-------
ENTROPY
-------

The entropy contributions are T*S = T*(S(el)+S(vib)+S(rot)+S(trans)
     S(el)   - electronic entropy
     S(vib)  - vibrational entropy
     S(rot)  - rotational entropy
     S(trans)- translational entropy
The entropies will be listed as mutliplied by the temperature to get
units of energy

Electronic entropy                ...      0.00000000 Eh      0.00 kcal/mol
Vibrational entropy               ...      0.00497040 Eh      3.12 kcal/mol
Rotational entropy                ...      0.01144709 Eh      7.18 kcal/mol
Translational entropy             ...      0.01860929 Eh     11.68 kcal/mol
-----------------------------------------------------------------------
Final entropy term                ...      0.03502678 Eh     21.98 kcal/mol

CAUTION: The rotational entropy is not quite correctly treated here
         because it includes a symmetry number that is not yet correctly
         implemented in ORCA!
For a nonlinear molecule the correct rotational entropy is:
    S(rot) = R*(ln(qrot/sn)+1.5)
    R    = 8.31441 J/mol/K = 1.987191683e-3 kcal/mol/K
    qrot = 123307.9645971
    sn is the rotational symmetry number. We have assumed 3 here
       if it is different for your molecule then you should correct
       the printed rotational entropy by manually evaluating the equation
       as given above

For convenience we print out the resulting values for sn=1 - 12:
 sn= 1  qrot/sn=  123307.9646 T*S(rot)=     7.83 kcal/mol T*S(tot)=    22.63 kcal/mol
 sn= 2  qrot/sn=   61653.9823 T*S(rot)=     7.42 kcal/mol T*S(tot)=    22.22 kcal/mol
 sn= 3  qrot/sn=   41102.6549 T*S(rot)=     7.18 kcal/mol T*S(tot)=    21.98 kcal/mol
 sn= 4  qrot/sn=   30826.9911 T*S(rot)=     7.01 kcal/mol T*S(tot)=    21.81 kcal/mol
 sn= 5  qrot/sn=   24661.5929 T*S(rot)=     6.88 kcal/mol T*S(tot)=    21.68 kcal/mol
 sn= 6  qrot/sn=   20551.3274 T*S(rot)=     6.77 kcal/mol T*S(tot)=    21.57 kcal/mol
 sn= 7  qrot/sn=   17615.4235 T*S(rot)=     6.68 kcal/mol T*S(tot)=    21.48 kcal/mol
 sn= 8  qrot/sn=   15413.4956 T*S(rot)=     6.60 kcal/mol T*S(tot)=    21.40 kcal/mol
 sn= 9  qrot/sn=   13700.8850 T*S(rot)=     6.53 kcal/mol T*S(tot)=    21.33 kcal/mol
 sn=10  qrot/sn=   12330.7965 T*S(rot)=     6.47 kcal/mol T*S(tot)=    21.27 kcal/mol
 sn=11  qrot/sn=   11209.8150 T*S(rot)=     6.41 kcal/mol T*S(tot)=    21.21 kcal/mol
 sn=12  qrot/sn=   10275.6637 T*S(rot)=     6.36 kcal/mol T*S(tot)=    21.16 kcal/mol

-------------------
GIBBS FREE ENTHALPY
-------------------

The Gibbs free enthalpy is G = H - T*S

Total enthalpy                    ...   -265.49039891 Eh
Total entropy correction          ...     -0.03502678 Eh    -21.98 kcal/mol
-----------------------------------------------------------------------
Final Gibbs free enthalpy         ...   -265.52542569 Eh

For completeness - the Gibbs free enthalpy minus the electronic energy
G-E(el)                           ...      0.08504322 Eh     53.37 kcal/mol

                             ****ORCA TERMINATED NORMALLY****
TOTAL RUN TIME: 0 days 0 hours 14 minutes 26 seconds 104 msec
