                         Program Version 3.0.3 - RELEASE   -
|  1> ! NORI PBE0 def2-TZVP UseSym TightOPT Freq TightSCF Grid3 FinalGrid5 XYZFile
|  2> % pal
|  3>     nprocs 8
|  4> end
|  5> %method
|  6>     SymThresh 5.0e-2
|  7> end
|  8> % geom
|  9>     MaxIter 10
| 10> end
| 11> % maxcore 2000
| 12> % output
| 13>     printlevel mini
| 14>     print[ P_Basis ] 0
| 15>     print[ P_SCFInfo ] 1
| 16>     print[ P_SCFIterInfo ] 1
| 17>     print[ P_OrbEn ] 0
| 18>     print[ P_Cartesian ] 0
| 19> end
| 20> % elprop
| 21>     Dipole false
| 22> end
| 23> *xyz 1 1
| 24>  N        0.8993432563     0.0323580277     0.2559031357
| 25>  C        2.0373627513     0.0567893963     0.1038082246
| 26>  C        3.4757530625     0.0861968310    -0.0424779724
| 27>  C        4.2315442313     1.1441232711     0.7913760970
| 28>  N        5.1914264757     0.0721046102     1.2741879650
| 29>  C        4.2678385737    -0.9978560761     0.7213684760
| 30>  H        3.7413938595     0.1252915597    -1.1009753515
| 31>  H        3.6623485599     1.5295593163     1.6343023066
| 32>  H        4.7324576485     1.9503031573     0.2612188821
| 33>  H        6.0957693134     0.1029143821     0.8039111178
| 34>  H        5.3607814451     0.0420711811     2.2794748349
| 35>  H        4.7953155620    -1.7499005055     0.1397935665
| 36>  H        3.7129652609    -1.4566751512     1.5365787179
| 37> *
| 38>
| 39>                          ****END OF INPUT****
 Total Charge           Charge          ....    1
 Multiplicity           Mult            ....    1
 Number of Electrons    NEL             ....   44
FINAL SINGLE POINT ENERGY      -265.613425857030

CARTESIAN COORDINATES (ANGSTROEM)
---------------------------------
  N      2.558988   -0.000286   -0.000093
  C      1.446001   -0.283220    0.000031
  C      0.034021   -0.595382    0.000018
  C     -0.827157    0.108470    1.071729
  N     -1.822341    0.513757   -0.000003
  C     -0.827130    0.108474   -1.071712
  H     -0.107607   -1.678042    0.000015
  H     -0.364775    0.997831    1.494424
  H     -1.273714   -0.503562    1.851268
  H     -2.666490   -0.058607   -0.000015
  H     -2.106640    1.493098   -0.000005
  H     -1.273669   -0.503556   -1.851264
  H     -0.364738    0.997835   -1.494393

FINAL SINGLE POINT ENERGY      -265.613425984401
                    ***********************HURRAY********************
 Multiplicity           Mult            ....    1
 Number of Electrons    NEL             ....   44
 Basis Dimension        Dim             ....  228
FINAL SINGLE POINT ENERGY      -265.613424284690

VIBRATIONAL FREQUENCIES
-----------------------

   0:         0.00 cm**-1
   1:         0.00 cm**-1
   2:         0.00 cm**-1
   3:         0.00 cm**-1
   4:         0.00 cm**-1
   5:         0.00 cm**-1
   6:        78.21 cm**-1
   7:       176.40 cm**-1
   8:       231.61 cm**-1
   9:       528.98 cm**-1
  10:       532.32 cm**-1
  11:       649.87 cm**-1
  12:       812.06 cm**-1
  13:       830.57 cm**-1
  14:       879.63 cm**-1
  15:       915.35 cm**-1
  16:       954.19 cm**-1
  17:      1000.51 cm**-1
  18:      1083.73 cm**-1
  19:      1104.29 cm**-1
  20:      1125.36 cm**-1
  21:      1261.03 cm**-1
  22:      1270.52 cm**-1
  23:      1288.72 cm**-1
  24:      1321.04 cm**-1
  25:      1328.94 cm**-1
  26:      1335.04 cm**-1
  27:      1396.21 cm**-1
  28:      1480.45 cm**-1
  29:      1496.80 cm**-1
  30:      1651.62 cm**-1
  31:      2398.45 cm**-1
  32:      3111.18 cm**-1
  33:      3130.61 cm**-1
  34:      3133.62 cm**-1
  35:      3207.37 cm**-1
  36:      3208.01 cm**-1
  37:      3465.45 cm**-1
  38:      3528.86 cm**-1

IR SPECTRUM
-----------

 Mode    freq (cm**-1)   T**2         TX         TY         TZ
-------------------------------------------------------------------
   6:        78.21    1.707944  (  1.276906   0.278305   0.000714)
   7:       176.40    2.033007  (  0.002566  -0.000560  -1.425833)
   8:       231.61    4.848410  ( -1.742599   1.346016  -0.000023)
   9:       528.98    2.641900  (  1.588137  -0.346006   0.001471)
  10:       532.32    0.206857  ( -0.007765   0.001975   0.454745)
  11:       649.87    2.002637  (  0.200565  -1.400861   0.000778)
  12:       812.06    7.874466  ( -2.097140  -1.864528   0.002428)
  13:       830.57    2.052868  ( -0.001965  -0.002465  -1.432780)
  14:       879.63    6.494095  (  0.579350  -2.481621   0.001896)
  15:       915.35    3.106174  (  0.002928  -0.002785  -1.762429)
  16:       954.19    8.366464  ( -2.429104   1.570324  -0.000878)
  17:      1000.51    2.071259  (  0.000333   0.000204  -1.439187)
  18:      1083.73    0.022031  (  0.002111  -0.001210   0.148409)
  19:      1104.29    0.523250  (  0.664164   0.286592   0.000842)
  20:      1125.36    1.807448  ( -1.343911  -0.036712   0.001392)
  21:      1261.03   14.134122  ( -0.003578  -0.002198   3.759535)
  22:      1270.52   19.993970  (  0.001352   0.001400   4.471461)
  23:      1288.72    3.703526  (  1.232437   1.478046  -0.002331)
  24:      1321.04   17.758133  ( -0.000560  -0.001033   4.214040)
  25:      1328.94   33.899069  (  0.000269   0.001646   5.822290)
  26:      1335.04    1.564812  ( -0.655997  -1.065119   0.001184)
  27:      1396.21    0.919752  (  0.947711   0.146949  -0.001353)
  28:      1480.45   19.967988  (  0.001321   0.000137   4.468555)
  29:      1496.80    3.728432  ( -0.003194   1.930908   0.003968)
  30:      1651.62   60.901707  (  7.320762  -2.703360  -0.000229)
  31:      2398.45    0.901106  (  0.922499   0.223829   0.000815)
  32:      3111.18    2.791147  (  0.713617  -1.510595   0.000637)
  33:      3130.61    0.947770  (  0.004555   0.004908   0.973512)
  34:      3133.62    0.404952  ( -0.362540  -0.522935   0.007448)
  35:      3207.37    0.094360  ( -0.020407  -0.046732  -0.302918)
  36:      3208.01    5.885997  ( -1.001887  -2.209554   0.009584)
  37:      3465.45   97.055570  (  9.304905  -3.236404  -0.001145)
  38:      3528.86  106.275588  (  3.401383   9.731710  -0.000794)

--------------------------
THERMOCHEMISTRY AT 298.15K
--------------------------

Temperature         ... 298.15 K
Pressure            ... 1.00 atm
Total Mass          ... 83.11 AMU

Throughout the following assumptions are being made:
  (1) The electronic state is orbitally nondegenerate
  (2) There are no thermally accessible electronically excited states
  (3) Hindered rotations indicated by low frequency modes) are not
      treated as such but are treated as vibrations and this may
      case some error
  (4) All equations used are the standard statistical mechanics
      equations for an ideal gas
  (5) All vibrations are strinctly harmonic

------------
INNER ENERGY
------------

The inner energy is: U= E(el) + E(ZPE) + E(vib) + E(rot) + E(trans)
    E(el)   - is the total energy from the electronic structure calculation
              = E(kin-el) + E(nuc-el) + E(el-el) + E(nuc-nuc)
    E(ZPE)  - the the zero temperature vibrational energy from the frequency calculation
    E(vib)  - the the finite temperature correction to E(ZPE) due to population
              of excietd vibrational states
    E(rot)  - is the rotational thermal energy
    E(trans)- is the translational thermal energy

Summary of contributions to the inner energy U:
Electronic energy                ...   -265.61342428 Eh
Zero point energy                ...      0.11371927 Eh      71.36 kcal/mol
Thermal vibrational correction   ...      0.00292475 Eh       1.84 kcal/mol
Thermal rotational correction    ...      0.00141627 Eh       0.89 kcal/mol
Thermal translational correction ...      0.00141627 Eh       0.89 kcal/mol
-----------------------------------------------------------------------
Total thermal energy                   -265.49394772 Eh

Summary of corrections to the electronic energy:
(perhaps to be used in another calculation)
Total thermal correction                  0.00575729 Eh       3.61 kcal/mol
Non-thermal (ZPE) correction              0.11371927 Eh      71.36 kcal/mol
-----------------------------------------------------------------------
Total correction                          0.11947656 Eh      74.97 kcal/mol

--------
ENTHALPY
--------

The enthalpy is H = U + kB*T
                kB is Boltzmann's constant
Total free energy                 ...   -265.49394772 Eh
Thermal Enthalpy correction       ...      0.00094421 Eh       0.59 kcal/mol
-----------------------------------------------------------------------
Total Enthalpy                    ...   -265.49300352 Eh

-------
ENTROPY
-------

The entropy contributions are T*S = T*(S(el)+S(vib)+S(rot)+S(trans)
     S(el)   - electronic entropy
     S(vib)  - vibrational entropy
     S(rot)  - rotational entropy
     S(trans)- translational entropy
The entropies will be listed as mutliplied by the temperature to get
units of energy

Electronic entropy                ...      0.00000000 Eh      0.00 kcal/mol
Vibrational entropy               ...      0.00521649 Eh      3.27 kcal/mol
Rotational entropy                ...      0.01145628 Eh      7.19 kcal/mol
Translational entropy             ...      0.01860929 Eh     11.68 kcal/mol
-----------------------------------------------------------------------
Final entropy term                ...      0.03528207 Eh     22.14 kcal/mol

CAUTION: The rotational entropy is not quite correctly treated here
         because it includes a symmetry number that is not yet correctly
         implemented in ORCA!
For a nonlinear molecule the correct rotational entropy is:
    S(rot) = R*(ln(qrot/sn)+1.5)
    R    = 8.31441 J/mol/K = 1.987191683e-3 kcal/mol/K
    qrot = 124514.8289660
    sn is the rotational symmetry number. We have assumed 3 here
       if it is different for your molecule then you should correct
       the printed rotational entropy by manually evaluating the equation
       as given above

For convenience we print out the resulting values for sn=1 - 12:
 sn= 1  qrot/sn=  124514.8290 T*S(rot)=     7.84 kcal/mol T*S(tot)=    22.79 kcal/mol
 sn= 2  qrot/sn=   62257.4145 T*S(rot)=     7.43 kcal/mol T*S(tot)=    22.38 kcal/mol
 sn= 3  qrot/sn=   41504.9430 T*S(rot)=     7.19 kcal/mol T*S(tot)=    22.14 kcal/mol
 sn= 4  qrot/sn=   31128.7072 T*S(rot)=     7.02 kcal/mol T*S(tot)=    21.97 kcal/mol
 sn= 5  qrot/sn=   24902.9658 T*S(rot)=     6.89 kcal/mol T*S(tot)=    21.84 kcal/mol
 sn= 6  qrot/sn=   20752.4715 T*S(rot)=     6.78 kcal/mol T*S(tot)=    21.73 kcal/mol
 sn= 7  qrot/sn=   17787.8327 T*S(rot)=     6.69 kcal/mol T*S(tot)=    21.64 kcal/mol
 sn= 8  qrot/sn=   15564.3536 T*S(rot)=     6.61 kcal/mol T*S(tot)=    21.56 kcal/mol
 sn= 9  qrot/sn=   13834.9810 T*S(rot)=     6.54 kcal/mol T*S(tot)=    21.49 kcal/mol
 sn=10  qrot/sn=   12451.4829 T*S(rot)=     6.48 kcal/mol T*S(tot)=    21.43 kcal/mol
 sn=11  qrot/sn=   11319.5299 T*S(rot)=     6.42 kcal/mol T*S(tot)=    21.37 kcal/mol
 sn=12  qrot/sn=   10376.2357 T*S(rot)=     6.37 kcal/mol T*S(tot)=    21.32 kcal/mol

-------------------
GIBBS FREE ENTHALPY
-------------------

The Gibbs free enthalpy is G = H - T*S

Total enthalpy                    ...   -265.49300352 Eh
Total entropy correction          ...     -0.03528207 Eh    -22.14 kcal/mol
-----------------------------------------------------------------------
Final Gibbs free enthalpy         ...   -265.52828558 Eh

For completeness - the Gibbs free enthalpy minus the electronic energy
G-E(el)                           ...      0.08513870 Eh     53.43 kcal/mol

                             ****ORCA TERMINATED NORMALLY****
TOTAL RUN TIME: 0 days 0 hours 13 minutes 3 seconds 278 msec
