                         Program Version 3.0.3 - RELEASE   -
|  1> ! NORI PBE0 def2-TZVP UseSym TightOPT Freq TightSCF Grid3 FinalGrid5 XYZFile
|  2> % pal
|  3>     nprocs 8
|  4> end
|  5> %method
|  6>     SymThresh 5.0e-2
|  7> end
|  8> % geom
|  9>     MaxIter 10
| 10> end
| 11> % maxcore 2000
| 12> % output
| 13>     printlevel mini
| 14>     print[ P_Basis ] 0
| 15>     print[ P_SCFInfo ] 1
| 16>     print[ P_SCFIterInfo ] 1
| 17>     print[ P_OrbEn ] 0
| 18>     print[ P_Cartesian ] 0
| 19> end
| 20> % elprop
| 21>     Dipole false
| 22> end
| 23> *xyz 1 1
| 24>  N        0.7272199555     0.0221542265     0.1546812437
| 25>  C        2.1946934093    -0.0087955584    -0.1987084076
| 26>  C        3.0145880546    -0.5606904282     0.9477201997
| 27>  C        4.4715782374    -0.6051591268     0.5747010302
| 28>  C        5.3160781024     0.6309850813     0.7022539351
| 29>  C        5.5159850100    -0.5139409579     1.6424784648
| 30>  H        0.1569698685     0.3909794647    -0.6090280374
| 31>  H        0.5642985206     0.6059989297     0.9778162467
| 32>  H        0.3870022737    -0.9161850021     0.3756874919
| 33>  H        2.4781399140     1.0146012037    -0.4457316431
| 34>  H        2.2806083382    -0.6214731495    -1.0969011173
| 35>  H        2.6618341108    -1.5659864797     1.2103338367
| 36>  H        2.8867639933     0.0721121883     1.8338435899
| 37>  H        4.6995175543    -1.2631861469    -0.2585536963
| 38>  H        4.8527674392     1.5281438827     1.0979448532
| 39>  H        6.0682144873     0.8163105508    -0.0533454597
| 40>  H        6.4038447868    -1.1220741647     1.5298072873
| 41>  H        5.1859359440    -0.3917845134     2.6672001822
| 42> *
| 43>
| 44>                          ****END OF INPUT****
 Total Charge           Charge          ....    1
 Multiplicity           Mult            ....    1
 Number of Electrons    NEL             ....   48
FINAL SINGLE POINT ENERGY      -252.024122494575
FINAL SINGLE POINT ENERGY      -252.024123627249

CARTESIAN COORDINATES (ANGSTROEM)
---------------------------------
  N     -0.001309   -0.002958    2.747262
  C      0.601774    0.001466    1.363050
  C     -0.431356    0.383975    0.325551
  C      0.184807    0.397644   -1.047411
  C      0.333218   -0.885574   -1.813794
  C     -0.669883    0.134559   -2.246933
  H      0.682920   -0.256175    3.462787
  H     -0.775274   -0.668415    2.804163
  H     -0.375585    0.918846    2.982868
  H      0.998604   -0.999758    1.192219
  H      1.433556    0.706634    1.393658
  H     -0.851766    1.370134    0.560461
  H     -1.258880   -0.335512    0.342705
  H      0.973640    1.132534   -1.176692
  H     -0.043519   -1.796824   -1.361983
  H      1.223334   -1.022137   -2.413657
  H     -0.467892    0.706259   -3.142653
  H     -1.718342   -0.084724   -2.084350

FINAL SINGLE POINT ENERGY      -252.024124314303
                    ***********************HURRAY********************
 Multiplicity           Mult            ....    1
 Number of Electrons    NEL             ....   48
 Basis Dimension        Dim             ....  258
FINAL SINGLE POINT ENERGY      -252.024124444610

VIBRATIONAL FREQUENCIES
-----------------------

   0:         0.00 cm**-1
   1:         0.00 cm**-1
   2:         0.00 cm**-1
   3:         0.00 cm**-1
   4:         0.00 cm**-1
   5:         0.00 cm**-1
   6:        92.81 cm**-1
   7:       102.70 cm**-1
   8:       165.44 cm**-1
   9:       223.61 cm**-1
  10:       318.08 cm**-1
  11:       384.04 cm**-1
  12:       434.73 cm**-1
  13:       768.10 cm**-1
  14:       783.24 cm**-1
  15:       829.88 cm**-1
  16:       847.54 cm**-1
  17:       892.47 cm**-1
  18:       903.12 cm**-1
  19:       957.03 cm**-1
  20:       977.68 cm**-1
  21:      1003.17 cm**-1
  22:      1054.11 cm**-1
  23:      1077.93 cm**-1
  24:      1093.16 cm**-1
  25:      1133.47 cm**-1
  26:      1150.69 cm**-1
  27:      1197.51 cm**-1
  28:      1217.36 cm**-1
  29:      1244.71 cm**-1
  30:      1301.53 cm**-1
  31:      1325.36 cm**-1
  32:      1347.96 cm**-1
  33:      1405.95 cm**-1
  34:      1426.43 cm**-1
  35:      1463.50 cm**-1
  36:      1477.23 cm**-1
  37:      1499.07 cm**-1
  38:      1505.69 cm**-1
  39:      1514.16 cm**-1
  40:      1657.90 cm**-1
  41:      1664.27 cm**-1
  42:      3024.73 cm**-1
  43:      3069.88 cm**-1
  44:      3101.45 cm**-1
  45:      3148.30 cm**-1
  46:      3160.23 cm**-1
  47:      3160.90 cm**-1
  48:      3163.54 cm**-1
  49:      3236.54 cm**-1
  50:      3252.31 cm**-1
  51:      3422.48 cm**-1
  52:      3503.60 cm**-1
  53:      3509.78 cm**-1

IR SPECTRUM
-----------

 Mode    freq (cm**-1)   T**2         TX         TY         TZ
-------------------------------------------------------------------
   6:        92.81    6.817430  (  0.409855   2.310395   1.145219)
   7:       102.70    0.622642  (  0.588416   0.250153  -0.462419)
   8:       165.44    4.571288  ( -2.034465   0.533422  -0.384322)
   9:       223.61    0.209139  ( -0.141157   0.075594  -0.428368)
  10:       318.08    7.565311  (  0.314100  -0.534572   2.679717)
  11:       384.04    0.320011  ( -0.488242  -0.205466  -0.198533)
  12:       434.73    5.981588  ( -0.639220   0.819000  -2.214097)
  13:       768.10    8.582032  ( -0.937685  -2.624363  -0.903049)
  14:       783.24    3.838344  ( -0.388653  -1.085505  -1.583974)
  15:       829.88    2.273438  ( -0.230795   1.066238   1.040821)
  16:       847.54   11.593513  ( -2.165181   0.752575  -2.517764)
  17:       892.47   21.223815  (  1.978241  -1.418083   3.911447)
  18:       903.12    7.931802  (  0.277839   2.768595  -0.435302)
  19:       957.03    1.565348  (  0.334429  -0.687247   0.990554)
  20:       977.68   21.848847  ( -0.661941   2.658082   3.787516)
  21:      1003.17    9.151012  (  2.245000   1.428788   1.438594)
  22:      1054.11    3.072497  (  0.969995   1.237481   0.774757)
  23:      1077.93    5.496277  (  0.764802   1.702450   1.418809)
  24:      1093.16    3.404012  ( -1.178356   1.259124  -0.655817)
  25:      1133.47    4.137176  (  1.083395  -0.744039   1.552365)
  26:      1150.69   10.848515  (  2.440911  -1.248981   1.824971)
  27:      1197.51    1.634692  (  0.708250  -0.877737   0.602205)
  28:      1217.36    1.642513  (  0.953722   0.811694   0.272176)
  29:      1244.71    2.795208  ( -0.721229  -0.690389  -1.341044)
  30:      1301.53    2.446066  (  1.063516   0.970223   0.611283)
  31:      1325.36    1.954529  (  0.832573   0.444794   1.031266)
  32:      1347.96    4.362912  (  0.482154   1.966968   0.511349)
  33:      1405.95    5.765602  ( -0.216756  -0.272823   2.375750)
  34:      1426.43    4.814076  (  1.239954   0.600145  -1.707752)
  35:      1463.50    5.855822  ( -1.921237   1.420096  -0.384709)
  36:      1477.23    1.315869  (  0.529721  -0.997635   0.199975)
  37:      1499.07   18.065733  (  2.347969  -0.842087   3.441463)
  38:      1505.69  140.095968  (  4.743732  -0.380756 -10.837343)
  39:      1514.16   10.558850  ( -2.103124  -0.973530   2.277709)
  40:      1657.90   52.931562  (  1.975934   6.941649   0.916926)
  41:      1664.27   36.734247  (  5.117573  -1.804563   2.699675)
  42:      3024.73   20.201762  ( -2.825282   1.251449   3.263957)
  43:      3069.88    8.760427  (  0.562510   2.784760   0.830133)
  44:      3101.45    1.876965  (  1.274780  -0.262928   0.427516)
  45:      3148.30    6.870515  ( -0.599150   2.356788  -0.978307)
  46:      3160.23    4.701477  (  2.037490   0.605364   0.428539)
  47:      3160.90    0.390556  (  0.575034  -0.225824   0.094315)
  48:      3163.54    3.733853  ( -0.899715  -1.688604  -0.270155)
  49:      3236.54    0.650544  (  0.405185   0.390556  -0.577784)
  50:      3252.31    2.217770  (  1.012789   0.670331  -0.861791)
  51:      3422.48   46.926553  (  1.838205  -0.071447  -6.598670)
  52:      3503.60   90.128911  ( -1.739681  -9.304118  -0.731986)
  53:      3509.78   98.172475  (  8.715037  -2.077694   4.231288)

--------------------------
THERMOCHEMISTRY AT 298.15K
--------------------------

Temperature         ... 298.15 K
Pressure            ... 1.00 atm
Total Mass          ... 86.16 AMU

Throughout the following assumptions are being made:
  (1) The electronic state is orbitally nondegenerate
  (2) There are no thermally accessible electronically excited states
  (3) Hindered rotations indicated by low frequency modes) are not
      treated as such but are treated as vibrations and this may
      case some error
  (4) All equations used are the standard statistical mechanics
      equations for an ideal gas
  (5) All vibrations are strinctly harmonic

------------
INNER ENERGY
------------

The inner energy is: U= E(el) + E(ZPE) + E(vib) + E(rot) + E(trans)
    E(el)   - is the total energy from the electronic structure calculation
              = E(kin-el) + E(nuc-el) + E(el-el) + E(nuc-nuc)
    E(ZPE)  - the the zero temperature vibrational energy from the frequency calculation
    E(vib)  - the the finite temperature correction to E(ZPE) due to population
              of excietd vibrational states
    E(rot)  - is the rotational thermal energy
    E(trans)- is the translational thermal energy

Summary of contributions to the inner energy U:
Electronic energy                ...   -252.02412444 Eh
Zero point energy                ...      0.17130766 Eh     107.50 kcal/mol
Thermal vibrational correction   ...      0.00440278 Eh       2.76 kcal/mol
Thermal rotational correction    ...      0.00141627 Eh       0.89 kcal/mol
Thermal translational correction ...      0.00141627 Eh       0.89 kcal/mol
-----------------------------------------------------------------------
Total thermal energy                   -251.84558147 Eh

Summary of corrections to the electronic energy:
(perhaps to be used in another calculation)
Total thermal correction                  0.00723532 Eh       4.54 kcal/mol
Non-thermal (ZPE) correction              0.17130766 Eh     107.50 kcal/mol
-----------------------------------------------------------------------
Total correction                          0.17854298 Eh     112.04 kcal/mol

--------
ENTHALPY
--------

The enthalpy is H = U + kB*T
                kB is Boltzmann's constant
Total free energy                 ...   -251.84558147 Eh
Thermal Enthalpy correction       ...      0.00094421 Eh       0.59 kcal/mol
-----------------------------------------------------------------------
Total Enthalpy                    ...   -251.84463726 Eh

-------
ENTROPY
-------

The entropy contributions are T*S = T*(S(el)+S(vib)+S(rot)+S(trans)
     S(el)   - electronic entropy
     S(vib)  - vibrational entropy
     S(rot)  - rotational entropy
     S(trans)- translational entropy
The entropies will be listed as mutliplied by the temperature to get
units of energy

Electronic entropy                ...      0.00000000 Eh      0.00 kcal/mol
Vibrational entropy               ...      0.00789371 Eh      4.95 kcal/mol
Rotational entropy                ...      0.01176449 Eh      7.38 kcal/mol
Translational entropy             ...      0.01866024 Eh     11.71 kcal/mol
-----------------------------------------------------------------------
Final entropy term                ...      0.03831844 Eh     24.05 kcal/mol

CAUTION: The rotational entropy is not quite correctly treated here
         because it includes a symmetry number that is not yet correctly
         implemented in ORCA!
For a nonlinear molecule the correct rotational entropy is:
    S(rot) = R*(ln(qrot/sn)+1.5)
    R    = 8.31441 J/mol/K = 1.987191683e-3 kcal/mol/K
    qrot = 172579.2557981
    sn is the rotational symmetry number. We have assumed 3 here
       if it is different for your molecule then you should correct
       the printed rotational entropy by manually evaluating the equation
       as given above

For convenience we print out the resulting values for sn=1 - 12:
 sn= 1  qrot/sn=  172579.2558 T*S(rot)=     8.03 kcal/mol T*S(tot)=    24.70 kcal/mol
 sn= 2  qrot/sn=   86289.6279 T*S(rot)=     7.62 kcal/mol T*S(tot)=    24.29 kcal/mol
 sn= 3  qrot/sn=   57526.4186 T*S(rot)=     7.38 kcal/mol T*S(tot)=    24.05 kcal/mol
 sn= 4  qrot/sn=   43144.8139 T*S(rot)=     7.21 kcal/mol T*S(tot)=    23.87 kcal/mol
 sn= 5  qrot/sn=   34515.8512 T*S(rot)=     7.08 kcal/mol T*S(tot)=    23.74 kcal/mol
 sn= 6  qrot/sn=   28763.2093 T*S(rot)=     6.97 kcal/mol T*S(tot)=    23.63 kcal/mol
 sn= 7  qrot/sn=   24654.1794 T*S(rot)=     6.88 kcal/mol T*S(tot)=    23.54 kcal/mol
 sn= 8  qrot/sn=   21572.4070 T*S(rot)=     6.80 kcal/mol T*S(tot)=    23.46 kcal/mol
 sn= 9  qrot/sn=   19175.4729 T*S(rot)=     6.73 kcal/mol T*S(tot)=    23.39 kcal/mol
 sn=10  qrot/sn=   17257.9256 T*S(rot)=     6.67 kcal/mol T*S(tot)=    23.33 kcal/mol
 sn=11  qrot/sn=   15689.0233 T*S(rot)=     6.61 kcal/mol T*S(tot)=    23.28 kcal/mol
 sn=12  qrot/sn=   14381.6046 T*S(rot)=     6.56 kcal/mol T*S(tot)=    23.22 kcal/mol

-------------------
GIBBS FREE ENTHALPY
-------------------

The Gibbs free enthalpy is G = H - T*S

Total enthalpy                    ...   -251.84463726 Eh
Total entropy correction          ...     -0.03831844 Eh    -24.05 kcal/mol
-----------------------------------------------------------------------
Final Gibbs free enthalpy         ...   -251.88295570 Eh

For completeness - the Gibbs free enthalpy minus the electronic energy
G-E(el)                           ...      0.14116875 Eh     88.58 kcal/mol

                             ****ORCA TERMINATED NORMALLY****
TOTAL RUN TIME: 0 days 0 hours 20 minutes 35 seconds 938 msec
