                         Program Version 3.0.3 - RELEASE   -
|  1> ! NORI PBE0 def2-TZVP UseSym TightOPT Freq TightSCF Grid3 FinalGrid5 XYZFile
|  2> % pal
|  3>     nprocs 8
|  4> end
|  5> %method
|  6>     SymThresh 5.0e-2
|  7> end
|  8> % geom
|  9>     MaxIter 10
| 10> end
| 11> % maxcore 2000
| 12> % output
| 13>     printlevel mini
| 14>     print[ P_Basis ] 0
| 15>     print[ P_SCFInfo ] 1
| 16>     print[ P_SCFIterInfo ] 1
| 17>     print[ P_OrbEn ] 0
| 18>     print[ P_Cartesian ] 0
| 19> end
| 20> % elprop
| 21>     Dipole false
| 22> end
| 23> *xyz 1 1
| 24>  N        1.9506001949    -0.4024746713     1.8495771854
| 25>  C        2.7019865395    -0.3200985655     0.9852160556
| 26>  C        3.6438656671    -0.1098888184    -0.1040745402
| 27>  C        4.3667507751     1.2002599862     0.0748917625
| 28>  C        4.6391089723     2.1115784165    -1.0466175419
| 29>  N        3.5522824578     2.4372112296    -0.0904233799
| 30>  H        4.3871544250    -0.9132164827    -0.1203308373
| 31>  H        3.1147942953    -0.1495094157    -1.0616838432
| 32>  H        5.0169539621     1.2670421218     0.9407174791
| 33>  H        5.4877190330     2.7824609364    -0.9997858409
| 34>  H        4.2855223139     1.8568344069    -2.0381026770
| 35>  H        2.5884561521     2.3377063624    -0.3972620886
| 36>  H        3.6924052119     3.1975744938     0.5679382663
| 37> *
| 38>
| 39>                          ****END OF INPUT****
 Total Charge           Charge          ....    1
 Multiplicity           Mult            ....    1
 Number of Electrons    NEL             ....   44
FINAL SINGLE POINT ENERGY      -265.610662067879

CARTESIAN COORDINATES (ANGSTROEM)
---------------------------------
  N      0.000902    0.001491    2.570281
  C     -0.486269    0.135566    1.539207
  C     -1.006914    0.293516    0.189455
  C     -0.171470   -0.491492   -0.789006
  C      0.205101    0.037628   -2.108401
  N      1.215916   -0.000539   -1.022797
  H     -2.035952   -0.075424    0.136348
  H     -1.038541    1.356466   -0.071206
  H     -0.195697   -1.569707   -0.672743
  H      0.403848   -0.645295   -2.924447
  H     -0.097767    1.039620   -2.386958
  H      1.493587    0.874100   -0.585825
  H      1.965640   -0.683139   -1.077060

FINAL SINGLE POINT ENERGY      -265.610662477747
                    ***********************HURRAY********************
 Multiplicity           Mult            ....    1
 Number of Electrons    NEL             ....   44
 Basis Dimension        Dim             ....  228
FINAL SINGLE POINT ENERGY      -265.610662805853

VIBRATIONAL FREQUENCIES
-----------------------

   0:         0.00 cm**-1
   1:         0.00 cm**-1
   2:         0.00 cm**-1
   3:         0.00 cm**-1
   4:         0.00 cm**-1
   5:         0.00 cm**-1
   6:        62.78 cm**-1
   7:       145.86 cm**-1
   8:       349.18 cm**-1
   9:       356.41 cm**-1
  10:       371.55 cm**-1
  11:       555.38 cm**-1
  12:       773.98 cm**-1
  13:       847.82 cm**-1
  14:       859.58 cm**-1
  15:       922.35 cm**-1
  16:       933.46 cm**-1
  17:       973.61 cm**-1
  18:       993.87 cm**-1
  19:      1042.80 cm**-1
  20:      1147.04 cm**-1
  21:      1165.04 cm**-1
  22:      1188.14 cm**-1
  23:      1245.83 cm**-1
  24:      1270.20 cm**-1
  25:      1291.21 cm**-1
  26:      1331.63 cm**-1
  27:      1444.22 cm**-1
  28:      1451.16 cm**-1
  29:      1497.17 cm**-1
  30:      1639.21 cm**-1
  31:      2397.54 cm**-1
  32:      3065.44 cm**-1
  33:      3111.46 cm**-1
  34:      3171.49 cm**-1
  35:      3201.00 cm**-1
  36:      3274.27 cm**-1
  37:      3498.41 cm**-1
  38:      3598.55 cm**-1

IR SPECTRUM
-----------

 Mode    freq (cm**-1)   T**2         TX         TY         TZ
-------------------------------------------------------------------
   6:        62.78   13.678395  (  2.053533   1.747474  -2.531350)
   7:       145.86   12.567001  ( -1.417793   2.351931   2.241714)
   8:       349.18    0.146157  ( -0.148955   0.220604   0.274414)
   9:       356.41    1.456352  ( -0.093540   0.545068   1.072615)
  10:       371.55    0.040146  (  0.109389  -0.165696  -0.026918)
  11:       555.38    0.941610  ( -0.632152  -0.298139   0.673131)
  12:       773.98    1.453951  ( -0.460789   0.963030   0.560534)
  13:       847.82    6.029864  ( -2.061839  -1.188761  -0.604591)
  14:       859.58    4.059246  (  1.678818  -0.627945   0.920055)
  15:       922.35    3.503145  ( -1.154772   1.054766   1.028161)
  16:       933.46   23.343445  ( -4.655016  -0.897812  -0.931774)
  17:       973.61    3.775380  (  0.693483   1.767387  -0.413283)
  18:       993.87    9.287250  ( -1.951363  -0.939147   2.144163)
  19:      1042.80   97.829273  (  3.213225   3.528783  -8.663264)
  20:      1147.04    1.567454  (  0.677639  -0.118252  -1.046076)
  21:      1165.04    2.167418  (  0.685951   0.969000   0.870590)
  22:      1188.14    1.832492  ( -1.119102  -0.590273   0.481333)
  23:      1245.83    2.688261  (  0.675554  -1.274091  -0.780115)
  24:      1270.20    1.125546  (  0.746283   0.595895  -0.462080)
  25:      1291.21    5.905822  (  0.876076   1.355401   1.816920)
  26:      1331.63    1.538420  (  0.413335   0.615792  -0.994170)
  27:      1444.22    1.323332  ( -0.431380   1.032643  -0.266254)
  28:      1451.16   22.094094  (  3.420761  -3.019927   1.128064)
  29:      1497.17   11.227283  ( -0.119912   0.914941  -3.221147)
  30:      1639.21   60.381888  (  7.340840   2.076754   1.476835)
  31:      2397.54    0.119952  (  0.085714   0.009949   0.335420)
  32:      3065.44    5.576524  (  2.060000  -0.042661  -1.153736)
  33:      3111.46    6.351421  ( -2.318842  -0.985632   0.054083)
  34:      3171.49    6.257141  (  0.216355  -0.368836   2.464608)
  35:      3201.00    5.780135  (  0.646586   2.219393  -0.660573)
  36:      3274.27    9.850852  ( -0.735334   2.871909   1.030666)
  37:      3498.41  117.638929  (-10.364296  -1.883197  -2.583382)
  38:      3598.55  143.547409  ( -4.355577  10.599402   3.497003)

--------------------------
THERMOCHEMISTRY AT 298.15K
--------------------------

Temperature         ... 298.15 K
Pressure            ... 1.00 atm
Total Mass          ... 83.11 AMU

Throughout the following assumptions are being made:
  (1) The electronic state is orbitally nondegenerate
  (2) There are no thermally accessible electronically excited states
  (3) Hindered rotations indicated by low frequency modes) are not
      treated as such but are treated as vibrations and this may
      case some error
  (4) All equations used are the standard statistical mechanics
      equations for an ideal gas
  (5) All vibrations are strinctly harmonic

------------
INNER ENERGY
------------

The inner energy is: U= E(el) + E(ZPE) + E(vib) + E(rot) + E(trans)
    E(el)   - is the total energy from the electronic structure calculation
              = E(kin-el) + E(nuc-el) + E(el-el) + E(nuc-nuc)
    E(ZPE)  - the the zero temperature vibrational energy from the frequency calculation
    E(vib)  - the the finite temperature correction to E(ZPE) due to population
              of excietd vibrational states
    E(rot)  - is the rotational thermal energy
    E(trans)- is the translational thermal energy

Summary of contributions to the inner energy U:
Electronic energy                ...   -265.61066281 Eh
Zero point energy                ...      0.11203489 Eh      70.30 kcal/mol
Thermal vibrational correction   ...      0.00324716 Eh       2.04 kcal/mol
Thermal rotational correction    ...      0.00141627 Eh       0.89 kcal/mol
Thermal translational correction ...      0.00141627 Eh       0.89 kcal/mol
-----------------------------------------------------------------------
Total thermal energy                   -265.49254821 Eh

Summary of corrections to the electronic energy:
(perhaps to be used in another calculation)
Total thermal correction                  0.00607970 Eh       3.82 kcal/mol
Non-thermal (ZPE) correction              0.11203489 Eh      70.30 kcal/mol
-----------------------------------------------------------------------
Total correction                          0.11811459 Eh      74.12 kcal/mol

--------
ENTHALPY
--------

The enthalpy is H = U + kB*T
                kB is Boltzmann's constant
Total free energy                 ...   -265.49254821 Eh
Thermal Enthalpy correction       ...      0.00094421 Eh       0.59 kcal/mol
-----------------------------------------------------------------------
Total Enthalpy                    ...   -265.49160400 Eh

-------
ENTROPY
-------

The entropy contributions are T*S = T*(S(el)+S(vib)+S(rot)+S(trans)
     S(el)   - electronic entropy
     S(vib)  - vibrational entropy
     S(rot)  - rotational entropy
     S(trans)- translational entropy
The entropies will be listed as mutliplied by the temperature to get
units of energy

Electronic entropy                ...      0.00000000 Eh      0.00 kcal/mol
Vibrational entropy               ...      0.00589625 Eh      3.70 kcal/mol
Rotational entropy                ...      0.01153391 Eh      7.24 kcal/mol
Translational entropy             ...      0.01860929 Eh     11.68 kcal/mol
-----------------------------------------------------------------------
Final entropy term                ...      0.03603946 Eh     22.62 kcal/mol

CAUTION: The rotational entropy is not quite correctly treated here
         because it includes a symmetry number that is not yet correctly
         implemented in ORCA!
For a nonlinear molecule the correct rotational entropy is:
    S(rot) = R*(ln(qrot/sn)+1.5)
    R    = 8.31441 J/mol/K = 1.987191683e-3 kcal/mol/K
    qrot = 135184.3986361
    sn is the rotational symmetry number. We have assumed 3 here
       if it is different for your molecule then you should correct
       the printed rotational entropy by manually evaluating the equation
       as given above

For convenience we print out the resulting values for sn=1 - 12:
 sn= 1  qrot/sn=  135184.3986 T*S(rot)=     7.89 kcal/mol T*S(tot)=    23.27 kcal/mol
 sn= 2  qrot/sn=   67592.1993 T*S(rot)=     7.48 kcal/mol T*S(tot)=    22.86 kcal/mol
 sn= 3  qrot/sn=   45061.4662 T*S(rot)=     7.24 kcal/mol T*S(tot)=    22.62 kcal/mol
 sn= 4  qrot/sn=   33796.0997 T*S(rot)=     7.07 kcal/mol T*S(tot)=    22.44 kcal/mol
 sn= 5  qrot/sn=   27036.8797 T*S(rot)=     6.93 kcal/mol T*S(tot)=    22.31 kcal/mol
 sn= 6  qrot/sn=   22530.7331 T*S(rot)=     6.83 kcal/mol T*S(tot)=    22.20 kcal/mol
 sn= 7  qrot/sn=   19312.0569 T*S(rot)=     6.74 kcal/mol T*S(tot)=    22.11 kcal/mol
 sn= 8  qrot/sn=   16898.0498 T*S(rot)=     6.66 kcal/mol T*S(tot)=    22.03 kcal/mol
 sn= 9  qrot/sn=   15020.4887 T*S(rot)=     6.59 kcal/mol T*S(tot)=    21.96 kcal/mol
 sn=10  qrot/sn=   13518.4399 T*S(rot)=     6.52 kcal/mol T*S(tot)=    21.90 kcal/mol
 sn=11  qrot/sn=   12289.4908 T*S(rot)=     6.47 kcal/mol T*S(tot)=    21.85 kcal/mol
 sn=12  qrot/sn=   11265.3666 T*S(rot)=     6.42 kcal/mol T*S(tot)=    21.79 kcal/mol

-------------------
GIBBS FREE ENTHALPY
-------------------

The Gibbs free enthalpy is G = H - T*S

Total enthalpy                    ...   -265.49160400 Eh
Total entropy correction          ...     -0.03603946 Eh    -22.62 kcal/mol
-----------------------------------------------------------------------
Final Gibbs free enthalpy         ...   -265.52764346 Eh

For completeness - the Gibbs free enthalpy minus the electronic energy
G-E(el)                           ...      0.08301935 Eh     52.10 kcal/mol

                             ****ORCA TERMINATED NORMALLY****
TOTAL RUN TIME: 0 days 0 hours 12 minutes 14 seconds 289 msec
