                         Program Version 3.0.3 - RELEASE   -
|  1> ! NORI PBE0 def2-TZVP UseSym TightOPT Freq TightSCF Grid3 FinalGrid5 XYZFile
|  2> % pal
|  3>     nprocs 8
|  4> end
|  5> %method
|  6>     SymThresh 5.0e-2
|  7> end
|  8> % geom
|  9>     MaxIter 10
| 10> end
| 11> % maxcore 2000
| 12> % output
| 13>     printlevel mini
| 14>     print[ P_Basis ] 0
| 15>     print[ P_SCFInfo ] 1
| 16>     print[ P_SCFIterInfo ] 1
| 17>     print[ P_OrbEn ] 0
| 18>     print[ P_Cartesian ] 0
| 19> end
| 20> % elprop
| 21>     Dipole false
| 22> end
| 23> *xyz 1 1
| 24>  N        1.1265375913     0.3476133830    -0.2845424950
| 25>  C        2.3386029364    -0.3188692295     0.3433038620
| 26>  C        2.3477292616    -0.0803156605     1.8171837735
| 27>  C        1.3797635886     0.4515242967     2.5475612826
| 28>  C        2.3438396546    -1.7593773134    -0.0841234790
| 29>  C        2.0488238409    -2.7690377447     0.7216542085
| 30>  H        1.1318452229     0.2286882789    -1.2990223251
| 31>  H        1.0982524000     1.3472863003    -0.0686161653
| 32>  H        0.2719586304    -0.0855439623     0.0737528858
| 33>  H        3.1949728264     0.1957236839    -0.1072765126
| 34>  H        3.2737729607    -0.3913056803     2.2909540133
| 35>  H        0.4232960171     0.7837229318     2.1535763800
| 36>  H        1.5050514399     0.5841918222     3.6148745462
| 37>  H        2.6282975576    -1.9466247288    -1.1167754292
| 38>  H        1.7913059489    -2.6187546760     1.7647668436
| 39>  H        2.0710801226    -3.7900917012     0.3603786105
| 40> *
| 41>
| 42>                          ****END OF INPUT****
 Total Charge           Charge          ....    1
 Multiplicity           Mult            ....    1
 Number of Electrons    NEL             ....   46
FINAL SINGLE POINT ENERGY      -250.792181932536
FINAL SINGLE POINT ENERGY      -250.792183058825

CARTESIAN COORDINATES (ANGSTROEM)
---------------------------------
  N      0.000387    0.000596    1.664360
  C      0.661563   -0.000008    0.297182
  C      0.124765   -1.119897   -0.531637
  C     -0.903812   -1.904326   -0.248657
  C      0.507784    1.375681   -0.287973
  C     -0.310804    1.665446   -1.289057
  H      0.393704    0.733156    2.257170
  H      0.115269   -0.901321    2.133335
  H     -0.999877    0.188398    1.562114
  H      1.720663   -0.187360    0.507700
  H      0.677260   -1.266109   -1.454677
  H     -1.511354   -1.824408    0.648957
  H     -1.196817   -2.693939   -0.928960
  H      1.134478    2.149549    0.149364
  H     -0.926621    0.911680   -1.768011
  H     -0.378782    2.675822   -1.673710

FINAL SINGLE POINT ENERGY      -250.792183608345
                    ***********************HURRAY********************
 Multiplicity           Mult            ....    1
 Number of Electrons    NEL             ....   46
 Basis Dimension        Dim             ....  246
FINAL SINGLE POINT ENERGY      -250.792183788237

VIBRATIONAL FREQUENCIES
-----------------------

   0:         0.00 cm**-1
   1:         0.00 cm**-1
   2:         0.00 cm**-1
   3:         0.00 cm**-1
   4:         0.00 cm**-1
   5:         0.00 cm**-1
   6:        92.89 cm**-1
   7:       107.07 cm**-1
   8:       230.50 cm**-1
   9:       254.11 cm**-1
  10:       290.46 cm**-1
  11:       341.81 cm**-1
  12:       479.32 cm**-1
  13:       545.44 cm**-1
  14:       664.24 cm**-1
  15:       701.51 cm**-1
  16:       803.86 cm**-1
  17:       924.66 cm**-1
  18:       945.71 cm**-1
  19:       981.80 cm**-1
  20:      1022.21 cm**-1
  21:      1027.39 cm**-1
  22:      1035.44 cm**-1
  23:      1039.90 cm**-1
  24:      1084.21 cm**-1
  25:      1134.89 cm**-1
  26:      1150.89 cm**-1
  27:      1322.96 cm**-1
  28:      1329.44 cm**-1
  29:      1351.25 cm**-1
  30:      1398.06 cm**-1
  31:      1445.21 cm**-1
  32:      1465.95 cm**-1
  33:      1488.13 cm**-1
  34:      1641.35 cm**-1
  35:      1653.00 cm**-1
  36:      1716.93 cm**-1
  37:      1730.02 cm**-1
  38:      3064.24 cm**-1
  39:      3153.05 cm**-1
  40:      3162.82 cm**-1
  41:      3170.38 cm**-1
  42:      3192.17 cm**-1
  43:      3248.86 cm**-1
  44:      3261.57 cm**-1
  45:      3412.14 cm**-1
  46:      3496.88 cm**-1
  47:      3515.27 cm**-1

IR SPECTRUM
-----------

 Mode    freq (cm**-1)   T**2         TX         TY         TZ
-------------------------------------------------------------------
   6:        92.89    0.512051  ( -0.552708   0.023029  -0.453910)
   7:       107.07    5.229923  ( -1.585057   1.531318  -0.610396)
   8:       230.50    0.085525  ( -0.135284   0.248561   0.073761)
   9:       254.11    1.200533  ( -0.015649   0.481437   0.984127)
  10:       290.46   13.414198  (  1.475269   2.191528   2.536727)
  11:       341.81    5.634790  (  0.804178  -2.106589   0.741869)
  12:       479.32    4.548121  ( -1.023441   1.865607   0.142119)
  13:       545.44    4.387435  (  1.830207   0.262624   0.984279)
  14:       664.24   13.416526  (  1.372356   0.645924  -3.334059)
  15:       701.51    5.941446  (  2.211629  -0.980821  -0.296868)
  16:       803.86    6.065355  ( -0.449385   0.731561   2.308295)
  17:       924.66    3.782407  (  0.804448   1.767147   0.111627)
  18:       945.71   11.108848  (  0.816497   0.206363  -3.224840)
  19:       981.80   50.742401  (  4.106199  -4.750591   3.363541)
  20:      1022.21   14.438259  (  3.240162   0.634425  -1.880722)
  21:      1027.39   21.012565  (  1.886782  -0.736001  -4.112289)
  22:      1035.44   21.794678  (  3.848598  -2.394353  -1.118054)
  23:      1039.90   12.514173  ( -1.189949  -1.193802   3.110150)
  24:      1084.21   28.198368  ( -1.857024   4.802094  -1.299892)
  25:      1134.89   10.550384  ( -2.489260  -1.589672   1.351632)
  26:      1150.89   12.361268  ( -0.917553   2.696020   2.061756)
  27:      1322.96    1.271509  (  0.415630  -0.665422   0.809923)
  28:      1329.44    0.451301  ( -0.236967   0.334888  -0.531976)
  29:      1351.25   20.602301  ( -1.894808   2.500749  -3.279978)
  30:      1398.06    7.503961  (  1.201661   1.026636   2.237407)
  31:      1445.21   36.902930  ( -2.089610   1.528808  -5.495380)
  32:      1465.95   24.127991  ( -1.387950  -2.856733  -3.747088)
  33:      1488.13  146.890133  (  5.824752   0.515588 -10.615864)
  34:      1641.35   54.774012  (  5.888079  -2.122544   3.949601)
  35:      1653.00   36.424702  (  0.529708   5.656870   2.035664)
  36:      1716.93    0.741804  (  0.011822   0.203049   0.836920)
  37:      1730.02    2.533595  ( -1.371859  -0.778884   0.211986)
  38:      3064.24    0.347458  (  0.345327  -0.119151   0.462612)
  39:      3153.05    9.750797  (  0.501950  -1.428791  -2.730824)
  40:      3162.82    1.545060  ( -0.349165  -1.171200  -0.226793)
  41:      3170.38    0.544337  (  0.431187  -0.111413   0.588219)
  42:      3192.17    2.338566  ( -0.636473   0.352247   1.345136)
  43:      3248.86    1.469154  ( -0.827352  -0.880928   0.092789)
  44:      3261.57    0.378789  ( -0.020756   0.552644  -0.270080)
  45:      3412.14   31.739983  ( -1.820483  -0.503751   5.307736)
  46:      3496.88   75.599670  (  6.371810  -5.047186   3.086360)
  47:      3515.27   92.941102  ( -4.407735  -7.444148  -4.254131)

--------------------------
THERMOCHEMISTRY AT 298.15K
--------------------------

Temperature         ... 298.15 K
Pressure            ... 1.00 atm
Total Mass          ... 84.14 AMU

Throughout the following assumptions are being made:
  (1) The electronic state is orbitally nondegenerate
  (2) There are no thermally accessible electronically excited states
  (3) Hindered rotations indicated by low frequency modes) are not
      treated as such but are treated as vibrations and this may
      case some error
  (4) All equations used are the standard statistical mechanics
      equations for an ideal gas
  (5) All vibrations are strinctly harmonic

------------
INNER ENERGY
------------

The inner energy is: U= E(el) + E(ZPE) + E(vib) + E(rot) + E(trans)
    E(el)   - is the total energy from the electronic structure calculation
              = E(kin-el) + E(nuc-el) + E(el-el) + E(nuc-nuc)
    E(ZPE)  - the the zero temperature vibrational energy from the frequency calculation
    E(vib)  - the the finite temperature correction to E(ZPE) due to population
              of excietd vibrational states
    E(rot)  - is the rotational thermal energy
    E(trans)- is the translational thermal energy

Summary of contributions to the inner energy U:
Electronic energy                ...   -250.79218379 Eh
Zero point energy                ...      0.14598047 Eh      91.60 kcal/mol
Thermal vibrational correction   ...      0.00441348 Eh       2.77 kcal/mol
Thermal rotational correction    ...      0.00141627 Eh       0.89 kcal/mol
Thermal translational correction ...      0.00141627 Eh       0.89 kcal/mol
-----------------------------------------------------------------------
Total thermal energy                   -250.63895730 Eh

Summary of corrections to the electronic energy:
(perhaps to be used in another calculation)
Total thermal correction                  0.00724602 Eh       4.55 kcal/mol
Non-thermal (ZPE) correction              0.14598047 Eh      91.60 kcal/mol
-----------------------------------------------------------------------
Total correction                          0.15322649 Eh      96.15 kcal/mol

--------
ENTHALPY
--------

The enthalpy is H = U + kB*T
                kB is Boltzmann's constant
Total free energy                 ...   -250.63895730 Eh
Thermal Enthalpy correction       ...      0.00094421 Eh       0.59 kcal/mol
-----------------------------------------------------------------------
Total Enthalpy                    ...   -250.63801309 Eh

-------
ENTROPY
-------

The entropy contributions are T*S = T*(S(el)+S(vib)+S(rot)+S(trans)
     S(el)   - electronic entropy
     S(vib)  - vibrational entropy
     S(rot)  - rotational entropy
     S(trans)- translational entropy
The entropies will be listed as mutliplied by the temperature to get
units of energy

Electronic entropy                ...      0.00000000 Eh      0.00 kcal/mol
Vibrational entropy               ...      0.00774167 Eh      4.86 kcal/mol
Rotational entropy                ...      0.01168931 Eh      7.34 kcal/mol
Translational entropy             ...      0.01862670 Eh     11.69 kcal/mol
-----------------------------------------------------------------------
Final entropy term                ...      0.03805769 Eh     23.88 kcal/mol

CAUTION: The rotational entropy is not quite correctly treated here
         because it includes a symmetry number that is not yet correctly
         implemented in ORCA!
For a nonlinear molecule the correct rotational entropy is:
    S(rot) = R*(ln(qrot/sn)+1.5)
    R    = 8.31441 J/mol/K = 1.987191683e-3 kcal/mol/K
    qrot = 159369.9383820
    sn is the rotational symmetry number. We have assumed 3 here
       if it is different for your molecule then you should correct
       the printed rotational entropy by manually evaluating the equation
       as given above

For convenience we print out the resulting values for sn=1 - 12:
 sn= 1  qrot/sn=  159369.9384 T*S(rot)=     7.99 kcal/mol T*S(tot)=    24.53 kcal/mol
 sn= 2  qrot/sn=   79684.9692 T*S(rot)=     7.58 kcal/mol T*S(tot)=    24.12 kcal/mol
 sn= 3  qrot/sn=   53123.3128 T*S(rot)=     7.34 kcal/mol T*S(tot)=    23.88 kcal/mol
 sn= 4  qrot/sn=   39842.4846 T*S(rot)=     7.16 kcal/mol T*S(tot)=    23.71 kcal/mol
 sn= 5  qrot/sn=   31873.9877 T*S(rot)=     7.03 kcal/mol T*S(tot)=    23.58 kcal/mol
 sn= 6  qrot/sn=   26561.6564 T*S(rot)=     6.92 kcal/mol T*S(tot)=    23.47 kcal/mol
 sn= 7  qrot/sn=   22767.1341 T*S(rot)=     6.83 kcal/mol T*S(tot)=    23.38 kcal/mol
 sn= 8  qrot/sn=   19921.2423 T*S(rot)=     6.75 kcal/mol T*S(tot)=    23.30 kcal/mol
 sn= 9  qrot/sn=   17707.7709 T*S(rot)=     6.68 kcal/mol T*S(tot)=    23.23 kcal/mol
 sn=10  qrot/sn=   15936.9938 T*S(rot)=     6.62 kcal/mol T*S(tot)=    23.17 kcal/mol
 sn=11  qrot/sn=   14488.1762 T*S(rot)=     6.57 kcal/mol T*S(tot)=    23.11 kcal/mol
 sn=12  qrot/sn=   13280.8282 T*S(rot)=     6.51 kcal/mol T*S(tot)=    23.06 kcal/mol

-------------------
GIBBS FREE ENTHALPY
-------------------

The Gibbs free enthalpy is G = H - T*S

Total enthalpy                    ...   -250.63801309 Eh
Total entropy correction          ...     -0.03805769 Eh    -23.88 kcal/mol
-----------------------------------------------------------------------
Final Gibbs free enthalpy         ...   -250.67607078 Eh

For completeness - the Gibbs free enthalpy minus the electronic energy
G-E(el)                           ...      0.11611301 Eh     72.86 kcal/mol

                             ****ORCA TERMINATED NORMALLY****
TOTAL RUN TIME: 0 days 0 hours 17 minutes 23 seconds 524 msec
