                         Program Version 3.0.3 - RELEASE   -
|  1> ! NORI PBE0 def2-TZVP UseSym TightOPT Freq TightSCF Grid3 FinalGrid5 XYZFile
|  2> % pal
|  3>     nprocs 8
|  4> end
|  5> %method
|  6>     SymThresh 5.0e-2
|  7> end
|  8> % geom
|  9>     MaxIter 10
| 10> end
| 11> % maxcore 2000
| 12> % output
| 13>     printlevel mini
| 14>     print[ P_Basis ] 0
| 15>     print[ P_SCFInfo ] 1
| 16>     print[ P_SCFIterInfo ] 1
| 17>     print[ P_OrbEn ] 0
| 18>     print[ P_Cartesian ] 0
| 19> end
| 20> % elprop
| 21>     Dipole false
| 22> end
| 23> *xyz 1 1
| 24>  N        0.9753964957     0.2510382524    -0.2769006735
| 25>  C        2.4726031011     0.0558013154     0.0060520499
| 26>  C        2.6496381087    -0.0927580335     1.4886570396
| 27>  C        3.1099604722    -1.1883406766     2.0719014842
| 28>  C        2.9178677248    -1.0547988346    -0.8075741607
| 29>  C        3.2670672967    -1.9674450416    -1.5008021628
| 30>  H        0.8069383346     0.4014324437    -1.2744410644
| 31>  H        0.6006528427     1.0457453488     0.2459323114
| 32>  H        0.4672259271    -0.5892610684     0.0107953116
| 33>  H        2.9381619777     0.9857135284    -0.3397946128
| 34>  H        2.4096042569     0.7912873504     2.0749679343
| 35>  H        3.3940993485    -2.0647476106     1.4999721887
| 36>  H        3.2360060389    -1.2304468740     3.1468339375
| 37>  H        3.5948380744    -2.7768500999    -2.1162695830
| 38> *
| 39>
| 40>                          ****END OF INPUT****
 Total Charge           Charge          ....    1
 Multiplicity           Mult            ....    1
 Number of Electrons    NEL             ....   44
FINAL SINGLE POINT ENERGY      -249.535021435790

CARTESIAN COORDINATES (ANGSTROEM)
---------------------------------
  N     -0.000184   -0.000035    1.804517
  C      0.583147   -0.000052    0.383219
  C      0.361989   -1.360650   -0.209752
  C     -0.394764   -1.589991   -1.271205
  C     -0.015949    1.112363   -0.322171
  C     -0.513816    2.047552   -0.881537
  H      0.165334    0.896017    2.269080
  H      0.406627   -0.747469    2.371253
  H     -1.010665   -0.152069    1.752321
  H      1.654262    0.180201    0.529088
  H      0.906725   -2.169810    0.271115
  H     -0.911963   -0.789423   -1.788831
  H     -0.501482   -2.592380   -1.667272
  H     -0.945968    2.880302   -1.392476

FINAL SINGLE POINT ENERGY      -249.535021710420
                    ***********************HURRAY********************
 Multiplicity           Mult            ....    1
 Number of Electrons    NEL             ....   44
 Basis Dimension        Dim             ....  234
FINAL SINGLE POINT ENERGY      -249.535021838483

VIBRATIONAL FREQUENCIES
-----------------------

   0:         0.00 cm**-1
   1:         0.00 cm**-1
   2:         0.00 cm**-1
   3:         0.00 cm**-1
   4:         0.00 cm**-1
   5:         0.00 cm**-1
   6:       107.72 cm**-1
   7:       156.69 cm**-1
   8:       201.30 cm**-1
   9:       223.79 cm**-1
  10:       318.26 cm**-1
  11:       388.36 cm**-1
  12:       524.67 cm**-1
  13:       594.30 cm**-1
  14:       668.86 cm**-1
  15:       736.98 cm**-1
  16:       773.20 cm**-1
  17:       793.81 cm**-1
  18:       919.91 cm**-1
  19:       947.30 cm**-1
  20:      1013.22 cm**-1
  21:      1037.92 cm**-1
  22:      1050.13 cm**-1
  23:      1081.65 cm**-1
  24:      1161.55 cm**-1
  25:      1326.73 cm**-1
  26:      1345.98 cm**-1
  27:      1385.38 cm**-1
  28:      1442.16 cm**-1
  29:      1486.94 cm**-1
  30:      1641.99 cm**-1
  31:      1648.53 cm**-1
  32:      1720.69 cm**-1
  33:      2255.40 cm**-1
  34:      3066.25 cm**-1
  35:      3164.94 cm**-1
  36:      3173.09 cm**-1
  37:      3265.94 cm**-1
  38:      3407.87 cm**-1
  39:      3450.35 cm**-1
  40:      3500.34 cm**-1
  41:      3508.53 cm**-1

IR SPECTRUM
-----------

 Mode    freq (cm**-1)   T**2         TX         TY         TZ
-------------------------------------------------------------------
   6:       107.72    6.010334  (  1.822159   1.503280   0.655912)
   7:       156.69    2.835572  ( -0.190549   1.671128  -0.081199)
   8:       201.30    9.318350  ( -2.974381   0.614367  -0.306526)
   9:       223.79    1.623255  (  1.177760  -0.477529  -0.090014)
  10:       318.26   11.575354  ( -1.521701  -2.934818  -0.804128)
  11:       388.36    1.543275  ( -0.883918  -0.807972  -0.330373)
  12:       524.67   14.305621  ( -0.667506  -0.921257   3.607124)
  13:       594.30    6.851665  ( -0.968882   0.813541   2.291524)
  14:       668.86    9.948529  ( -2.534627   0.023123   1.877141)
  15:       736.98   38.100478  ( -4.704482  -3.478540  -1.966744)
  16:       773.20   21.461458  (  2.571856  -1.885331  -3.360438)
  17:       793.81   28.270755  ( -1.681687   0.200546   5.040086)
  18:       919.91   25.877869  ( -0.617464  -1.004535   4.948486)
  19:       947.30   17.745457  (  0.587541  -0.790576  -4.095759)
  20:      1013.22   28.802099  (  3.748013  -0.963896  -3.718252)
  21:      1037.92   26.685999  ( -4.338934  -0.888028   2.659146)
  22:      1050.13   14.928817  ( -1.471036   3.328440   1.298599)
  23:      1081.65   21.589449  ( -3.572645  -2.907408   0.610439)
  24:      1161.55   19.066560  (  0.421461  -4.189286   1.157072)
  25:      1326.73    1.320151  (  0.652359   0.032298   0.945270)
  26:      1345.98   32.327074  (  2.170097   3.095714   4.246682)
  27:      1385.38   25.623909  ( -1.726760   4.248211  -2.143575)
  28:      1442.16   38.887385  (  2.194091   1.197833   5.713015)
  29:      1486.94  150.816347  (  4.588049   0.405987 -11.384258)
  30:      1641.99   48.230678  ( -5.873495  -2.480688  -2.752984)
  31:      1648.53   36.337357  (  2.300138  -5.487450   0.966755)
  32:      1720.69    1.981419  (  0.086664  -0.214411   1.388501)
  33:      2255.40   35.426512  ( -1.739794   4.453581  -3.544749)
  34:      3066.25    0.870666  ( -0.506329  -0.404861   0.671107)
  35:      3164.94    0.425189  ( -0.024133   0.600612  -0.252728)
  36:      3173.09    0.928527  ( -0.444724  -0.143517  -0.842705)
  37:      3265.94    1.186494  (  0.044903  -1.042352  -0.313018)
  38:      3407.87   47.804223  (  1.868063   0.112171  -6.655973)
  39:      3450.35   94.287845  (  3.726369  -7.940514   4.165363)
  40:      3500.34   94.486800  ( -8.211488  -3.758946  -3.595634)
  41:      3508.53   82.779456  ( -3.228910   8.368526  -1.523606)

--------------------------
THERMOCHEMISTRY AT 298.15K
--------------------------

Temperature         ... 298.15 K
Pressure            ... 1.00 atm
Total Mass          ... 82.13 AMU

Throughout the following assumptions are being made:
  (1) The electronic state is orbitally nondegenerate
  (2) There are no thermally accessible electronically excited states
  (3) Hindered rotations indicated by low frequency modes) are not
      treated as such but are treated as vibrations and this may
      case some error
  (4) All equations used are the standard statistical mechanics
      equations for an ideal gas
  (5) All vibrations are strinctly harmonic

------------
INNER ENERGY
------------

The inner energy is: U= E(el) + E(ZPE) + E(vib) + E(rot) + E(trans)
    E(el)   - is the total energy from the electronic structure calculation
              = E(kin-el) + E(nuc-el) + E(el-el) + E(nuc-nuc)
    E(ZPE)  - the the zero temperature vibrational energy from the frequency calculation
    E(vib)  - the the finite temperature correction to E(ZPE) due to population
              of excietd vibrational states
    E(rot)  - is the rotational thermal energy
    E(trans)- is the translational thermal energy

Summary of contributions to the inner energy U:
Electronic energy                ...   -249.53502184 Eh
Zero point energy                ...      0.12186089 Eh      76.47 kcal/mol
Thermal vibrational correction   ...      0.00419929 Eh       2.64 kcal/mol
Thermal rotational correction    ...      0.00141627 Eh       0.89 kcal/mol
Thermal translational correction ...      0.00141627 Eh       0.89 kcal/mol
-----------------------------------------------------------------------
Total thermal energy                   -249.40612911 Eh

Summary of corrections to the electronic energy:
(perhaps to be used in another calculation)
Total thermal correction                  0.00703183 Eh       4.41 kcal/mol
Non-thermal (ZPE) correction              0.12186089 Eh      76.47 kcal/mol
-----------------------------------------------------------------------
Total correction                          0.12889273 Eh      80.88 kcal/mol

--------
ENTHALPY
--------

The enthalpy is H = U + kB*T
                kB is Boltzmann's constant
Total free energy                 ...   -249.40612911 Eh
Thermal Enthalpy correction       ...      0.00094421 Eh       0.59 kcal/mol
-----------------------------------------------------------------------
Total Enthalpy                    ...   -249.40518490 Eh

-------
ENTROPY
-------

The entropy contributions are T*S = T*(S(el)+S(vib)+S(rot)+S(trans)
     S(el)   - electronic entropy
     S(vib)  - vibrational entropy
     S(rot)  - rotational entropy
     S(trans)- translational entropy
The entropies will be listed as mutliplied by the temperature to get
units of energy

Electronic entropy                ...      0.00000000 Eh      0.00 kcal/mol
Vibrational entropy               ...      0.00717585 Eh      4.50 kcal/mol
Rotational entropy                ...      0.01169166 Eh      7.34 kcal/mol
Translational entropy             ...      0.01859236 Eh     11.67 kcal/mol
-----------------------------------------------------------------------
Final entropy term                ...      0.03745986 Eh     23.51 kcal/mol

CAUTION: The rotational entropy is not quite correctly treated here
         because it includes a symmetry number that is not yet correctly
         implemented in ORCA!
For a nonlinear molecule the correct rotational entropy is:
    S(rot) = R*(ln(qrot/sn)+1.5)
    R    = 8.31441 J/mol/K = 1.987191683e-3 kcal/mol/K
    qrot = 159766.6527427
    sn is the rotational symmetry number. We have assumed 3 here
       if it is different for your molecule then you should correct
       the printed rotational entropy by manually evaluating the equation
       as given above

For convenience we print out the resulting values for sn=1 - 12:
 sn= 1  qrot/sn=  159766.6527 T*S(rot)=     7.99 kcal/mol T*S(tot)=    24.16 kcal/mol
 sn= 2  qrot/sn=   79883.3264 T*S(rot)=     7.58 kcal/mol T*S(tot)=    23.75 kcal/mol
 sn= 3  qrot/sn=   53255.5509 T*S(rot)=     7.34 kcal/mol T*S(tot)=    23.51 kcal/mol
 sn= 4  qrot/sn=   39941.6632 T*S(rot)=     7.17 kcal/mol T*S(tot)=    23.34 kcal/mol
 sn= 5  qrot/sn=   31953.3305 T*S(rot)=     7.03 kcal/mol T*S(tot)=    23.20 kcal/mol
 sn= 6  qrot/sn=   26627.7755 T*S(rot)=     6.93 kcal/mol T*S(tot)=    23.10 kcal/mol
 sn= 7  qrot/sn=   22823.8075 T*S(rot)=     6.83 kcal/mol T*S(tot)=    23.00 kcal/mol
 sn= 8  qrot/sn=   19970.8316 T*S(rot)=     6.76 kcal/mol T*S(tot)=    22.93 kcal/mol
 sn= 9  qrot/sn=   17751.8503 T*S(rot)=     6.69 kcal/mol T*S(tot)=    22.86 kcal/mol
 sn=10  qrot/sn=   15976.6653 T*S(rot)=     6.62 kcal/mol T*S(tot)=    22.79 kcal/mol
 sn=11  qrot/sn=   14524.2412 T*S(rot)=     6.57 kcal/mol T*S(tot)=    22.74 kcal/mol
 sn=12  qrot/sn=   13313.8877 T*S(rot)=     6.52 kcal/mol T*S(tot)=    22.69 kcal/mol

-------------------
GIBBS FREE ENTHALPY
-------------------

The Gibbs free enthalpy is G = H - T*S

Total enthalpy                    ...   -249.40518490 Eh
Total entropy correction          ...     -0.03745986 Eh    -23.51 kcal/mol
-----------------------------------------------------------------------
Final Gibbs free enthalpy         ...   -249.44264477 Eh

For completeness - the Gibbs free enthalpy minus the electronic energy
G-E(el)                           ...      0.09237707 Eh     57.97 kcal/mol

                             ****ORCA TERMINATED NORMALLY****
TOTAL RUN TIME: 0 days 0 hours 14 minutes 54 seconds 58 msec
