                         Program Version 3.0.3 - RELEASE   -
|  1> ! NORI PBE0 def2-TZVP UseSym TightOPT Freq TightSCF Grid3 FinalGrid5 XYZFile
|  2> % pal
|  3>     nprocs 8
|  4> end
|  5> %method
|  6>     SymThresh 5.0e-2
|  7> end
|  8> % geom
|  9>     MaxIter 10
| 10> end
| 11> % maxcore 2000
| 12> % output
| 13>     printlevel mini
| 14>     print[ P_Basis ] 0
| 15>     print[ P_SCFInfo ] 1
| 16>     print[ P_SCFIterInfo ] 1
| 17>     print[ P_OrbEn ] 0
| 18>     print[ P_Cartesian ] 0
| 19> end
| 20> % elprop
| 21>     Dipole false
| 22> end
| 23> *xyz 1 1
| 24>  N        1.0166133055     0.0401213717     0.1018954814
| 25>  C        2.5488532724     0.0392254029     0.0594660613
| 26>  C        2.9765431013    -1.1513526495    -0.6496012672
| 27>  C        3.3258585722    -2.1413354363    -1.2254890403
| 28>  C        2.9807806853     1.2867753084    -0.5408641363
| 29>  C        3.3302971457     2.3220888835    -1.0305085419
| 30>  H        0.6664747698    -0.8172420369     0.5371491376
| 31>  H        0.6524077703     0.0877039433    -0.8534443612
| 32>  H        0.6697130375     0.8523232356     0.6186927945
| 33>  H        2.8639452813    -0.0081953387     1.1087548141
| 34>  H        3.6478071904    -3.0215902552    -1.7383803168
| 35>  H        3.6551758682     3.2418175712    -1.4664506252
| 36> *
| 37>
| 38>                          ****END OF INPUT****
 Total Charge           Charge          ....    1
 Multiplicity           Mult            ....    1
 Number of Electrons    NEL             ....   42
FINAL SINGLE POINT ENERGY      -248.271381102522

CARTESIAN COORDINATES (ANGSTROEM)
---------------------------------
  N      1.702964   -0.000003   -0.000000
  C      0.258319   -0.513524    0.000000
  C     -0.379341   -0.058003    1.220268
  C     -0.898067    0.312687    2.233652
  C     -0.379341   -0.058003   -1.220268
  C     -0.898067    0.312687   -2.233652
  H      2.199910   -0.318802    0.835759
  H      1.697573    1.023594   -0.000000
  H      2.199910   -0.318802   -0.835759
  H      0.343709   -1.606823    0.000000
  H     -1.371536    0.638497    3.134418
  H     -1.371536    0.638497   -3.134418

FINAL SINGLE POINT ENERGY      -248.271381551813
                    ***********************HURRAY********************
 Multiplicity           Mult            ....    1
 Number of Electrons    NEL             ....   42
 Basis Dimension        Dim             ....  222
FINAL SINGLE POINT ENERGY      -248.271381689462

VIBRATIONAL FREQUENCIES
-----------------------

   0:         0.00 cm**-1
   1:         0.00 cm**-1
   2:         0.00 cm**-1
   3:         0.00 cm**-1
   4:         0.00 cm**-1
   5:         0.00 cm**-1
   6:       125.42 cm**-1
   7:       183.79 cm**-1
   8:       194.15 cm**-1
   9:       219.29 cm**-1
  10:       323.93 cm**-1
  11:       468.38 cm**-1
  12:       543.08 cm**-1
  13:       570.57 cm**-1
  14:       739.04 cm**-1
  15:       739.81 cm**-1
  16:       775.62 cm**-1
  17:       778.21 cm**-1
  18:       789.26 cm**-1
  19:       957.25 cm**-1
  20:       959.72 cm**-1
  21:      1077.67 cm**-1
  22:      1156.31 cm**-1
  23:      1348.65 cm**-1
  24:      1353.39 cm**-1
  25:      1491.70 cm**-1
  26:      1636.53 cm**-1
  27:      1647.50 cm**-1
  28:      2257.48 cm**-1
  29:      2259.08 cm**-1
  30:      3059.51 cm**-1
  31:      3402.93 cm**-1
  32:      3448.88 cm**-1
  33:      3450.05 cm**-1
  34:      3495.57 cm**-1
  35:      3502.91 cm**-1

IR SPECTRUM
-----------

 Mode    freq (cm**-1)   T**2         TX         TY         TZ
-------------------------------------------------------------------
   6:       125.42    0.140651  ( -0.283000   0.246093   0.000010)
   7:       183.79   19.195037  ( -0.050843   4.380919   0.000117)
   8:       194.15   11.560966  (  0.000003  -0.000149   3.400142)
   9:       219.29    1.028880  (  0.000002   0.000014  -1.014337)
  10:       323.93    6.304361  (  0.000014   0.000002  -2.510849)
  11:       468.38    0.748108  ( -0.000004  -0.000001   0.864932)
  12:       543.08   36.293421  (  5.976613  -0.757310   0.000003)
  13:       570.57   16.210278  (  2.962988   2.725982  -0.000001)
  14:       739.04   17.212076  ( -0.000027   0.000082   4.148744)
  15:       739.81   57.042224  ( -2.604183   7.089461  -0.000039)
  16:       775.62   21.657483  (  3.877622   2.573233   0.000040)
  17:       778.21    7.682729  (  0.000083   0.000063  -2.771774)
  18:       789.26   38.228837  (  5.326568   3.139507  -0.000003)
  19:       957.25    1.153928  (  0.000073  -0.000006  -1.074211)
  20:       959.72   57.006068  (  7.538381  -0.422947   0.000010)
  21:      1077.67   18.372986  ( -0.042695  -4.286160  -0.000000)
  22:      1156.31   50.449393  ( -0.000001   0.000000   7.102774)
  23:      1348.65   60.035089  (  0.000001  -0.000001  -7.748231)
  24:      1353.39   28.603006  ( -4.361826   3.094750  -0.000002)
  25:      1491.70  161.936673  ( 12.198965   3.622419  -0.000000)
  26:      1636.53   49.619366  ( -2.564248   6.560793   0.000000)
  27:      1647.50   35.119532  (  0.000000   0.000000  -5.926174)
  28:      2257.48   70.118187  (  0.000184  -0.000069  -8.373660)
  29:      2259.08   35.943442  (  5.599034  -2.143423   0.000273)
  30:      3059.51    3.196009  ( -0.539740  -1.704315  -0.000000)
  31:      3402.93   56.870034  ( -7.363552  -1.627311   0.000000)
  32:      3448.88  149.275643  ( -0.000009   0.000006  12.217841)
  33:      3450.05   44.863184  ( -5.460832   3.878466  -0.000010)
  34:      3495.57  106.763210  ( -3.441170   9.742769  -0.000000)
  35:      3502.91   92.553541  (  0.000000  -0.000000  -9.620475)

--------------------------
THERMOCHEMISTRY AT 298.15K
--------------------------

Temperature         ... 298.15 K
Pressure            ... 1.00 atm
Total Mass          ... 80.11 AMU

Throughout the following assumptions are being made:
  (1) The electronic state is orbitally nondegenerate
  (2) There are no thermally accessible electronically excited states
  (3) Hindered rotations indicated by low frequency modes) are not
      treated as such but are treated as vibrations and this may
      case some error
  (4) All equations used are the standard statistical mechanics
      equations for an ideal gas
  (5) All vibrations are strinctly harmonic

------------
INNER ENERGY
------------

The inner energy is: U= E(el) + E(ZPE) + E(vib) + E(rot) + E(trans)
    E(el)   - is the total energy from the electronic structure calculation
              = E(kin-el) + E(nuc-el) + E(el-el) + E(nuc-nuc)
    E(ZPE)  - the the zero temperature vibrational energy from the frequency calculation
    E(vib)  - the the finite temperature correction to E(ZPE) due to population
              of excietd vibrational states
    E(rot)  - is the rotational thermal energy
    E(trans)- is the translational thermal energy

Summary of contributions to the inner energy U:
Electronic energy                ...   -248.27138169 Eh
Zero point energy                ...      0.09786021 Eh      61.41 kcal/mol
Thermal vibrational correction   ...      0.00399616 Eh       2.51 kcal/mol
Thermal rotational correction    ...      0.00141627 Eh       0.89 kcal/mol
Thermal translational correction ...      0.00141627 Eh       0.89 kcal/mol
-----------------------------------------------------------------------
Total thermal energy                   -248.16669278 Eh

Summary of corrections to the electronic energy:
(perhaps to be used in another calculation)
Total thermal correction                  0.00682870 Eh       4.29 kcal/mol
Non-thermal (ZPE) correction              0.09786021 Eh      61.41 kcal/mol
-----------------------------------------------------------------------
Total correction                          0.10468891 Eh      65.69 kcal/mol

--------
ENTHALPY
--------

The enthalpy is H = U + kB*T
                kB is Boltzmann's constant
Total free energy                 ...   -248.16669278 Eh
Thermal Enthalpy correction       ...      0.00094421 Eh       0.59 kcal/mol
-----------------------------------------------------------------------
Total Enthalpy                    ...   -248.16574857 Eh

-------
ENTROPY
-------

The entropy contributions are T*S = T*(S(el)+S(vib)+S(rot)+S(trans)
     S(el)   - electronic entropy
     S(vib)  - vibrational entropy
     S(rot)  - rotational entropy
     S(trans)- translational entropy
The entropies will be listed as mutliplied by the temperature to get
units of energy

Electronic entropy                ...      0.00000000 Eh      0.00 kcal/mol
Vibrational entropy               ...      0.00672614 Eh      4.22 kcal/mol
Rotational entropy                ...      0.01169283 Eh      7.34 kcal/mol
Translational entropy             ...      0.01855716 Eh     11.64 kcal/mol
-----------------------------------------------------------------------
Final entropy term                ...      0.03697613 Eh     23.20 kcal/mol

CAUTION: The rotational entropy is not quite correctly treated here
         because it includes a symmetry number that is not yet correctly
         implemented in ORCA!
For a nonlinear molecule the correct rotational entropy is:
    S(rot) = R*(ln(qrot/sn)+1.5)
    R    = 8.31441 J/mol/K = 1.987191683e-3 kcal/mol/K
    qrot = 159965.3511760
    sn is the rotational symmetry number. We have assumed 3 here
       if it is different for your molecule then you should correct
       the printed rotational entropy by manually evaluating the equation
       as given above

For convenience we print out the resulting values for sn=1 - 12:
 sn= 1  qrot/sn=  159965.3512 T*S(rot)=     7.99 kcal/mol T*S(tot)=    23.85 kcal/mol
 sn= 2  qrot/sn=   79982.6756 T*S(rot)=     7.58 kcal/mol T*S(tot)=    23.44 kcal/mol
 sn= 3  qrot/sn=   53321.7837 T*S(rot)=     7.34 kcal/mol T*S(tot)=    23.20 kcal/mol
 sn= 4  qrot/sn=   39991.3378 T*S(rot)=     7.17 kcal/mol T*S(tot)=    23.03 kcal/mol
 sn= 5  qrot/sn=   31993.0702 T*S(rot)=     7.03 kcal/mol T*S(tot)=    22.90 kcal/mol
 sn= 6  qrot/sn=   26660.8919 T*S(rot)=     6.93 kcal/mol T*S(tot)=    22.79 kcal/mol
 sn= 7  qrot/sn=   22852.1930 T*S(rot)=     6.84 kcal/mol T*S(tot)=    22.70 kcal/mol
 sn= 8  qrot/sn=   19995.6689 T*S(rot)=     6.76 kcal/mol T*S(tot)=    22.62 kcal/mol
 sn= 9  qrot/sn=   17773.9279 T*S(rot)=     6.69 kcal/mol T*S(tot)=    22.55 kcal/mol
 sn=10  qrot/sn=   15996.5351 T*S(rot)=     6.62 kcal/mol T*S(tot)=    22.49 kcal/mol
 sn=11  qrot/sn=   14542.3047 T*S(rot)=     6.57 kcal/mol T*S(tot)=    22.43 kcal/mol
 sn=12  qrot/sn=   13330.4459 T*S(rot)=     6.52 kcal/mol T*S(tot)=    22.38 kcal/mol

-------------------
GIBBS FREE ENTHALPY
-------------------

The Gibbs free enthalpy is G = H - T*S

Total enthalpy                    ...   -248.16574857 Eh
Total entropy correction          ...     -0.03697613 Eh    -23.20 kcal/mol
-----------------------------------------------------------------------
Final Gibbs free enthalpy         ...   -248.20272470 Eh

For completeness - the Gibbs free enthalpy minus the electronic energy
G-E(el)                           ...      0.06865699 Eh     43.08 kcal/mol

                             ****ORCA TERMINATED NORMALLY****
TOTAL RUN TIME: 0 days 0 hours 11 minutes 32 seconds 907 msec
