                         Program Version 3.0.3 - RELEASE   -
|  1> ! NORI PBE0 def2-TZVP UseSym TightOPT Freq TightSCF Grid3 FinalGrid5 XYZFile
|  2> % pal
|  3>     nprocs 8
|  4> end
|  5> %method
|  6>     SymThresh 5.0e-2
|  7> end
|  8> % geom
|  9>     MaxIter 10
| 10> end
| 11> % maxcore 2000
| 12> % output
| 13>     printlevel mini
| 14>     print[ P_Basis ] 0
| 15>     print[ P_SCFInfo ] 1
| 16>     print[ P_SCFIterInfo ] 1
| 17>     print[ P_OrbEn ] 0
| 18>     print[ P_Cartesian ] 0
| 19> end
| 20> % elprop
| 21>     Dipole false
| 22> end
| 23> *xyz 1 1
| 24>  N        1.6444667431    -0.2018664242     0.9224125544
| 25>  C        2.7889962525     0.3281713216     0.0593461088
| 26>  C        2.9360921595    -0.4903914666    -1.1640901532
| 27>  C        3.9697990300    -1.3231227930    -1.3528299770
| 28>  C        4.1811825233    -2.1168529535    -2.5381472158
| 29>  C        5.2371122790    -2.9188873325    -2.6805314035
| 30>  H        1.5166565534     0.3458672749     1.7763912566
| 31>  H        1.8255444408    -1.1739766428     1.1810281608
| 32>  H        0.7658540264    -0.1862816999     0.4007458860
| 33>  H        2.5340281598     1.3701970796    -0.1448001120
| 34>  H        3.6777588920     0.2967123788     0.6902906957
| 35>  H        2.1894317302    -0.3617867857    -1.9444192962
| 36>  H        4.7292808275    -1.4090725066    -0.5752086026
| 37>  H        3.4437605909    -2.0386772277    -3.3325929503
| 38>  H        5.9903508452    -3.0096705233    -1.9042438239
| 39>  H        5.3844949465    -3.5066016992    -3.5779411276
| 40> *
| 41>
| 42>                          ****END OF INPUT****
 Total Charge           Charge          ....    1
 Multiplicity           Mult            ....    1
 Number of Electrons    NEL             ....   46
FINAL SINGLE POINT ENERGY      -250.805937945638

CARTESIAN COORDINATES (ANGSTROEM)
---------------------------------
  N     -0.000188    0.000672    2.760598
  C      0.990314   -0.000712    1.596560
  C      0.355642    0.546616    0.377505
  C      0.034574   -0.221386   -0.673363
  C     -0.553836    0.263480   -1.897363
  C     -0.839365   -0.543496   -2.919849
  H      0.410494   -0.371307    3.620210
  H     -0.820114   -0.560237    2.519970
  H     -0.328254    0.949689    2.950312
  H      1.840805    0.589286    1.944505
  H      1.303728   -1.037408    1.472664
  H      0.194334    1.621276    0.337267
  H      0.240814   -1.290799   -0.630137
  H     -0.758866    1.327984   -1.968138
  H     -0.638794   -1.609051   -2.875309
  H     -1.279019   -0.164858   -3.834133

FINAL SINGLE POINT ENERGY      -250.805938906064
                    ***********************HURRAY********************
 Multiplicity           Mult            ....    1
 Number of Electrons    NEL             ....   46
 Basis Dimension        Dim             ....  246
FINAL SINGLE POINT ENERGY      -250.805939079512

VIBRATIONAL FREQUENCIES
-----------------------

   0:         0.00 cm**-1
   1:         0.00 cm**-1
   2:         0.00 cm**-1
   3:         0.00 cm**-1
   4:         0.00 cm**-1
   5:         0.00 cm**-1
   6:        77.36 cm**-1
   7:       160.86 cm**-1
   8:       185.35 cm**-1
   9:       192.41 cm**-1
  10:       243.41 cm**-1
  11:       394.41 cm**-1
  12:       450.19 cm**-1
  13:       505.16 cm**-1
  14:       656.72 cm**-1
  15:       827.45 cm**-1
  16:       841.40 cm**-1
  17:       878.93 cm**-1
  18:       949.79 cm**-1
  19:       984.45 cm**-1
  20:      1001.34 cm**-1
  21:      1014.92 cm**-1
  22:      1046.11 cm**-1
  23:      1077.54 cm**-1
  24:      1150.92 cm**-1
  25:      1227.04 cm**-1
  26:      1296.35 cm**-1
  27:      1315.92 cm**-1
  28:      1335.21 cm**-1
  29:      1346.90 cm**-1
  30:      1392.34 cm**-1
  31:      1459.00 cm**-1
  32:      1486.26 cm**-1
  33:      1489.89 cm**-1
  34:      1649.58 cm**-1
  35:      1660.27 cm**-1
  36:      1676.70 cm**-1
  37:      1717.80 cm**-1
  38:      3091.39 cm**-1
  39:      3142.43 cm**-1
  40:      3152.98 cm**-1
  41:      3164.41 cm**-1
  42:      3170.95 cm**-1
  43:      3180.26 cm**-1
  44:      3261.32 cm**-1
  45:      3414.00 cm**-1
  46:      3506.10 cm**-1
  47:      3509.39 cm**-1

IR SPECTRUM
-----------

 Mode    freq (cm**-1)   T**2         TX         TY         TZ
-------------------------------------------------------------------
   6:        77.36   12.330921  (  2.568485   1.663829   1.722057)
   7:       160.86    3.507192  (  1.216015  -1.305288  -0.569843)
   8:       185.35    4.886978  (  0.706537  -0.397491   2.056644)
   9:       192.41    1.801182  (  1.060689  -0.308447  -0.762222)
  10:       243.41    1.120693  ( -0.874447  -0.014293  -0.596515)
  11:       394.41    9.519880  ( -1.182914  -1.097110   2.630008)
  12:       450.19    0.163370  (  0.161656  -0.235408   0.286041)
  13:       505.16    0.651001  (  0.463884   0.368159  -0.547970)
  14:       656.72    1.473991  ( -1.212326  -0.004849  -0.065060)
  15:       827.45   32.199013  (  1.705671   1.426762   5.220541)
  16:       841.40   21.372159  (  0.172288   2.429251  -3.929531)
  17:       878.93   49.177363  ( -2.996509  -0.585867   6.313086)
  18:       949.79    7.059088  ( -0.001879  -1.560690  -2.150193)
  19:       984.45    1.754076  (  1.294214   0.257137  -0.113875)
  20:      1001.34   10.979230  ( -3.232136   0.611396   0.398395)
  21:      1014.92   31.549428  ( -5.049691  -1.005992   2.244554)
  22:      1046.11   54.097340  ( -6.448481  -1.138621   3.349325)
  23:      1077.54    6.044809  (  2.401682  -0.011981  -0.525918)
  24:      1150.92   32.964127  ( -2.619219   1.319448  -4.935876)
  25:      1227.04   21.712569  (  1.556652   0.479337   4.365735)
  26:      1296.35    1.768272  ( -0.139606  -1.263584  -0.390047)
  27:      1315.92   25.960726  (  1.034851   2.308139   4.422930)
  28:      1335.21    4.723843  (  0.560747  -1.553187   1.413158)
  29:      1346.90    1.847672  (  0.838715   0.640436   0.856780)
  30:      1392.34   80.322363  ( -2.138003  -1.409272  -8.588670)
  31:      1459.00    5.888015  (  0.750660   2.171647   0.780047)
  32:      1486.26   13.126463  ( -1.798930   1.621636  -2.694553)
  33:      1489.89  160.490047  (  7.232521  -0.392421 -10.393589)
  34:      1649.58   46.803596  (  1.335560   6.694923   0.444841)
  35:      1660.27   49.492394  ( -4.488207   0.733684  -5.367504)
  36:      1676.70   13.104102  (  0.171404   1.834908   3.115740)
  37:      1717.80  116.821733  ( -2.901243  -1.371030 -10.321085)
  38:      3091.39    5.991707  (  1.197553  -0.394763   2.098031)
  39:      3142.43    3.354011  (  0.691179  -1.369743   1.000043)
  40:      3152.98    0.373070  ( -0.221591   0.087041  -0.562487)
  41:      3164.41    1.684247  ( -0.344241   1.203684  -0.341893)
  42:      3170.95    1.324517  (  0.560326  -0.836087   0.558131)
  43:      3180.26    2.311821  ( -0.502729   1.186565  -0.806938)
  44:      3261.32    0.782494  (  0.008370   0.782005   0.413390)
  45:      3414.00   36.916312  (  2.753445   0.161996  -5.413743)
  46:      3506.10   73.992433  (  7.177949  -0.765789   4.677933)
  47:      3509.39   94.158480  ( -0.287651  -9.578170  -1.527876)

--------------------------
THERMOCHEMISTRY AT 298.15K
--------------------------

Temperature         ... 298.15 K
Pressure            ... 1.00 atm
Total Mass          ... 84.14 AMU

Throughout the following assumptions are being made:
  (1) The electronic state is orbitally nondegenerate
  (2) There are no thermally accessible electronically excited states
  (3) Hindered rotations indicated by low frequency modes) are not
      treated as such but are treated as vibrations and this may
      case some error
  (4) All equations used are the standard statistical mechanics
      equations for an ideal gas
  (5) All vibrations are strinctly harmonic

------------
INNER ENERGY
------------

The inner energy is: U= E(el) + E(ZPE) + E(vib) + E(rot) + E(trans)
    E(el)   - is the total energy from the electronic structure calculation
              = E(kin-el) + E(nuc-el) + E(el-el) + E(nuc-nuc)
    E(ZPE)  - the the zero temperature vibrational energy from the frequency calculation
    E(vib)  - the the finite temperature correction to E(ZPE) due to population
              of excietd vibrational states
    E(rot)  - is the rotational thermal energy
    E(trans)- is the translational thermal energy

Summary of contributions to the inner energy U:
Electronic energy                ...   -250.80593908 Eh
Zero point energy                ...      0.14645243 Eh      91.90 kcal/mol
Thermal vibrational correction   ...      0.00450583 Eh       2.83 kcal/mol
Thermal rotational correction    ...      0.00141627 Eh       0.89 kcal/mol
Thermal translational correction ...      0.00141627 Eh       0.89 kcal/mol
-----------------------------------------------------------------------
Total thermal energy                   -250.65214828 Eh

Summary of corrections to the electronic energy:
(perhaps to be used in another calculation)
Total thermal correction                  0.00733837 Eh       4.60 kcal/mol
Non-thermal (ZPE) correction              0.14645243 Eh      91.90 kcal/mol
-----------------------------------------------------------------------
Total correction                          0.15379080 Eh      96.50 kcal/mol

--------
ENTHALPY
--------

The enthalpy is H = U + kB*T
                kB is Boltzmann's constant
Total free energy                 ...   -250.65214828 Eh
Thermal Enthalpy correction       ...      0.00094421 Eh       0.59 kcal/mol
-----------------------------------------------------------------------
Total Enthalpy                    ...   -250.65120407 Eh

-------
ENTROPY
-------

The entropy contributions are T*S = T*(S(el)+S(vib)+S(rot)+S(trans)
     S(el)   - electronic entropy
     S(vib)  - vibrational entropy
     S(rot)  - rotational entropy
     S(trans)- translational entropy
The entropies will be listed as mutliplied by the temperature to get
units of energy

Electronic entropy                ...      0.00000000 Eh      0.00 kcal/mol
Vibrational entropy               ...      0.00801100 Eh      5.03 kcal/mol
Rotational entropy                ...      0.01179862 Eh      7.40 kcal/mol
Translational entropy             ...      0.01862670 Eh     11.69 kcal/mol
-----------------------------------------------------------------------
Final entropy term                ...      0.03843633 Eh     24.12 kcal/mol

CAUTION: The rotational entropy is not quite correctly treated here
         because it includes a symmetry number that is not yet correctly
         implemented in ORCA!
For a nonlinear molecule the correct rotational entropy is:
    S(rot) = R*(ln(qrot/sn)+1.5)
    R    = 8.31441 J/mol/K = 1.987191683e-3 kcal/mol/K
    qrot = 178930.5432927
    sn is the rotational symmetry number. We have assumed 3 here
       if it is different for your molecule then you should correct
       the printed rotational entropy by manually evaluating the equation
       as given above

For convenience we print out the resulting values for sn=1 - 12:
 sn= 1  qrot/sn=  178930.5433 T*S(rot)=     8.05 kcal/mol T*S(tot)=    24.77 kcal/mol
 sn= 2  qrot/sn=   89465.2716 T*S(rot)=     7.64 kcal/mol T*S(tot)=    24.36 kcal/mol
 sn= 3  qrot/sn=   59643.5144 T*S(rot)=     7.40 kcal/mol T*S(tot)=    24.12 kcal/mol
 sn= 4  qrot/sn=   44732.6358 T*S(rot)=     7.23 kcal/mol T*S(tot)=    23.95 kcal/mol
 sn= 5  qrot/sn=   35786.1087 T*S(rot)=     7.10 kcal/mol T*S(tot)=    23.82 kcal/mol
 sn= 6  qrot/sn=   29821.7572 T*S(rot)=     6.99 kcal/mol T*S(tot)=    23.71 kcal/mol
 sn= 7  qrot/sn=   25561.5062 T*S(rot)=     6.90 kcal/mol T*S(tot)=    23.62 kcal/mol
 sn= 8  qrot/sn=   22366.3179 T*S(rot)=     6.82 kcal/mol T*S(tot)=    23.54 kcal/mol
 sn= 9  qrot/sn=   19881.1715 T*S(rot)=     6.75 kcal/mol T*S(tot)=    23.47 kcal/mol
 sn=10  qrot/sn=   17893.0543 T*S(rot)=     6.69 kcal/mol T*S(tot)=    23.41 kcal/mol
 sn=11  qrot/sn=   16266.4130 T*S(rot)=     6.63 kcal/mol T*S(tot)=    23.35 kcal/mol
 sn=12  qrot/sn=   14910.8786 T*S(rot)=     6.58 kcal/mol T*S(tot)=    23.30 kcal/mol

-------------------
GIBBS FREE ENTHALPY
-------------------

The Gibbs free enthalpy is G = H - T*S

Total enthalpy                    ...   -250.65120407 Eh
Total entropy correction          ...     -0.03843633 Eh    -24.12 kcal/mol
-----------------------------------------------------------------------
Final Gibbs free enthalpy         ...   -250.68964040 Eh

For completeness - the Gibbs free enthalpy minus the electronic energy
G-E(el)                           ...      0.11629868 Eh     72.98 kcal/mol

                             ****ORCA TERMINATED NORMALLY****
TOTAL RUN TIME: 0 days 0 hours 14 minutes 59 seconds 920 msec
