                         Program Version 3.0.3 - RELEASE   -
|  1> ! NORI PBE0 def2-TZVP UseSym TightOPT Freq TightSCF Grid3 FinalGrid5 XYZFile
|  2> % pal
|  3>     nprocs 8
|  4> end
|  5> %method
|  6>     SymThresh 5.0e-2
|  7> end
|  8> % geom
|  9>     MaxIter 10
| 10> end
| 11> % maxcore 2000
| 12> % output
| 13>     printlevel mini
| 14>     print[ P_Basis ] 0
| 15>     print[ P_SCFInfo ] 1
| 16>     print[ P_SCFIterInfo ] 1
| 17>     print[ P_OrbEn ] 0
| 18>     print[ P_Cartesian ] 0
| 19> end
| 20> % elprop
| 21>     Dipole false
| 22> end
| 23> *xyz 1 1
| 24>  N        2.2395912694     0.6396931365     1.3064640675
| 25>  C        2.6356954619    -0.0495034809     0.0051928796
| 26>  C        3.0764528727     0.9510010960    -0.9940026916
| 27>  C        4.3553911983     1.0530303955    -1.3788280492
| 28>  C        4.8252981056     1.9676360199    -2.3415193086
| 29>  C        5.2627855701     2.7330713992    -3.1587783415
| 30>  H        1.9263066249    -0.0280340950     2.0151494247
| 31>  H        1.4833834525     1.3083581647     1.1453123321
| 32>  H        3.0329562918     1.1641928259     1.6821315438
| 33>  H        3.4255439919    -0.7546700717     0.2642890973
| 34>  H        1.7502632379    -0.6058845807    -0.3097337141
| 35>  H        2.3197848597     1.5852254631    -1.4467651666
| 36>  H        5.1022244696     0.3863696310    -0.9479944885
| 37>  H        5.6486725938     3.4126840966    -3.8851475850
| 38> *
| 39>
| 40>                          ****END OF INPUT****
 Total Charge           Charge          ....    1
 Multiplicity           Mult            ....    1
 Number of Electrons    NEL             ....   44
FINAL SINGLE POINT ENERGY      -249.545701199769

CARTESIAN COORDINATES (ANGSTROEM)
---------------------------------
  N      0.000434   -0.000138    2.699821
  C      0.993143    0.000298    1.542409
  C      0.321568   -0.411515    0.288170
  C      0.099671    0.450223   -0.712879
  C     -0.509981    0.108477   -1.935857
  C     -1.025113   -0.145573   -2.991926
  H      0.438135    0.276776    3.581805
  H     -0.406154   -0.929427    2.826611
  H     -0.769621    0.643105    2.502856
  H      1.393307    1.012761    1.486833
  H      1.790475   -0.682174    1.843842
  H      0.043823   -1.455962    0.178880
  H      0.416725    1.487768   -0.610134
  H     -1.481586   -0.373730   -3.928866

FINAL SINGLE POINT ENERGY      -249.545701705607
                    ***********************HURRAY********************
 Multiplicity           Mult            ....    1
 Number of Electrons    NEL             ....   44
 Basis Dimension        Dim             ....  234
FINAL SINGLE POINT ENERGY      -249.545702165295

VIBRATIONAL FREQUENCIES
-----------------------

   0:         0.00 cm**-1
   1:         0.00 cm**-1
   2:         0.00 cm**-1
   3:         0.00 cm**-1
   4:         0.00 cm**-1
   5:         0.00 cm**-1
   6:        97.01 cm**-1
   7:       132.50 cm**-1
   8:       163.46 cm**-1
   9:       223.12 cm**-1
  10:       341.16 cm**-1
  11:       385.69 cm**-1
  12:       472.25 cm**-1
  13:       556.25 cm**-1
  14:       719.44 cm**-1
  15:       739.79 cm**-1
  16:       827.85 cm**-1
  17:       850.10 cm**-1
  18:       878.88 cm**-1
  19:       972.75 cm**-1
  20:       993.94 cm**-1
  21:      1049.95 cm**-1
  22:      1106.97 cm**-1
  23:      1164.31 cm**-1
  24:      1306.56 cm**-1
  25:      1320.72 cm**-1
  26:      1351.47 cm**-1
  27:      1398.13 cm**-1
  28:      1485.90 cm**-1
  29:      1496.46 cm**-1
  30:      1651.31 cm**-1
  31:      1660.93 cm**-1
  32:      1701.72 cm**-1
  33:      2231.51 cm**-1
  34:      3093.37 cm**-1
  35:      3143.05 cm**-1
  36:      3156.21 cm**-1
  37:      3184.88 cm**-1
  38:      3413.64 cm**-1
  39:      3461.38 cm**-1
  40:      3503.80 cm**-1
  41:      3505.43 cm**-1

IR SPECTRUM
-----------

 Mode    freq (cm**-1)   T**2         TX         TY         TZ
-------------------------------------------------------------------
   6:        97.01   14.549925  (  3.051725  -0.975010   2.070327)
   7:       132.50    6.807155  (  1.367920   1.934319  -1.092868)
   8:       163.46    2.293107  (  0.852131  -1.031937  -0.708579)
   9:       223.12    1.278367  ( -0.550504   0.974399   0.160811)
  10:       341.16   10.831848  (  1.665584  -0.325682  -2.819860)
  11:       385.69    3.978718  ( -0.063280  -1.367574  -1.450674)
  12:       472.25    3.463768  (  0.717916  -1.051731   1.357286)
  13:       556.25    6.011739  (  0.770949   2.327294   0.032861)
  14:       719.44   40.605162  ( -0.815667  -6.074447   1.743831)
  15:       739.79   33.065272  (  5.211049  -1.275790  -2.069445)
  16:       827.85   14.856966  ( -1.366924   2.813369  -2.252430)
  17:       850.10   22.551062  ( -0.654417  -1.958099  -4.276523)
  18:       878.88   48.514262  (  1.578450  -0.418329  -6.771097)
  19:       972.75    7.198435  ( -1.346004  -1.077390   2.055709)
  20:       993.94   42.415340  (  5.229708  -1.638247  -3.518755)
  21:      1049.95   15.020351  (  3.647141  -0.214580   1.293317)
  22:      1106.97    3.695470  ( -1.513731  -0.138740   1.176792)
  23:      1164.31   40.056037  ( -2.935278  -1.201392  -5.476937)
  24:      1306.56    5.848316  ( -0.542067  -2.331987  -0.341054)
  25:      1320.72   17.560150  (  0.801641  -1.799710   3.698454)
  26:      1351.47    9.303070  (  1.577441  -0.588216   2.543374)
  27:      1398.13   55.550377  ( -1.715023   0.783087  -7.210815)
  28:      1485.90   13.148841  ( -2.532702  -1.570543  -2.065831)
  29:      1496.46  158.768271  ( -7.120526   0.044762  10.395402)
  30:      1651.31   49.642005  ( -0.737808   7.006952  -0.016438)
  31:      1660.93   46.750318  ( -4.583858  -0.492781  -5.049329)
  32:      1701.72   76.609444  (  2.178315  -1.013870   8.416440)
  33:      2231.51   76.960430  ( -3.205616  -0.546840  -8.147725)
  34:      3093.37    3.538411  ( -0.817624  -0.380930  -1.650695)
  35:      3143.05    4.975249  ( -0.866723  -0.216574  -2.043804)
  36:      3156.21    0.096896  ( -0.069286  -0.140488   0.268996)
  37:      3184.88    0.783628  ( -0.495579   0.258872  -0.686305)
  38:      3413.64   44.342501  ( -2.927520   0.222862   5.976827)
  39:      3461.38   90.901023  ( -3.998223  -1.629442  -8.500597)
  40:      3503.80   84.917579  ( -6.938342   3.038021  -5.248563)
  41:      3505.43   93.933552  ( -2.504249  -9.330566  -0.776418)

--------------------------
THERMOCHEMISTRY AT 298.15K
--------------------------

Temperature         ... 298.15 K
Pressure            ... 1.00 atm
Total Mass          ... 82.13 AMU

Throughout the following assumptions are being made:
  (1) The electronic state is orbitally nondegenerate
  (2) There are no thermally accessible electronically excited states
  (3) Hindered rotations indicated by low frequency modes) are not
      treated as such but are treated as vibrations and this may
      case some error
  (4) All equations used are the standard statistical mechanics
      equations for an ideal gas
  (5) All vibrations are strinctly harmonic

------------
INNER ENERGY
------------

The inner energy is: U= E(el) + E(ZPE) + E(vib) + E(rot) + E(trans)
    E(el)   - is the total energy from the electronic structure calculation
              = E(kin-el) + E(nuc-el) + E(el-el) + E(nuc-nuc)
    E(ZPE)  - the the zero temperature vibrational energy from the frequency calculation
    E(vib)  - the the finite temperature correction to E(ZPE) due to population
              of excietd vibrational states
    E(rot)  - is the rotational thermal energy
    E(trans)- is the translational thermal energy

Summary of contributions to the inner energy U:
Electronic energy                ...   -249.54570217 Eh
Zero point energy                ...      0.12243307 Eh      76.83 kcal/mol
Thermal vibrational correction   ...      0.00429139 Eh       2.69 kcal/mol
Thermal rotational correction    ...      0.00141627 Eh       0.89 kcal/mol
Thermal translational correction ...      0.00141627 Eh       0.89 kcal/mol
-----------------------------------------------------------------------
Total thermal energy                   -249.41614516 Eh

Summary of corrections to the electronic energy:
(perhaps to be used in another calculation)
Total thermal correction                  0.00712393 Eh       4.47 kcal/mol
Non-thermal (ZPE) correction              0.12243307 Eh      76.83 kcal/mol
-----------------------------------------------------------------------
Total correction                          0.12955700 Eh      81.30 kcal/mol

--------
ENTHALPY
--------

The enthalpy is H = U + kB*T
                kB is Boltzmann's constant
Total free energy                 ...   -249.41614516 Eh
Thermal Enthalpy correction       ...      0.00094421 Eh       0.59 kcal/mol
-----------------------------------------------------------------------
Total Enthalpy                    ...   -249.41520095 Eh

-------
ENTROPY
-------

The entropy contributions are T*S = T*(S(el)+S(vib)+S(rot)+S(trans)
     S(el)   - electronic entropy
     S(vib)  - vibrational entropy
     S(rot)  - rotational entropy
     S(trans)- translational entropy
The entropies will be listed as mutliplied by the temperature to get
units of energy

Electronic entropy                ...      0.00000000 Eh      0.00 kcal/mol
Vibrational entropy               ...      0.00756667 Eh      4.75 kcal/mol
Rotational entropy                ...      0.01168942 Eh      7.34 kcal/mol
Translational entropy             ...      0.01859236 Eh     11.67 kcal/mol
-----------------------------------------------------------------------
Final entropy term                ...      0.03784844 Eh     23.75 kcal/mol

CAUTION: The rotational entropy is not quite correctly treated here
         because it includes a symmetry number that is not yet correctly
         implemented in ORCA!
For a nonlinear molecule the correct rotational entropy is:
    S(rot) = R*(ln(qrot/sn)+1.5)
    R    = 8.31441 J/mol/K = 1.987191683e-3 kcal/mol/K
    qrot = 159388.4667738
    sn is the rotational symmetry number. We have assumed 3 here
       if it is different for your molecule then you should correct
       the printed rotational entropy by manually evaluating the equation
       as given above

For convenience we print out the resulting values for sn=1 - 12:
 sn= 1  qrot/sn=  159388.4668 T*S(rot)=     7.99 kcal/mol T*S(tot)=    24.40 kcal/mol
 sn= 2  qrot/sn=   79694.2334 T*S(rot)=     7.58 kcal/mol T*S(tot)=    23.99 kcal/mol
 sn= 3  qrot/sn=   53129.4889 T*S(rot)=     7.34 kcal/mol T*S(tot)=    23.75 kcal/mol
 sn= 4  qrot/sn=   39847.1167 T*S(rot)=     7.16 kcal/mol T*S(tot)=    23.58 kcal/mol
 sn= 5  qrot/sn=   31877.6934 T*S(rot)=     7.03 kcal/mol T*S(tot)=    23.45 kcal/mol
 sn= 6  qrot/sn=   26564.7445 T*S(rot)=     6.92 kcal/mol T*S(tot)=    23.34 kcal/mol
 sn= 7  qrot/sn=   22769.7810 T*S(rot)=     6.83 kcal/mol T*S(tot)=    23.25 kcal/mol
 sn= 8  qrot/sn=   19923.5583 T*S(rot)=     6.75 kcal/mol T*S(tot)=    23.17 kcal/mol
 sn= 9  qrot/sn=   17709.8296 T*S(rot)=     6.68 kcal/mol T*S(tot)=    23.10 kcal/mol
 sn=10  qrot/sn=   15938.8467 T*S(rot)=     6.62 kcal/mol T*S(tot)=    23.04 kcal/mol
 sn=11  qrot/sn=   14489.8606 T*S(rot)=     6.57 kcal/mol T*S(tot)=    22.98 kcal/mol
 sn=12  qrot/sn=   13282.3722 T*S(rot)=     6.51 kcal/mol T*S(tot)=    22.93 kcal/mol

-------------------
GIBBS FREE ENTHALPY
-------------------

The Gibbs free enthalpy is G = H - T*S

Total enthalpy                    ...   -249.41520095 Eh
Total entropy correction          ...     -0.03784844 Eh    -23.75 kcal/mol
-----------------------------------------------------------------------
Final Gibbs free enthalpy         ...   -249.45304940 Eh

For completeness - the Gibbs free enthalpy minus the electronic energy
G-E(el)                           ...      0.09265277 Eh     58.14 kcal/mol

                             ****ORCA TERMINATED NORMALLY****
TOTAL RUN TIME: 0 days 0 hours 12 minutes 53 seconds 756 msec
