                         Program Version 3.0.3 - RELEASE   -
|  1> ! NORI PBE0 def2-TZVP UseSym TightOPT Freq TightSCF Grid3 FinalGrid5 XYZFile
|  2> % pal
|  3>     nprocs 8
|  4> end
|  5> %method
|  6>     SymThresh 5.0e-2
|  7> end
|  8> % geom
|  9>     MaxIter 10
| 10> end
| 11> % maxcore 2000
| 12> % output
| 13>     printlevel mini
| 14>     print[ P_Basis ] 0
| 15>     print[ P_SCFInfo ] 1
| 16>     print[ P_SCFIterInfo ] 1
| 17>     print[ P_OrbEn ] 0
| 18>     print[ P_Cartesian ] 0
| 19> end
| 20> % elprop
| 21>     Dipole false
| 22> end
| 23> *xyz 1 1
| 24>  N        2.2123577200    -1.1236158826     0.8833264214
| 25>  C        2.3451303776    -0.0024039323    -0.1230822639
| 26>  C        2.7548004098    -0.5860344269    -1.4383718660
| 27>  C        1.9318199531    -0.5112380116    -2.4865798157
| 28>  C        4.0551990021    -1.2501279570    -1.5113795314
| 29>  C        5.0204251295    -1.1901450171    -0.5919976413
| 30>  H        2.0594766343    -0.7848537293     1.8344727356
| 31>  H        3.0734912215    -1.6831196548     0.8600763391
| 32>  H        1.4390676234    -1.7421339377     0.6309404153
| 33>  H        1.3828651594     0.5036024231    -0.1755017105
| 34>  H        3.0878274836     0.6859380898     0.2842498625
| 35>  H        2.2127469614    -0.9267240980    -3.4471510101
| 36>  H        0.9699152222    -0.0148280761    -2.4291240280
| 37>  H        4.2257414420    -1.8358694582    -2.4100673531
| 38>  H        4.9567970180    -0.5793619710     0.3059078517
| 39>  H        5.9587286422    -1.7101543604    -0.7352284054
| 40> *
| 41>
| 42>                          ****END OF INPUT****
 Total Charge           Charge          ....    1
 Multiplicity           Mult            ....    1
 Number of Electrons    NEL             ....   46
FINAL SINGLE POINT ENERGY      -250.803149777706
FINAL SINGLE POINT ENERGY      -250.803151735523

CARTESIAN COORDINATES (ANGSTROEM)
---------------------------------
  N     -0.001209    0.002565    1.891509
  C      0.985778   -0.001107    0.744762
  C      0.278667    0.451154   -0.493927
  C      0.633561    1.593795   -1.085938
  C     -0.813893   -0.381368   -0.994539
  C     -1.093212   -1.626961   -0.606322
  H      0.378902   -0.417062    2.741481
  H     -0.836032   -0.521379    1.602240
  H     -0.298084    0.956618    2.105218
  H      1.806335    0.659174    1.019369
  H      1.361186   -1.023133    0.669301
  H      0.132042    1.935710   -1.983811
  H      1.446476    2.207099   -0.714334
  H     -1.437149    0.080950   -1.754528
  H     -0.485529   -2.185101    0.102277
  H     -1.921791   -2.172353   -1.039495

FINAL SINGLE POINT ENERGY      -250.803152333425
                    ***********************HURRAY********************
 Multiplicity           Mult            ....    1
 Number of Electrons    NEL             ....   46
 Basis Dimension        Dim             ....  246
FINAL SINGLE POINT ENERGY      -250.803152403979

VIBRATIONAL FREQUENCIES
-----------------------

   0:         0.00 cm**-1
   1:         0.00 cm**-1
   2:         0.00 cm**-1
   3:         0.00 cm**-1
   4:         0.00 cm**-1
   5:         0.00 cm**-1
   6:       117.98 cm**-1
   7:       173.52 cm**-1
   8:       218.19 cm**-1
   9:       242.59 cm**-1
  10:       305.65 cm**-1
  11:       408.94 cm**-1
  12:       493.06 cm**-1
  13:       537.92 cm**-1
  14:       699.46 cm**-1
  15:       781.49 cm**-1
  16:       796.03 cm**-1
  17:       862.63 cm**-1
  18:       905.79 cm**-1
  19:       967.95 cm**-1
  20:       970.81 cm**-1
  21:      1002.32 cm**-1
  22:      1031.32 cm**-1
  23:      1043.88 cm**-1
  24:      1104.90 cm**-1
  25:      1110.14 cm**-1
  26:      1320.61 cm**-1
  27:      1325.38 cm**-1
  28:      1336.59 cm**-1
  29:      1397.70 cm**-1
  30:      1438.05 cm**-1
  31:      1467.64 cm**-1
  32:      1489.49 cm**-1
  33:      1496.35 cm**-1
  34:      1642.80 cm**-1
  35:      1662.45 cm**-1
  36:      1671.97 cm**-1
  37:      1721.51 cm**-1
  38:      3102.35 cm**-1
  39:      3144.44 cm**-1
  40:      3168.38 cm**-1
  41:      3171.61 cm**-1
  42:      3183.78 cm**-1
  43:      3249.76 cm**-1
  44:      3261.07 cm**-1
  45:      3371.01 cm**-1
  46:      3471.61 cm**-1
  47:      3517.95 cm**-1

IR SPECTRUM
-----------

 Mode    freq (cm**-1)   T**2         TX         TY         TZ
-------------------------------------------------------------------
   6:       117.98   10.012747  ( -0.639485  -2.303028  -2.073612)
   7:       173.52    1.549111  ( -0.344950  -0.058826  -1.194429)
   8:       218.19   11.726533  ( -1.737868   0.466927  -2.913474)
   9:       242.59    6.016146  (  1.431210  -0.596909   1.900390)
  10:       305.65    1.162960  (  0.320137  -1.003861   0.229642)
  11:       408.94    0.599029  ( -0.518715  -0.345810  -0.458671)
  12:       493.06   23.833810  (  1.972739  -1.317468  -4.266895)
  13:       537.92    0.917785  (  0.430230   0.001357  -0.855971)
  14:       699.46    1.548876  (  0.150249  -0.281186  -1.203011)
  15:       781.49    3.450043  (  0.151498  -0.111347   1.847889)
  16:       796.03    1.246759  ( -0.549823  -0.752787  -0.614626)
  17:       862.63   11.159794  ( -1.248821  -2.765024  -1.398172)
  18:       905.79   16.135950  ( -0.535967  -0.156611  -3.977960)
  19:       967.95   28.560812  (  3.382663  -1.138634  -3.977677)
  20:       970.81   31.960588  (  3.885657  -0.130200  -4.104303)
  21:      1002.32   25.566137  ( -3.404209   3.024756   2.197350)
  22:      1031.32   11.183004  ( -1.698296  -1.564710  -2.418776)
  23:      1043.88   23.410751  (  2.321935  -2.109643  -3.683582)
  24:      1104.90   27.230570  (  3.815583  -1.600787   3.179525)
  25:      1110.14    1.897362  ( -1.002721   0.010284   0.944355)
  26:      1320.61    1.505685  (  0.270369  -1.002009  -0.654648)
  27:      1325.38    5.430696  (  1.293834   1.850571   0.576262)
  28:      1336.59    3.924300  (  0.370701   1.933009  -0.224400)
  29:      1397.70    6.387137  (  0.284731   0.023052   2.511082)
  30:      1438.05   27.406415  (  0.403969   4.506821  -2.632829)
  31:      1467.64    9.428829  (  0.600774  -0.696533   2.929632)
  32:      1489.49  159.383778  ( -8.217229   0.214194   9.582017)
  33:      1496.35   35.961217  ( -0.519027   0.931069  -5.901266)
  34:      1642.80   42.603691  (  2.043767   5.990945   1.592258)
  35:      1662.45   24.264661  (  3.246934  -1.404986   3.427549)
  36:      1671.97    2.771745  (  1.025999   1.213555  -0.496342)
  37:      1721.51    0.979100  (  0.180924   0.708145  -0.667006)
  38:      3102.35    1.158267  ( -0.441513   0.552877  -0.810963)
  39:      3144.44   11.899271  ( -2.336637  -0.048600  -2.537132)
  40:      3168.38    1.013466  (  0.083190   0.751249  -0.664959)
  41:      3171.61    0.171583  ( -0.149814   0.219590  -0.317677)
  42:      3183.78    0.402943  ( -0.249191  -0.578802   0.076386)
  43:      3249.76    1.737522  ( -0.147405  -1.070420   0.754981)
  44:      3261.07    0.032666  ( -0.026047  -0.128729   0.124163)
  45:      3371.01   42.607681  ( -5.467067  -2.387762  -2.649047)
  46:      3471.61  119.993923  ( -2.477526  -4.522611  -9.664460)
  47:      3517.95   94.801056  (  4.480020  -7.420743   4.434303)

--------------------------
THERMOCHEMISTRY AT 298.15K
--------------------------

Temperature         ... 298.15 K
Pressure            ... 1.00 atm
Total Mass          ... 84.14 AMU

Throughout the following assumptions are being made:
  (1) The electronic state is orbitally nondegenerate
  (2) There are no thermally accessible electronically excited states
  (3) Hindered rotations indicated by low frequency modes) are not
      treated as such but are treated as vibrations and this may
      case some error
  (4) All equations used are the standard statistical mechanics
      equations for an ideal gas
  (5) All vibrations are strinctly harmonic

------------
INNER ENERGY
------------

The inner energy is: U= E(el) + E(ZPE) + E(vib) + E(rot) + E(trans)
    E(el)   - is the total energy from the electronic structure calculation
              = E(kin-el) + E(nuc-el) + E(el-el) + E(nuc-nuc)
    E(ZPE)  - the the zero temperature vibrational energy from the frequency calculation
    E(vib)  - the the finite temperature correction to E(ZPE) due to population
              of excietd vibrational states
    E(rot)  - is the rotational thermal energy
    E(trans)- is the translational thermal energy

Summary of contributions to the inner energy U:
Electronic energy                ...   -250.80315240 Eh
Zero point energy                ...      0.14668444 Eh      92.05 kcal/mol
Thermal vibrational correction   ...      0.00416690 Eh       2.61 kcal/mol
Thermal rotational correction    ...      0.00141627 Eh       0.89 kcal/mol
Thermal translational correction ...      0.00141627 Eh       0.89 kcal/mol
-----------------------------------------------------------------------
Total thermal energy                   -250.64946852 Eh

Summary of corrections to the electronic energy:
(perhaps to be used in another calculation)
Total thermal correction                  0.00699944 Eh       4.39 kcal/mol
Non-thermal (ZPE) correction              0.14668444 Eh      92.05 kcal/mol
-----------------------------------------------------------------------
Total correction                          0.15368389 Eh      96.44 kcal/mol

--------
ENTHALPY
--------

The enthalpy is H = U + kB*T
                kB is Boltzmann's constant
Total free energy                 ...   -250.64946852 Eh
Thermal Enthalpy correction       ...      0.00094421 Eh       0.59 kcal/mol
-----------------------------------------------------------------------
Total Enthalpy                    ...   -250.64852431 Eh

-------
ENTROPY
-------

The entropy contributions are T*S = T*(S(el)+S(vib)+S(rot)+S(trans)
     S(el)   - electronic entropy
     S(vib)  - vibrational entropy
     S(rot)  - rotational entropy
     S(trans)- translational entropy
The entropies will be listed as mutliplied by the temperature to get
units of energy

Electronic entropy                ...      0.00000000 Eh      0.00 kcal/mol
Vibrational entropy               ...      0.00695666 Eh      4.37 kcal/mol
Rotational entropy                ...      0.01170011 Eh      7.34 kcal/mol
Translational entropy             ...      0.01862670 Eh     11.69 kcal/mol
-----------------------------------------------------------------------
Final entropy term                ...      0.03728347 Eh     23.40 kcal/mol

CAUTION: The rotational entropy is not quite correctly treated here
         because it includes a symmetry number that is not yet correctly
         implemented in ORCA!
For a nonlinear molecule the correct rotational entropy is:
    S(rot) = R*(ln(qrot/sn)+1.5)
    R    = 8.31441 J/mol/K = 1.987191683e-3 kcal/mol/K
    qrot = 161203.4408121
    sn is the rotational symmetry number. We have assumed 3 here
       if it is different for your molecule then you should correct
       the printed rotational entropy by manually evaluating the equation
       as given above

For convenience we print out the resulting values for sn=1 - 12:
 sn= 1  qrot/sn=  161203.4408 T*S(rot)=     7.99 kcal/mol T*S(tot)=    24.05 kcal/mol
 sn= 2  qrot/sn=   80601.7204 T*S(rot)=     7.58 kcal/mol T*S(tot)=    23.64 kcal/mol
 sn= 3  qrot/sn=   53734.4803 T*S(rot)=     7.34 kcal/mol T*S(tot)=    23.40 kcal/mol
 sn= 4  qrot/sn=   40300.8602 T*S(rot)=     7.17 kcal/mol T*S(tot)=    23.23 kcal/mol
 sn= 5  qrot/sn=   32240.6882 T*S(rot)=     7.04 kcal/mol T*S(tot)=    23.09 kcal/mol
 sn= 6  qrot/sn=   26867.2401 T*S(rot)=     6.93 kcal/mol T*S(tot)=    22.99 kcal/mol
 sn= 7  qrot/sn=   23029.0630 T*S(rot)=     6.84 kcal/mol T*S(tot)=    22.89 kcal/mol
 sn= 8  qrot/sn=   20150.4301 T*S(rot)=     6.76 kcal/mol T*S(tot)=    22.81 kcal/mol
 sn= 9  qrot/sn=   17911.4934 T*S(rot)=     6.69 kcal/mol T*S(tot)=    22.74 kcal/mol
 sn=10  qrot/sn=   16120.3441 T*S(rot)=     6.63 kcal/mol T*S(tot)=    22.68 kcal/mol
 sn=11  qrot/sn=   14654.8583 T*S(rot)=     6.57 kcal/mol T*S(tot)=    22.63 kcal/mol
 sn=12  qrot/sn=   13433.6201 T*S(rot)=     6.52 kcal/mol T*S(tot)=    22.57 kcal/mol

-------------------
GIBBS FREE ENTHALPY
-------------------

The Gibbs free enthalpy is G = H - T*S

Total enthalpy                    ...   -250.64852431 Eh
Total entropy correction          ...     -0.03728347 Eh    -23.40 kcal/mol
-----------------------------------------------------------------------
Final Gibbs free enthalpy         ...   -250.68580778 Eh

For completeness - the Gibbs free enthalpy minus the electronic energy
G-E(el)                           ...      0.11734463 Eh     73.63 kcal/mol

                             ****ORCA TERMINATED NORMALLY****
TOTAL RUN TIME: 0 days 0 hours 18 minutes 59 seconds 490 msec
