                         Program Version 3.0.3 - RELEASE   -
|  1> ! NORI PBE0 def2-TZVP UseSym TightOPT Freq TightSCF Grid3 FinalGrid5 XYZFile
|  2> % pal
|  3>     nprocs 8
|  4> end
|  5> %method
|  6>     SymThresh 5.0e-2
|  7> end
|  8> % geom
|  9>     MaxIter 10
| 10> end
| 11> % maxcore 2000
| 12> % output
| 13>     printlevel mini
| 14>     print[ P_Basis ] 0
| 15>     print[ P_SCFInfo ] 1
| 16>     print[ P_SCFIterInfo ] 1
| 17>     print[ P_OrbEn ] 0
| 18>     print[ P_Cartesian ] 0
| 19> end
| 20> % elprop
| 21>     Dipole false
| 22> end
| 23> *xyz 1 1
| 24>  N        2.7585855829    -0.7998945534     1.1281235219
| 25>  C        2.2535064211    -0.1923806079    -0.1535930645
| 26>  C        2.8178808107    -0.9671089688    -1.3113795014
| 27>  C        2.0512978618    -1.3900933888    -2.3165172550
| 28>  C        4.2235789324    -1.1769242391    -1.2283373684
| 29>  C        5.4026847434    -1.3279932810    -1.0357779917
| 30>  H        2.5754610638    -0.2091104690     1.9405854372
| 31>  H        3.7754908511    -0.9393395446     1.0302725105
| 32>  H        2.3404419941    -1.7180595749     1.2925952085
| 33>  H        1.1648195143    -0.2080434071    -0.1328763369
| 34>  H        2.6051334617     0.8415560329    -0.1562478748
| 35>  H        2.4792810271    -1.9080618566    -3.1650255552
| 36>  H        0.9822712622    -1.2107996535    -2.3225864650
| 37>  H        6.4557764735    -1.4716364883    -0.9302152651
| 38> *
| 39>
| 40>                          ****END OF INPUT****
 Total Charge           Charge          ....    1
 Multiplicity           Mult            ....    1
 Number of Electrons    NEL             ....   44
FINAL SINGLE POINT ENERGY      -249.548795306093

CARTESIAN COORDINATES (ANGSTROEM)
---------------------------------
  N     -0.000161    0.000125    1.906753
  C      1.052646   -0.000371    0.830415
  C      0.397396    0.308933   -0.486396
  C      0.890387    1.223789   -1.321061
  C     -0.763891   -0.473073   -0.744567
  C     -1.749572   -1.158297   -0.839721
  H      0.338210   -0.392952    2.786138
  H     -0.796659   -0.559598    1.567230
  H     -0.346797    0.945170    2.084649
  H      1.814799    0.729436    1.098140
  H      1.487207   -1.002258    0.834199
  H      0.432146    1.404458   -2.284853
  H      1.773340    1.798802   -1.067545
  H     -2.620586   -1.757688   -0.989918

FINAL SINGLE POINT ENERGY      -249.548795674281
                    ***********************HURRAY********************
 Multiplicity           Mult            ....    1
 Number of Electrons    NEL             ....   44
 Basis Dimension        Dim             ....  234
FINAL SINGLE POINT ENERGY      -249.548795721277

VIBRATIONAL FREQUENCIES
-----------------------

   0:         0.00 cm**-1
   1:         0.00 cm**-1
   2:         0.00 cm**-1
   3:         0.00 cm**-1
   4:         0.00 cm**-1
   5:         0.00 cm**-1
   6:       100.04 cm**-1
   7:       158.77 cm**-1
   8:       230.28 cm**-1
   9:       255.86 cm**-1
  10:       338.39 cm**-1
  11:       407.30 cm**-1
  12:       556.48 cm**-1
  13:       640.59 cm**-1
  14:       704.32 cm**-1
  15:       747.57 cm**-1
  16:       748.04 cm**-1
  17:       775.71 cm**-1
  18:       872.47 cm**-1
  19:       920.78 cm**-1
  20:       977.75 cm**-1
  21:      1004.37 cm**-1
  22:      1079.79 cm**-1
  23:      1115.16 cm**-1
  24:      1292.23 cm**-1
  25:      1331.24 cm**-1
  26:      1390.23 cm**-1
  27:      1451.18 cm**-1
  28:      1482.69 cm**-1
  29:      1498.28 cm**-1
  30:      1640.25 cm**-1
  31:      1661.82 cm**-1
  32:      1703.00 cm**-1
  33:      2215.34 cm**-1
  34:      3095.71 cm**-1
  35:      3171.43 cm**-1
  36:      3176.50 cm**-1
  37:      3275.69 cm**-1
  38:      3324.90 cm**-1
  39:      3449.10 cm**-1
  40:      3464.46 cm**-1
  41:      3519.30 cm**-1

IR SPECTRUM
-----------

 Mode    freq (cm**-1)   T**2         TX         TY         TZ
-------------------------------------------------------------------
   6:       100.04    9.208320  (  1.030547   2.500335   1.376452)
   7:       158.77    4.446607  (  1.216815  -0.321472   1.691930)
   8:       230.28   12.120805  ( -2.214839   2.586589  -0.724464)
   9:       255.86    5.319891  (  1.316402  -1.194816   1.469487)
  10:       338.39   17.148266  (  0.198681   1.044598   4.002200)
  11:       407.30   15.086625  ( -0.431703  -0.470691  -3.831280)
  12:       556.48   17.243619  (  0.876727   0.244043   4.051594)
  13:       640.59    4.854703  (  1.593463  -1.330943  -0.737677)
  14:       704.32   39.467402  (  4.037553  -4.374992  -2.006242)
  15:       747.57    7.703745  ( -0.237729  -0.675483   2.681595)
  16:       748.04   21.154865  (  0.347099   2.524727  -3.828856)
  17:       775.71   15.116913  (  0.354360   1.117181  -3.707189)
  18:       872.47   10.109923  (  1.297869   2.875912   0.393178)
  19:       920.78   15.791153  (  0.935383   1.051973   3.716122)
  20:       977.75    7.972799  (  1.558619  -0.066871  -2.353515)
  21:      1004.37   35.478202  (  3.241979  -4.510481  -2.150194)
  22:      1079.79   45.371317  (  4.289339   0.283646   5.185792)
  23:      1115.16    8.308054  ( -2.525185   1.224304  -0.657702)
  24:      1292.23    5.351961  ( -1.392546  -1.627013   0.874988)
  25:      1331.24   11.248605  ( -1.526273  -2.966661  -0.343536)
  26:      1390.23    7.579223  (  0.445324  -0.934167   2.551126)
  27:      1451.18   15.708822  ( -0.865350  -2.488810   2.960712)
  28:      1482.69   16.561482  ( -3.616500   0.721303  -1.721084)
  29:      1498.28  172.042186  ( -6.455785  -0.434421  11.409483)
  30:      1640.25   35.314410  (  0.072753  -5.938960  -0.194617)
  31:      1661.82   36.593656  (  3.523636  -0.397945   4.900948)
  32:      1703.00    0.678733  (  0.196399   0.712216  -0.364566)
  33:      2215.34    9.245147  (  2.179344   1.362316   1.624715)
  34:      3095.71    0.774267  (  0.243574   0.034135   0.844851)
  35:      3171.43    0.198500  ( -0.364992   0.251037  -0.047548)
  36:      3176.50    3.709499  (  0.249995   1.108749  -1.554888)
  37:      3275.69    1.663735  (  0.590774  -0.184996   1.131590)
  38:      3324.90   86.906133  ( -6.768692  -3.677228  -5.250612)
  39:      3449.10  118.602289  ( -8.800289  -6.251111  -1.442505)
  40:      3464.46  115.413823  ( -1.178326  -5.385913  -9.220484)
  41:      3519.30  108.414673  (  4.494961  -7.266603   5.950334)

--------------------------
THERMOCHEMISTRY AT 298.15K
--------------------------

Temperature         ... 298.15 K
Pressure            ... 1.00 atm
Total Mass          ... 82.13 AMU

Throughout the following assumptions are being made:
  (1) The electronic state is orbitally nondegenerate
  (2) There are no thermally accessible electronically excited states
  (3) Hindered rotations indicated by low frequency modes) are not
      treated as such but are treated as vibrations and this may
      case some error
  (4) All equations used are the standard statistical mechanics
      equations for an ideal gas
  (5) All vibrations are strinctly harmonic

------------
INNER ENERGY
------------

The inner energy is: U= E(el) + E(ZPE) + E(vib) + E(rot) + E(trans)
    E(el)   - is the total energy from the electronic structure calculation
              = E(kin-el) + E(nuc-el) + E(el-el) + E(nuc-nuc)
    E(ZPE)  - the the zero temperature vibrational energy from the frequency calculation
    E(vib)  - the the finite temperature correction to E(ZPE) due to population
              of excietd vibrational states
    E(rot)  - is the rotational thermal energy
    E(trans)- is the translational thermal energy

Summary of contributions to the inner energy U:
Electronic energy                ...   -249.54879572 Eh
Zero point energy                ...      0.12251309 Eh      76.88 kcal/mol
Thermal vibrational correction   ...      0.00403321 Eh       2.53 kcal/mol
Thermal rotational correction    ...      0.00141627 Eh       0.89 kcal/mol
Thermal translational correction ...      0.00141627 Eh       0.89 kcal/mol
-----------------------------------------------------------------------
Total thermal energy                   -249.41941688 Eh

Summary of corrections to the electronic energy:
(perhaps to be used in another calculation)
Total thermal correction                  0.00686575 Eh       4.31 kcal/mol
Non-thermal (ZPE) correction              0.12251309 Eh      76.88 kcal/mol
-----------------------------------------------------------------------
Total correction                          0.12937884 Eh      81.19 kcal/mol

--------
ENTHALPY
--------

The enthalpy is H = U + kB*T
                kB is Boltzmann's constant
Total free energy                 ...   -249.41941688 Eh
Thermal Enthalpy correction       ...      0.00094421 Eh       0.59 kcal/mol
-----------------------------------------------------------------------
Total Enthalpy                    ...   -249.41847267 Eh

-------
ENTROPY
-------

The entropy contributions are T*S = T*(S(el)+S(vib)+S(rot)+S(trans)
     S(el)   - electronic entropy
     S(vib)  - vibrational entropy
     S(rot)  - rotational entropy
     S(trans)- translational entropy
The entropies will be listed as mutliplied by the temperature to get
units of energy

Electronic entropy                ...      0.00000000 Eh      0.00 kcal/mol
Vibrational entropy               ...      0.00685460 Eh      4.30 kcal/mol
Rotational entropy                ...      0.01168763 Eh      7.33 kcal/mol
Translational entropy             ...      0.01859236 Eh     11.67 kcal/mol
-----------------------------------------------------------------------
Final entropy term                ...      0.03713459 Eh     23.30 kcal/mol

CAUTION: The rotational entropy is not quite correctly treated here
         because it includes a symmetry number that is not yet correctly
         implemented in ORCA!
For a nonlinear molecule the correct rotational entropy is:
    S(rot) = R*(ln(qrot/sn)+1.5)
    R    = 8.31441 J/mol/K = 1.987191683e-3 kcal/mol/K
    qrot = 159086.8184935
    sn is the rotational symmetry number. We have assumed 3 here
       if it is different for your molecule then you should correct
       the printed rotational entropy by manually evaluating the equation
       as given above

For convenience we print out the resulting values for sn=1 - 12:
 sn= 1  qrot/sn=  159086.8185 T*S(rot)=     7.98 kcal/mol T*S(tot)=    23.95 kcal/mol
 sn= 2  qrot/sn=   79543.4092 T*S(rot)=     7.57 kcal/mol T*S(tot)=    23.54 kcal/mol
 sn= 3  qrot/sn=   53028.9395 T*S(rot)=     7.33 kcal/mol T*S(tot)=    23.30 kcal/mol
 sn= 4  qrot/sn=   39771.7046 T*S(rot)=     7.16 kcal/mol T*S(tot)=    23.13 kcal/mol
 sn= 5  qrot/sn=   31817.3637 T*S(rot)=     7.03 kcal/mol T*S(tot)=    23.00 kcal/mol
 sn= 6  qrot/sn=   26514.4697 T*S(rot)=     6.92 kcal/mol T*S(tot)=    22.89 kcal/mol
 sn= 7  qrot/sn=   22726.6884 T*S(rot)=     6.83 kcal/mol T*S(tot)=    22.80 kcal/mol
 sn= 8  qrot/sn=   19885.8523 T*S(rot)=     6.75 kcal/mol T*S(tot)=    22.72 kcal/mol
 sn= 9  qrot/sn=   17676.3132 T*S(rot)=     6.68 kcal/mol T*S(tot)=    22.65 kcal/mol
 sn=10  qrot/sn=   15908.6818 T*S(rot)=     6.62 kcal/mol T*S(tot)=    22.59 kcal/mol
 sn=11  qrot/sn=   14462.4380 T*S(rot)=     6.56 kcal/mol T*S(tot)=    22.53 kcal/mol
 sn=12  qrot/sn=   13257.2349 T*S(rot)=     6.51 kcal/mol T*S(tot)=    22.48 kcal/mol

-------------------
GIBBS FREE ENTHALPY
-------------------

The Gibbs free enthalpy is G = H - T*S

Total enthalpy                    ...   -249.41847267 Eh
Total entropy correction          ...     -0.03713459 Eh    -23.30 kcal/mol
-----------------------------------------------------------------------
Final Gibbs free enthalpy         ...   -249.45560726 Eh

For completeness - the Gibbs free enthalpy minus the electronic energy
G-E(el)                           ...      0.09318846 Eh     58.48 kcal/mol

                             ****ORCA TERMINATED NORMALLY****
TOTAL RUN TIME: 0 days 0 hours 14 minutes 46 seconds 93 msec
