                         Program Version 3.0.3 - RELEASE   -
|  1> ! NORI PBE0 def2-TZVP UseSym TightOPT Freq TightSCF Grid3 FinalGrid5 XYZFile
|  2> % pal
|  3>     nprocs 8
|  4> end
|  5> %method
|  6>     SymThresh 5.0e-2
|  7> end
|  8> % geom
|  9>     MaxIter 10
| 10> end
| 11> % maxcore 2000
| 12> % output
| 13>     printlevel mini
| 14>     print[ P_Basis ] 0
| 15>     print[ P_SCFInfo ] 1
| 16>     print[ P_SCFIterInfo ] 1
| 17>     print[ P_OrbEn ] 0
| 18>     print[ P_Cartesian ] 0
| 19> end
| 20> % elprop
| 21>     Dipole false
| 22> end
| 23> *xyz 1 1
| 24>  N        1.1770422681    -0.1862025574    -0.5460301047
| 25>  C        2.3332245773     0.2021221108     0.3652901791
| 26>  C        2.7927246584     1.5219002838     0.0352613441
| 27>  C        3.1960248297     2.6299521322    -0.2222618200
| 28>  C        3.6925751766     3.9139819646    -0.5496827128
| 29>  C        3.3671562788     5.0113468331     0.1339299873
| 30>  H        0.8226259845    -1.1232876914    -0.3398549254
| 31>  H        1.4774969623    -0.1574916462    -1.5231056287
| 32>  H        0.4111442232     0.4838233436    -0.4446217324
| 33>  H        3.1029178140    -0.5606055567     0.2232154046
| 34>  H        1.9550972771     0.1302692904     1.3878696188
| 35>  H        4.3748287385     3.9666427692    -1.3931102638
| 36>  H        2.6940145123     4.9769464085     0.9823725210
| 37>  H        3.7779166993     5.9743923154    -0.1416818669
| 38> *
| 39>
| 40>                          ****END OF INPUT****
 Total Charge           Charge          ....    1
 Multiplicity           Mult            ....    1
 Number of Electrons    NEL             ....   44
FINAL SINGLE POINT ENERGY      -249.549105347556
FINAL SINGLE POINT ENERGY      -249.549107753680
FINAL SINGLE POINT ENERGY      -249.549111225780

CARTESIAN COORDINATES (ANGSTROEM)
---------------------------------
  N     -0.004500    0.017324    2.741362
  C      1.070712   -0.017293    1.662693
  C      0.459822   -0.133589    0.368567
  C     -0.029918   -0.229681   -0.730263
  C     -0.600542   -0.380959   -2.016403
  C     -0.856118    0.651234   -2.820784
  H      0.394147    0.099566    3.679806
  H     -0.569295   -0.834055    2.698652
  H     -0.634181    0.807111    2.581979
  H      1.716124   -0.865748    1.902645
  H      1.648032    0.903308    1.776467
  H     -0.816227   -1.397651   -2.331464
  H     -0.641301    1.671518   -2.526422
  H     -1.285088    0.492209   -3.802248

FINAL SINGLE POINT ENERGY      -249.549111346043
                    ***********************HURRAY********************
 Multiplicity           Mult            ....    1
 Number of Electrons    NEL             ....   44
 Basis Dimension        Dim             ....  234
FINAL SINGLE POINT ENERGY      -249.549111384449

VIBRATIONAL FREQUENCIES
-----------------------

   0:         0.00 cm**-1
   1:         0.00 cm**-1
   2:         0.00 cm**-1
   3:         0.00 cm**-1
   4:         0.00 cm**-1
   5:         0.00 cm**-1
   6:        41.15 cm**-1
   7:       110.77 cm**-1
   8:       133.39 cm**-1
   9:       220.26 cm**-1
  10:       310.92 cm**-1
  11:       330.40 cm**-1
  12:       483.17 cm**-1
  13:       557.21 cm**-1
  14:       708.40 cm**-1
  15:       731.21 cm**-1
  16:       855.59 cm**-1
  17:       863.14 cm**-1
  18:      1002.18 cm**-1
  19:      1020.74 cm**-1
  20:      1040.31 cm**-1
  21:      1092.16 cm**-1
  22:      1101.64 cm**-1
  23:      1222.30 cm**-1
  24:      1319.38 cm**-1
  25:      1322.80 cm**-1
  26:      1398.54 cm**-1
  27:      1451.54 cm**-1
  28:      1478.22 cm**-1
  29:      1497.47 cm**-1
  30:      1644.10 cm**-1
  31:      1660.57 cm**-1
  32:      1681.18 cm**-1
  33:      2342.03 cm**-1
  34:      3079.07 cm**-1
  35:      3128.90 cm**-1
  36:      3174.03 cm**-1
  37:      3182.86 cm**-1
  38:      3272.73 cm**-1
  39:      3411.73 cm**-1
  40:      3502.55 cm**-1
  41:      3504.83 cm**-1

IR SPECTRUM
-----------

 Mode    freq (cm**-1)   T**2         TX         TY         TZ
-------------------------------------------------------------------
   6:        41.15    5.851083  (  1.408718  -1.924173   0.405158)
   7:       110.77   14.540816  (  3.598608   0.230053   1.240126)
   8:       133.39    7.683005  ( -0.323256  -2.715790   0.450547)
   9:       220.26    0.369133  (  0.162350   0.106821  -0.575643)
  10:       310.92   12.094877  ( -1.152176   2.384663   2.254052)
  11:       330.40    6.658855  (  1.201201   1.585839  -1.643498)
  12:       483.17   14.907859  (  1.154937  -0.145500  -3.681414)
  13:       557.21    0.517221  ( -0.634798  -0.331128   0.067875)
  14:       708.40   11.459758  (  2.809111  -0.159307  -1.882359)
  15:       731.21    2.655047  (  0.590261  -0.172538  -1.508930)
  16:       855.59    8.958585  (  0.104395  -2.984461  -0.201688)
  17:       863.14   64.729437  ( -0.045371  -0.177296   8.043379)
  18:      1002.18   41.341479  (  5.895882  -0.385534  -2.536024)
  19:      1020.74   13.426586  ( -3.386714   0.320224   1.361693)
  20:      1040.31    5.464299  ( -2.327631  -0.174470   0.126465)
  21:      1092.16   16.287253  (  3.348265   0.272245   2.236572)
  22:      1101.64    6.042097  (  0.655207  -2.364679   0.145244)
  23:      1222.30    8.872663  ( -1.023728   0.046575  -2.796869)
  24:      1319.38    6.976344  ( -0.661741   0.663814  -2.469371)
  25:      1322.80    7.796949  ( -0.036361   2.772254  -0.332015)
  26:      1398.54  127.121686  ( -3.570851   0.756424 -10.667639)
  27:      1451.54    9.199195  (  0.138572   3.010705   0.340071)
  28:      1478.22    7.015266  ( -2.133757  -0.041851  -1.568629)
  29:      1497.47  159.127957  (  7.624937  -0.117952 -10.048601)
  30:      1644.10   50.936218  (  0.239440  -7.121333   0.406824)
  31:      1660.57   36.224065  ( -3.829635  -0.309775  -4.632710)
  32:      1681.18    7.248394  ( -1.008015  -0.140279  -2.492513)
  33:      2342.03  263.857646  ( -4.588331   1.122750 -15.541696)
  34:      3079.07    4.880530  ( -0.481775  -0.123617  -2.152473)
  35:      3128.90    1.195638  ( -0.053003   1.090370  -0.062616)
  36:      3174.03    0.358738  ( -0.192583   0.105146  -0.557309)
  37:      3182.86    1.223571  ( -0.021432   1.071048  -0.275621)
  38:      3272.73    0.426157  (  0.228454  -0.070196   0.607485)
  39:      3411.73   44.034581  ( -3.471601   0.005975   5.655310)
  40:      3502.55  105.208466  (  0.240081 -10.234081   0.643745)
  41:      3504.83   79.339662  (  7.078565   0.692965   5.362217)

--------------------------
THERMOCHEMISTRY AT 298.15K
--------------------------

Temperature         ... 298.15 K
Pressure            ... 1.00 atm
Total Mass          ... 82.13 AMU

Throughout the following assumptions are being made:
  (1) The electronic state is orbitally nondegenerate
  (2) There are no thermally accessible electronically excited states
  (3) Hindered rotations indicated by low frequency modes) are not
      treated as such but are treated as vibrations and this may
      case some error
  (4) All equations used are the standard statistical mechanics
      equations for an ideal gas
  (5) All vibrations are strinctly harmonic

------------
INNER ENERGY
------------

The inner energy is: U= E(el) + E(ZPE) + E(vib) + E(rot) + E(trans)
    E(el)   - is the total energy from the electronic structure calculation
              = E(kin-el) + E(nuc-el) + E(el-el) + E(nuc-nuc)
    E(ZPE)  - the the zero temperature vibrational energy from the frequency calculation
    E(vib)  - the the finite temperature correction to E(ZPE) due to population
              of excietd vibrational states
    E(rot)  - is the rotational thermal energy
    E(trans)- is the translational thermal energy

Summary of contributions to the inner energy U:
Electronic energy                ...   -249.54911138 Eh
Zero point energy                ...      0.12274185 Eh      77.02 kcal/mol
Thermal vibrational correction   ...      0.00453819 Eh       2.85 kcal/mol
Thermal rotational correction    ...      0.00141627 Eh       0.89 kcal/mol
Thermal translational correction ...      0.00141627 Eh       0.89 kcal/mol
-----------------------------------------------------------------------
Total thermal energy                   -249.41899881 Eh

Summary of corrections to the electronic energy:
(perhaps to be used in another calculation)
Total thermal correction                  0.00737073 Eh       4.63 kcal/mol
Non-thermal (ZPE) correction              0.12274185 Eh      77.02 kcal/mol
-----------------------------------------------------------------------
Total correction                          0.13011258 Eh      81.65 kcal/mol

--------
ENTHALPY
--------

The enthalpy is H = U + kB*T
                kB is Boltzmann's constant
Total free energy                 ...   -249.41899881 Eh
Thermal Enthalpy correction       ...      0.00094421 Eh       0.59 kcal/mol
-----------------------------------------------------------------------
Total Enthalpy                    ...   -249.41805460 Eh

-------
ENTROPY
-------

The entropy contributions are T*S = T*(S(el)+S(vib)+S(rot)+S(trans)
     S(el)   - electronic entropy
     S(vib)  - vibrational entropy
     S(rot)  - rotational entropy
     S(trans)- translational entropy
The entropies will be listed as mutliplied by the temperature to get
units of energy

Electronic entropy                ...      0.00000000 Eh      0.00 kcal/mol
Vibrational entropy               ...      0.00883846 Eh      5.55 kcal/mol
Rotational entropy                ...      0.01177689 Eh      7.39 kcal/mol
Translational entropy             ...      0.01859236 Eh     11.67 kcal/mol
-----------------------------------------------------------------------
Final entropy term                ...      0.03920771 Eh     24.60 kcal/mol

CAUTION: The rotational entropy is not quite correctly treated here
         because it includes a symmetry number that is not yet correctly
         implemented in ORCA!
For a nonlinear molecule the correct rotational entropy is:
    S(rot) = R*(ln(qrot/sn)+1.5)
    R    = 8.31441 J/mol/K = 1.987191683e-3 kcal/mol/K
    qrot = 174860.8246730
    sn is the rotational symmetry number. We have assumed 3 here
       if it is different for your molecule then you should correct
       the printed rotational entropy by manually evaluating the equation
       as given above

For convenience we print out the resulting values for sn=1 - 12:
 sn= 1  qrot/sn=  174860.8247 T*S(rot)=     8.04 kcal/mol T*S(tot)=    25.25 kcal/mol
 sn= 2  qrot/sn=   87430.4123 T*S(rot)=     7.63 kcal/mol T*S(tot)=    24.84 kcal/mol
 sn= 3  qrot/sn=   58286.9416 T*S(rot)=     7.39 kcal/mol T*S(tot)=    24.60 kcal/mol
 sn= 4  qrot/sn=   43715.2062 T*S(rot)=     7.22 kcal/mol T*S(tot)=    24.43 kcal/mol
 sn= 5  qrot/sn=   34972.1649 T*S(rot)=     7.09 kcal/mol T*S(tot)=    24.30 kcal/mol
 sn= 6  qrot/sn=   29143.4708 T*S(rot)=     6.98 kcal/mol T*S(tot)=    24.19 kcal/mol
 sn= 7  qrot/sn=   24980.1178 T*S(rot)=     6.89 kcal/mol T*S(tot)=    24.10 kcal/mol
 sn= 8  qrot/sn=   21857.6031 T*S(rot)=     6.81 kcal/mol T*S(tot)=    24.02 kcal/mol
 sn= 9  qrot/sn=   19428.9805 T*S(rot)=     6.74 kcal/mol T*S(tot)=    23.95 kcal/mol
 sn=10  qrot/sn=   17486.0825 T*S(rot)=     6.68 kcal/mol T*S(tot)=    23.89 kcal/mol
 sn=11  qrot/sn=   15896.4386 T*S(rot)=     6.62 kcal/mol T*S(tot)=    23.83 kcal/mol
 sn=12  qrot/sn=   14571.7354 T*S(rot)=     6.57 kcal/mol T*S(tot)=    23.78 kcal/mol

-------------------
GIBBS FREE ENTHALPY
-------------------

The Gibbs free enthalpy is G = H - T*S

Total enthalpy                    ...   -249.41805460 Eh
Total entropy correction          ...     -0.03920771 Eh    -24.60 kcal/mol
-----------------------------------------------------------------------
Final Gibbs free enthalpy         ...   -249.45726231 Eh

For completeness - the Gibbs free enthalpy minus the electronic energy
G-E(el)                           ...      0.09184908 Eh     57.64 kcal/mol

                             ****ORCA TERMINATED NORMALLY****
TOTAL RUN TIME: 0 days 0 hours 13 minutes 25 seconds 95 msec
