                         Program Version 3.0.3 - RELEASE   -
|  1> ! NORI PBE0 def2-TZVP UseSym TightOPT Freq TightSCF Grid3 FinalGrid5 XYZFile
|  2> % pal
|  3>     nprocs 8
|  4> end
|  5> %method
|  6>     SymThresh 5.0e-2
|  7> end
|  8> % geom
|  9>     MaxIter 10
| 10> end
| 11> % maxcore 2000
| 12> % output
| 13>     printlevel mini
| 14>     print[ P_Basis ] 0
| 15>     print[ P_SCFInfo ] 1
| 16>     print[ P_SCFIterInfo ] 1
| 17>     print[ P_OrbEn ] 0
| 18>     print[ P_Cartesian ] 0
| 19> end
| 20> % elprop
| 21>     Dipole false
| 22> end
| 23> *xyz 1 1
| 24>  N        1.0911353500    -0.0118621470    -0.0591344802
| 25>  C        2.6097443005    -0.0159550038    -0.0114078890
| 26>  C        3.0617284003    -0.8845643492     1.0388324387
| 27>  C        3.4562181464    -1.6124988610     1.9185294103
| 28>  C        3.9018909520    -2.4321198068     2.9059616696
| 29>  C        4.3012048756    -3.1581509600     3.7798496738
| 30>  H        0.7343404767     0.6019509611    -0.7956394233
| 31>  H        0.7108570529     0.3000449249     0.8378516037
| 32>  H        0.7404829211    -0.9582956720    -0.2255737177
| 33>  H        2.9188284889     1.0215446379     0.1408657269
| 34>  H        2.9510200257    -0.3392276002    -0.9982652852
| 35>  H        4.6586790099    -3.8014861239     4.5531502723
| 36> *
| 37>
| 38>                          ****END OF INPUT****
 Total Charge           Charge          ....    1
 Multiplicity           Mult            ....    1
 Number of Electrons    NEL             ....   42
FINAL SINGLE POINT ENERGY      -248.293752719166

CARTESIAN COORDINATES (ANGSTROEM)
---------------------------------
  N      2.714369    0.000000    0.000000
  C      1.645198   -1.079861    0.000000
  C      0.342201   -0.476202   -0.000000
  C     -0.760096    0.017960   -0.000000
  C     -2.000538    0.571785   -0.000000
  C     -3.101935    1.058716    0.000000
  H      3.657344   -0.396906   -0.000000
  H      2.612270    0.597727    0.823970
  H      2.612270    0.597727   -0.823970
  H      1.822650   -1.692995    0.887447
  H      1.822650   -1.692995   -0.887447
  H     -4.079729    1.487026    0.000000

FINAL SINGLE POINT ENERGY      -248.293752890533
                    ***********************HURRAY********************
 Multiplicity           Mult            ....    1
 Number of Electrons    NEL             ....   42
 Basis Dimension        Dim             ....  222
FINAL SINGLE POINT ENERGY      -248.293752909187

VIBRATIONAL FREQUENCIES
-----------------------

   0:         0.00 cm**-1
   1:         0.00 cm**-1
   2:         0.00 cm**-1
   3:         0.00 cm**-1
   4:         0.00 cm**-1
   5:         0.00 cm**-1
   6:        92.60 cm**-1
   7:       131.54 cm**-1
   8:       226.91 cm**-1
   9:       236.34 cm**-1
  10:       318.42 cm**-1
  11:       453.62 cm**-1
  12:       527.44 cm**-1
  13:       557.28 cm**-1
  14:       696.33 cm**-1
  15:       718.62 cm**-1
  16:       742.95 cm**-1
  17:       856.41 cm**-1
  18:       879.14 cm**-1
  19:      1078.96 cm**-1
  20:      1099.79 cm**-1
  21:      1219.94 cm**-1
  22:      1321.77 cm**-1
  23:      1403.74 cm**-1
  24:      1475.48 cm**-1
  25:      1503.75 cm**-1
  26:      1645.39 cm**-1
  27:      1660.82 cm**-1
  28:      2194.43 cm**-1
  29:      2367.58 cm**-1
  30:      3075.04 cm**-1
  31:      3123.85 cm**-1
  32:      3409.93 cm**-1
  33:      3456.29 cm**-1
  34:      3497.07 cm**-1
  35:      3501.46 cm**-1

IR SPECTRUM
-----------

 Mode    freq (cm**-1)   T**2         TX         TY         TZ
-------------------------------------------------------------------
   6:        92.60   18.002393  (  1.059884  -4.108411   0.000000)
   7:       131.54   12.925592  ( -0.000003  -0.000001  -3.595218)
   8:       226.91    1.489846  ( -0.000014   0.000007   1.220593)
   9:       236.34    8.335711  (  2.679258   1.075774  -0.000000)
  10:       318.42    1.416856  ( -0.000016   0.000005  -1.190317)
  11:       453.62   13.214347  ( -3.599175  -0.510185   0.000000)
  12:       527.44    4.318062  (  0.000015  -0.000009  -2.077995)
  13:       557.28   12.996561  (  2.859967   2.194801  -0.000000)
  14:       696.33    0.746162  ( -0.690269  -0.519318   0.000000)
  15:       718.62   39.917677  ( -0.000002   0.000001  -6.318044)
  16:       742.95   34.911660  (  2.288928   5.447244  -0.000000)
  17:       856.41    9.770319  (  0.000010  -0.000006   3.125751)
  18:       879.14   54.316442  ( -7.369055  -0.116045   0.000000)
  19:      1078.96   20.286598  ( -1.982338   4.044371   0.000000)
  20:      1099.79    5.357759  (  0.000018  -0.000009  -2.314683)
  21:      1219.94    2.450852  (  1.486073  -0.492382  -0.000000)
  22:      1321.77    8.437272  ( -0.000016   0.000006   2.904698)
  23:      1403.74  127.906109  (-10.641962   3.828152  -0.000000)
  24:      1475.48    8.039961  ( -1.440835   2.442121  -0.000000)
  25:      1503.75  160.777251  ( 10.219392   7.506082   0.000000)
  26:      1645.39   51.315528  ( -0.000001   0.000001  -7.163486)
  27:      1660.82   38.244153  ( -4.767051   3.939464  -0.000000)
  28:      2194.43    0.642063  (  0.423564  -0.680189  -0.000000)
  29:      2367.58  279.871136  ( 15.884119  -5.250325  -0.000000)
  30:      3075.04    3.220980  ( -1.793368   0.069355   0.000000)
  31:      3123.85    2.246580  (  0.000017  -0.000009   1.498859)
  32:      3409.93   53.627413  ( -6.365602  -3.620294   0.000000)
  33:      3456.29  118.583074  (  9.990082  -4.333744  -0.000000)
  34:      3497.07  112.303171  ( -0.000002  -0.000000  10.597319)
  35:      3501.46   89.558811  (  6.120511  -7.217905   0.000000)

--------------------------
THERMOCHEMISTRY AT 298.15K
--------------------------

Temperature         ... 298.15 K
Pressure            ... 1.00 atm
Total Mass          ... 80.11 AMU

Throughout the following assumptions are being made:
  (1) The electronic state is orbitally nondegenerate
  (2) There are no thermally accessible electronically excited states
  (3) Hindered rotations indicated by low frequency modes) are not
      treated as such but are treated as vibrations and this may
      case some error
  (4) All equations used are the standard statistical mechanics
      equations for an ideal gas
  (5) All vibrations are strinctly harmonic

------------
INNER ENERGY
------------

The inner energy is: U= E(el) + E(ZPE) + E(vib) + E(rot) + E(trans)
    E(el)   - is the total energy from the electronic structure calculation
              = E(kin-el) + E(nuc-el) + E(el-el) + E(nuc-nuc)
    E(ZPE)  - the the zero temperature vibrational energy from the frequency calculation
    E(vib)  - the the finite temperature correction to E(ZPE) due to population
              of excietd vibrational states
    E(rot)  - is the rotational thermal energy
    E(trans)- is the translational thermal energy

Summary of contributions to the inner energy U:
Electronic energy                ...   -248.29375291 Eh
Zero point energy                ...      0.09903856 Eh      62.15 kcal/mol
Thermal vibrational correction   ...      0.00403782 Eh       2.53 kcal/mol
Thermal rotational correction    ...      0.00141627 Eh       0.89 kcal/mol
Thermal translational correction ...      0.00141627 Eh       0.89 kcal/mol
-----------------------------------------------------------------------
Total thermal energy                   -248.18784398 Eh

Summary of corrections to the electronic energy:
(perhaps to be used in another calculation)
Total thermal correction                  0.00687037 Eh       4.31 kcal/mol
Non-thermal (ZPE) correction              0.09903856 Eh      62.15 kcal/mol
-----------------------------------------------------------------------
Total correction                          0.10590893 Eh      66.46 kcal/mol

--------
ENTHALPY
--------

The enthalpy is H = U + kB*T
                kB is Boltzmann's constant
Total free energy                 ...   -248.18784398 Eh
Thermal Enthalpy correction       ...      0.00094421 Eh       0.59 kcal/mol
-----------------------------------------------------------------------
Total Enthalpy                    ...   -248.18689977 Eh

-------
ENTROPY
-------

The entropy contributions are T*S = T*(S(el)+S(vib)+S(rot)+S(trans)
     S(el)   - electronic entropy
     S(vib)  - vibrational entropy
     S(rot)  - rotational entropy
     S(trans)- translational entropy
The entropies will be listed as mutliplied by the temperature to get
units of energy

Electronic entropy                ...      0.00000000 Eh      0.00 kcal/mol
Vibrational entropy               ...      0.00708314 Eh      4.44 kcal/mol
Rotational entropy                ...      0.01160092 Eh      7.28 kcal/mol
Translational entropy             ...      0.01855716 Eh     11.64 kcal/mol
-----------------------------------------------------------------------
Final entropy term                ...      0.03724122 Eh     23.37 kcal/mol

CAUTION: The rotational entropy is not quite correctly treated here
         because it includes a symmetry number that is not yet correctly
         implemented in ORCA!
For a nonlinear molecule the correct rotational entropy is:
    S(rot) = R*(ln(qrot/sn)+1.5)
    R    = 8.31441 J/mol/K = 1.987191683e-3 kcal/mol/K
    qrot = 145127.9885822
    sn is the rotational symmetry number. We have assumed 3 here
       if it is different for your molecule then you should correct
       the printed rotational entropy by manually evaluating the equation
       as given above

For convenience we print out the resulting values for sn=1 - 12:
 sn= 1  qrot/sn=  145127.9886 T*S(rot)=     7.93 kcal/mol T*S(tot)=    24.02 kcal/mol
 sn= 2  qrot/sn=   72563.9943 T*S(rot)=     7.52 kcal/mol T*S(tot)=    23.61 kcal/mol
 sn= 3  qrot/sn=   48375.9962 T*S(rot)=     7.28 kcal/mol T*S(tot)=    23.37 kcal/mol
 sn= 4  qrot/sn=   36281.9971 T*S(rot)=     7.11 kcal/mol T*S(tot)=    23.20 kcal/mol
 sn= 5  qrot/sn=   29025.5977 T*S(rot)=     6.98 kcal/mol T*S(tot)=    23.07 kcal/mol
 sn= 6  qrot/sn=   24187.9981 T*S(rot)=     6.87 kcal/mol T*S(tot)=    22.96 kcal/mol
 sn= 7  qrot/sn=   20732.5698 T*S(rot)=     6.78 kcal/mol T*S(tot)=    22.87 kcal/mol
 sn= 8  qrot/sn=   18140.9986 T*S(rot)=     6.70 kcal/mol T*S(tot)=    22.79 kcal/mol
 sn= 9  qrot/sn=   16125.3321 T*S(rot)=     6.63 kcal/mol T*S(tot)=    22.72 kcal/mol
 sn=10  qrot/sn=   14512.7989 T*S(rot)=     6.57 kcal/mol T*S(tot)=    22.66 kcal/mol
 sn=11  qrot/sn=   13193.4535 T*S(rot)=     6.51 kcal/mol T*S(tot)=    22.60 kcal/mol
 sn=12  qrot/sn=   12093.9990 T*S(rot)=     6.46 kcal/mol T*S(tot)=    22.55 kcal/mol

-------------------
GIBBS FREE ENTHALPY
-------------------

The Gibbs free enthalpy is G = H - T*S

Total enthalpy                    ...   -248.18689977 Eh
Total entropy correction          ...     -0.03724122 Eh    -23.37 kcal/mol
-----------------------------------------------------------------------
Final Gibbs free enthalpy         ...   -248.22414099 Eh

For completeness - the Gibbs free enthalpy minus the electronic energy
G-E(el)                           ...      0.06961191 Eh     43.68 kcal/mol

                             ****ORCA TERMINATED NORMALLY****
TOTAL RUN TIME: 0 days 0 hours 10 minutes 20 seconds 367 msec
