                         Program Version 3.0.3 - RELEASE   -
|  1> ! NORI PBE0 def2-TZVP UseSym TightOPT Freq TightSCF Grid3 FinalGrid5 XYZFile
|  2> % pal
|  3>     nprocs 8
|  4> end
|  5> %method
|  6>     SymThresh 5.0e-2
|  7> end
|  8> % geom
|  9>     MaxIter 10
| 10> end
| 11> % maxcore 2000
| 12> % output
| 13>     printlevel mini
| 14>     print[ P_Basis ] 0
| 15>     print[ P_SCFInfo ] 1
| 16>     print[ P_SCFIterInfo ] 1
| 17>     print[ P_OrbEn ] 0
| 18>     print[ P_Cartesian ] 0
| 19> end
| 20> % elprop
| 21>     Dipole false
| 22> end
| 23> *xyz 1 1
| 24>  N        1.0776483336    -0.2053976548     0.3030766833
| 25>  C        2.5825482525    -0.0918454568     0.3051720920
| 26>  C        3.0600261959     0.6850076151    -0.8987250140
| 27>  C        4.5846111194     0.8113967061    -0.9073178394
| 28>  C        5.0671748647     1.6015996357    -2.0813693206
| 29>  C        5.8798511703     1.1300830845    -3.0140979496
| 30>  H        0.7310281472    -0.7347014909     1.1058290486
| 31>  H        0.7513626310    -0.6726879857    -0.5458978687
| 32>  H        0.6429703683     0.7195746871     0.3259780516
| 33>  H        2.8531653299     0.3914818233     1.2452112592
| 34>  H        2.9663543439    -1.1128631073     0.3164647292
| 35>  H        2.7367752137     0.1873424097    -1.8201647211
| 36>  H        2.6130228257     1.6861150996    -0.8970286454
| 37>  H        4.9055699961     1.2978586477     0.0223631170
| 38>  H        5.0401612072    -0.1833803017    -0.9215341698
| 39>  H        4.7172983470     2.6301242957    -2.1445126491
| 40>  H        6.2611807640     0.1143070601    -2.9794485024
| 41>  H        6.2067808896     1.7470549326    -3.8422583007
| 42> *
| 43>
| 44>                          ****END OF INPUT****
 Total Charge           Charge          ....    1
 Multiplicity           Mult            ....    1
 Number of Electrons    NEL             ....   48
FINAL SINGLE POINT ENERGY      -252.024908380576
FINAL SINGLE POINT ENERGY      -252.024911308754
FINAL SINGLE POINT ENERGY      -252.024914838959
FINAL SINGLE POINT ENERGY      -252.024915616436

CARTESIAN COORDINATES (ANGSTROEM)
---------------------------------
  N     -0.003128   -0.007342    2.948169
  C      0.737415    0.008206    1.632917
  C     -0.228612    0.138966    0.479098
  C      0.508751    0.145889   -0.861858
  C     -0.432829    0.316722   -2.010932
  C     -0.609068   -0.578428   -2.970398
  H      0.630355   -0.098730    3.745037
  H     -0.664700   -0.786217    2.981693
  H     -0.541197    0.853250    3.071433
  H      1.437297    0.843648    1.684327
  H      1.307379   -0.921225    1.591583
  H     -0.942625   -0.692482    0.488876
  H     -0.807124    1.065079    0.580258
  H      1.240731    0.963177   -0.861090
  H      1.069210   -0.786470   -0.980356
  H     -0.992510    1.249700   -2.038959
  H     -0.060839   -1.515425   -2.985230
  H     -1.299414   -0.402507   -3.786320

FINAL SINGLE POINT ENERGY      -252.024916019371
                    ***********************HURRAY********************
 Multiplicity           Mult            ....    1
 Number of Electrons    NEL             ....   48
 Basis Dimension        Dim             ....  258
FINAL SINGLE POINT ENERGY      -252.024916086934

VIBRATIONAL FREQUENCIES
-----------------------

   0:         0.00 cm**-1
   1:         0.00 cm**-1
   2:         0.00 cm**-1
   3:         0.00 cm**-1
   4:         0.00 cm**-1
   5:         0.00 cm**-1
   6:        73.76 cm**-1
   7:        89.59 cm**-1
   8:       128.86 cm**-1
   9:       171.77 cm**-1
  10:       225.15 cm**-1
  11:       352.44 cm**-1
  12:       358.94 cm**-1
  13:       457.81 cm**-1
  14:       658.26 cm**-1
  15:       755.37 cm**-1
  16:       829.76 cm**-1
  17:       897.45 cm**-1
  18:       935.47 cm**-1
  19:       955.25 cm**-1
  20:       984.64 cm**-1
  21:       988.06 cm**-1
  22:      1027.80 cm**-1
  23:      1053.02 cm**-1
  24:      1058.21 cm**-1
  25:      1148.28 cm**-1
  26:      1198.46 cm**-1
  27:      1272.59 cm**-1
  28:      1286.66 cm**-1
  29:      1325.02 cm**-1
  30:      1335.78 cm**-1
  31:      1351.41 cm**-1
  32:      1374.18 cm**-1
  33:      1409.98 cm**-1
  34:      1453.67 cm**-1
  35:      1474.94 cm**-1
  36:      1484.81 cm**-1
  37:      1502.71 cm**-1
  38:      1509.14 cm**-1
  39:      1657.26 cm**-1
  40:      1664.31 cm**-1
  41:      1730.08 cm**-1
  42:      3028.58 cm**-1
  43:      3037.78 cm**-1
  44:      3072.95 cm**-1
  45:      3095.43 cm**-1
  46:      3097.24 cm**-1
  47:      3152.42 cm**-1
  48:      3156.73 cm**-1
  49:      3158.77 cm**-1
  50:      3250.06 cm**-1
  51:      3421.09 cm**-1
  52:      3502.56 cm**-1
  53:      3507.85 cm**-1

IR SPECTRUM
-----------

 Mode    freq (cm**-1)   T**2         TX         TY         TZ
-------------------------------------------------------------------
   6:        73.76    5.539342  ( -1.189975  -1.893030  -0.734669)
   7:        89.59    0.494578  ( -0.625626   0.313625  -0.069348)
   8:       128.86    3.191490  ( -1.047794   1.307149  -0.620468)
   9:       171.77    3.105818  (  1.530862   0.094727   0.867932)
  10:       225.15    0.032400  (  0.108019   0.016212   0.143069)
  11:       352.44    1.696139  (  0.069199   0.123253   1.294666)
  12:       358.94   10.192790  (  0.420364  -0.360062   3.144271)
  13:       457.81    1.180862  (  0.129128   0.402104  -1.001249)
  14:       658.26   13.217980  ( -2.682988  -1.878547   1.578169)
  15:       755.37    5.687432  ( -0.142439   2.322204   0.523940)
  16:       829.76    3.363359  (  0.677347   1.648694  -0.431702)
  17:       897.45   17.723509  (  1.023110  -0.666534   4.028956)
  18:       935.47    5.218141  ( -0.368428   2.173276  -0.599394)
  19:       955.25   12.645395  ( -0.605284  -1.581050  -3.127188)
  20:       984.64    2.927401  ( -0.055998  -1.639840   0.484963)
  21:       988.06   46.908684  (  5.335362   2.779819  -3.273409)
  22:      1027.80   10.954831  (  2.181472   1.376168  -2.074167)
  23:      1053.02   15.875366  ( -0.013471   1.008432  -3.854640)
  24:      1058.21    3.820040  (  0.806311   0.347056  -1.746269)
  25:      1148.28   16.386416  ( -3.327665  -0.185442  -2.297537)
  26:      1198.46    0.815274  (  0.514778  -0.666097  -0.326485)
  27:      1272.59    2.359488  (  0.182918   1.522522  -0.089187)
  28:      1286.66    2.917242  (  1.108960   0.557264   1.173417)
  29:      1325.02    2.555191  (  0.283126  -1.200410  -1.016880)
  30:      1335.78    0.847150  (  0.507590  -0.577112  -0.506403)
  31:      1351.41    2.956618  (  0.145831   1.713094  -0.025697)
  32:      1374.18    1.298662  (  0.635792  -0.232647  -0.916681)
  33:      1409.98   16.511853  ( -0.579922   0.089676   4.020883)
  34:      1453.67    5.330818  (  0.382536   1.739712   1.468974)
  35:      1474.94    6.019836  ( -1.829604   1.475675   0.703397)
  36:      1484.81    0.446376  (  0.253679   0.299652  -0.540585)
  37:      1502.71   32.865183  ( -1.151766   0.498829  -5.593728)
  38:      1509.14  131.583977  (  6.652214  -0.059250  -9.344973)
  39:      1657.26   52.861307  ( -0.553697  -7.238663  -0.395578)
  40:      1664.31   36.838294  (  5.033293  -0.535806   3.349205)
  41:      1730.08    5.352552  (  0.805630   1.223669   1.790572)
  42:      3028.58    7.004878  (  0.947253   0.845630   2.322176)
  43:      3037.78   19.576571  (  4.283620   0.037625  -1.107139)
  44:      3072.95    1.611675  ( -0.962407  -0.807383   0.183248)
  45:      3095.43   12.652609  (  0.299174  -3.537989  -0.213859)
  46:      3097.24    3.042791  ( -1.615415   0.370369  -0.544107)
  47:      3152.42    9.549836  ( -1.501526   2.700321  -0.059370)
  48:      3156.73    1.346553  (  0.010432  -1.160229  -0.017674)
  49:      3158.77    0.186194  (  0.125022  -0.225418   0.346049)
  50:      3250.06    2.582097  ( -1.010062   1.131526  -0.530586)
  51:      3421.09   47.155189  (  2.399469   0.053626  -6.433884)
  52:      3502.56   91.924682  ( -1.108882  -9.494491  -0.741418)
  53:      3507.85   96.964175  (  8.410160  -1.363405   4.937055)

--------------------------
THERMOCHEMISTRY AT 298.15K
--------------------------

Temperature         ... 298.15 K
Pressure            ... 1.00 atm
Total Mass          ... 86.16 AMU

Throughout the following assumptions are being made:
  (1) The electronic state is orbitally nondegenerate
  (2) There are no thermally accessible electronically excited states
  (3) Hindered rotations indicated by low frequency modes) are not
      treated as such but are treated as vibrations and this may
      case some error
  (4) All equations used are the standard statistical mechanics
      equations for an ideal gas
  (5) All vibrations are strinctly harmonic

------------
INNER ENERGY
------------

The inner energy is: U= E(el) + E(ZPE) + E(vib) + E(rot) + E(trans)
    E(el)   - is the total energy from the electronic structure calculation
              = E(kin-el) + E(nuc-el) + E(el-el) + E(nuc-nuc)
    E(ZPE)  - the the zero temperature vibrational energy from the frequency calculation
    E(vib)  - the the finite temperature correction to E(ZPE) due to population
              of excietd vibrational states
    E(rot)  - is the rotational thermal energy
    E(trans)- is the translational thermal energy

Summary of contributions to the inner energy U:
Electronic energy                ...   -252.02491609 Eh
Zero point energy                ...      0.17009344 Eh     106.74 kcal/mol
Thermal vibrational correction   ...      0.00506586 Eh       3.18 kcal/mol
Thermal rotational correction    ...      0.00141627 Eh       0.89 kcal/mol
Thermal translational correction ...      0.00141627 Eh       0.89 kcal/mol
-----------------------------------------------------------------------
Total thermal energy                   -251.84692424 Eh

Summary of corrections to the electronic energy:
(perhaps to be used in another calculation)
Total thermal correction                  0.00789841 Eh       4.96 kcal/mol
Non-thermal (ZPE) correction              0.17009344 Eh     106.74 kcal/mol
-----------------------------------------------------------------------
Total correction                          0.17799184 Eh     111.69 kcal/mol

--------
ENTHALPY
--------

The enthalpy is H = U + kB*T
                kB is Boltzmann's constant
Total free energy                 ...   -251.84692424 Eh
Thermal Enthalpy correction       ...      0.00094421 Eh       0.59 kcal/mol
-----------------------------------------------------------------------
Total Enthalpy                    ...   -251.84598003 Eh

-------
ENTROPY
-------

The entropy contributions are T*S = T*(S(el)+S(vib)+S(rot)+S(trans)
     S(el)   - electronic entropy
     S(vib)  - vibrational entropy
     S(rot)  - rotational entropy
     S(trans)- translational entropy
The entropies will be listed as mutliplied by the temperature to get
units of energy

Electronic entropy                ...      0.00000000 Eh      0.00 kcal/mol
Vibrational entropy               ...      0.00950509 Eh      5.96 kcal/mol
Rotational entropy                ...      0.01187857 Eh      7.45 kcal/mol
Translational entropy             ...      0.01866024 Eh     11.71 kcal/mol
-----------------------------------------------------------------------
Final entropy term                ...      0.04004389 Eh     25.13 kcal/mol

CAUTION: The rotational entropy is not quite correctly treated here
         because it includes a symmetry number that is not yet correctly
         implemented in ORCA!
For a nonlinear molecule the correct rotational entropy is:
    S(rot) = R*(ln(qrot/sn)+1.5)
    R    = 8.31441 J/mol/K = 1.987191683e-3 kcal/mol/K
    qrot = 194741.7389663
    sn is the rotational symmetry number. We have assumed 3 here
       if it is different for your molecule then you should correct
       the printed rotational entropy by manually evaluating the equation
       as given above

For convenience we print out the resulting values for sn=1 - 12:
 sn= 1  qrot/sn=  194741.7390 T*S(rot)=     8.10 kcal/mol T*S(tot)=    25.78 kcal/mol
 sn= 2  qrot/sn=   97370.8695 T*S(rot)=     7.69 kcal/mol T*S(tot)=    25.37 kcal/mol
 sn= 3  qrot/sn=   64913.9130 T*S(rot)=     7.45 kcal/mol T*S(tot)=    25.13 kcal/mol
 sn= 4  qrot/sn=   48685.4347 T*S(rot)=     7.28 kcal/mol T*S(tot)=    24.96 kcal/mol
 sn= 5  qrot/sn=   38948.3478 T*S(rot)=     7.15 kcal/mol T*S(tot)=    24.83 kcal/mol
 sn= 6  qrot/sn=   32456.9565 T*S(rot)=     7.04 kcal/mol T*S(tot)=    24.72 kcal/mol
 sn= 7  qrot/sn=   27820.2484 T*S(rot)=     6.95 kcal/mol T*S(tot)=    24.63 kcal/mol
 sn= 8  qrot/sn=   24342.7174 T*S(rot)=     6.87 kcal/mol T*S(tot)=    24.55 kcal/mol
 sn= 9  qrot/sn=   21637.9710 T*S(rot)=     6.80 kcal/mol T*S(tot)=    24.48 kcal/mol
 sn=10  qrot/sn=   19474.1739 T*S(rot)=     6.74 kcal/mol T*S(tot)=    24.41 kcal/mol
 sn=11  qrot/sn=   17703.7945 T*S(rot)=     6.68 kcal/mol T*S(tot)=    24.36 kcal/mol
 sn=12  qrot/sn=   16228.4782 T*S(rot)=     6.63 kcal/mol T*S(tot)=    24.31 kcal/mol

-------------------
GIBBS FREE ENTHALPY
-------------------

The Gibbs free enthalpy is G = H - T*S

Total enthalpy                    ...   -251.84598003 Eh
Total entropy correction          ...     -0.04004389 Eh    -25.13 kcal/mol
-----------------------------------------------------------------------
Final Gibbs free enthalpy         ...   -251.88602392 Eh

For completeness - the Gibbs free enthalpy minus the electronic energy
G-E(el)                           ...      0.13889216 Eh     87.16 kcal/mol

                             ****ORCA TERMINATED NORMALLY****
TOTAL RUN TIME: 0 days 0 hours 20 minutes 28 seconds 412 msec
