                         Program Version 3.0.3 - RELEASE   -
|  1> ! NORI PBE0 def2-TZVP UseSym TightOPT Freq TightSCF Grid3 FinalGrid5 XYZFile
|  2> % pal
|  3>     nprocs 8
|  4> end
|  5> %method
|  6>     SymThresh 5.0e-2
|  7> end
|  8> % geom
|  9>     MaxIter 10
| 10> end
| 11> % maxcore 2000
| 12> % output
| 13>     printlevel mini
| 14>     print[ P_Basis ] 0
| 15>     print[ P_SCFInfo ] 1
| 16>     print[ P_SCFIterInfo ] 1
| 17>     print[ P_OrbEn ] 0
| 18>     print[ P_Cartesian ] 0
| 19> end
| 20> % elprop
| 21>     Dipole false
| 22> end
| 23> *xyz 1 1
| 24>  N        1.0758416331    -0.3960862463    -0.0316137508
| 25>  C        2.5486626462    -0.1047967542     0.0954224902
| 26>  C        3.0175663820     0.7944497535    -1.0253775734
| 27>  C        4.5419551471     0.9544284206    -0.9879569650
| 28>  C        5.2292598422    -0.3211151539    -1.0996190928
| 29>  C        5.7681590930    -1.3893496815    -1.1903046562
| 30>  H        0.7450620055    -1.0074737754     0.7177835653
| 31>  H        0.8743625334    -0.8572611238    -0.9218930542
| 32>  H        0.5233925746     0.4633975188    -0.0010503027
| 33>  H        2.6924224581     0.3450960870     1.0790199931
| 34>  H        3.0632723881    -1.0667277025     0.0689661768
| 35>  H        2.7358053661     0.3608380078    -1.9910731769
| 36>  H        2.5503017885     1.7811127867    -0.9507321535
| 37>  H        4.8434057696     1.6106318311    -1.8088610780
| 38>  H        4.8454315675     1.4594802917    -0.0644547535
| 39>  H        6.2804388050    -2.3201942596    -1.2796156687
| 40> *
| 41>
| 42>                          ****END OF INPUT****
 Total Charge           Charge          ....    1
 Multiplicity           Mult            ....    1
 Number of Electrons    NEL             ....   46
FINAL SINGLE POINT ENERGY      -250.774474615486
FINAL SINGLE POINT ENERGY      -250.774475295245

CARTESIAN COORDINATES (ANGSTROEM)
---------------------------------
  N     -0.000499    0.000822    2.568070
  C      0.504584    0.000245    1.148488
  C     -0.267079    0.987917    0.303576
  C      0.132815    0.868392   -1.171896
  C     -0.101728   -0.466220   -1.696928
  C     -0.303104   -1.577910   -2.101015
  H      0.510224   -0.665339    3.151304
  H     -0.990794   -0.252355    2.599356
  H      0.091983    0.925342    2.994826
  H      1.568846    0.235173    1.197382
  H      0.384703   -1.017110    0.772391
  H     -1.341103    0.790702    0.390791
  H     -0.084332    2.012232    0.643367
  H     -0.441172    1.598823   -1.748234
  H      1.186920    1.137313   -1.299366
  H     -0.479262   -2.552196   -2.496903

FINAL SINGLE POINT ENERGY      -250.774475493656
                    ***********************HURRAY********************
 Multiplicity           Mult            ....    1
 Number of Electrons    NEL             ....   46
 Basis Dimension        Dim             ....  246
FINAL SINGLE POINT ENERGY      -250.774475572322

VIBRATIONAL FREQUENCIES
-----------------------

   0:         0.00 cm**-1
   1:         0.00 cm**-1
   2:         0.00 cm**-1
   3:         0.00 cm**-1
   4:         0.00 cm**-1
   5:         0.00 cm**-1
   6:        75.13 cm**-1
   7:       107.35 cm**-1
   8:       195.02 cm**-1
   9:       228.03 cm**-1
  10:       260.90 cm**-1
  11:       351.47 cm**-1
  12:       387.25 cm**-1
  13:       573.69 cm**-1
  14:       705.00 cm**-1
  15:       727.59 cm**-1
  16:       769.36 cm**-1
  17:       840.92 cm**-1
  18:       870.27 cm**-1
  19:       942.22 cm**-1
  20:       956.01 cm**-1
  21:       985.54 cm**-1
  22:      1061.93 cm**-1
  23:      1125.71 cm**-1
  24:      1136.75 cm**-1
  25:      1252.97 cm**-1
  26:      1297.94 cm**-1
  27:      1347.38 cm**-1
  28:      1355.58 cm**-1
  29:      1367.28 cm**-1
  30:      1417.36 cm**-1
  31:      1467.51 cm**-1
  32:      1481.79 cm**-1
  33:      1503.04 cm**-1
  34:      1510.82 cm**-1
  35:      1658.98 cm**-1
  36:      1664.38 cm**-1
  37:      2243.36 cm**-1
  38:      3046.28 cm**-1
  39:      3057.09 cm**-1
  40:      3095.72 cm**-1
  41:      3096.89 cm**-1
  42:      3105.18 cm**-1
  43:      3157.63 cm**-1
  44:      3420.66 cm**-1
  45:      3465.24 cm**-1
  46:      3501.22 cm**-1
  47:      3506.79 cm**-1

IR SPECTRUM
-----------

 Mode    freq (cm**-1)   T**2         TX         TY         TZ
-------------------------------------------------------------------
   6:        75.13    8.040806  ( -1.248286  -1.948141  -1.639309)
   7:       107.35    3.170056  (  0.234541  -1.052457  -1.416821)
   8:       195.02    0.444504  ( -0.233498   0.369811  -0.503213)
   9:       228.03    0.128297  ( -0.046237   0.349604  -0.062741)
  10:       260.90    3.878018  ( -1.409285   1.254770   0.563459)
  11:       351.47   14.537282  ( -3.222222   0.801935  -1.873892)
  12:       387.25   19.830578  ( -0.477224  -1.012519   4.310179)
  13:       573.69    4.089445  ( -0.849063   0.414690   1.787895)
  14:       705.00   45.380944  (  6.188504  -2.000576   1.755294)
  15:       727.59   41.052023  (  2.274423   2.577329  -5.407069)
  16:       769.36    6.935668  ( -1.600688  -1.755154  -1.137057)
  17:       840.92    5.528065  (  0.865871  -0.464433   2.136032)
  18:       870.27    5.364498  (  0.924152   2.018361  -0.660804)
  19:       942.22   10.676071  (  0.750906  -1.890403   2.557066)
  20:       956.01    7.653403  (  1.968464  -0.062433   1.942847)
  21:       985.54    4.283561  (  1.318065  -1.308045  -0.913939)
  22:      1061.93    5.435921  ( -0.807198   1.114291   1.882209)
  23:      1125.71    5.313213  ( -2.266794  -0.303073  -0.288105)
  24:      1136.75   14.857755  (  1.061971  -2.180955   2.995565)
  25:      1252.97    1.909849  (  1.257217   0.268108   0.507320)
  26:      1297.94    2.138125  ( -0.353072  -0.724260  -1.220210)
  27:      1347.38    4.140160  (  1.122955   0.992408   1.376321)
  28:      1355.58    3.387982  (  1.509359   0.887032   0.568325)
  29:      1367.28   10.780661  (  0.756570   2.573182   1.893937)
  30:      1417.36    4.258938  ( -0.614847  -0.799831   1.800325)
  31:      1467.51   12.145840  ( -1.526605  -1.797327   2.566112)
  32:      1481.79    0.376324  ( -0.144178  -0.482466   0.350376)
  33:      1503.04   20.728826  ( -1.272633   2.838898  -3.324138)
  34:      1510.82  142.939876  ( -4.413201   0.805934  11.082148)
  35:      1658.98   50.553207  ( -4.349439  -5.471123  -1.304761)
  36:      1664.38   37.614267  ( -4.529772   3.559376  -2.103871)
  37:      2243.36    0.633522  (  0.092411   0.212402   0.761490)
  38:      3046.28   12.822196  ( -1.461566   1.830536   2.708350)
  39:      3057.09    2.983467  ( -1.433802  -0.802681   0.532337)
  40:      3095.72    2.414479  (  0.605725  -1.162033   0.835019)
  41:      3096.89    7.919073  ( -1.561362  -1.983096  -1.244409)
  42:      3105.18    1.735928  (  1.061496   0.773669   0.102912)
  43:      3157.63    0.939129  (  0.532255   0.155556  -0.794755)
  44:      3420.66   46.840663  (  1.652281   0.109185  -6.640686)
  45:      3465.24   87.356527  (  1.510383   8.350997   3.916135)
  46:      3501.22   92.755324  ( -6.823719  -6.244548  -2.682872)
  47:      3506.79  100.685132  ( -6.049251   7.582985  -2.567105)

--------------------------
THERMOCHEMISTRY AT 298.15K
--------------------------

Temperature         ... 298.15 K
Pressure            ... 1.00 atm
Total Mass          ... 84.14 AMU

Throughout the following assumptions are being made:
  (1) The electronic state is orbitally nondegenerate
  (2) There are no thermally accessible electronically excited states
  (3) Hindered rotations indicated by low frequency modes) are not
      treated as such but are treated as vibrations and this may
      case some error
  (4) All equations used are the standard statistical mechanics
      equations for an ideal gas
  (5) All vibrations are strinctly harmonic

------------
INNER ENERGY
------------

The inner energy is: U= E(el) + E(ZPE) + E(vib) + E(rot) + E(trans)
    E(el)   - is the total energy from the electronic structure calculation
              = E(kin-el) + E(nuc-el) + E(el-el) + E(nuc-nuc)
    E(ZPE)  - the the zero temperature vibrational energy from the frequency calculation
    E(vib)  - the the finite temperature correction to E(ZPE) due to population
              of excietd vibrational states
    E(rot)  - is the rotational thermal energy
    E(trans)- is the translational thermal energy

Summary of contributions to the inner energy U:
Electronic energy                ...   -250.77447557 Eh
Zero point energy                ...      0.14653449 Eh      91.95 kcal/mol
Thermal vibrational correction   ...      0.00463288 Eh       2.91 kcal/mol
Thermal rotational correction    ...      0.00141627 Eh       0.89 kcal/mol
Thermal translational correction ...      0.00141627 Eh       0.89 kcal/mol
-----------------------------------------------------------------------
Total thermal energy                   -250.62047567 Eh

Summary of corrections to the electronic energy:
(perhaps to be used in another calculation)
Total thermal correction                  0.00746542 Eh       4.68 kcal/mol
Non-thermal (ZPE) correction              0.14653449 Eh      91.95 kcal/mol
-----------------------------------------------------------------------
Total correction                          0.15399990 Eh      96.64 kcal/mol

--------
ENTHALPY
--------

The enthalpy is H = U + kB*T
                kB is Boltzmann's constant
Total free energy                 ...   -250.62047567 Eh
Thermal Enthalpy correction       ...      0.00094421 Eh       0.59 kcal/mol
-----------------------------------------------------------------------
Total Enthalpy                    ...   -250.61953146 Eh

-------
ENTROPY
-------

The entropy contributions are T*S = T*(S(el)+S(vib)+S(rot)+S(trans)
     S(el)   - electronic entropy
     S(vib)  - vibrational entropy
     S(rot)  - rotational entropy
     S(trans)- translational entropy
The entropies will be listed as mutliplied by the temperature to get
units of energy

Electronic entropy                ...      0.00000000 Eh      0.00 kcal/mol
Vibrational entropy               ...      0.00835555 Eh      5.24 kcal/mol
Rotational entropy                ...      0.01188038 Eh      7.46 kcal/mol
Translational entropy             ...      0.01862670 Eh     11.69 kcal/mol
-----------------------------------------------------------------------
Final entropy term                ...      0.03886263 Eh     24.39 kcal/mol

CAUTION: The rotational entropy is not quite correctly treated here
         because it includes a symmetry number that is not yet correctly
         implemented in ORCA!
For a nonlinear molecule the correct rotational entropy is:
    S(rot) = R*(ln(qrot/sn)+1.5)
    R    = 8.31441 J/mol/K = 1.987191683e-3 kcal/mol/K
    qrot = 195116.5030874
    sn is the rotational symmetry number. We have assumed 3 here
       if it is different for your molecule then you should correct
       the printed rotational entropy by manually evaluating the equation
       as given above

For convenience we print out the resulting values for sn=1 - 12:
 sn= 1  qrot/sn=  195116.5031 T*S(rot)=     8.11 kcal/mol T*S(tot)=    25.04 kcal/mol
 sn= 2  qrot/sn=   97558.2515 T*S(rot)=     7.70 kcal/mol T*S(tot)=    24.63 kcal/mol
 sn= 3  qrot/sn=   65038.8344 T*S(rot)=     7.46 kcal/mol T*S(tot)=    24.39 kcal/mol
 sn= 4  qrot/sn=   48779.1258 T*S(rot)=     7.28 kcal/mol T*S(tot)=    24.22 kcal/mol
 sn= 5  qrot/sn=   39023.3006 T*S(rot)=     7.15 kcal/mol T*S(tot)=    24.08 kcal/mol
 sn= 6  qrot/sn=   32519.4172 T*S(rot)=     7.04 kcal/mol T*S(tot)=    23.98 kcal/mol
 sn= 7  qrot/sn=   27873.7862 T*S(rot)=     6.95 kcal/mol T*S(tot)=    23.88 kcal/mol
 sn= 8  qrot/sn=   24389.5629 T*S(rot)=     6.87 kcal/mol T*S(tot)=    23.81 kcal/mol
 sn= 9  qrot/sn=   21679.6115 T*S(rot)=     6.80 kcal/mol T*S(tot)=    23.74 kcal/mol
 sn=10  qrot/sn=   19511.6503 T*S(rot)=     6.74 kcal/mol T*S(tot)=    23.67 kcal/mol
 sn=11  qrot/sn=   17737.8639 T*S(rot)=     6.69 kcal/mol T*S(tot)=    23.62 kcal/mol
 sn=12  qrot/sn=   16259.7086 T*S(rot)=     6.63 kcal/mol T*S(tot)=    23.57 kcal/mol

-------------------
GIBBS FREE ENTHALPY
-------------------

The Gibbs free enthalpy is G = H - T*S

Total enthalpy                    ...   -250.61953146 Eh
Total entropy correction          ...     -0.03886263 Eh    -24.39 kcal/mol
-----------------------------------------------------------------------
Final Gibbs free enthalpy         ...   -250.65839409 Eh

For completeness - the Gibbs free enthalpy minus the electronic energy
G-E(el)                           ...      0.11608148 Eh     72.84 kcal/mol

                             ****ORCA TERMINATED NORMALLY****
TOTAL RUN TIME: 0 days 0 hours 15 minutes 52 seconds 400 msec
