                         Program Version 3.0.3 - RELEASE   -
|  1> ! NORI PBE0 def2-TZVP UseSym TightOPT Freq TightSCF Grid3 FinalGrid5 XYZFile
|  2> % pal
|  3>     nprocs 8
|  4> end
|  5> %method
|  6>     SymThresh 5.0e-2
|  7> end
|  8> % geom
|  9>     MaxIter 10
| 10> end
| 11> % maxcore 2000
| 12> % output
| 13>     printlevel mini
| 14>     print[ P_Basis ] 0
| 15>     print[ P_SCFInfo ] 1
| 16>     print[ P_SCFIterInfo ] 1
| 17>     print[ P_OrbEn ] 0
| 18>     print[ P_Cartesian ] 0
| 19> end
| 20> % elprop
| 21>     Dipole false
| 22> end
| 23> *xyz 1 1
| 24>  N        3.2579837245     1.8037097147    -1.6264619183
| 25>  C        3.4340615465     1.0267078730    -0.8003004774
| 26>  C        3.6765144580     0.0118703681     0.2110811772
| 27>  N        4.4158942079    -1.1213084778    -0.3842081644
| 28>  C        4.2888084413    -2.4958535857     0.1552478767
| 29>  C        3.7156087407    -2.1720563189    -1.1601129272
| 30>  H        2.7330529919    -0.3654549626     0.6112587354
| 31>  H        4.2671284549     0.4160848350     1.0368219633
| 32>  H        5.3359277566    -0.8671957881    -0.7344996621
| 33>  H        5.2226087512    -3.0398407686     0.2169547494
| 34>  H        3.6361420169    -2.5697067076     1.0162492503
| 35>  H        4.2293022806    -2.4793505730    -2.0617569870
| 36>  H        2.6488766290    -2.0084256085    -1.2521836160
| 37> *
| 38>
| 39>                          ****END OF INPUT****
 Total Charge           Charge          ....    1
 Multiplicity           Mult            ....    1
 Number of Electrons    NEL             ....   44
FINAL SINGLE POINT ENERGY      -265.595376619673

CARTESIAN COORDINATES (ANGSTROEM)
---------------------------------
  N      0.000297   -0.000117    2.627520
  C     -0.101767   -0.430202    1.568324
  C     -0.209767   -0.932705    0.209252
  N      0.457150   -0.000096   -0.723773
  C      0.029202    0.116535   -2.138096
  C     -0.226106    1.224053   -1.204666
  H     -1.257816   -1.022882   -0.085274
  H      0.262785   -1.913614    0.116379
  H      1.454704    0.100858   -0.553892
  H      0.844341    0.186485   -2.847326
  H     -0.780901   -0.549873   -2.406938
  H      0.401607    2.105689   -1.230247
  H     -1.219643    1.358636   -0.794833

FINAL SINGLE POINT ENERGY      -265.595376993717
                    ***********************HURRAY********************
 Multiplicity           Mult            ....    1
 Number of Electrons    NEL             ....   44
 Basis Dimension        Dim             ....  228
FINAL SINGLE POINT ENERGY      -265.595377078647

VIBRATIONAL FREQUENCIES
-----------------------

   0:         0.00 cm**-1
   1:         0.00 cm**-1
   2:         0.00 cm**-1
   3:         0.00 cm**-1
   4:         0.00 cm**-1
   5:         0.00 cm**-1
   6:        71.03 cm**-1
   7:       147.60 cm**-1
   8:       326.83 cm**-1
   9:       352.71 cm**-1
  10:       366.67 cm**-1
  11:       540.16 cm**-1
  12:       779.88 cm**-1
  13:       822.88 cm**-1
  14:       870.71 cm**-1
  15:       941.16 cm**-1
  16:       962.38 cm**-1
  17:      1007.06 cm**-1
  18:      1035.38 cm**-1
  19:      1150.42 cm**-1
  20:      1153.29 cm**-1
  21:      1181.91 cm**-1
  22:      1187.06 cm**-1
  23:      1212.39 cm**-1
  24:      1275.61 cm**-1
  25:      1310.55 cm**-1
  26:      1378.88 cm**-1
  27:      1462.37 cm**-1
  28:      1472.24 cm**-1
  29:      1480.69 cm**-1
  30:      1519.57 cm**-1
  31:      2403.67 cm**-1
  32:      3087.35 cm**-1
  33:      3139.96 cm**-1
  34:      3170.48 cm**-1
  35:      3172.01 cm**-1
  36:      3268.06 cm**-1
  37:      3278.07 cm**-1
  38:      3526.09 cm**-1

IR SPECTRUM
-----------

 Mode    freq (cm**-1)   T**2         TX         TY         TZ
-------------------------------------------------------------------
   6:        71.03    7.465799  ( -1.785132   2.020241  -0.444666)
   7:       147.60   10.158145  (  1.763155   1.555497  -2.151710)
   8:       326.83    0.515003  ( -0.223227   0.204988  -0.650502)
   9:       352.71    1.122945  (  0.567163   0.764631   0.465415)
  10:       366.67    0.325461  (  0.053467   0.507440   0.255159)
  11:       540.16    4.587541  (  0.040367   0.658892  -2.037590)
  12:       779.88    0.390487  ( -0.168289  -0.503114   0.330214)
  13:       822.88    8.453573  (  2.442317  -1.252522   0.959088)
  14:       870.71    3.937631  ( -1.620572   1.079739   0.381500)
  15:       941.16    7.812040  (  0.313554   0.982804   2.597657)
  16:       962.38   16.049573  (  0.536327  -3.778014   1.220057)
  17:      1007.06   21.373298  ( -0.215146   2.271498   4.020859)
  18:      1035.38   50.305737  (  1.064917  -3.471673   6.092551)
  19:      1150.42    2.801031  (  0.170705   1.273155   1.072832)
  20:      1153.29   11.517272  ( -1.412447   1.844687   2.473741)
  21:      1181.91    1.288339  (  0.285333   1.075348   0.224835)
  22:      1187.06    1.368943  (  0.588748   0.275421  -0.972863)
  23:      1212.39    9.689064  (  0.829251  -2.141593  -2.101187)
  24:      1275.61   16.940193  ( -0.877386   1.991437  -3.493503)
  25:      1310.55    5.288397  (  2.268172   0.273185   0.262983)
  26:      1378.88    6.357000  ( -0.779404  -0.853137  -2.240912)
  27:      1462.37   21.777841  (  1.851834   3.795502   1.985628)
  28:      1472.24   38.510546  (  1.085346  -2.529897   5.561672)
  29:      1480.69   14.334362  ( -1.160236   2.680546   2.408919)
  30:      1519.57    9.997226  ( -1.026366  -2.093254   2.135905)
  31:      2403.67    9.102628  (  0.029992  -0.531251  -2.969764)
  32:      3087.35    2.802601  ( -0.361424  -1.631099   0.107187)
  33:      3139.96    6.362624  ( -2.156368   1.288629   0.228335)
  34:      3170.48    8.242965  ( -0.532275   2.131999   1.847763)
  35:      3172.01    4.408907  ( -0.517961   1.361550  -1.512218)
  36:      3268.06    0.012920  (  0.043152   0.061215   0.085501)
  37:      3278.07   18.512642  ( -3.786872  -1.726584   1.091399)
  38:      3526.09  110.088653  (-10.251328  -0.140112  -2.231436)

--------------------------
THERMOCHEMISTRY AT 298.15K
--------------------------

Temperature         ... 298.15 K
Pressure            ... 1.00 atm
Total Mass          ... 83.11 AMU

Throughout the following assumptions are being made:
  (1) The electronic state is orbitally nondegenerate
  (2) There are no thermally accessible electronically excited states
  (3) Hindered rotations indicated by low frequency modes) are not
      treated as such but are treated as vibrations and this may
      case some error
  (4) All equations used are the standard statistical mechanics
      equations for an ideal gas
  (5) All vibrations are strinctly harmonic

------------
INNER ENERGY
------------

The inner energy is: U= E(el) + E(ZPE) + E(vib) + E(rot) + E(trans)
    E(el)   - is the total energy from the electronic structure calculation
              = E(kin-el) + E(nuc-el) + E(el-el) + E(nuc-nuc)
    E(ZPE)  - the the zero temperature vibrational energy from the frequency calculation
    E(vib)  - the the finite temperature correction to E(ZPE) due to population
              of excietd vibrational states
    E(rot)  - is the rotational thermal energy
    E(trans)- is the translational thermal energy

Summary of contributions to the inner energy U:
Electronic energy                ...   -265.59537708 Eh
Zero point energy                ...      0.11175579 Eh      70.13 kcal/mol
Thermal vibrational correction   ...      0.00324265 Eh       2.03 kcal/mol
Thermal rotational correction    ...      0.00141627 Eh       0.89 kcal/mol
Thermal translational correction ...      0.00141627 Eh       0.89 kcal/mol
-----------------------------------------------------------------------
Total thermal energy                   -265.47754609 Eh

Summary of corrections to the electronic energy:
(perhaps to be used in another calculation)
Total thermal correction                  0.00607520 Eh       3.81 kcal/mol
Non-thermal (ZPE) correction              0.11175579 Eh      70.13 kcal/mol
-----------------------------------------------------------------------
Total correction                          0.11783099 Eh      73.94 kcal/mol

--------
ENTHALPY
--------

The enthalpy is H = U + kB*T
                kB is Boltzmann's constant
Total free energy                 ...   -265.47754609 Eh
Thermal Enthalpy correction       ...      0.00094421 Eh       0.59 kcal/mol
-----------------------------------------------------------------------
Total Enthalpy                    ...   -265.47660188 Eh

-------
ENTROPY
-------

The entropy contributions are T*S = T*(S(el)+S(vib)+S(rot)+S(trans)
     S(el)   - electronic entropy
     S(vib)  - vibrational entropy
     S(rot)  - rotational entropy
     S(trans)- translational entropy
The entropies will be listed as mutliplied by the temperature to get
units of energy

Electronic entropy                ...      0.00000000 Eh      0.00 kcal/mol
Vibrational entropy               ...      0.00581622 Eh      3.65 kcal/mol
Rotational entropy                ...      0.01151152 Eh      7.22 kcal/mol
Translational entropy             ...      0.01860929 Eh     11.68 kcal/mol
-----------------------------------------------------------------------
Final entropy term                ...      0.03593703 Eh     22.55 kcal/mol

CAUTION: The rotational entropy is not quite correctly treated here
         because it includes a symmetry number that is not yet correctly
         implemented in ORCA!
For a nonlinear molecule the correct rotational entropy is:
    S(rot) = R*(ln(qrot/sn)+1.5)
    R    = 8.31441 J/mol/K = 1.987191683e-3 kcal/mol/K
    qrot = 132016.7572644
    sn is the rotational symmetry number. We have assumed 3 here
       if it is different for your molecule then you should correct
       the printed rotational entropy by manually evaluating the equation
       as given above

For convenience we print out the resulting values for sn=1 - 12:
 sn= 1  qrot/sn=  132016.7573 T*S(rot)=     7.87 kcal/mol T*S(tot)=    23.20 kcal/mol
 sn= 2  qrot/sn=   66008.3786 T*S(rot)=     7.46 kcal/mol T*S(tot)=    22.79 kcal/mol
 sn= 3  qrot/sn=   44005.5858 T*S(rot)=     7.22 kcal/mol T*S(tot)=    22.55 kcal/mol
 sn= 4  qrot/sn=   33004.1893 T*S(rot)=     7.05 kcal/mol T*S(tot)=    22.38 kcal/mol
 sn= 5  qrot/sn=   26403.3515 T*S(rot)=     6.92 kcal/mol T*S(tot)=    22.25 kcal/mol
 sn= 6  qrot/sn=   22002.7929 T*S(rot)=     6.81 kcal/mol T*S(tot)=    22.14 kcal/mol
 sn= 7  qrot/sn=   18859.5368 T*S(rot)=     6.72 kcal/mol T*S(tot)=    22.05 kcal/mol
 sn= 8  qrot/sn=   16502.0947 T*S(rot)=     6.64 kcal/mol T*S(tot)=    21.97 kcal/mol
 sn= 9  qrot/sn=   14668.5286 T*S(rot)=     6.57 kcal/mol T*S(tot)=    21.90 kcal/mol
 sn=10  qrot/sn=   13201.6757 T*S(rot)=     6.51 kcal/mol T*S(tot)=    21.84 kcal/mol
 sn=11  qrot/sn=   12001.5234 T*S(rot)=     6.45 kcal/mol T*S(tot)=    21.78 kcal/mol
 sn=12  qrot/sn=   11001.3964 T*S(rot)=     6.40 kcal/mol T*S(tot)=    21.73 kcal/mol

-------------------
GIBBS FREE ENTHALPY
-------------------

The Gibbs free enthalpy is G = H - T*S

Total enthalpy                    ...   -265.47660188 Eh
Total entropy correction          ...     -0.03593703 Eh    -22.55 kcal/mol
-----------------------------------------------------------------------
Final Gibbs free enthalpy         ...   -265.51253891 Eh

For completeness - the Gibbs free enthalpy minus the electronic energy
G-E(el)                           ...      0.08283817 Eh     51.98 kcal/mol

                             ****ORCA TERMINATED NORMALLY****
TOTAL RUN TIME: 0 days 0 hours 12 minutes 20 seconds 682 msec
