                         Program Version 3.0.3 - RELEASE   -
|  1> ! NORI PBE0 def2-TZVP UseSym TightOPT Freq TightSCF Grid3 FinalGrid5 XYZFile
|  2> % pal
|  3>     nprocs 8
|  4> end
|  5> %method
|  6>     SymThresh 5.0e-2
|  7> end
|  8> % geom
|  9>     MaxIter 10
| 10> end
| 11> % maxcore 2000
| 12> % output
| 13>     printlevel mini
| 14>     print[ P_Basis ] 0
| 15>     print[ P_SCFInfo ] 1
| 16>     print[ P_SCFIterInfo ] 1
| 17>     print[ P_OrbEn ] 0
| 18>     print[ P_Cartesian ] 0
| 19> end
| 20> % elprop
| 21>     Dipole false
| 22> end
| 23> *xyz 1 1
| 24>  N        1.7954418659     0.3039948316     1.1479428745
| 25>  C        2.5956133810    -0.0053316786     0.0409927808
| 26>  N        2.4214010092    -0.9920501670    -0.6778261264
| 27>  C        3.7670416855     1.0906971099     0.0262946441
| 28>  C        3.6164999290     1.3982683987     1.4159421381
| 29>  C        2.3353274375     1.3141677485     1.8650008592
| 30>  H        1.0058611984    -0.2786638163     1.4141742890
| 31>  H        2.9709971628    -1.1043755124    -1.5236741780
| 32>  H        3.4013080943     1.8769019929    -0.6513078523
| 33>  H        4.7197797950     0.6847902861    -0.3044219314
| 34>  H        1.8155884412     1.8355308066     2.6581925024
| 35> *
| 36>
| 37>                          ****END OF INPUT****
 Total Charge           Charge          ....    1
 Multiplicity           Mult            ....    1
 Number of Electrons    NEL             ....   42
FINAL SINGLE POINT ENERGY      -264.302244779343

CARTESIAN COORDINATES (ANGSTROEM)
---------------------------------
  N      0.000003   -0.000126    1.095132
  C      0.738094   -0.096810   -0.091149
  N      1.966269   -0.000121   -0.145333
  C     -0.341650   -0.229538   -1.270208
  C     -1.392274    0.353956   -0.492914
  C     -1.324433    0.063757    0.834267
  H      0.452306    0.148337    1.993588
  H      2.449352   -0.181186   -1.019594
  H     -0.446765   -1.313412   -1.427783
  H     -0.037334    0.282501   -2.179821
  H     -2.093136   -0.029290    1.590362

FINAL SINGLE POINT ENERGY      -264.302244892477
                    ***********************HURRAY********************
 Multiplicity           Mult            ....    1
 Number of Electrons    NEL             ....   42
 Basis Dimension        Dim             ....  216
FINAL SINGLE POINT ENERGY      -264.302244929136

VIBRATIONAL FREQUENCIES
-----------------------

   0:         0.00 cm**-1
   1:         0.00 cm**-1
   2:         0.00 cm**-1
   3:         0.00 cm**-1
   4:         0.00 cm**-1
   5:         0.00 cm**-1
   6:       185.49 cm**-1
   7:       374.57 cm**-1
   8:       419.91 cm**-1
   9:       498.90 cm**-1
  10:       549.60 cm**-1
  11:       621.47 cm**-1
  12:       693.41 cm**-1
  13:       787.40 cm**-1
  14:       801.67 cm**-1
  15:       862.32 cm**-1
  16:       920.57 cm**-1
  17:       950.11 cm**-1
  18:      1027.76 cm**-1
  19:      1045.79 cm**-1
  20:      1103.31 cm**-1
  21:      1165.22 cm**-1
  22:      1228.84 cm**-1
  23:      1328.23 cm**-1
  24:      1395.85 cm**-1
  25:      1442.36 cm**-1
  26:      1535.00 cm**-1
  27:      1842.03 cm**-1
  28:      3030.73 cm**-1
  29:      3178.69 cm**-1
  30:      3253.32 cm**-1
  31:      3543.23 cm**-1
  32:      3574.12 cm**-1

IR SPECTRUM
-----------

 Mode    freq (cm**-1)   T**2         TX         TY         TZ
-------------------------------------------------------------------
   6:       185.49    1.018842  ( -0.968798   0.065546   0.275639)
   7:       374.57   49.478640  (  1.153235  -5.203715   4.590211)
   8:       419.91   40.935158  ( -0.018671  -5.115334   3.842937)
   9:       498.90   41.415047  (  6.216756  -0.836367  -1.437874)
  10:       549.60   76.138930  ( -5.291781   5.839522  -3.746461)
  11:       621.47   25.271832  (  2.034804  -4.596740  -0.037210)
  12:       693.41   48.164973  (  2.601803  -5.900966   2.564020)
  13:       787.40   37.061431  (  0.485264  -6.067267   0.119229)
  14:       801.67   75.388045  (  5.707726   6.376170  -1.467776)
  15:       862.32   36.385289  ( -3.096085   1.134874   5.050902)
  16:       920.57   47.735465  (  6.724545   1.134263   1.108783)
  17:       950.11  260.419501  (-15.994423  -0.709339  -2.023556)
  18:      1027.76   16.881483  (  0.562180   4.051019   0.393291)
  19:      1045.79   20.414989  ( -2.861684   2.510238  -2.434021)
  20:      1103.31   22.069339  ( -4.376426  -0.764743  -1.526892)
  21:      1165.22   10.820105  (  1.966234  -0.691693   2.544718)
  22:      1228.84    7.000982  ( -2.538567  -0.638648   0.385733)
  23:      1328.23   14.618733  ( -3.332746   1.774813  -0.601308)
  24:      1395.85   72.470422  (  7.945475  -2.135528   2.186177)
  25:      1442.36   19.407497  (  0.679004  -2.474995  -3.580622)
  26:      1535.00   24.284456  ( -2.713937  -1.233132   3.924078)
  27:      1842.03  130.746412  (-11.384517  -0.370180   1.001071)
  28:      3030.73   32.816084  ( -0.029520   4.559477   3.467908)
  29:      3178.69    7.795659  (  0.118707   2.681915  -0.767399)
  30:      3253.32   48.344710  ( -4.544870  -0.679843   5.217919)
  31:      3543.23  196.901677  ( -4.251888  -0.897165 -13.342347)
  32:      3574.12  161.750383  ( 11.158705  -1.398492  -5.939520)

--------------------------
THERMOCHEMISTRY AT 298.15K
--------------------------

Temperature         ... 298.15 K
Pressure            ... 1.00 atm
Total Mass          ... 81.10 AMU

Throughout the following assumptions are being made:
  (1) The electronic state is orbitally nondegenerate
  (2) There are no thermally accessible electronically excited states
  (3) Hindered rotations indicated by low frequency modes) are not
      treated as such but are treated as vibrations and this may
      case some error
  (4) All equations used are the standard statistical mechanics
      equations for an ideal gas
  (5) All vibrations are strinctly harmonic

------------
INNER ENERGY
------------

The inner energy is: U= E(el) + E(ZPE) + E(vib) + E(rot) + E(trans)
    E(el)   - is the total energy from the electronic structure calculation
              = E(kin-el) + E(nuc-el) + E(el-el) + E(nuc-nuc)
    E(ZPE)  - the the zero temperature vibrational energy from the frequency calculation
    E(vib)  - the the finite temperature correction to E(ZPE) due to population
              of excietd vibrational states
    E(rot)  - is the rotational thermal energy
    E(trans)- is the translational thermal energy

Summary of contributions to the inner energy U:
Electronic energy                ...   -264.30224493 Eh
Zero point energy                ...      0.08511206 Eh      53.41 kcal/mol
Thermal vibrational correction   ...      0.00235686 Eh       1.48 kcal/mol
Thermal rotational correction    ...      0.00141627 Eh       0.89 kcal/mol
Thermal translational correction ...      0.00141627 Eh       0.89 kcal/mol
-----------------------------------------------------------------------
Total thermal energy                   -264.21194347 Eh

Summary of corrections to the electronic energy:
(perhaps to be used in another calculation)
Total thermal correction                  0.00518941 Eh       3.26 kcal/mol
Non-thermal (ZPE) correction              0.08511206 Eh      53.41 kcal/mol
-----------------------------------------------------------------------
Total correction                          0.09030146 Eh      56.66 kcal/mol

--------
ENTHALPY
--------

The enthalpy is H = U + kB*T
                kB is Boltzmann's constant
Total free energy                 ...   -264.21194347 Eh
Thermal Enthalpy correction       ...      0.00094421 Eh       0.59 kcal/mol
-----------------------------------------------------------------------
Total Enthalpy                    ...   -264.21099926 Eh

-------
ENTROPY
-------

The entropy contributions are T*S = T*(S(el)+S(vib)+S(rot)+S(trans)
     S(el)   - electronic entropy
     S(vib)  - vibrational entropy
     S(rot)  - rotational entropy
     S(trans)- translational entropy
The entropies will be listed as mutliplied by the temperature to get
units of energy

Electronic entropy                ...      0.00000000 Eh      0.00 kcal/mol
Vibrational entropy               ...      0.00350017 Eh      2.20 kcal/mol
Rotational entropy                ...      0.01116382 Eh      7.01 kcal/mol
Translational entropy             ...      0.01857452 Eh     11.66 kcal/mol
-----------------------------------------------------------------------
Final entropy term                ...      0.03323851 Eh     20.86 kcal/mol

CAUTION: The rotational entropy is not quite correctly treated here
         because it includes a symmetry number that is not yet correctly
         implemented in ORCA!
For a nonlinear molecule the correct rotational entropy is:
    S(rot) = R*(ln(qrot/sn)+1.5)
    R    = 8.31441 J/mol/K = 1.987191683e-3 kcal/mol/K
    qrot = 91347.9754140
    sn is the rotational symmetry number. We have assumed 3 here
       if it is different for your molecule then you should correct
       the printed rotational entropy by manually evaluating the equation
       as given above

For convenience we print out the resulting values for sn=1 - 12:
 sn= 1  qrot/sn=   91347.9754 T*S(rot)=     7.66 kcal/mol T*S(tot)=    21.51 kcal/mol
 sn= 2  qrot/sn=   45673.9877 T*S(rot)=     7.25 kcal/mol T*S(tot)=    21.10 kcal/mol
 sn= 3  qrot/sn=   30449.3251 T*S(rot)=     7.01 kcal/mol T*S(tot)=    20.86 kcal/mol
 sn= 4  qrot/sn=   22836.9939 T*S(rot)=     6.83 kcal/mol T*S(tot)=    20.69 kcal/mol
 sn= 5  qrot/sn=   18269.5951 T*S(rot)=     6.70 kcal/mol T*S(tot)=    20.55 kcal/mol
 sn= 6  qrot/sn=   15224.6626 T*S(rot)=     6.59 kcal/mol T*S(tot)=    20.45 kcal/mol
 sn= 7  qrot/sn=   13049.7108 T*S(rot)=     6.50 kcal/mol T*S(tot)=    20.36 kcal/mol
 sn= 8  qrot/sn=   11418.4969 T*S(rot)=     6.42 kcal/mol T*S(tot)=    20.28 kcal/mol
 sn= 9  qrot/sn=   10149.7750 T*S(rot)=     6.35 kcal/mol T*S(tot)=    20.21 kcal/mol
 sn=10  qrot/sn=    9134.7975 T*S(rot)=     6.29 kcal/mol T*S(tot)=    20.14 kcal/mol
 sn=11  qrot/sn=    8304.3614 T*S(rot)=     6.24 kcal/mol T*S(tot)=    20.09 kcal/mol
 sn=12  qrot/sn=    7612.3313 T*S(rot)=     6.18 kcal/mol T*S(tot)=    20.04 kcal/mol

-------------------
GIBBS FREE ENTHALPY
-------------------

The Gibbs free enthalpy is G = H - T*S

Total enthalpy                    ...   -264.21099926 Eh
Total entropy correction          ...     -0.03323851 Eh    -20.86 kcal/mol
-----------------------------------------------------------------------
Final Gibbs free enthalpy         ...   -264.24423777 Eh

For completeness - the Gibbs free enthalpy minus the electronic energy
G-E(el)                           ...      0.05800716 Eh     36.40 kcal/mol

                             ****ORCA TERMINATED NORMALLY****
TOTAL RUN TIME: 0 days 0 hours 13 minutes 2 seconds 534 msec
