                         Program Version 3.0.3 - RELEASE   -
|  1> ! NORI PBE0 def2-TZVP UseSym TightOPT Freq TightSCF Grid3 FinalGrid5 XYZFile
|  2> % pal
|  3>     nprocs 8
|  4> end
|  5> %method
|  6>     SymThresh 5.0e-2
|  7> end
|  8> % geom
|  9>     MaxIter 10
| 10> end
| 11> % maxcore 2000
| 12> % output
| 13>     printlevel mini
| 14>     print[ P_Basis ] 0
| 15>     print[ P_SCFInfo ] 1
| 16>     print[ P_SCFIterInfo ] 1
| 17>     print[ P_OrbEn ] 0
| 18>     print[ P_Cartesian ] 0
| 19> end
| 20> % elprop
| 21>     Dipole false
| 22> end
| 23> *xyz 1 1
| 24>  C        0.6969236312     1.2410172758    -0.2446159593
| 25>  C       -0.7364701303     1.1595010438     0.2380834915
| 26>  O       -1.3610287676    -0.0006042217    -0.2407347893
| 27>  C       -0.7371627772    -1.1620794380     0.2356618073
| 28>  C        0.6960959705    -1.2434724108    -0.2474230654
| 29>  N        1.4223017539    -0.0019611018     0.1877968405
| 30>  H        0.7428478118     1.2669653796    -1.3341263002
| 31>  H        1.2243696477     2.1032759410     0.1651916445
| 32>  H       -1.2910706434     2.0167565141    -0.1441811898
| 33>  H       -0.7747594738     1.1971142923     1.3382460102
| 34>  H       -0.7752787812    -1.2018803380     1.3357610657
| 35>  H       -1.2924143177    -2.0181992285    -0.1481886207
| 36>  H        1.2230707060    -2.1070336899     0.1602488914
| 37>  H        0.7418075884    -1.2668590158    -1.3370017591
| 38>  H        2.3737025967    -0.0018363307    -0.1827689241
| 39>  H        1.5063751850    -0.0031446714     1.2075908566
| 40> *
| 41>
| 42>                          ****END OF INPUT****
 Total Charge           Charge          ....    1
 Multiplicity           Mult            ....    1
 Number of Electrons    NEL             ....   48
FINAL SINGLE POINT ENERGY      -287.939557743355

CARTESIAN COORDINATES (ANGSTROEM)
---------------------------------
  C     -0.635376   -0.355077    1.242288
  C      0.695011    0.364579    1.160759
  O      1.391332    0.000015   -0.000000
  C      0.695011    0.364579   -1.160759
  C     -0.635376   -0.355077   -1.242288
  N     -1.424161   -0.050931   -0.000000
  H     -0.495345   -1.436402    1.267045
  H     -1.224476   -0.041926    2.105047
  H      1.307055    0.081559    2.017477
  H      0.545552    1.455070    1.199427
  H      0.545552    1.455070   -1.199427
  H      1.307055    0.081559   -2.017477
  H     -1.224476   -0.041926   -2.105047
  H     -0.495345   -1.436402   -1.267045
  H     -2.299018   -0.577494   -0.000000
  H     -1.680051    0.939721   -0.000000

FINAL SINGLE POINT ENERGY      -287.939557887958
                    ***********************HURRAY********************
 Multiplicity           Mult            ....    1
 Number of Electrons    NEL             ....   48
 Basis Dimension        Dim             ....  246
FINAL SINGLE POINT ENERGY      -287.939557919103

VIBRATIONAL FREQUENCIES
-----------------------

   0:         0.00 cm**-1
   1:         0.00 cm**-1
   2:         0.00 cm**-1
   3:         0.00 cm**-1
   4:         0.00 cm**-1
   5:         0.00 cm**-1
   6:       247.35 cm**-1
   7:       251.43 cm**-1
   8:       411.89 cm**-1
   9:       430.67 cm**-1
  10:       476.66 cm**-1
  11:       570.94 cm**-1
  12:       823.60 cm**-1
  13:       840.26 cm**-1
  14:       874.73 cm**-1
  15:       887.11 cm**-1
  16:       908.26 cm**-1
  17:      1024.72 cm**-1
  18:      1034.05 cm**-1
  19:      1064.61 cm**-1
  20:      1071.35 cm**-1
  21:      1174.83 cm**-1
  22:      1188.03 cm**-1
  23:      1202.38 cm**-1
  24:      1256.42 cm**-1
  25:      1320.25 cm**-1
  26:      1337.31 cm**-1
  27:      1339.64 cm**-1
  28:      1376.04 cm**-1
  29:      1408.25 cm**-1
  30:      1415.47 cm**-1
  31:      1432.14 cm**-1
  32:      1436.54 cm**-1
  33:      1475.34 cm**-1
  34:      1481.71 cm**-1
  35:      1488.64 cm**-1
  36:      1494.94 cm**-1
  37:      1647.38 cm**-1
  38:      2996.66 cm**-1
  39:      3000.46 cm**-1
  40:      3100.57 cm**-1
  41:      3101.08 cm**-1
  42:      3140.81 cm**-1
  43:      3142.08 cm**-1
  44:      3164.70 cm**-1
  45:      3165.24 cm**-1
  46:      3432.51 cm**-1
  47:      3491.94 cm**-1

IR SPECTRUM
-----------

 Mode    freq (cm**-1)   T**2         TX         TY         TZ
-------------------------------------------------------------------
   6:       247.35    0.250126  (  0.139451  -0.480291   0.000008)
   7:       251.43    0.017965  (  0.000004  -0.000031  -0.134034)
   8:       411.89   17.979845  ( -3.031221  -2.965054   0.000000)
   9:       430.67    5.759822  (  2.374712  -0.347223   0.000000)
  10:       476.66    0.136188  (  0.000000  -0.000008  -0.369036)
  11:       570.94    2.102804  ( -1.426754   0.259184  -0.000002)
  12:       823.60    1.407976  ( -1.041792  -0.568018  -0.000021)
  13:       840.26    0.732091  ( -0.000041  -0.000032   0.855623)
  14:       874.73   11.142224  (  1.598758   2.930222   0.000006)
  15:       887.11    1.221881  (  0.000016   0.000003  -1.105387)
  16:       908.26   28.556660  ( -5.334979   0.307660  -0.000003)
  17:      1024.72    7.410188  (  2.502260   1.071860  -0.000050)
  18:      1034.05    6.899926  ( -0.000054  -0.000001  -2.626771)
  19:      1064.61    3.470026  (  0.000044  -0.000114  -1.862801)
  20:      1071.35   15.073607  (  1.234532  -3.680970   0.000052)
  21:      1174.83  105.790115  ( -0.000003   0.000002 -10.285432)
  22:      1188.03    2.024011  ( -1.261789   0.657191   0.000046)
  23:      1202.38    3.955641  (  0.000007  -0.000001  -1.988879)
  24:      1256.42   19.144826  ( -0.000006  -0.000005  -4.375480)
  25:      1320.25   19.769180  ( -0.000003  -0.000008   4.446255)
  26:      1337.31    8.891103  (  0.022573   2.981710  -0.000007)
  27:      1339.64    0.235558  ( -0.443021  -0.198218   0.000005)
  28:      1376.04    3.859626  (  0.000004   0.000003   1.964593)
  29:      1408.25    0.956148  ( -0.426927  -0.879705  -0.000043)
  30:      1415.47   40.849253  ( -0.000008  -0.000007  -6.391342)
  31:      1432.14    2.307778  (  1.497509  -0.255434   0.000012)
  32:      1436.54    4.545135  ( -0.000009   0.000005   2.131932)
  33:      1475.34    6.773798  (  0.000134   0.000202   2.602652)
  34:      1481.71    3.003872  ( -0.000008  -0.000012   1.733168)
  35:      1488.64   34.574927  (  3.259357   4.894029  -0.000092)
  36:      1494.94    2.693978  (  0.990335   1.308898  -0.000084)
  37:      1647.38   73.226318  ( -7.735168   3.659713  -0.000000)
  38:      2996.66    7.148563  (  0.000000  -0.000000  -2.673680)
  39:      3000.46   39.055421  ( -1.486440   6.070084  -0.000000)
  40:      3100.57    0.053567  ( -0.000199  -0.000267   0.231445)
  41:      3101.08    0.555747  ( -0.443671  -0.599085  -0.000101)
  42:      3140.81    1.258376  ( -0.000003  -0.000000   1.121774)
  43:      3142.08    1.064841  ( -0.955392  -0.389958  -0.000004)
  44:      3164.70    0.281970  ( -0.000108  -0.000134  -0.531008)
  45:      3165.24    0.182717  ( -0.268687  -0.332452   0.000209)
  46:      3432.51   46.322854  (  6.033696  -3.149186  -0.000000)
  47:      3491.94   78.743675  (  5.330548   7.094289   0.000000)

--------------------------
THERMOCHEMISTRY AT 298.15K
--------------------------

Temperature         ... 298.15 K
Pressure            ... 1.00 atm
Total Mass          ... 88.13 AMU

Throughout the following assumptions are being made:
  (1) The electronic state is orbitally nondegenerate
  (2) There are no thermally accessible electronically excited states
  (3) Hindered rotations indicated by low frequency modes) are not
      treated as such but are treated as vibrations and this may
      case some error
  (4) All equations used are the standard statistical mechanics
      equations for an ideal gas
  (5) All vibrations are strinctly harmonic

------------
INNER ENERGY
------------

The inner energy is: U= E(el) + E(ZPE) + E(vib) + E(rot) + E(trans)
    E(el)   - is the total energy from the electronic structure calculation
              = E(kin-el) + E(nuc-el) + E(el-el) + E(nuc-nuc)
    E(ZPE)  - the the zero temperature vibrational energy from the frequency calculation
    E(vib)  - the the finite temperature correction to E(ZPE) due to population
              of excietd vibrational states
    E(rot)  - is the rotational thermal energy
    E(trans)- is the translational thermal energy

Summary of contributions to the inner energy U:
Electronic energy                ...   -287.93955792 Eh
Zero point energy                ...      0.15065285 Eh      94.54 kcal/mol
Thermal vibrational correction   ...      0.00255667 Eh       1.60 kcal/mol
Thermal rotational correction    ...      0.00141627 Eh       0.89 kcal/mol
Thermal translational correction ...      0.00141627 Eh       0.89 kcal/mol
-----------------------------------------------------------------------
Total thermal energy                   -287.78351586 Eh

Summary of corrections to the electronic energy:
(perhaps to be used in another calculation)
Total thermal correction                  0.00538921 Eh       3.38 kcal/mol
Non-thermal (ZPE) correction              0.15065285 Eh      94.54 kcal/mol
-----------------------------------------------------------------------
Total correction                          0.15604206 Eh      97.92 kcal/mol

--------
ENTHALPY
--------

The enthalpy is H = U + kB*T
                kB is Boltzmann's constant
Total free energy                 ...   -287.78351586 Eh
Thermal Enthalpy correction       ...      0.00094421 Eh       0.59 kcal/mol
-----------------------------------------------------------------------
Total Enthalpy                    ...   -287.78257165 Eh

-------
ENTROPY
-------

The entropy contributions are T*S = T*(S(el)+S(vib)+S(rot)+S(trans)
     S(el)   - electronic entropy
     S(vib)  - vibrational entropy
     S(rot)  - rotational entropy
     S(trans)- translational entropy
The entropies will be listed as mutliplied by the temperature to get
units of energy

Electronic entropy                ...      0.00000000 Eh      0.00 kcal/mol
Vibrational entropy               ...      0.00377970 Eh      2.37 kcal/mol
Rotational entropy                ...      0.01138428 Eh      7.14 kcal/mol
Translational entropy             ...      0.01869229 Eh     11.73 kcal/mol
-----------------------------------------------------------------------
Final entropy term                ...      0.03385627 Eh     21.25 kcal/mol

CAUTION: The rotational entropy is not quite correctly treated here
         because it includes a symmetry number that is not yet correctly
         implemented in ORCA!
For a nonlinear molecule the correct rotational entropy is:
    S(rot) = R*(ln(qrot/sn)+1.5)
    R    = 8.31441 J/mol/K = 1.987191683e-3 kcal/mol/K
    qrot = 115372.3791865
    sn is the rotational symmetry number. We have assumed 3 here
       if it is different for your molecule then you should correct
       the printed rotational entropy by manually evaluating the equation
       as given above

For convenience we print out the resulting values for sn=1 - 12:
 sn= 1  qrot/sn=  115372.3792 T*S(rot)=     7.79 kcal/mol T*S(tot)=    21.90 kcal/mol
 sn= 2  qrot/sn=   57686.1896 T*S(rot)=     7.38 kcal/mol T*S(tot)=    21.49 kcal/mol
 sn= 3  qrot/sn=   38457.4597 T*S(rot)=     7.14 kcal/mol T*S(tot)=    21.25 kcal/mol
 sn= 4  qrot/sn=   28843.0948 T*S(rot)=     6.97 kcal/mol T*S(tot)=    21.07 kcal/mol
 sn= 5  qrot/sn=   23074.4758 T*S(rot)=     6.84 kcal/mol T*S(tot)=    20.94 kcal/mol
 sn= 6  qrot/sn=   19228.7299 T*S(rot)=     6.73 kcal/mol T*S(tot)=    20.83 kcal/mol
 sn= 7  qrot/sn=   16481.7685 T*S(rot)=     6.64 kcal/mol T*S(tot)=    20.74 kcal/mol
 sn= 8  qrot/sn=   14421.5474 T*S(rot)=     6.56 kcal/mol T*S(tot)=    20.66 kcal/mol
 sn= 9  qrot/sn=   12819.1532 T*S(rot)=     6.49 kcal/mol T*S(tot)=    20.59 kcal/mol
 sn=10  qrot/sn=   11537.2379 T*S(rot)=     6.43 kcal/mol T*S(tot)=    20.53 kcal/mol
 sn=11  qrot/sn=   10488.3981 T*S(rot)=     6.37 kcal/mol T*S(tot)=    20.48 kcal/mol
 sn=12  qrot/sn=    9614.3649 T*S(rot)=     6.32 kcal/mol T*S(tot)=    20.42 kcal/mol

-------------------
GIBBS FREE ENTHALPY
-------------------

The Gibbs free enthalpy is G = H - T*S

Total enthalpy                    ...   -287.78257165 Eh
Total entropy correction          ...     -0.03385627 Eh    -21.25 kcal/mol
-----------------------------------------------------------------------
Final Gibbs free enthalpy         ...   -287.81642792 Eh

For completeness - the Gibbs free enthalpy minus the electronic energy
G-E(el)                           ...      0.12313000 Eh     77.27 kcal/mol

                             ****ORCA TERMINATED NORMALLY****
TOTAL RUN TIME: 0 days 0 hours 18 minutes 19 seconds 570 msec
