                         Program Version 3.0.3 - RELEASE   -
|  1> ! NORI PBE0 def2-TZVP UseSym TightOPT Freq TightSCF Grid3 FinalGrid5 XYZFile
|  2> % pal
|  3>     nprocs 8
|  4> end
|  5> %method
|  6>     SymThresh 5.0e-2
|  7> end
|  8> % geom
|  9>     MaxIter 10
| 10> end
| 11> % maxcore 2000
| 12> % output
| 13>     printlevel mini
| 14>     print[ P_Basis ] 0
| 15>     print[ P_SCFInfo ] 1
| 16>     print[ P_SCFIterInfo ] 1
| 17>     print[ P_OrbEn ] 0
| 18>     print[ P_Cartesian ] 0
| 19> end
| 20> % elprop
| 21>     Dipole false
| 22> end
| 23> *xyz 1 1
| 24>  C       -0.3024322102     0.7687595262     0.2263508329
| 25>  N       -0.4174281161    -0.6439155926    -0.2154989613
| 26>  C        0.9125439457    -0.0551416529     0.1384109129
| 27>  C        1.5841659772    -0.5920781540     1.3530523660
| 28>  C        2.8321382862    -1.3471835683     1.2373104160
| 29>  O        2.8201979329     0.0231085352     1.6005705926
| 30>  H       -0.7416096697     0.9566930603     1.1984974520
| 31>  H       -0.5231826964     1.4930697622    -0.5469652912
| 32>  H       -0.8283426451    -1.3146551848     0.4263182288
| 33>  H       -0.6216132933    -0.8320967445    -1.1911261595
| 34>  H        1.5505487281     0.0821410841    -0.7280302967
| 35>  H        0.9438193750    -0.7342421146     2.2255529666
| 36>  H        3.2442900440    -1.5650289290     0.2556917469
| 37>  H        3.0960043418    -2.0369100275     2.0330951939
| 38> *
| 39>
| 40>                          ****END OF INPUT****
 Total Charge           Charge          ....    1
 Multiplicity           Mult            ....    1
 Number of Electrons    NEL             ....   46
FINAL SINGLE POINT ENERGY      -286.662605624057

CARTESIAN COORDINATES (ANGSTROEM)
---------------------------------
  C      0.989241    0.982013   -1.350438
  N      0.032286    0.000275   -1.919768
  C      0.492715   -0.109916   -0.499630
  C     -0.528118    0.123295    0.557866
  C     -0.948302   -0.968627    1.436659
  O     -0.000569    0.000499    1.851605
  H      0.572490    1.974639   -1.229602
  H      1.982998    0.928344   -1.775728
  H     -0.921331    0.304284   -2.089626
  H      0.373922   -0.674781   -2.595499
  H      1.148317   -0.959051   -0.339372
  H     -1.191793    0.974936    0.396957
  H     -0.554026   -1.969796    1.283209
  H     -1.920254   -0.903259    1.915700

FINAL SINGLE POINT ENERGY      -286.662606065495
                    ***********************HURRAY********************
 Multiplicity           Mult            ....    1
 Number of Electrons    NEL             ....   46
 Basis Dimension        Dim             ....  234
FINAL SINGLE POINT ENERGY      -286.662606424963

VIBRATIONAL FREQUENCIES
-----------------------

   0:         0.00 cm**-1
   1:         0.00 cm**-1
   2:         0.00 cm**-1
   3:         0.00 cm**-1
   4:         0.00 cm**-1
   5:         0.00 cm**-1
   6:        73.78 cm**-1
   7:       216.43 cm**-1
   8:       253.81 cm**-1
   9:       390.72 cm**-1
  10:       495.99 cm**-1
  11:       781.55 cm**-1
  12:       820.45 cm**-1
  13:       870.52 cm**-1
  14:       884.97 cm**-1
  15:       913.78 cm**-1
  16:       938.92 cm**-1
  17:       977.15 cm**-1
  18:      1007.66 cm**-1
  19:      1032.06 cm**-1
  20:      1105.08 cm**-1
  21:      1154.38 cm**-1
  22:      1167.28 cm**-1
  23:      1175.76 cm**-1
  24:      1181.69 cm**-1
  25:      1224.79 cm**-1
  26:      1250.11 cm**-1
  27:      1264.69 cm**-1
  28:      1302.61 cm**-1
  29:      1359.83 cm**-1
  30:      1476.84 cm**-1
  31:      1498.56 cm**-1
  32:      1532.37 cm**-1
  33:      1633.70 cm**-1
  34:      3106.57 cm**-1
  35:      3121.82 cm**-1
  36:      3170.10 cm**-1
  37:      3203.37 cm**-1
  38:      3222.35 cm**-1
  39:      3273.91 cm**-1
  40:      3508.07 cm**-1
  41:      3610.81 cm**-1

IR SPECTRUM
-----------

 Mode    freq (cm**-1)   T**2         TX         TY         TZ
-------------------------------------------------------------------
   6:        73.78    0.251064  ( -0.277348   0.314353  -0.274452)
   7:       216.43    1.152141  (  0.325290  -0.822928  -0.607550)
   8:       253.81    0.074662  (  0.180833  -0.166161  -0.119800)
   9:       390.72    7.188964  ( -1.024831  -0.467059   2.433216)
  10:       495.99    8.297930  ( -0.759681  -0.052035   2.778148)
  11:       781.55    9.518590  ( -0.224024  -0.996724  -2.911176)
  12:       820.45    4.458652  ( -0.037626  -0.501063  -2.050896)
  13:       870.52    6.264991  (  2.130260   0.837112  -1.013028)
  14:       884.97   10.799495  (  1.275678   2.246711   2.030869)
  15:       913.78   33.816756  ( -3.177845  -2.087578  -4.400009)
  16:       938.92   45.400580  ( -2.867840   0.874434  -6.034189)
  17:       977.15    8.678206  (  2.852001   0.731726  -0.094204)
  18:      1007.66    6.911204  ( -0.071050  -2.483726  -0.858640)
  19:      1032.06   93.838004  ( -3.185344  -6.748985   6.175985)
  20:      1105.08    1.473070  (  1.001769  -0.525110   0.440214)
  21:      1154.38    0.200199  ( -0.267187  -0.226280  -0.278581)
  22:      1167.28    2.236025  (  1.131017  -0.976164   0.062694)
  23:      1175.76    1.627823  (  0.543744  -0.756175   0.871989)
  24:      1181.69    1.016130  (  0.911577   0.199668  -0.381170)
  25:      1224.79    0.260358  (  0.178025  -0.418236  -0.231826)
  26:      1250.11    3.643413  (  1.457399  -0.565779  -1.095124)
  27:      1264.69    1.404218  ( -0.903439   0.245887  -0.726330)
  28:      1302.61   12.883745  ( -2.473128  -2.559214  -0.466702)
  29:      1359.83   11.564757  (  0.809078   0.621789   3.243999)
  30:      1476.84    2.487998  (  0.075145  -0.959341   1.249806)
  31:      1498.56   11.837245  ( -1.703950  -2.868515   0.839895)
  32:      1532.37    2.701812  ( -1.273311   0.171291  -1.025256)
  33:      1633.70   64.437173  (  4.088810   1.620666   6.715076)
  34:      3106.57    8.186075  (  1.363830  -1.738970   1.817147)
  35:      3121.82    5.229935  (  0.796801   1.932615   0.927385)
  36:      3170.10    4.618468  ( -1.292157  -1.650539   0.473834)
  37:      3203.37    3.447113  (  1.178822  -1.310579   0.582988)
  38:      3222.35    1.228266  (  0.777468  -0.755265  -0.231051)
  39:      3273.91    8.352324  (  2.278749  -1.539633  -0.888344)
  40:      3508.07  115.653465  (  5.071096   3.049655   8.979814)
  41:      3610.81  133.983280  ( -8.376175   6.622525   4.468237)

--------------------------
THERMOCHEMISTRY AT 298.15K
--------------------------

Temperature         ... 298.15 K
Pressure            ... 1.00 atm
Total Mass          ... 86.11 AMU

Throughout the following assumptions are being made:
  (1) The electronic state is orbitally nondegenerate
  (2) There are no thermally accessible electronically excited states
  (3) Hindered rotations indicated by low frequency modes) are not
      treated as such but are treated as vibrations and this may
      case some error
  (4) All equations used are the standard statistical mechanics
      equations for an ideal gas
  (5) All vibrations are strinctly harmonic

------------
INNER ENERGY
------------

The inner energy is: U= E(el) + E(ZPE) + E(vib) + E(rot) + E(trans)
    E(el)   - is the total energy from the electronic structure calculation
              = E(kin-el) + E(nuc-el) + E(el-el) + E(nuc-nuc)
    E(ZPE)  - the the zero temperature vibrational energy from the frequency calculation
    E(vib)  - the the finite temperature correction to E(ZPE) due to population
              of excietd vibrational states
    E(rot)  - is the rotational thermal energy
    E(trans)- is the translational thermal energy

Summary of contributions to the inner energy U:
Electronic energy                ...   -286.66260642 Eh
Zero point energy                ...      0.12348240 Eh      77.49 kcal/mol
Thermal vibrational correction   ...      0.00300806 Eh       1.89 kcal/mol
Thermal rotational correction    ...      0.00141627 Eh       0.89 kcal/mol
Thermal translational correction ...      0.00141627 Eh       0.89 kcal/mol
-----------------------------------------------------------------------
Total thermal energy                   -286.53328342 Eh

Summary of corrections to the electronic energy:
(perhaps to be used in another calculation)
Total thermal correction                  0.00584061 Eh       3.67 kcal/mol
Non-thermal (ZPE) correction              0.12348240 Eh      77.49 kcal/mol
-----------------------------------------------------------------------
Total correction                          0.12932301 Eh      81.15 kcal/mol

--------
ENTHALPY
--------

The enthalpy is H = U + kB*T
                kB is Boltzmann's constant
Total free energy                 ...   -286.53328342 Eh
Thermal Enthalpy correction       ...      0.00094421 Eh       0.59 kcal/mol
-----------------------------------------------------------------------
Total Enthalpy                    ...   -286.53233921 Eh

-------
ENTROPY
-------

The entropy contributions are T*S = T*(S(el)+S(vib)+S(rot)+S(trans)
     S(el)   - electronic entropy
     S(vib)  - vibrational entropy
     S(rot)  - rotational entropy
     S(trans)- translational entropy
The entropies will be listed as mutliplied by the temperature to get
units of energy

Electronic entropy                ...      0.00000000 Eh      0.00 kcal/mol
Vibrational entropy               ...      0.00527214 Eh      3.31 kcal/mol
Rotational entropy                ...      0.01146407 Eh      7.19 kcal/mol
Translational entropy             ...      0.01865951 Eh     11.71 kcal/mol
-----------------------------------------------------------------------
Final entropy term                ...      0.03539573 Eh     22.21 kcal/mol

CAUTION: The rotational entropy is not quite correctly treated here
         because it includes a symmetry number that is not yet correctly
         implemented in ORCA!
For a nonlinear molecule the correct rotational entropy is:
    S(rot) = R*(ln(qrot/sn)+1.5)
    R    = 8.31441 J/mol/K = 1.987191683e-3 kcal/mol/K
    qrot = 125546.1399075
    sn is the rotational symmetry number. We have assumed 3 here
       if it is different for your molecule then you should correct
       the printed rotational entropy by manually evaluating the equation
       as given above

For convenience we print out the resulting values for sn=1 - 12:
 sn= 1  qrot/sn=  125546.1399 T*S(rot)=     7.84 kcal/mol T*S(tot)=    22.86 kcal/mol
 sn= 2  qrot/sn=   62773.0700 T*S(rot)=     7.43 kcal/mol T*S(tot)=    22.45 kcal/mol
 sn= 3  qrot/sn=   41848.7133 T*S(rot)=     7.19 kcal/mol T*S(tot)=    22.21 kcal/mol
 sn= 4  qrot/sn=   31386.5350 T*S(rot)=     7.02 kcal/mol T*S(tot)=    22.04 kcal/mol
 sn= 5  qrot/sn=   25109.2280 T*S(rot)=     6.89 kcal/mol T*S(tot)=    21.91 kcal/mol
 sn= 6  qrot/sn=   20924.3567 T*S(rot)=     6.78 kcal/mol T*S(tot)=    21.80 kcal/mol
 sn= 7  qrot/sn=   17935.1628 T*S(rot)=     6.69 kcal/mol T*S(tot)=    21.71 kcal/mol
 sn= 8  qrot/sn=   15693.2675 T*S(rot)=     6.61 kcal/mol T*S(tot)=    21.63 kcal/mol
 sn= 9  qrot/sn=   13949.5711 T*S(rot)=     6.54 kcal/mol T*S(tot)=    21.56 kcal/mol
 sn=10  qrot/sn=   12554.6140 T*S(rot)=     6.48 kcal/mol T*S(tot)=    21.50 kcal/mol
 sn=11  qrot/sn=   11413.2854 T*S(rot)=     6.42 kcal/mol T*S(tot)=    21.44 kcal/mol
 sn=12  qrot/sn=   10462.1783 T*S(rot)=     6.37 kcal/mol T*S(tot)=    21.39 kcal/mol

-------------------
GIBBS FREE ENTHALPY
-------------------

The Gibbs free enthalpy is G = H - T*S

Total enthalpy                    ...   -286.53233921 Eh
Total entropy correction          ...     -0.03539573 Eh    -22.21 kcal/mol
-----------------------------------------------------------------------
Final Gibbs free enthalpy         ...   -286.56773493 Eh

For completeness - the Gibbs free enthalpy minus the electronic energy
G-E(el)                           ...      0.09487149 Eh     59.53 kcal/mol

                             ****ORCA TERMINATED NORMALLY****
TOTAL RUN TIME: 0 days 0 hours 14 minutes 45 seconds 100 msec
