                         Program Version 3.0.3 - RELEASE   -
|  1> ! NORI PBE0 def2-TZVP UseSym TightOPT Freq TightSCF Grid3 FinalGrid5 XYZFile
|  2> % pal
|  3>     nprocs 8
|  4> end
|  5> %method
|  6>     SymThresh 5.0e-2
|  7> end
|  8> % geom
|  9>     MaxIter 10
| 10> end
| 11> % maxcore 2000
| 12> % output
| 13>     printlevel mini
| 14>     print[ P_Basis ] 0
| 15>     print[ P_SCFInfo ] 1
| 16>     print[ P_SCFIterInfo ] 1
| 17>     print[ P_OrbEn ] 0
| 18>     print[ P_Cartesian ] 0
| 19> end
| 20> % elprop
| 21>     Dipole false
| 22> end
| 23> *xyz 1 1
| 24>  C        0.6053136680     1.3829958364     0.0038957545
| 25>  N       -0.7921846541     1.3640782790    -0.5612650479
| 26>  C       -1.4930462895     0.1545377451     0.0029071127
| 27>  C       -0.3581386454    -0.8202165596     0.1357831036
| 28>  O        0.4782445038    -0.8053979416    -1.0105577166
| 29>  C        0.8997058437    -0.0839364158     0.1362292918
| 30>  H        0.5907824622     1.8856792454     0.9719011113
| 31>  H        1.2581880107     1.9208282242    -0.6839794048
| 32>  H       -0.7189742528     1.2413724856    -1.5722620529
| 33>  H       -1.3000638671     2.2302617196    -0.3850496361
| 34>  H       -2.2813162110    -0.1512708665    -0.6851305796
| 35>  H       -1.9239819559     0.4135544573     0.9708588246
| 36>  H       -0.5078916782    -1.7689989550     0.6371026201
| 37>  H        1.8001330656    -0.4179972539     0.6378066192
| 38> *
| 39>
| 40>                          ****END OF INPUT****
 Total Charge           Charge          ....    1
 Multiplicity           Mult            ....    1
 Number of Electrons    NEL             ....   46
FINAL SINGLE POINT ENERGY      -286.710462274793

CARTESIAN COORDINATES (ANGSTROEM)
---------------------------------
  C     -0.664149    0.136984    1.215657
  N     -0.937126    0.985644    0.000000
  C     -0.664149    0.136984   -1.215657
  C      0.452895   -0.741223   -0.728719
  O      1.418624    0.000403    0.000000
  C      0.452895   -0.741223    0.728719
  H     -1.559782   -0.437538    1.456378
  H     -0.404371    0.787541    2.050802
  H     -0.268551    1.757346    0.000000
  H     -1.876089    1.382154    0.000000
  H     -0.404371    0.787541   -2.050802
  H     -1.559782   -0.437538   -1.456378
  H      0.805752   -1.565508   -1.337169
  H      0.805752   -1.565508    1.337169

FINAL SINGLE POINT ENERGY      -286.710462634572
                    ***********************HURRAY********************
 Multiplicity           Mult            ....    1
 Number of Electrons    NEL             ....   46
 Basis Dimension        Dim             ....  234
FINAL SINGLE POINT ENERGY      -286.710462876054

VIBRATIONAL FREQUENCIES
-----------------------

   0:         0.00 cm**-1
   1:         0.00 cm**-1
   2:         0.00 cm**-1
   3:         0.00 cm**-1
   4:         0.00 cm**-1
   5:         0.00 cm**-1
   6:       225.97 cm**-1
   7:       345.12 cm**-1
   8:       422.49 cm**-1
   9:       663.69 cm**-1
  10:       676.87 cm**-1
  11:       843.67 cm**-1
  12:       860.87 cm**-1
  13:       882.21 cm**-1
  14:       893.26 cm**-1
  15:       946.87 cm**-1
  16:       960.84 cm**-1
  17:       986.98 cm**-1
  18:      1045.91 cm**-1
  19:      1054.92 cm**-1
  20:      1106.42 cm**-1
  21:      1133.73 cm**-1
  22:      1196.57 cm**-1
  23:      1244.01 cm**-1
  24:      1250.90 cm**-1
  25:      1306.58 cm**-1
  26:      1319.37 cm**-1
  27:      1387.06 cm**-1
  28:      1403.39 cm**-1
  29:      1411.00 cm**-1
  30:      1468.31 cm**-1
  31:      1481.83 cm**-1
  32:      1494.56 cm**-1
  33:      1621.70 cm**-1
  34:      3103.92 cm**-1
  35:      3105.03 cm**-1
  36:      3167.83 cm**-1
  37:      3168.76 cm**-1
  38:      3209.12 cm**-1
  39:      3218.31 cm**-1
  40:      3465.40 cm**-1
  41:      3529.78 cm**-1

IR SPECTRUM
-----------

 Mode    freq (cm**-1)   T**2         TX         TY         TZ
-------------------------------------------------------------------
   6:       225.97   10.901681  ( -3.096642   1.145640   0.000001)
   7:       345.12    3.173868  (  0.000007   0.000001  -1.781535)
   8:       422.49   20.978912  ( -4.281417   1.627383  -0.000003)
   9:       663.69    0.614598  ( -0.740655  -0.256958  -0.000006)
  10:       676.87    2.570557  (  0.000002   0.000002  -1.603296)
  11:       843.67    4.867547  (  1.945249   1.040939   0.000001)
  12:       860.87    4.661037  ( -0.000005  -0.000003   2.158943)
  13:       882.21   33.399016  (  3.684519   4.452341   0.000003)
  14:       893.26    4.833876  ( -2.144220   0.486002  -0.000000)
  15:       946.87    0.073551  (  0.000002  -0.000003   0.271204)
  16:       960.84   10.284565  (  0.000000   0.000008  -3.206956)
  17:       986.98   20.869285  ( -4.564117  -0.195236  -0.000004)
  18:      1045.91   10.453593  ( -0.000000  -0.000009   3.233202)
  19:      1054.92    5.815772  (  1.662526  -1.746934  -0.000008)
  20:      1106.42    0.086853  (  0.000000   0.000004  -0.294708)
  21:      1133.73    6.543574  ( -1.758518  -1.857737   0.000001)
  22:      1196.57    0.097677  ( -0.000000  -0.000003   0.312533)
  23:      1244.01   16.907451  ( -0.000000   0.000004   4.111867)
  24:      1250.90   11.354365  (  1.927752   2.763718  -0.000000)
  25:      1306.58    6.484445  ( -2.393821  -0.868369   0.000000)
  26:      1319.37    0.418975  ( -0.000000  -0.000012   0.647283)
  27:      1387.06    3.583969  (  1.493697  -1.163116  -0.000001)
  28:      1403.39    6.031198  (  0.000002  -0.000005   2.455850)
  29:      1411.00   37.999063  ( -0.000000  -0.000001   6.164338)
  30:      1468.31    9.618018  ( -1.959625  -2.403724  -0.000002)
  31:      1481.83   13.700661  ( -0.000001  -0.000001   3.701440)
  32:      1494.56    9.433073  ( -2.981862   0.735918  -0.000000)
  33:      1621.70   79.238618  (  2.192211  -8.627446   0.000000)
  34:      3103.92    0.059129  (  0.000000  -0.000000   0.243165)
  35:      3105.03    0.294299  ( -0.506486  -0.194348   0.000000)
  36:      3167.83    0.226515  (  0.000000  -0.000000   0.475936)
  37:      3168.76    0.537781  (  0.596177   0.427029  -0.000000)
  38:      3209.12    0.612487  ( -0.000000  -0.000012   0.782615)
  39:      3218.31    3.226776  (  1.597135  -0.822153   0.000000)
  40:      3465.40   77.966128  ( -0.291186   8.825040  -0.000000)
  41:      3529.78  103.682534  (-10.176129  -0.359080  -0.000000)

--------------------------
THERMOCHEMISTRY AT 298.15K
--------------------------

Temperature         ... 298.15 K
Pressure            ... 1.00 atm
Total Mass          ... 86.11 AMU

Throughout the following assumptions are being made:
  (1) The electronic state is orbitally nondegenerate
  (2) There are no thermally accessible electronically excited states
  (3) Hindered rotations indicated by low frequency modes) are not
      treated as such but are treated as vibrations and this may
      case some error
  (4) All equations used are the standard statistical mechanics
      equations for an ideal gas
  (5) All vibrations are strinctly harmonic

------------
INNER ENERGY
------------

The inner energy is: U= E(el) + E(ZPE) + E(vib) + E(rot) + E(trans)
    E(el)   - is the total energy from the electronic structure calculation
              = E(kin-el) + E(nuc-el) + E(el-el) + E(nuc-nuc)
    E(ZPE)  - the the zero temperature vibrational energy from the frequency calculation
    E(vib)  - the the finite temperature correction to E(ZPE) due to population
              of excietd vibrational states
    E(rot)  - is the rotational thermal energy
    E(trans)- is the translational thermal energy

Summary of contributions to the inner energy U:
Electronic energy                ...   -286.71046288 Eh
Zero point energy                ...      0.12667341 Eh      79.49 kcal/mol
Thermal vibrational correction   ...      0.00200954 Eh       1.26 kcal/mol
Thermal rotational correction    ...      0.00141627 Eh       0.89 kcal/mol
Thermal translational correction ...      0.00141627 Eh       0.89 kcal/mol
-----------------------------------------------------------------------
Total thermal energy                   -286.57894738 Eh

Summary of corrections to the electronic energy:
(perhaps to be used in another calculation)
Total thermal correction                  0.00484209 Eh       3.04 kcal/mol
Non-thermal (ZPE) correction              0.12667341 Eh      79.49 kcal/mol
-----------------------------------------------------------------------
Total correction                          0.13151550 Eh      82.53 kcal/mol

--------
ENTHALPY
--------

The enthalpy is H = U + kB*T
                kB is Boltzmann's constant
Total free energy                 ...   -286.57894738 Eh
Thermal Enthalpy correction       ...      0.00094421 Eh       0.59 kcal/mol
-----------------------------------------------------------------------
Total Enthalpy                    ...   -286.57800317 Eh

-------
ENTROPY
-------

The entropy contributions are T*S = T*(S(el)+S(vib)+S(rot)+S(trans)
     S(el)   - electronic entropy
     S(vib)  - vibrational entropy
     S(rot)  - rotational entropy
     S(trans)- translational entropy
The entropies will be listed as mutliplied by the temperature to get
units of energy

Electronic entropy                ...      0.00000000 Eh      0.00 kcal/mol
Vibrational entropy               ...      0.00292351 Eh      1.83 kcal/mol
Rotational entropy                ...      0.01116553 Eh      7.01 kcal/mol
Translational entropy             ...      0.01865951 Eh     11.71 kcal/mol
-----------------------------------------------------------------------
Final entropy term                ...      0.03274856 Eh     20.55 kcal/mol

CAUTION: The rotational entropy is not quite correctly treated here
         because it includes a symmetry number that is not yet correctly
         implemented in ORCA!
For a nonlinear molecule the correct rotational entropy is:
    S(rot) = R*(ln(qrot/sn)+1.5)
    R    = 8.31441 J/mol/K = 1.987191683e-3 kcal/mol/K
    qrot = 91513.0519802
    sn is the rotational symmetry number. We have assumed 3 here
       if it is different for your molecule then you should correct
       the printed rotational entropy by manually evaluating the equation
       as given above

For convenience we print out the resulting values for sn=1 - 12:
 sn= 1  qrot/sn=   91513.0520 T*S(rot)=     7.66 kcal/mol T*S(tot)=    21.20 kcal/mol
 sn= 2  qrot/sn=   45756.5260 T*S(rot)=     7.25 kcal/mol T*S(tot)=    20.79 kcal/mol
 sn= 3  qrot/sn=   30504.3507 T*S(rot)=     7.01 kcal/mol T*S(tot)=    20.55 kcal/mol
 sn= 4  qrot/sn=   22878.2630 T*S(rot)=     6.84 kcal/mol T*S(tot)=    20.38 kcal/mol
 sn= 5  qrot/sn=   18302.6104 T*S(rot)=     6.70 kcal/mol T*S(tot)=    20.25 kcal/mol
 sn= 6  qrot/sn=   15252.1753 T*S(rot)=     6.60 kcal/mol T*S(tot)=    20.14 kcal/mol
 sn= 7  qrot/sn=   13073.2931 T*S(rot)=     6.50 kcal/mol T*S(tot)=    20.05 kcal/mol
 sn= 8  qrot/sn=   11439.1315 T*S(rot)=     6.43 kcal/mol T*S(tot)=    19.97 kcal/mol
 sn= 9  qrot/sn=   10168.1169 T*S(rot)=     6.36 kcal/mol T*S(tot)=    19.90 kcal/mol
 sn=10  qrot/sn=    9151.3052 T*S(rot)=     6.29 kcal/mol T*S(tot)=    19.84 kcal/mol
 sn=11  qrot/sn=    8319.3684 T*S(rot)=     6.24 kcal/mol T*S(tot)=    19.78 kcal/mol
 sn=12  qrot/sn=    7626.0877 T*S(rot)=     6.19 kcal/mol T*S(tot)=    19.73 kcal/mol

-------------------
GIBBS FREE ENTHALPY
-------------------

The Gibbs free enthalpy is G = H - T*S

Total enthalpy                    ...   -286.57800317 Eh
Total entropy correction          ...     -0.03274856 Eh    -20.55 kcal/mol
-----------------------------------------------------------------------
Final Gibbs free enthalpy         ...   -286.61075172 Eh

For completeness - the Gibbs free enthalpy minus the electronic energy
G-E(el)                           ...      0.09971115 Eh     62.57 kcal/mol

                             ****ORCA TERMINATED NORMALLY****
TOTAL RUN TIME: 0 days 0 hours 16 minutes 5 seconds 594 msec
