                         Program Version 3.0.3 - RELEASE   -
|  1> ! NORI PBE0 def2-TZVP UseSym TightOPT Freq TightSCF Grid3 FinalGrid5 XYZFile
|  2> % pal
|  3>     nprocs 8
|  4> end
|  5> %method
|  6>     SymThresh 5.0e-2
|  7> end
|  8> % geom
|  9>     MaxIter 10
| 10> end
| 11> % maxcore 2000
| 12> % output
| 13>     printlevel mini
| 14>     print[ P_Basis ] 0
| 15>     print[ P_SCFInfo ] 1
| 16>     print[ P_SCFIterInfo ] 1
| 17>     print[ P_OrbEn ] 0
| 18>     print[ P_Cartesian ] 0
| 19> end
| 20> % elprop
| 21>     Dipole false
| 22> end
| 23> *xyz 1 1
| 24>  C        0.6468157817     1.1776103963    -0.3538742130
| 25>  O       -0.5274069729     0.9245831414    -1.0996754437
| 26>  C       -1.3308301679     0.0276882078    -0.3585021632
| 27>  C       -0.3261424563    -0.8909737457     0.2937348805
| 28>  N        0.7467352828    -1.2699571305    -0.6685110485
| 29>  C        0.9460276933    -0.1517527487     0.2963937452
| 30>  H        0.4891152447     1.9191438807     0.4391290927
| 31>  H        1.4194455727     1.5373518330    -1.0341617518
| 32>  H       -2.0230235356    -0.4644951161    -1.0425418127
| 33>  H       -1.9009632895     0.5297529610     0.4330294129
| 34>  H       -0.5947452986    -1.6494025437     1.0169398593
| 35>  H        1.2498434482    -2.1367060025    -0.5153109484
| 36>  H        0.5968292548    -1.0092264752    -1.6421941173
| 37>  H        1.7359094427    -0.2954666577     1.0216245081
| 38> *
| 39>
| 40>                          ****END OF INPUT****
 Total Charge           Charge          ....    1
 Multiplicity           Mult            ....    1
 Number of Electrons    NEL             ....   46
FINAL SINGLE POINT ENERGY      -286.703834820136

CARTESIAN COORDINATES (ANGSTROEM)
---------------------------------
  C      0.610650    0.404323    1.143828
  O      1.336615   -0.000339   -0.000000
  C      0.610650    0.404323   -1.143828
  C     -0.829669    0.208980   -0.735622
  N     -1.001830   -1.075687    0.000000
  C     -0.829669    0.208980    0.735622
  H      0.758500    1.465011    1.382190
  H      0.931637   -0.202393    1.991141
  H      0.931637   -0.202393   -1.991141
  H      0.758500    1.465011   -1.382190
  H     -1.668338    0.513311   -1.347337
  H     -1.915642   -1.514381    0.000000
  H     -0.204310   -1.709953    0.000000
  H     -1.668338    0.513311    1.347337

FINAL SINGLE POINT ENERGY      -286.703835094345
                    ***********************HURRAY********************
 Multiplicity           Mult            ....    1
 Number of Electrons    NEL             ....   46
 Basis Dimension        Dim             ....  234
FINAL SINGLE POINT ENERGY      -286.703835195209

VIBRATIONAL FREQUENCIES
-----------------------

   0:         0.00 cm**-1
   1:         0.00 cm**-1
   2:         0.00 cm**-1
   3:         0.00 cm**-1
   4:         0.00 cm**-1
   5:         0.00 cm**-1
   6:       279.46 cm**-1
   7:       363.75 cm**-1
   8:       400.06 cm**-1
   9:       653.18 cm**-1
  10:       739.09 cm**-1
  11:       783.11 cm**-1
  12:       863.42 cm**-1
  13:       885.65 cm**-1
  14:       918.28 cm**-1
  15:       952.54 cm**-1
  16:       969.42 cm**-1
  17:       996.83 cm**-1
  18:      1040.16 cm**-1
  19:      1061.88 cm**-1
  20:      1090.72 cm**-1
  21:      1129.18 cm**-1
  22:      1137.56 cm**-1
  23:      1157.26 cm**-1
  24:      1226.10 cm**-1
  25:      1255.66 cm**-1
  26:      1274.98 cm**-1
  27:      1322.93 cm**-1
  28:      1362.08 cm**-1
  29:      1375.25 cm**-1
  30:      1409.27 cm**-1
  31:      1493.85 cm**-1
  32:      1506.42 cm**-1
  33:      1587.16 cm**-1
  34:      3048.82 cm**-1
  35:      3049.12 cm**-1
  36:      3143.14 cm**-1
  37:      3145.13 cm**-1
  38:      3236.73 cm**-1
  39:      3244.68 cm**-1
  40:      3472.05 cm**-1
  41:      3606.71 cm**-1

IR SPECTRUM
-----------

 Mode    freq (cm**-1)   T**2         TX         TY         TZ
-------------------------------------------------------------------
   6:       279.46   21.016219  ( -3.364905  -3.113460  -0.000002)
   7:       363.75    2.538864  (  0.000005   0.000002  -1.593381)
   8:       400.06    2.803579  (  1.665450  -0.172782   0.000003)
   9:       653.18    0.997463  ( -0.000001  -0.000000  -0.998731)
  10:       739.09    6.465725  ( -2.526466   0.287570  -0.000000)
  11:       783.11    1.600923  (  0.000001  -0.000000   1.265276)
  12:       863.42   31.315145  (  1.084983   5.489805   0.000001)
  13:       885.65    0.894657  (  0.922173  -0.210366   0.000000)
  14:       918.28   23.238371  (  4.816250  -0.205204   0.000001)
  15:       952.54    0.144553  ( -0.000010   0.000002  -0.380201)
  16:       969.42   23.115482  (  4.467099  -1.777781  -0.000009)
  17:       996.83   24.746978  ( -0.000009   0.000003  -4.974633)
  18:      1040.16   59.883668  (  0.000006   0.000001  -7.738454)
  19:      1061.88   10.099593  ( -2.592260  -1.838418  -0.000010)
  20:      1090.72    4.670164  (  0.000001   0.000002  -2.161056)
  21:      1129.18    0.270346  (  0.468370  -0.225777  -0.000040)
  22:      1137.56   55.872168  ( -0.000002   0.000002  -7.474769)
  23:      1157.26   28.179221  (  0.000001  -0.000000   5.308410)
  24:      1226.10   10.943414  (  0.000000  -0.000000  -3.308083)
  25:      1255.66    8.897064  (  2.531528  -1.577475   0.000001)
  26:      1274.98    4.516493  ( -0.263449  -2.108812   0.000001)
  27:      1322.93    0.165055  ( -0.000000   0.000000  -0.406270)
  28:      1362.08    0.232079  ( -0.411984  -0.249695  -0.000000)
  29:      1375.25    5.628476  ( -0.000000  -0.000000   2.372441)
  30:      1409.27    0.410374  (  0.408024   0.493853  -0.000001)
  31:      1493.85    5.240308  (  0.000001   0.000001   2.289172)
  32:      1506.42    6.337805  ( -2.103562  -1.383051   0.000001)
  33:      1587.16   86.419086  ( -1.229009  -9.214588  -0.000000)
  34:      3048.82    9.482638  ( -0.000014   0.000034   3.079389)
  35:      3049.12    6.266094  (  0.926471  -2.325456   0.000046)
  36:      3143.14    0.584199  ( -0.000001  -0.000002  -0.764329)
  37:      3145.13    0.329172  ( -0.308287  -0.483872   0.000003)
  38:      3236.73    4.875903  ( -0.000000   0.000000  -2.208145)
  39:      3244.68    8.229278  (  2.552311  -1.309576  -0.000000)
  40:      3472.05   88.705639  ( -1.305641   9.327430  -0.000000)
  41:      3606.71  158.119278  ( 12.247582   2.848863   0.000000)

--------------------------
THERMOCHEMISTRY AT 298.15K
--------------------------

Temperature         ... 298.15 K
Pressure            ... 1.00 atm
Total Mass          ... 86.11 AMU

Throughout the following assumptions are being made:
  (1) The electronic state is orbitally nondegenerate
  (2) There are no thermally accessible electronically excited states
  (3) Hindered rotations indicated by low frequency modes) are not
      treated as such but are treated as vibrations and this may
      case some error
  (4) All equations used are the standard statistical mechanics
      equations for an ideal gas
  (5) All vibrations are strinctly harmonic

------------
INNER ENERGY
------------

The inner energy is: U= E(el) + E(ZPE) + E(vib) + E(rot) + E(trans)
    E(el)   - is the total energy from the electronic structure calculation
              = E(kin-el) + E(nuc-el) + E(el-el) + E(nuc-nuc)
    E(ZPE)  - the the zero temperature vibrational energy from the frequency calculation
    E(vib)  - the the finite temperature correction to E(ZPE) due to population
              of excietd vibrational states
    E(rot)  - is the rotational thermal energy
    E(trans)- is the translational thermal energy

Summary of contributions to the inner energy U:
Electronic energy                ...   -286.70383520 Eh
Zero point energy                ...      0.12571299 Eh      78.89 kcal/mol
Thermal vibrational correction   ...      0.00194719 Eh       1.22 kcal/mol
Thermal rotational correction    ...      0.00141627 Eh       0.89 kcal/mol
Thermal translational correction ...      0.00141627 Eh       0.89 kcal/mol
-----------------------------------------------------------------------
Total thermal energy                   -286.57334247 Eh

Summary of corrections to the electronic energy:
(perhaps to be used in another calculation)
Total thermal correction                  0.00477973 Eh       3.00 kcal/mol
Non-thermal (ZPE) correction              0.12571299 Eh      78.89 kcal/mol
-----------------------------------------------------------------------
Total correction                          0.13049272 Eh      81.89 kcal/mol

--------
ENTHALPY
--------

The enthalpy is H = U + kB*T
                kB is Boltzmann's constant
Total free energy                 ...   -286.57334247 Eh
Thermal Enthalpy correction       ...      0.00094421 Eh       0.59 kcal/mol
-----------------------------------------------------------------------
Total Enthalpy                    ...   -286.57239826 Eh

-------
ENTROPY
-------

The entropy contributions are T*S = T*(S(el)+S(vib)+S(rot)+S(trans)
     S(el)   - electronic entropy
     S(vib)  - vibrational entropy
     S(rot)  - rotational entropy
     S(trans)- translational entropy
The entropies will be listed as mutliplied by the temperature to get
units of energy

Electronic entropy                ...      0.00000000 Eh      0.00 kcal/mol
Vibrational entropy               ...      0.00275580 Eh      1.73 kcal/mol
Rotational entropy                ...      0.01114927 Eh      7.00 kcal/mol
Translational entropy             ...      0.01865951 Eh     11.71 kcal/mol
-----------------------------------------------------------------------
Final entropy term                ...      0.03256458 Eh     20.43 kcal/mol

CAUTION: The rotational entropy is not quite correctly treated here
         because it includes a symmetry number that is not yet correctly
         implemented in ORCA!
For a nonlinear molecule the correct rotational entropy is:
    S(rot) = R*(ln(qrot/sn)+1.5)
    R    = 8.31441 J/mol/K = 1.987191683e-3 kcal/mol/K
    qrot = 89950.7397670
    sn is the rotational symmetry number. We have assumed 3 here
       if it is different for your molecule then you should correct
       the printed rotational entropy by manually evaluating the equation
       as given above

For convenience we print out the resulting values for sn=1 - 12:
 sn= 1  qrot/sn=   89950.7398 T*S(rot)=     7.65 kcal/mol T*S(tot)=    21.09 kcal/mol
 sn= 2  qrot/sn=   44975.3699 T*S(rot)=     7.24 kcal/mol T*S(tot)=    20.67 kcal/mol
 sn= 3  qrot/sn=   29983.5799 T*S(rot)=     7.00 kcal/mol T*S(tot)=    20.43 kcal/mol
 sn= 4  qrot/sn=   22487.6849 T*S(rot)=     6.83 kcal/mol T*S(tot)=    20.26 kcal/mol
 sn= 5  qrot/sn=   17990.1480 T*S(rot)=     6.69 kcal/mol T*S(tot)=    20.13 kcal/mol
 sn= 6  qrot/sn=   14991.7900 T*S(rot)=     6.59 kcal/mol T*S(tot)=    20.02 kcal/mol
 sn= 7  qrot/sn=   12850.1057 T*S(rot)=     6.49 kcal/mol T*S(tot)=    19.93 kcal/mol
 sn= 8  qrot/sn=   11243.8425 T*S(rot)=     6.42 kcal/mol T*S(tot)=    19.85 kcal/mol
 sn= 9  qrot/sn=    9994.5266 T*S(rot)=     6.35 kcal/mol T*S(tot)=    19.78 kcal/mol
 sn=10  qrot/sn=    8995.0740 T*S(rot)=     6.28 kcal/mol T*S(tot)=    19.72 kcal/mol
 sn=11  qrot/sn=    8177.3400 T*S(rot)=     6.23 kcal/mol T*S(tot)=    19.66 kcal/mol
 sn=12  qrot/sn=    7495.8950 T*S(rot)=     6.17 kcal/mol T*S(tot)=    19.61 kcal/mol

-------------------
GIBBS FREE ENTHALPY
-------------------

The Gibbs free enthalpy is G = H - T*S

Total enthalpy                    ...   -286.57239826 Eh
Total entropy correction          ...     -0.03256458 Eh    -20.43 kcal/mol
-----------------------------------------------------------------------
Final Gibbs free enthalpy         ...   -286.60496284 Eh

For completeness - the Gibbs free enthalpy minus the electronic energy
G-E(el)                           ...      0.09887235 Eh     62.04 kcal/mol

                             ****ORCA TERMINATED NORMALLY****
TOTAL RUN TIME: 0 days 0 hours 16 minutes 1 seconds 940 msec
