                         Program Version 3.0.3 - RELEASE   -
|  1> ! NORI PBE0 def2-TZVP UseSym TightOPT Freq TightSCF Grid3 FinalGrid5 XYZFile
|  2> % pal
|  3>     nprocs 8
|  4> end
|  5> %method
|  6>     SymThresh 5.0e-2
|  7> end
|  8> % geom
|  9>     MaxIter 10
| 10> end
| 11> % maxcore 2000
| 12> % output
| 13>     printlevel mini
| 14>     print[ P_Basis ] 0
| 15>     print[ P_SCFInfo ] 1
| 16>     print[ P_SCFIterInfo ] 1
| 17>     print[ P_OrbEn ] 0
| 18>     print[ P_Cartesian ] 0
| 19> end
| 20> % elprop
| 21>     Dipole false
| 22> end
| 23> *xyz 1 1
| 24>  C        0.8501598214     0.0828329976    -0.1393476076
| 25>  C        2.3255073975    -0.1375640740     0.0522731587
| 26>  C        3.1465480473    -0.9558751092    -0.9027734578
| 27>  N        2.5064685908    -1.5830994181    -2.0824486259
| 28>  C        3.3214202743     0.5203008437    -0.8659341792
| 29>  O        4.5588114736     0.9267715871    -0.4329130068
| 30>  H        0.2642753316    -0.7852059550     0.1729179752
| 31>  H        0.5836449284     0.3303986646    -1.1730956844
| 32>  H        0.5215871236     0.9310269870     0.4631745176
| 33>  H        2.6507277240    -0.2609554901     1.0803061031
| 34>  H        3.9547032113    -1.5661715779    -0.5203960964
| 35>  H        1.6741651386    -1.0612117153    -2.3666568303
| 36>  H        2.2068016147    -2.5397437663    -1.8766134599
| 37>  H        3.1460671040    -1.6162788634    -2.8810298910
| 38>  H        2.8858251120     1.0891725805    -1.6913721523
| 39>  H        4.4916771069     1.7868723087    -0.0047707630
| 40> *
| 41>
| 42>                          ****END OF INPUT****
 Total Charge           Charge          ....    1
 Multiplicity           Mult            ....    1
 Number of Electrons    NEL             ....   48
FINAL SINGLE POINT ENERGY      -287.914630006718
FINAL SINGLE POINT ENERGY      -287.914631158957

CARTESIAN COORDINATES (ANGSTROEM)
---------------------------------
  C     -1.482114    0.391781   -1.378264
  C     -0.843153   -0.349689   -0.236280
  C      0.643159   -0.542825   -0.134091
  N      1.535680   -0.001249   -1.184821
  C     -0.040335    0.392599    0.798681
  O     -0.000441    0.000659    2.113352
  H     -1.546824   -0.223225   -2.278785
  H     -0.962446    1.323831   -1.628038
  H     -2.498647    0.681444   -1.108072
  H     -1.393635   -1.210114    0.129870
  H      1.031536   -1.465356    0.277191
  H      1.105555    0.800585   -1.651194
  H      1.727413   -0.702032   -1.905440
  H      2.430981    0.303676   -0.793960
  H      0.086526    1.460846    0.607192
  H     -0.776725    0.330064    2.578629

FINAL SINGLE POINT ENERGY      -287.914632028289
                    ***********************HURRAY********************
 Multiplicity           Mult            ....    1
 Number of Electrons    NEL             ....   48
 Basis Dimension        Dim             ....  246
FINAL SINGLE POINT ENERGY      -287.914632644942

VIBRATIONAL FREQUENCIES
-----------------------

   0:         0.00 cm**-1
   1:         0.00 cm**-1
   2:         0.00 cm**-1
   3:         0.00 cm**-1
   4:         0.00 cm**-1
   5:         0.00 cm**-1
   6:       146.98 cm**-1
   7:       176.52 cm**-1
   8:       221.26 cm**-1
   9:       261.18 cm**-1
  10:       282.07 cm**-1
  11:       306.88 cm**-1
  12:       328.21 cm**-1
  13:       479.89 cm**-1
  14:       536.39 cm**-1
  15:       794.15 cm**-1
  16:       840.06 cm**-1
  17:       878.99 cm**-1
  18:       966.96 cm**-1
  19:       993.24 cm**-1
  20:      1033.89 cm**-1
  21:      1081.91 cm**-1
  22:      1100.27 cm**-1
  23:      1128.25 cm**-1
  24:      1181.25 cm**-1
  25:      1188.05 cm**-1
  26:      1223.87 cm**-1
  27:      1233.50 cm**-1
  28:      1284.52 cm**-1
  29:      1358.77 cm**-1
  30:      1379.83 cm**-1
  31:      1420.75 cm**-1
  32:      1476.82 cm**-1
  33:      1488.00 cm**-1
  34:      1512.18 cm**-1
  35:      1522.19 cm**-1
  36:      1650.29 cm**-1
  37:      1660.05 cm**-1
  38:      3037.00 cm**-1
  39:      3087.95 cm**-1
  40:      3110.77 cm**-1
  41:      3141.77 cm**-1
  42:      3184.53 cm**-1
  43:      3219.73 cm**-1
  44:      3410.31 cm**-1
  45:      3486.17 cm**-1
  46:      3492.07 cm**-1
  47:      3837.93 cm**-1

IR SPECTRUM
-----------

 Mode    freq (cm**-1)   T**2         TX         TY         TZ
-------------------------------------------------------------------
   6:       146.98    3.283840  (  1.780985   0.088824   0.322554)
   7:       176.52    4.083515  (  1.812062   0.231633   0.863882)
   8:       221.26   10.006250  ( -2.732431   0.013529  -1.593702)
   9:       261.18   38.135430  (  1.810948   4.325913   4.017757)
  10:       282.07    5.037387  ( -1.819951   1.153404   0.628351)
  11:       306.88   11.229975  ( -0.627887  -3.141882   0.981993)
  12:       328.21  100.807598  ( -5.124179  -8.328144  -2.278683)
  13:       479.89   20.369077  (  0.302750  -2.080630  -3.993545)
  14:       536.39    7.394404  ( -2.544651  -0.758276   0.586664)
  15:       794.15    8.063363  ( -2.195099   1.801058   0.033063)
  16:       840.06   19.411882  (  3.920858   0.604307  -1.916655)
  17:       878.99   14.553124  (  0.265216   2.962204   2.389170)
  18:       966.96    8.147852  ( -1.221029  -1.939680   1.701347)
  19:       993.24   10.802796  ( -1.682937   2.567702  -1.173637)
  20:      1033.89    2.584997  (  1.538354   0.243116   0.399199)
  21:      1081.91    6.824114  (  2.597448  -0.195055   0.198328)
  22:      1100.27   32.104684  ( -2.405113   2.337763  -4.566725)
  23:      1128.25    9.769390  (  1.040508   0.322821   2.929594)
  24:      1181.25    4.077044  (  1.476451   1.351167   0.267367)
  25:      1188.05    4.111970  (  0.107810   1.532726  -1.323290)
  26:      1223.87   15.500235  (  0.276408  -0.144576  -3.924657)
  27:      1233.50   65.481822  (  0.168000  -0.156812   8.088820)
  28:      1284.52   82.460794  (  1.382920  -1.943490   8.761916)
  29:      1358.77    3.082135  (  0.538461  -0.296818   1.644413)
  30:      1379.83   10.720660  (  2.773556  -1.568352  -0.753869)
  31:      1420.75    3.966310  (  0.928865  -1.641662   0.639113)
  32:      1476.82   15.265505  (  3.424745  -0.224999  -1.867085)
  33:      1488.00   10.957447  (  2.041084  -0.285078  -2.590397)
  34:      1512.18  112.890271  (  7.398566   5.752682  -5.005811)
  35:      1522.19   41.142953  (  0.299994   0.998891  -6.328916)
  36:      1650.29   36.066116  (  0.730432   5.079073   3.120193)
  37:      1660.05   39.961647  ( -4.606882   3.311333  -2.788074)
  38:      3037.00   14.891429  (  2.016397   2.311525  -2.341458)
  39:      3087.95   20.151874  (  0.827582   2.900732  -3.324565)
  40:      3110.77   12.075207  ( -2.346082  -2.366003  -0.986477)
  41:      3141.77    1.218633  (  0.239915  -0.412296  -0.995533)
  42:      3184.53    0.678795  ( -0.724883  -0.193325  -0.340535)
  43:      3219.73    3.514359  (  0.475219  -1.741905   0.504273)
  44:      3410.31   32.234272  (  4.309605   0.764880  -3.616149)
  45:      3486.17   99.488082  (  3.733904   6.586390   6.493498)
  46:      3492.07  107.065304  ( -7.997955   5.962522  -2.747064)
  47:      3837.93  101.330542  (  5.952600  -2.227356  -7.806150)

--------------------------
THERMOCHEMISTRY AT 298.15K
--------------------------

Temperature         ... 298.15 K
Pressure            ... 1.00 atm
Total Mass          ... 88.13 AMU

Throughout the following assumptions are being made:
  (1) The electronic state is orbitally nondegenerate
  (2) There are no thermally accessible electronically excited states
  (3) Hindered rotations indicated by low frequency modes) are not
      treated as such but are treated as vibrations and this may
      case some error
  (4) All equations used are the standard statistical mechanics
      equations for an ideal gas
  (5) All vibrations are strinctly harmonic

------------
INNER ENERGY
------------

The inner energy is: U= E(el) + E(ZPE) + E(vib) + E(rot) + E(trans)
    E(el)   - is the total energy from the electronic structure calculation
              = E(kin-el) + E(nuc-el) + E(el-el) + E(nuc-nuc)
    E(ZPE)  - the the zero temperature vibrational energy from the frequency calculation
    E(vib)  - the the finite temperature correction to E(ZPE) due to population
              of excietd vibrational states
    E(rot)  - is the rotational thermal energy
    E(trans)- is the translational thermal energy

Summary of contributions to the inner energy U:
Electronic energy                ...   -287.91463264 Eh
Zero point energy                ...      0.14613398 Eh      91.70 kcal/mol
Thermal vibrational correction   ...      0.00444322 Eh       2.79 kcal/mol
Thermal rotational correction    ...      0.00141627 Eh       0.89 kcal/mol
Thermal translational correction ...      0.00141627 Eh       0.89 kcal/mol
-----------------------------------------------------------------------
Total thermal energy                   -287.76122290 Eh

Summary of corrections to the electronic energy:
(perhaps to be used in another calculation)
Total thermal correction                  0.00727576 Eh       4.57 kcal/mol
Non-thermal (ZPE) correction              0.14613398 Eh      91.70 kcal/mol
-----------------------------------------------------------------------
Total correction                          0.15340974 Eh      96.27 kcal/mol

--------
ENTHALPY
--------

The enthalpy is H = U + kB*T
                kB is Boltzmann's constant
Total free energy                 ...   -287.76122290 Eh
Thermal Enthalpy correction       ...      0.00094421 Eh       0.59 kcal/mol
-----------------------------------------------------------------------
Total Enthalpy                    ...   -287.76027870 Eh

-------
ENTROPY
-------

The entropy contributions are T*S = T*(S(el)+S(vib)+S(rot)+S(trans)
     S(el)   - electronic entropy
     S(vib)  - vibrational entropy
     S(rot)  - rotational entropy
     S(trans)- translational entropy
The entropies will be listed as mutliplied by the temperature to get
units of energy

Electronic entropy                ...      0.00000000 Eh      0.00 kcal/mol
Vibrational entropy               ...      0.00734048 Eh      4.61 kcal/mol
Rotational entropy                ...      0.01170891 Eh      7.35 kcal/mol
Translational entropy             ...      0.01869229 Eh     11.73 kcal/mol
-----------------------------------------------------------------------
Final entropy term                ...      0.03774168 Eh     23.68 kcal/mol

CAUTION: The rotational entropy is not quite correctly treated here
         because it includes a symmetry number that is not yet correctly
         implemented in ORCA!
For a nonlinear molecule the correct rotational entropy is:
    S(rot) = R*(ln(qrot/sn)+1.5)
    R    = 8.31441 J/mol/K = 1.987191683e-3 kcal/mol/K
    qrot = 162712.6044295
    sn is the rotational symmetry number. We have assumed 3 here
       if it is different for your molecule then you should correct
       the printed rotational entropy by manually evaluating the equation
       as given above

For convenience we print out the resulting values for sn=1 - 12:
 sn= 1  qrot/sn=  162712.6044 T*S(rot)=     8.00 kcal/mol T*S(tot)=    24.33 kcal/mol
 sn= 2  qrot/sn=   81356.3022 T*S(rot)=     7.59 kcal/mol T*S(tot)=    23.92 kcal/mol
 sn= 3  qrot/sn=   54237.5348 T*S(rot)=     7.35 kcal/mol T*S(tot)=    23.68 kcal/mol
 sn= 4  qrot/sn=   40678.1511 T*S(rot)=     7.18 kcal/mol T*S(tot)=    23.51 kcal/mol
 sn= 5  qrot/sn=   32542.5209 T*S(rot)=     7.04 kcal/mol T*S(tot)=    23.38 kcal/mol
 sn= 6  qrot/sn=   27118.7674 T*S(rot)=     6.94 kcal/mol T*S(tot)=    23.27 kcal/mol
 sn= 7  qrot/sn=   23244.6578 T*S(rot)=     6.85 kcal/mol T*S(tot)=    23.18 kcal/mol
 sn= 8  qrot/sn=   20339.0756 T*S(rot)=     6.77 kcal/mol T*S(tot)=    23.10 kcal/mol
 sn= 9  qrot/sn=   18079.1783 T*S(rot)=     6.70 kcal/mol T*S(tot)=    23.03 kcal/mol
 sn=10  qrot/sn=   16271.2604 T*S(rot)=     6.63 kcal/mol T*S(tot)=    22.97 kcal/mol
 sn=11  qrot/sn=   14792.0549 T*S(rot)=     6.58 kcal/mol T*S(tot)=    22.91 kcal/mol
 sn=12  qrot/sn=   13559.3837 T*S(rot)=     6.53 kcal/mol T*S(tot)=    22.86 kcal/mol

-------------------
GIBBS FREE ENTHALPY
-------------------

The Gibbs free enthalpy is G = H - T*S

Total enthalpy                    ...   -287.76027870 Eh
Total entropy correction          ...     -0.03774168 Eh    -23.68 kcal/mol
-----------------------------------------------------------------------
Final Gibbs free enthalpy         ...   -287.79802037 Eh

For completeness - the Gibbs free enthalpy minus the electronic energy
G-E(el)                           ...      0.11661227 Eh     73.18 kcal/mol

                             ****ORCA TERMINATED NORMALLY****
TOTAL RUN TIME: 0 days 0 hours 17 minutes 12 seconds 402 msec
