                         Program Version 3.0.3 - RELEASE   -
|  1> ! NORI PBE0 def2-TZVP UseSym TightOPT Freq TightSCF Grid3 FinalGrid5 XYZFile
|  2> % pal
|  3>     nprocs 8
|  4> end
|  5> %method
|  6>     SymThresh 5.0e-2
|  7> end
|  8> % geom
|  9>     MaxIter 10
| 10> end
| 11> % maxcore 2000
| 12> % output
| 13>     printlevel mini
| 14>     print[ P_Basis ] 0
| 15>     print[ P_SCFInfo ] 1
| 16>     print[ P_SCFIterInfo ] 1
| 17>     print[ P_OrbEn ] 0
| 18>     print[ P_Cartesian ] 0
| 19> end
| 20> % elprop
| 21>     Dipole false
| 22> end
| 23> *xyz 1 1
| 24>  C        0.9914450166    -0.6970523600     0.0148878971
| 25>  C        2.3770048406    -0.1198719144    -0.0322084208
| 26>  C        3.0136972414     0.2314753198     1.2898022764
| 27>  N        3.2590595945    -1.0045546516     2.1157946985
| 28>  C        3.2634327984    -0.3262261330    -1.1869093594
| 29>  O        2.5986824530     0.9059583166    -0.9716132891
| 30>  H        0.6061086444    -0.8087161855    -0.9980657854
| 31>  H        0.3133052257    -0.0372937408     0.5623515611
| 32>  H        0.9645256867    -1.6893273373     0.4775016918
| 33>  H        2.3690318738     0.8820768232     1.8843191813
| 34>  H        3.9756490174     0.7204467452     1.1398941110
| 35>  H        2.3829938342    -1.4956406297     2.3083323735
| 36>  H        3.6939045192    -0.7787176403     3.0128864468
| 37>  H        3.8738325519    -1.6546881120     1.6202701597
| 38>  H        4.3455434044    -0.2942998030    -1.0723174932
| 39>  H        2.8968432978    -0.9128986972    -2.0241260493
| 40> *
| 41>
| 42>                          ****END OF INPUT****
 Total Charge           Charge          ....    1
 Multiplicity           Mult            ....    1
 Number of Electrons    NEL             ....   48
FINAL SINGLE POINT ENERGY      -287.908721225608
FINAL SINGLE POINT ENERGY      -287.908722366813
FINAL SINGLE POINT ENERGY      -287.908723207403

CARTESIAN COORDINATES (ANGSTROEM)
---------------------------------
  C     -1.529013   -0.715410   -0.170053
  C     -0.252333   -0.050777    0.256982
  C      0.999672   -0.436756   -0.491376
  N      0.920551   -0.003599   -1.932516
  C     -0.249129    1.226683    0.983942
  O     -0.000762   -0.002889    1.641778
  H     -2.334098   -0.434737    0.508327
  H     -1.430284   -1.803909   -0.142556
  H     -1.843236   -0.417615   -1.176697
  H      1.145399   -1.518685   -0.497727
  H      1.875913    0.040559   -0.054336
  H      0.125055   -0.442049   -2.402201
  H      1.766163   -0.254786   -2.448934
  H      0.797405    1.009411   -2.000102
  H      0.604277    1.899669    0.924088
  H     -1.201380    1.694808    1.215592

FINAL SINGLE POINT ENERGY      -287.908723531844
                    ***********************HURRAY********************
 Multiplicity           Mult            ....    1
 Number of Electrons    NEL             ....   48
 Basis Dimension        Dim             ....  246
FINAL SINGLE POINT ENERGY      -287.908723858943

VIBRATIONAL FREQUENCIES
-----------------------

   0:         0.00 cm**-1
   1:         0.00 cm**-1
   2:         0.00 cm**-1
   3:         0.00 cm**-1
   4:         0.00 cm**-1
   5:         0.00 cm**-1
   6:        73.71 cm**-1
   7:       190.62 cm**-1
   8:       204.61 cm**-1
   9:       217.41 cm**-1
  10:       368.32 cm**-1
  11:       371.56 cm**-1
  12:       392.64 cm**-1
  13:       492.47 cm**-1
  14:       714.55 cm**-1
  15:       842.91 cm**-1
  16:       881.43 cm**-1
  17:       907.97 cm**-1
  18:       934.03 cm**-1
  19:       964.20 cm**-1
  20:      1000.30 cm**-1
  21:      1060.85 cm**-1
  22:      1092.47 cm**-1
  23:      1138.52 cm**-1
  24:      1161.00 cm**-1
  25:      1186.03 cm**-1
  26:      1291.54 cm**-1
  27:      1321.50 cm**-1
  28:      1401.79 cm**-1
  29:      1409.92 cm**-1
  30:      1437.90 cm**-1
  31:      1477.92 cm**-1
  32:      1478.41 cm**-1
  33:      1491.49 cm**-1
  34:      1506.47 cm**-1
  35:      1534.05 cm**-1
  36:      1655.06 cm**-1
  37:      1663.92 cm**-1
  38:      3041.96 cm**-1
  39:      3099.69 cm**-1
  40:      3107.28 cm**-1
  41:      3112.03 cm**-1
  42:      3159.27 cm**-1
  43:      3168.80 cm**-1
  44:      3206.51 cm**-1
  45:      3419.44 cm**-1
  46:      3499.17 cm**-1
  47:      3506.31 cm**-1

IR SPECTRUM
-----------

 Mode    freq (cm**-1)   T**2         TX         TY         TZ
-------------------------------------------------------------------
   6:        73.71    3.819676  ( -1.037990  -1.580659  -0.493732)
   7:       190.62    0.177331  ( -0.379271  -0.095214   0.156265)
   8:       204.61    0.021926  ( -0.093282   0.103603  -0.049905)
   9:       217.41    6.707908  ( -2.257495   0.138302   1.261942)
  10:       368.32    3.246969  ( -1.727976  -0.365143  -0.357402)
  11:       371.56    0.652392  (  0.712784  -0.304790  -0.226789)
  12:       392.64   14.185057  (  3.087877   0.180464  -2.148838)
  13:       492.47   21.491553  (  1.118256  -0.492809  -4.471934)
  14:       714.55    8.128220  ( -1.035594  -1.021596   2.451960)
  15:       842.91   13.961910  ( -2.205809  -2.380495  -1.851907)
  16:       881.43   10.046443  ( -1.149312   1.189041   2.704017)
  17:       907.97    9.969501  (  2.664974  -1.434496   0.899797)
  18:       934.03    0.786679  (  0.147962  -0.863418   0.138908)
  19:       964.20   26.647170  (  0.381529   1.487821  -4.928285)
  20:      1000.30   10.763265  (  1.477454   2.928669  -0.057398)
  21:      1060.85   10.286723  ( -2.509437   1.960665  -0.381107)
  22:      1092.47   22.909287  ( -4.122455   2.302220   0.783859)
  23:      1138.52    1.388400  (  0.905433   0.643682  -0.392765)
  24:      1161.00   13.912649  (  0.591092   1.538817  -3.345938)
  25:      1186.03    2.178276  (  1.245328  -0.791684   0.025909)
  26:      1291.54    3.530009  ( -1.705213  -0.103717   0.781985)
  27:      1321.50    8.892301  (  1.128566   2.712313  -0.511859)
  28:      1401.79   11.451645  ( -1.261525   0.977704   2.984006)
  29:      1409.92    5.893226  ( -2.110023  -1.167898  -0.277564)
  30:      1437.90   13.339960  (  2.973596   0.974836   1.883449)
  31:      1477.92   28.731701  (  3.555053  -0.759993  -3.938999)
  32:      1478.41    4.847356  ( -0.914663   1.784079   0.909841)
  33:      1491.49   16.106867  (  2.434353  -2.497001   1.986398)
  34:      1506.47  142.761021  ( -0.174995  -3.609414  11.388702)
  35:      1534.05   10.274297  (  1.720496   0.282196   2.689713)
  36:      1655.06   46.461351  (  2.491029   6.040207   1.942170)
  37:      1663.92   38.110632  ( -5.680447   1.583119   1.826715)
  38:      3041.96   14.575934  (  0.188130   0.558677   3.772058)
  39:      3099.69    1.145465  ( -0.376347   0.614475   0.791359)
  40:      3107.28    9.454330  ( -0.992971  -2.686482   1.118550)
  41:      3112.03    6.939264  ( -0.469708   1.794182  -1.870708)
  42:      3159.27    0.871151  (  0.390273   0.755920   0.383957)
  43:      3168.80    0.140409  ( -0.242449   0.285061   0.019178)
  44:      3206.51    3.466508  ( -1.789885  -0.436252   0.269269)
  45:      3419.44   37.375122  ( -0.245135  -1.393651   5.947501)
  46:      3499.17   92.437727  ( -4.523927  -8.289215  -1.805750)
  47:      3506.31  112.876220  (  9.484979  -3.935894  -2.723990)

--------------------------
THERMOCHEMISTRY AT 298.15K
--------------------------

Temperature         ... 298.15 K
Pressure            ... 1.00 atm
Total Mass          ... 88.13 AMU

Throughout the following assumptions are being made:
  (1) The electronic state is orbitally nondegenerate
  (2) There are no thermally accessible electronically excited states
  (3) Hindered rotations indicated by low frequency modes) are not
      treated as such but are treated as vibrations and this may
      case some error
  (4) All equations used are the standard statistical mechanics
      equations for an ideal gas
  (5) All vibrations are strinctly harmonic

------------
INNER ENERGY
------------

The inner energy is: U= E(el) + E(ZPE) + E(vib) + E(rot) + E(trans)
    E(el)   - is the total energy from the electronic structure calculation
              = E(kin-el) + E(nuc-el) + E(el-el) + E(nuc-nuc)
    E(ZPE)  - the the zero temperature vibrational energy from the frequency calculation
    E(vib)  - the the finite temperature correction to E(ZPE) due to population
              of excietd vibrational states
    E(rot)  - is the rotational thermal energy
    E(trans)- is the translational thermal energy

Summary of contributions to the inner energy U:
Electronic energy                ...   -287.90872386 Eh
Zero point energy                ...      0.14622654 Eh      91.76 kcal/mol
Thermal vibrational correction   ...      0.00427220 Eh       2.68 kcal/mol
Thermal rotational correction    ...      0.00141627 Eh       0.89 kcal/mol
Thermal translational correction ...      0.00141627 Eh       0.89 kcal/mol
-----------------------------------------------------------------------
Total thermal energy                   -287.75539258 Eh

Summary of corrections to the electronic energy:
(perhaps to be used in another calculation)
Total thermal correction                  0.00710475 Eh       4.46 kcal/mol
Non-thermal (ZPE) correction              0.14622654 Eh      91.76 kcal/mol
-----------------------------------------------------------------------
Total correction                          0.15333128 Eh      96.22 kcal/mol

--------
ENTHALPY
--------

The enthalpy is H = U + kB*T
                kB is Boltzmann's constant
Total free energy                 ...   -287.75539258 Eh
Thermal Enthalpy correction       ...      0.00094421 Eh       0.59 kcal/mol
-----------------------------------------------------------------------
Total Enthalpy                    ...   -287.75444837 Eh

-------
ENTROPY
-------

The entropy contributions are T*S = T*(S(el)+S(vib)+S(rot)+S(trans)
     S(el)   - electronic entropy
     S(vib)  - vibrational entropy
     S(rot)  - rotational entropy
     S(trans)- translational entropy
The entropies will be listed as mutliplied by the temperature to get
units of energy

Electronic entropy                ...      0.00000000 Eh      0.00 kcal/mol
Vibrational entropy               ...      0.00746195 Eh      4.68 kcal/mol
Rotational entropy                ...      0.01161197 Eh      7.29 kcal/mol
Translational entropy             ...      0.01869229 Eh     11.73 kcal/mol
-----------------------------------------------------------------------
Final entropy term                ...      0.03776620 Eh     23.70 kcal/mol

CAUTION: The rotational entropy is not quite correctly treated here
         because it includes a symmetry number that is not yet correctly
         implemented in ORCA!
For a nonlinear molecule the correct rotational entropy is:
    S(rot) = R*(ln(qrot/sn)+1.5)
    R    = 8.31441 J/mol/K = 1.987191683e-3 kcal/mol/K
    qrot = 146835.4552327
    sn is the rotational symmetry number. We have assumed 3 here
       if it is different for your molecule then you should correct
       the printed rotational entropy by manually evaluating the equation
       as given above

For convenience we print out the resulting values for sn=1 - 12:
 sn= 1  qrot/sn=  146835.4552 T*S(rot)=     7.94 kcal/mol T*S(tot)=    24.35 kcal/mol
 sn= 2  qrot/sn=   73417.7276 T*S(rot)=     7.53 kcal/mol T*S(tot)=    23.94 kcal/mol
 sn= 3  qrot/sn=   48945.1517 T*S(rot)=     7.29 kcal/mol T*S(tot)=    23.70 kcal/mol
 sn= 4  qrot/sn=   36708.8638 T*S(rot)=     7.12 kcal/mol T*S(tot)=    23.53 kcal/mol
 sn= 5  qrot/sn=   29367.0910 T*S(rot)=     6.98 kcal/mol T*S(tot)=    23.40 kcal/mol
 sn= 6  qrot/sn=   24472.5759 T*S(rot)=     6.88 kcal/mol T*S(tot)=    23.29 kcal/mol
 sn= 7  qrot/sn=   20976.4936 T*S(rot)=     6.78 kcal/mol T*S(tot)=    23.20 kcal/mol
 sn= 8  qrot/sn=   18354.4319 T*S(rot)=     6.71 kcal/mol T*S(tot)=    23.12 kcal/mol
 sn= 9  qrot/sn=   16315.0506 T*S(rot)=     6.64 kcal/mol T*S(tot)=    23.05 kcal/mol
 sn=10  qrot/sn=   14683.5455 T*S(rot)=     6.57 kcal/mol T*S(tot)=    22.99 kcal/mol
 sn=11  qrot/sn=   13348.6777 T*S(rot)=     6.52 kcal/mol T*S(tot)=    22.93 kcal/mol
 sn=12  qrot/sn=   12236.2879 T*S(rot)=     6.47 kcal/mol T*S(tot)=    22.88 kcal/mol

-------------------
GIBBS FREE ENTHALPY
-------------------

The Gibbs free enthalpy is G = H - T*S

Total enthalpy                    ...   -287.75444837 Eh
Total entropy correction          ...     -0.03776620 Eh    -23.70 kcal/mol
-----------------------------------------------------------------------
Final Gibbs free enthalpy         ...   -287.79221457 Eh

For completeness - the Gibbs free enthalpy minus the electronic energy
G-E(el)                           ...      0.11650929 Eh     73.11 kcal/mol

                             ****ORCA TERMINATED NORMALLY****
TOTAL RUN TIME: 0 days 0 hours 18 minutes 26 seconds 706 msec
