                         Program Version 3.0.3 - RELEASE   -
|  1> ! NORI PBE0 def2-TZVP UseSym TightOPT Freq TightSCF Grid3 FinalGrid5 XYZFile
|  2> % pal
|  3>     nprocs 8
|  4> end
|  5> %method
|  6>     SymThresh 5.0e-2
|  7> end
|  8> % geom
|  9>     MaxIter 10
| 10> end
| 11> % maxcore 2000
| 12> % output
| 13>     printlevel mini
| 14>     print[ P_Basis ] 0
| 15>     print[ P_SCFInfo ] 1
| 16>     print[ P_SCFIterInfo ] 1
| 17>     print[ P_OrbEn ] 0
| 18>     print[ P_Cartesian ] 0
| 19> end
| 20> % elprop
| 21>     Dipole false
| 22> end
| 23> *xyz 1 1
| 24>  C        0.9671054732     0.2035409059    -0.2503945016
| 25>  C        2.3806640758    -0.2226492151    -0.0080228142
| 26>  C        2.8303369957    -0.3009211939     1.4320760455
| 27>  O        4.2295505025    -0.4252968883     1.4236594505
| 28>  C        3.1028851494    -1.0303151163    -1.0058296862
| 29>  N        3.4286828313     0.4097836622    -0.8756843814
| 30>  H        0.7338768494     0.2574958242    -1.3151601614
| 31>  H        0.7615863641     1.1713518366     0.2098348383
| 32>  H        0.2948602653    -0.5323512114     0.1953508006
| 33>  H        2.3360920077    -1.1658141952     1.8902338782
| 34>  H        2.5039233500     0.6032980224     1.9597501503
| 35>  H        4.5712618240    -0.5061895112     2.3183532618
| 36>  H        3.9096281765    -1.6765260301    -0.6855733024
| 37>  H        2.6063486313    -1.2891447520    -1.9320625625
| 38>  H        3.1498492127     1.0497259188    -1.6100755935
| 39>  H        4.3036382912     0.6169519433    -0.3957254221
| 40> *
| 41>
| 42>                          ****END OF INPUT****
 Total Charge           Charge          ....    1
 Multiplicity           Mult            ....    1
 Number of Electrons    NEL             ....   48
FINAL SINGLE POINT ENERGY      -287.929779765008

CARTESIAN COORDINATES (ANGSTROEM)
---------------------------------
  C     -0.787560    0.662003   -1.696410
  C     -0.220501    0.043723   -0.457566
  C     -0.850260    0.448988    0.854505
  O      0.000129    0.000616    1.879024
  C      0.488771   -1.245732   -0.519351
  N      1.275797   -0.000363   -0.356649
  H     -0.258942    0.336118   -2.593961
  H     -0.761310    1.751617   -1.641848
  H     -1.829978    0.353467   -1.800029
  H     -1.844353   -0.010678    0.904459
  H     -0.971838    1.538599    0.872352
  H     -0.364708    0.210782    2.743050
  H      0.517087   -1.880754    0.356359
  H      0.618932   -1.728511   -1.479336
  H      1.838630    0.335132   -1.129364
  H      1.639537    0.165730    0.580755

FINAL SINGLE POINT ENERGY      -287.929780735722
                    ***********************HURRAY********************
 Multiplicity           Mult            ....    1
 Number of Electrons    NEL             ....   48
 Basis Dimension        Dim             ....  246
FINAL SINGLE POINT ENERGY      -287.929781524471

VIBRATIONAL FREQUENCIES
-----------------------

   0:         0.00 cm**-1
   1:         0.00 cm**-1
   2:         0.00 cm**-1
   3:         0.00 cm**-1
   4:         0.00 cm**-1
   5:         0.00 cm**-1
   6:       136.10 cm**-1
   7:       202.40 cm**-1
   8:       259.71 cm**-1
   9:       275.77 cm**-1
  10:       331.85 cm**-1
  11:       350.75 cm**-1
  12:       410.17 cm**-1
  13:       533.56 cm**-1
  14:       692.61 cm**-1
  15:       814.14 cm**-1
  16:       882.90 cm**-1
  17:       902.06 cm**-1
  18:       936.02 cm**-1
  19:       956.11 cm**-1
  20:      1030.59 cm**-1
  21:      1035.28 cm**-1
  22:      1054.56 cm**-1
  23:      1120.99 cm**-1
  24:      1126.79 cm**-1
  25:      1184.23 cm**-1
  26:      1211.42 cm**-1
  27:      1255.57 cm**-1
  28:      1266.67 cm**-1
  29:      1338.27 cm**-1
  30:      1386.56 cm**-1
  31:      1428.96 cm**-1
  32:      1459.02 cm**-1
  33:      1474.40 cm**-1
  34:      1483.42 cm**-1
  35:      1493.28 cm**-1
  36:      1515.15 cm**-1
  37:      1590.02 cm**-1
  38:      3035.55 cm**-1
  39:      3065.26 cm**-1
  40:      3081.84 cm**-1
  41:      3145.37 cm**-1
  42:      3151.14 cm**-1
  43:      3174.39 cm**-1
  44:      3278.67 cm**-1
  45:      3466.43 cm**-1
  46:      3607.71 cm**-1
  47:      3871.92 cm**-1

IR SPECTRUM
-----------

 Mode    freq (cm**-1)   T**2         TX         TY         TZ
-------------------------------------------------------------------
   6:       136.10   16.395002  (  2.029307   3.390694  -0.883238)
   7:       202.40    2.578998  (  0.712582   1.407851  -0.298630)
   8:       259.71  121.559895  (  4.900647   9.873462  -0.241448)
   9:       275.77   14.345331  ( -0.824422   1.760249   3.250720)
  10:       331.85    7.757191  ( -1.106171  -1.126151   2.294637)
  11:       350.75    2.065846  ( -0.443556   0.258968  -1.342401)
  12:       410.17    1.126831  ( -0.656205   0.489433   0.675781)
  13:       533.56   10.783557  (  1.338860  -0.375326   2.974919)
  14:       692.61    2.530292  ( -0.698477  -0.006662  -1.429118)
  15:       814.14   23.516190  ( -4.241613  -0.755651  -2.225737)
  16:       882.90    2.722264  ( -1.566825   0.265368   0.443736)
  17:       902.06    8.393821  (  1.736470  -0.857755  -2.154704)
  18:       936.02   11.749750  ( -0.552394  -1.723275   2.911174)
  19:       956.11    7.114082  ( -1.969170   0.384569  -1.757429)
  20:      1030.59    3.829250  ( -0.009240  -0.286180   1.935785)
  21:      1035.28   97.709048  (  6.319819  -7.597096   0.230371)
  22:      1054.56   11.476988  ( -2.970674   1.278467   1.008764)
  23:      1120.99    7.983669  ( -2.199363  -1.761273  -0.210687)
  24:      1126.79   61.546947  (  3.874218  -1.057263   6.739405)
  25:      1184.23    3.409252  (  0.100479  -0.927018   1.593673)
  26:      1211.42   59.398359  ( -5.513656   2.731777  -4.640620)
  27:      1255.57    2.354068  (  0.201220  -0.657262   1.371709)
  28:      1266.67    2.264170  (  1.405710   0.530942   0.079055)
  29:      1338.27    8.521247  ( -2.390601   1.370289   0.963629)
  30:      1386.56    2.134583  ( -0.547514   0.263418  -1.328692)
  31:      1428.96    9.227964  (  1.003460  -0.318808   2.849455)
  32:      1459.02    4.838993  ( -0.037582   0.742190   2.070443)
  33:      1474.40   24.744630  (  1.522391   4.697834   0.597758)
  34:      1483.42    7.843950  ( -1.494033   2.283611   0.630028)
  35:      1493.28    3.361183  ( -1.648857  -0.009027   0.801480)
  36:      1515.15    7.762476  (  1.760382  -0.814167  -2.000166)
  37:      1590.02   88.536918  (  9.144437   2.061209  -0.817072)
  38:      3035.55   17.329566  (  2.785249  -2.401833   1.950167)
  39:      3065.26    0.598531  (  0.510186   0.410655  -0.411829)
  40:      3081.84    5.956016  ( -0.901999  -2.245674  -0.315219)
  41:      3145.37    0.897488  ( -0.185927   0.020490   0.928708)
  42:      3151.14    2.210512  (  0.774165  -1.143243  -0.551520)
  43:      3174.39    2.682951  (  0.173172  -1.450617   0.740725)
  44:      3278.67    6.164331  ( -0.177051  -0.421487   2.440355)
  45:      3466.43  111.329447  (  7.151892   3.676899   6.830834)
  46:      3607.71  143.165696  (  4.583637   1.905669 -10.886891)
  47:      3871.92  142.744407  ( -2.195286   1.317134  11.670059)

--------------------------
THERMOCHEMISTRY AT 298.15K
--------------------------

Temperature         ... 298.15 K
Pressure            ... 1.00 atm
Total Mass          ... 88.13 AMU

Throughout the following assumptions are being made:
  (1) The electronic state is orbitally nondegenerate
  (2) There are no thermally accessible electronically excited states
  (3) Hindered rotations indicated by low frequency modes) are not
      treated as such but are treated as vibrations and this may
      case some error
  (4) All equations used are the standard statistical mechanics
      equations for an ideal gas
  (5) All vibrations are strinctly harmonic

------------
INNER ENERGY
------------

The inner energy is: U= E(el) + E(ZPE) + E(vib) + E(rot) + E(trans)
    E(el)   - is the total energy from the electronic structure calculation
              = E(kin-el) + E(nuc-el) + E(el-el) + E(nuc-nuc)
    E(ZPE)  - the the zero temperature vibrational energy from the frequency calculation
    E(vib)  - the the finite temperature correction to E(ZPE) due to population
              of excietd vibrational states
    E(rot)  - is the rotational thermal energy
    E(trans)- is the translational thermal energy

Summary of contributions to the inner energy U:
Electronic energy                ...   -287.92978152 Eh
Zero point energy                ...      0.14584288 Eh      91.52 kcal/mol
Thermal vibrational correction   ...      0.00403740 Eh       2.53 kcal/mol
Thermal rotational correction    ...      0.00141627 Eh       0.89 kcal/mol
Thermal translational correction ...      0.00141627 Eh       0.89 kcal/mol
-----------------------------------------------------------------------
Total thermal energy                   -287.77706870 Eh

Summary of corrections to the electronic energy:
(perhaps to be used in another calculation)
Total thermal correction                  0.00686994 Eh       4.31 kcal/mol
Non-thermal (ZPE) correction              0.14584288 Eh      91.52 kcal/mol
-----------------------------------------------------------------------
Total correction                          0.15271282 Eh      95.83 kcal/mol

--------
ENTHALPY
--------

The enthalpy is H = U + kB*T
                kB is Boltzmann's constant
Total free energy                 ...   -287.77706870 Eh
Thermal Enthalpy correction       ...      0.00094421 Eh       0.59 kcal/mol
-----------------------------------------------------------------------
Total Enthalpy                    ...   -287.77612449 Eh

-------
ENTROPY
-------

The entropy contributions are T*S = T*(S(el)+S(vib)+S(rot)+S(trans)
     S(el)   - electronic entropy
     S(vib)  - vibrational entropy
     S(rot)  - rotational entropy
     S(trans)- translational entropy
The entropies will be listed as mutliplied by the temperature to get
units of energy

Electronic entropy                ...      0.00000000 Eh      0.00 kcal/mol
Vibrational entropy               ...      0.00654385 Eh      4.11 kcal/mol
Rotational entropy                ...      0.01153218 Eh      7.24 kcal/mol
Translational entropy             ...      0.01869229 Eh     11.73 kcal/mol
-----------------------------------------------------------------------
Final entropy term                ...      0.03676831 Eh     23.07 kcal/mol

CAUTION: The rotational entropy is not quite correctly treated here
         because it includes a symmetry number that is not yet correctly
         implemented in ORCA!
For a nonlinear molecule the correct rotational entropy is:
    S(rot) = R*(ln(qrot/sn)+1.5)
    R    = 8.31441 J/mol/K = 1.987191683e-3 kcal/mol/K
    qrot = 134936.4132138
    sn is the rotational symmetry number. We have assumed 3 here
       if it is different for your molecule then you should correct
       the printed rotational entropy by manually evaluating the equation
       as given above

For convenience we print out the resulting values for sn=1 - 12:
 sn= 1  qrot/sn=  134936.4132 T*S(rot)=     7.89 kcal/mol T*S(tot)=    23.72 kcal/mol
 sn= 2  qrot/sn=   67468.2066 T*S(rot)=     7.48 kcal/mol T*S(tot)=    23.31 kcal/mol
 sn= 3  qrot/sn=   44978.8044 T*S(rot)=     7.24 kcal/mol T*S(tot)=    23.07 kcal/mol
 sn= 4  qrot/sn=   33734.1033 T*S(rot)=     7.07 kcal/mol T*S(tot)=    22.90 kcal/mol
 sn= 5  qrot/sn=   26987.2826 T*S(rot)=     6.93 kcal/mol T*S(tot)=    22.77 kcal/mol
 sn= 6  qrot/sn=   22489.4022 T*S(rot)=     6.83 kcal/mol T*S(tot)=    22.66 kcal/mol
 sn= 7  qrot/sn=   19276.6305 T*S(rot)=     6.73 kcal/mol T*S(tot)=    22.57 kcal/mol
 sn= 8  qrot/sn=   16867.0517 T*S(rot)=     6.66 kcal/mol T*S(tot)=    22.49 kcal/mol
 sn= 9  qrot/sn=   14992.9348 T*S(rot)=     6.59 kcal/mol T*S(tot)=    22.42 kcal/mol
 sn=10  qrot/sn=   13493.6413 T*S(rot)=     6.52 kcal/mol T*S(tot)=    22.36 kcal/mol
 sn=11  qrot/sn=   12266.9467 T*S(rot)=     6.47 kcal/mol T*S(tot)=    22.30 kcal/mol
 sn=12  qrot/sn=   11244.7011 T*S(rot)=     6.42 kcal/mol T*S(tot)=    22.25 kcal/mol

-------------------
GIBBS FREE ENTHALPY
-------------------

The Gibbs free enthalpy is G = H - T*S

Total enthalpy                    ...   -287.77612449 Eh
Total entropy correction          ...     -0.03676831 Eh    -23.07 kcal/mol
-----------------------------------------------------------------------
Final Gibbs free enthalpy         ...   -287.81289281 Eh

For completeness - the Gibbs free enthalpy minus the electronic energy
G-E(el)                           ...      0.11688871 Eh     73.35 kcal/mol

                             ****ORCA TERMINATED NORMALLY****
TOTAL RUN TIME: 0 days 0 hours 17 minutes 20 seconds 346 msec
