                         Program Version 3.0.3 - RELEASE   -
|  1> ! NORI PBE0 def2-TZVP UseSym TightOPT Freq TightSCF Grid3 FinalGrid5 XYZFile
|  2> % pal
|  3>     nprocs 8
|  4> end
|  5> %method
|  6>     SymThresh 5.0e-2
|  7> end
|  8> % geom
|  9>     MaxIter 10
| 10> end
| 11> % maxcore 2000
| 12> % output
| 13>     printlevel mini
| 14>     print[ P_Basis ] 0
| 15>     print[ P_SCFInfo ] 1
| 16>     print[ P_SCFIterInfo ] 1
| 17>     print[ P_OrbEn ] 0
| 18>     print[ P_Cartesian ] 0
| 19> end
| 20> % elprop
| 21>     Dipole false
| 22> end
| 23> *xyz 1 1
| 24>  C        0.9462370469    -0.0808908592    -0.2275991836
| 25>  C        2.4118093393     0.1537634372    -0.0834680533
| 26>  N        3.3354911394    -0.8242997925    -0.7555955159
| 27>  C        3.2662523201     0.5957014195    -1.1944517221
| 28>  C        4.4810711031     1.4460156447    -0.9416080244
| 29>  O        3.9744136889     2.7323418302    -0.7529390352
| 30>  H        0.4253099531     0.8465630318     0.0188782512
| 31>  H        0.5992929531    -0.8545989202     0.4586822921
| 32>  H        0.6740170510    -0.3536522401    -1.2493765956
| 33>  H        2.7738173769     0.3979042750     0.9104496729
| 34>  H        4.1637979062    -1.1328506801    -0.2579334640
| 35>  H        2.9227855189    -1.5314803891    -1.3540054064
| 36>  H        2.7947377190     0.7058010667    -2.1654201918
| 37>  H        5.1652166095     1.3779648611    -1.7958242277
| 38>  H        5.0128897178     1.0749524180    -0.0494860940
| 39>  H        4.6759805569     3.3832548970    -0.8472627023
| 40> *
| 41>
| 42>                          ****END OF INPUT****
 Total Charge           Charge          ....    1
 Multiplicity           Mult            ....    1
 Number of Electrons    NEL             ....   48
FINAL SINGLE POINT ENERGY      -287.919016266289

CARTESIAN COORDINATES (ANGSTROEM)
---------------------------------
  C     -1.709180   -0.072099   -1.583079
  C     -0.506195   -0.466029   -0.794617
  N      0.831427   -0.000137   -1.299948
  C      0.283870    0.489998   -0.006141
  C      0.998795    0.054203    1.243705
  O      0.000551    0.000165    2.217268
  H     -2.588973   -0.192175   -0.947772
  H     -1.836061   -0.710474   -2.458458
  H     -1.667203    0.972688   -1.899033
  H     -0.450681   -1.500127   -0.468275
  H      1.612840   -0.646578   -1.276207
  H      0.844144    0.638467   -2.087739
  H     -0.014895    1.532196   -0.051706
  H      1.792160    0.771146    1.485510
  H      1.468584   -0.929330    1.076960
  H      0.392525   -0.010387    3.095347

FINAL SINGLE POINT ENERGY      -287.919016725778
                    ***********************HURRAY********************
 Multiplicity           Mult            ....    1
 Number of Electrons    NEL             ....   48
 Basis Dimension        Dim             ....  246
FINAL SINGLE POINT ENERGY      -287.919016922553

VIBRATIONAL FREQUENCIES
-----------------------

   0:         0.00 cm**-1
   1:         0.00 cm**-1
   2:         0.00 cm**-1
   3:         0.00 cm**-1
   4:         0.00 cm**-1
   5:         0.00 cm**-1
   6:        80.80 cm**-1
   7:       164.46 cm**-1
   8:       218.78 cm**-1
   9:       238.27 cm**-1
  10:       270.56 cm**-1
  11:       375.17 cm**-1
  12:       416.31 cm**-1
  13:       497.44 cm**-1
  14:       762.25 cm**-1
  15:       821.23 cm**-1
  16:       884.18 cm**-1
  17:       898.19 cm**-1
  18:       982.52 cm**-1
  19:       994.52 cm**-1
  20:      1011.09 cm**-1
  21:      1051.89 cm**-1
  22:      1127.78 cm**-1
  23:      1142.13 cm**-1
  24:      1160.48 cm**-1
  25:      1197.66 cm**-1
  26:      1227.65 cm**-1
  27:      1237.75 cm**-1
  28:      1281.24 cm**-1
  29:      1302.09 cm**-1
  30:      1357.77 cm**-1
  31:      1420.44 cm**-1
  32:      1445.74 cm**-1
  33:      1473.46 cm**-1
  34:      1482.65 cm**-1
  35:      1505.87 cm**-1
  36:      1514.93 cm**-1
  37:      1623.95 cm**-1
  38:      2976.02 cm**-1
  39:      3062.01 cm**-1
  40:      3063.92 cm**-1
  41:      3143.65 cm**-1
  42:      3154.34 cm**-1
  43:      3185.72 cm**-1
  44:      3195.78 cm**-1
  45:      3510.68 cm**-1
  46:      3616.70 cm**-1
  47:      3863.38 cm**-1

IR SPECTRUM
-----------

 Mode    freq (cm**-1)   T**2         TX         TY         TZ
-------------------------------------------------------------------
   6:        80.80    3.387280  ( -0.150909   1.224667   1.365540)
   7:       164.46    1.676292  (  0.310473  -1.130884   0.548636)
   8:       218.78    4.299497  (  0.131882  -2.063676  -0.152796)
   9:       238.27  107.970897  ( -0.060317 -10.378353  -0.506990)
  10:       270.56   21.888280  ( -0.095818   4.599296   0.851808)
  11:       375.17    3.797217  ( -1.472289   0.214026   1.258481)
  12:       416.31    3.788726  ( -0.045593  -1.131053  -1.583466)
  13:       497.44   11.206300  ( -0.799111   0.452168   3.219203)
  14:       762.25    7.568172  (  1.623820  -0.741468   2.093228)
  15:       821.23    0.703687  ( -0.371983  -0.742495  -0.118391)
  16:       884.18   30.874194  (  3.605681   1.378716  -3.996548)
  17:       898.19    1.243441  ( -0.726560   0.845803  -0.012998)
  18:       982.52   25.933748  ( -2.944265   1.538413   3.859836)
  19:       994.52    7.559401  ( -0.399970  -2.373082  -1.329626)
  20:      1011.09   86.559390  (  4.515288   5.748272   5.755774)
  21:      1051.89   34.981407  (  4.896276   1.443863  -2.987164)
  22:      1127.78   21.692836  (  3.751427   1.148123  -2.510268)
  23:      1142.13   49.558538  (  3.857293  -0.265619  -5.882964)
  24:      1160.48    0.534895  ( -0.272607   0.651113   0.191396)
  25:      1197.66    3.472117  ( -0.169525   0.865728   1.641308)
  26:      1227.65   14.486474  ( -1.729194   0.216283   3.383724)
  27:      1237.75   14.896110  ( -3.675054   0.248073   1.152627)
  28:      1281.24   18.612997  ( -3.795069  -0.320514   2.026750)
  29:      1302.09   11.783565  ( -1.914577   0.696141   2.762851)
  30:      1357.77    4.211689  (  1.649422  -0.900648   0.824577)
  31:      1420.44   11.488644  ( -2.738377   1.833169  -0.793363)
  32:      1445.74    0.322185  (  0.251385   0.236769  -0.450479)
  33:      1473.46   10.101157  (  0.636594  -1.535109  -2.709122)
  34:      1482.65   20.289370  (  2.537645   3.699594   0.403400)
  35:      1505.87    6.157375  (  0.952708  -1.214755   1.942703)
  36:      1514.93    4.515827  (  0.781630  -1.543299   1.234143)
  37:      1623.95   75.510386  (  6.449731  -0.151592  -5.821373)
  38:      2976.02   41.951485  ( -4.155018   3.611731   3.412142)
  39:      3062.01   14.827243  ( -2.587324  -2.833026  -0.327041)
  40:      3063.92    1.457102  ( -0.725765  -0.637252   0.724070)
  41:      3143.65    1.668813  ( -0.243499   1.264764   0.099467)
  42:      3154.34    1.493016  (  1.036312   0.612539   0.209450)
  43:      3185.72    0.856220  ( -0.849344  -0.287182   0.228826)
  44:      3195.78    1.659966  (  0.277794   1.206267   0.357374)
  45:      3510.68   97.562602  (  7.274411  -0.055907  -6.681498)
  46:      3616.70  112.613209  (  4.540168  -7.779241   5.611015)
  47:      3863.38  120.654631  ( -1.487593   0.062973 -10.882910)

--------------------------
THERMOCHEMISTRY AT 298.15K
--------------------------

Temperature         ... 298.15 K
Pressure            ... 1.00 atm
Total Mass          ... 88.13 AMU

Throughout the following assumptions are being made:
  (1) The electronic state is orbitally nondegenerate
  (2) There are no thermally accessible electronically excited states
  (3) Hindered rotations indicated by low frequency modes) are not
      treated as such but are treated as vibrations and this may
      case some error
  (4) All equations used are the standard statistical mechanics
      equations for an ideal gas
  (5) All vibrations are strinctly harmonic

------------
INNER ENERGY
------------

The inner energy is: U= E(el) + E(ZPE) + E(vib) + E(rot) + E(trans)
    E(el)   - is the total energy from the electronic structure calculation
              = E(kin-el) + E(nuc-el) + E(el-el) + E(nuc-nuc)
    E(ZPE)  - the the zero temperature vibrational energy from the frequency calculation
    E(vib)  - the the finite temperature correction to E(ZPE) due to population
              of excietd vibrational states
    E(rot)  - is the rotational thermal energy
    E(trans)- is the translational thermal energy

Summary of contributions to the inner energy U:
Electronic energy                ...   -287.91901692 Eh
Zero point energy                ...      0.14566943 Eh      91.41 kcal/mol
Thermal vibrational correction   ...      0.00433244 Eh       2.72 kcal/mol
Thermal rotational correction    ...      0.00141627 Eh       0.89 kcal/mol
Thermal translational correction ...      0.00141627 Eh       0.89 kcal/mol
-----------------------------------------------------------------------
Total thermal energy                   -287.76618251 Eh

Summary of corrections to the electronic energy:
(perhaps to be used in another calculation)
Total thermal correction                  0.00716499 Eh       4.50 kcal/mol
Non-thermal (ZPE) correction              0.14566943 Eh      91.41 kcal/mol
-----------------------------------------------------------------------
Total correction                          0.15283441 Eh      95.90 kcal/mol

--------
ENTHALPY
--------

The enthalpy is H = U + kB*T
                kB is Boltzmann's constant
Total free energy                 ...   -287.76618251 Eh
Thermal Enthalpy correction       ...      0.00094421 Eh       0.59 kcal/mol
-----------------------------------------------------------------------
Total Enthalpy                    ...   -287.76523830 Eh

-------
ENTROPY
-------

The entropy contributions are T*S = T*(S(el)+S(vib)+S(rot)+S(trans)
     S(el)   - electronic entropy
     S(vib)  - vibrational entropy
     S(rot)  - rotational entropy
     S(trans)- translational entropy
The entropies will be listed as mutliplied by the temperature to get
units of energy

Electronic entropy                ...      0.00000000 Eh      0.00 kcal/mol
Vibrational entropy               ...      0.00755079 Eh      4.74 kcal/mol
Rotational entropy                ...      0.01172079 Eh      7.35 kcal/mol
Translational entropy             ...      0.01869229 Eh     11.73 kcal/mol
-----------------------------------------------------------------------
Final entropy term                ...      0.03796386 Eh     23.82 kcal/mol

CAUTION: The rotational entropy is not quite correctly treated here
         because it includes a symmetry number that is not yet correctly
         implemented in ORCA!
For a nonlinear molecule the correct rotational entropy is:
    S(rot) = R*(ln(qrot/sn)+1.5)
    R    = 8.31441 J/mol/K = 1.987191683e-3 kcal/mol/K
    qrot = 164772.4005210
    sn is the rotational symmetry number. We have assumed 3 here
       if it is different for your molecule then you should correct
       the printed rotational entropy by manually evaluating the equation
       as given above

For convenience we print out the resulting values for sn=1 - 12:
 sn= 1  qrot/sn=  164772.4005 T*S(rot)=     8.01 kcal/mol T*S(tot)=    24.47 kcal/mol
 sn= 2  qrot/sn=   82386.2003 T*S(rot)=     7.60 kcal/mol T*S(tot)=    24.06 kcal/mol
 sn= 3  qrot/sn=   54924.1335 T*S(rot)=     7.35 kcal/mol T*S(tot)=    23.82 kcal/mol
 sn= 4  qrot/sn=   41193.1001 T*S(rot)=     7.18 kcal/mol T*S(tot)=    23.65 kcal/mol
 sn= 5  qrot/sn=   32954.4801 T*S(rot)=     7.05 kcal/mol T*S(tot)=    23.52 kcal/mol
 sn= 6  qrot/sn=   27462.0668 T*S(rot)=     6.94 kcal/mol T*S(tot)=    23.41 kcal/mol
 sn= 7  qrot/sn=   23538.9144 T*S(rot)=     6.85 kcal/mol T*S(tot)=    23.32 kcal/mol
 sn= 8  qrot/sn=   20596.5501 T*S(rot)=     6.77 kcal/mol T*S(tot)=    23.24 kcal/mol
 sn= 9  qrot/sn=   18308.0445 T*S(rot)=     6.70 kcal/mol T*S(tot)=    23.17 kcal/mol
 sn=10  qrot/sn=   16477.2401 T*S(rot)=     6.64 kcal/mol T*S(tot)=    23.11 kcal/mol
 sn=11  qrot/sn=   14979.3091 T*S(rot)=     6.59 kcal/mol T*S(tot)=    23.05 kcal/mol
 sn=12  qrot/sn=   13731.0334 T*S(rot)=     6.53 kcal/mol T*S(tot)=    23.00 kcal/mol

-------------------
GIBBS FREE ENTHALPY
-------------------

The Gibbs free enthalpy is G = H - T*S

Total enthalpy                    ...   -287.76523830 Eh
Total entropy correction          ...     -0.03796386 Eh    -23.82 kcal/mol
-----------------------------------------------------------------------
Final Gibbs free enthalpy         ...   -287.80320216 Eh

For completeness - the Gibbs free enthalpy minus the electronic energy
G-E(el)                           ...      0.11581476 Eh     72.67 kcal/mol

                             ****ORCA TERMINATED NORMALLY****
TOTAL RUN TIME: 0 days 0 hours 16 minutes 3 seconds 399 msec
