                         Program Version 3.0.3 - RELEASE   -
|  1> ! NORI PBE0 def2-TZVP UseSym TightOPT Freq TightSCF Grid3 FinalGrid5 XYZFile
|  2> % pal
|  3>     nprocs 8
|  4> end
|  5> %method
|  6>     SymThresh 5.0e-2
|  7> end
|  8> % geom
|  9>     MaxIter 10
| 10> end
| 11> % maxcore 2000
| 12> % output
| 13>     printlevel mini
| 14>     print[ P_Basis ] 0
| 15>     print[ P_SCFInfo ] 1
| 16>     print[ P_SCFIterInfo ] 1
| 17>     print[ P_OrbEn ] 0
| 18>     print[ P_Cartesian ] 0
| 19> end
| 20> % elprop
| 21>     Dipole false
| 22> end
| 23> *xyz 1 1
| 24>  C        0.9985219288     0.1087277673    -0.0873110354
| 25>  C        2.4718705777     0.2284336305     0.1137685207
| 26>  N        3.3583714638    -0.6978277951    -0.6459200988
| 27>  C        3.3755150005     0.7636883440    -0.9300011905
| 28>  C        4.6275164348     1.5040287540    -0.5358202263
| 29>  O        4.9301309351     2.5217258686    -1.0674365322
| 30>  H        0.5270278132     1.0326196356     0.2538463285
| 31>  H        0.5901533281    -0.7138733856     0.5015821684
| 32>  H        0.7385836751    -0.0310492650    -1.1386225522
| 33>  H        2.8194398759     0.3352786900     1.1380545915
| 34>  H        4.1639783155    -1.1042520448    -0.1773791589
| 35>  H        2.9354579502    -1.3046284114    -1.3420197069
| 36>  H        2.9566901088     1.0295768712    -1.8944297186
| 37>  H        5.2150025924     1.0553413406     0.2955586108
| 38> *
| 39>
| 40>                          ****END OF INPUT****
 Total Charge           Charge          ....    1
 Multiplicity           Mult            ....    1
 Number of Electrons    NEL             ....   46
FINAL SINGLE POINT ENERGY      -286.690746355427

CARTESIAN COORDINATES (ANGSTROEM)
---------------------------------
  C     -1.225836    0.398278   -2.047246
  C     -0.399912   -0.324194   -1.036499
  N      1.052822    0.000092   -0.961052
  C      0.144801    0.342500    0.168283
  C      0.339630   -0.441321    1.440829
  O     -0.000402   -0.000289    2.489536
  H     -2.276060    0.310100   -1.762153
  H     -1.107823   -0.046160   -3.036597
  H     -0.979690    1.461226   -2.093118
  H     -0.556653   -1.396318   -0.951762
  H      1.720265   -0.755272   -0.827329
  H      1.404045    0.766422   -1.527633
  H     -0.020230    1.407217    0.293242
  H      0.782457   -1.455094    1.323451

FINAL SINGLE POINT ENERGY      -286.690746699115
                    ***********************HURRAY********************
 Multiplicity           Mult            ....    1
 Number of Electrons    NEL             ....   46
 Basis Dimension        Dim             ....  234
FINAL SINGLE POINT ENERGY      -286.690746755157

VIBRATIONAL FREQUENCIES
-----------------------

   0:         0.00 cm**-1
   1:         0.00 cm**-1
   2:         0.00 cm**-1
   3:         0.00 cm**-1
   4:         0.00 cm**-1
   5:         0.00 cm**-1
   6:        83.19 cm**-1
   7:       194.67 cm**-1
   8:       219.65 cm**-1
   9:       244.82 cm**-1
  10:       373.80 cm**-1
  11:       407.65 cm**-1
  12:       493.87 cm**-1
  13:       778.60 cm**-1
  14:       840.74 cm**-1
  15:       877.58 cm**-1
  16:       908.29 cm**-1
  17:       973.00 cm**-1
  18:      1010.84 cm**-1
  19:      1027.04 cm**-1
  20:      1052.44 cm**-1
  21:      1127.87 cm**-1
  22:      1146.68 cm**-1
  23:      1194.43 cm**-1
  24:      1230.35 cm**-1
  25:      1256.56 cm**-1
  26:      1328.39 cm**-1
  27:      1404.51 cm**-1
  28:      1421.11 cm**-1
  29:      1449.23 cm**-1
  30:      1471.23 cm**-1
  31:      1490.82 cm**-1
  32:      1622.64 cm**-1
  33:      1878.27 cm**-1
  34:      2908.44 cm**-1
  35:      3065.39 cm**-1
  36:      3146.69 cm**-1
  37:      3154.80 cm**-1
  38:      3176.95 cm**-1
  39:      3206.29 cm**-1
  40:      3486.37 cm**-1
  41:      3591.51 cm**-1

IR SPECTRUM
-----------

 Mode    freq (cm**-1)   T**2         TX         TY         TZ
-------------------------------------------------------------------
   6:        83.19    8.562624  ( -2.903780  -0.331946   0.143162)
   7:       194.67    5.585410  (  0.879308  -2.185538   0.188810)
   8:       219.65    0.175100  (  0.029040  -0.292774   0.297557)
   9:       244.82    0.431737  (  0.360426  -0.071232   0.544753)
  10:       373.80    3.536845  ( -1.069466   1.470844   0.479277)
  11:       407.65    1.225837  (  0.891151   0.224856   0.617355)
  12:       493.87    9.981088  (  0.390968  -1.249321   2.875314)
  13:       778.60    4.389825  (  0.833980  -1.381086   1.336751)
  14:       840.74   10.319857  (  3.020495  -1.016239  -0.404630)
  15:       877.58   34.755284  ( -2.802673  -1.970220   4.797764)
  16:       908.29    9.437111  ( -0.346486   2.875608  -1.023688)
  17:       973.00   14.096455  (  1.652076  -0.506288   3.333283)
  18:      1010.84    4.363137  (  0.847399  -1.290777   1.406750)
  19:      1027.04  100.133577  ( -3.271753  -3.798065  -8.660480)
  20:      1052.44   17.416550  ( -3.375089  -1.774995   1.695499)
  21:      1127.87    5.717351  ( -1.891081   1.453864  -0.165659)
  22:      1146.68    8.186684  ( -0.653914   1.619917  -2.266042)
  23:      1194.43    4.870538  ( -0.259965   1.037531  -1.930411)
  24:      1230.35    4.576838  (  1.029220  -0.542721   1.795271)
  25:      1256.56    6.277048  ( -0.634357  -1.392080  -1.984125)
  26:      1328.39    0.521619  ( -0.003323  -0.707065   0.147197)
  27:      1404.51    1.435755  (  0.002015   0.841386  -0.853124)
  28:      1421.11    5.968931  (  1.572762  -1.842271  -0.318420)
  29:      1449.23   25.202899  ( -3.113241  -0.167422  -3.934794)
  30:      1471.23    8.373187  (  2.020144  -0.966219  -1.832655)
  31:      1490.82   16.559349  (  0.995033   3.810462  -1.024519)
  32:      1622.64   74.863748  ( -8.231637   0.122380   2.662504)
  33:      1878.27  162.024939  ( -1.983909   2.994399  12.211577)
  34:      2908.44   41.564001  ( -2.907526   5.630512   1.186437)
  35:      3065.39    2.535289  ( -1.458139  -0.540620  -0.341832)
  36:      3146.69    1.111953  (  0.322928  -1.002496  -0.051690)
  37:      3154.80    1.304062  (  1.110322   0.264027   0.039212)
  38:      3176.95    1.107227  ( -0.890614  -0.559856   0.024385)
  39:      3206.29    8.242398  (  0.417398  -2.752725  -0.700487)
  40:      3486.37  104.231508  (  9.558201  -0.531765  -3.548172)
  41:      3591.51  129.346378  ( -0.725031   9.691208  -5.907723)

--------------------------
THERMOCHEMISTRY AT 298.15K
--------------------------

Temperature         ... 298.15 K
Pressure            ... 1.00 atm
Total Mass          ... 86.11 AMU

Throughout the following assumptions are being made:
  (1) The electronic state is orbitally nondegenerate
  (2) There are no thermally accessible electronically excited states
  (3) Hindered rotations indicated by low frequency modes) are not
      treated as such but are treated as vibrations and this may
      case some error
  (4) All equations used are the standard statistical mechanics
      equations for an ideal gas
  (5) All vibrations are strinctly harmonic

------------
INNER ENERGY
------------

The inner energy is: U= E(el) + E(ZPE) + E(vib) + E(rot) + E(trans)
    E(el)   - is the total energy from the electronic structure calculation
              = E(kin-el) + E(nuc-el) + E(el-el) + E(nuc-nuc)
    E(ZPE)  - the the zero temperature vibrational energy from the frequency calculation
    E(vib)  - the the finite temperature correction to E(ZPE) due to population
              of excietd vibrational states
    E(rot)  - is the rotational thermal energy
    E(trans)- is the translational thermal energy

Summary of contributions to the inner energy U:
Electronic energy                ...   -286.69074676 Eh
Zero point energy                ...      0.12130042 Eh      76.12 kcal/mol
Thermal vibrational correction   ...      0.00376330 Eh       2.36 kcal/mol
Thermal rotational correction    ...      0.00141627 Eh       0.89 kcal/mol
Thermal translational correction ...      0.00141627 Eh       0.89 kcal/mol
-----------------------------------------------------------------------
Total thermal energy                   -286.56285049 Eh

Summary of corrections to the electronic energy:
(perhaps to be used in another calculation)
Total thermal correction                  0.00659584 Eh       4.14 kcal/mol
Non-thermal (ZPE) correction              0.12130042 Eh      76.12 kcal/mol
-----------------------------------------------------------------------
Total correction                          0.12789627 Eh      80.26 kcal/mol

--------
ENTHALPY
--------

The enthalpy is H = U + kB*T
                kB is Boltzmann's constant
Total free energy                 ...   -286.56285049 Eh
Thermal Enthalpy correction       ...      0.00094421 Eh       0.59 kcal/mol
-----------------------------------------------------------------------
Total Enthalpy                    ...   -286.56190628 Eh

-------
ENTROPY
-------

The entropy contributions are T*S = T*(S(el)+S(vib)+S(rot)+S(trans)
     S(el)   - electronic entropy
     S(vib)  - vibrational entropy
     S(rot)  - rotational entropy
     S(trans)- translational entropy
The entropies will be listed as mutliplied by the temperature to get
units of energy

Electronic entropy                ...      0.00000000 Eh      0.00 kcal/mol
Vibrational entropy               ...      0.00654220 Eh      4.11 kcal/mol
Rotational entropy                ...      0.01164702 Eh      7.31 kcal/mol
Translational entropy             ...      0.01865951 Eh     11.71 kcal/mol
-----------------------------------------------------------------------
Final entropy term                ...      0.03684873 Eh     23.12 kcal/mol

CAUTION: The rotational entropy is not quite correctly treated here
         because it includes a symmetry number that is not yet correctly
         implemented in ORCA!
For a nonlinear molecule the correct rotational entropy is:
    S(rot) = R*(ln(qrot/sn)+1.5)
    R    = 8.31441 J/mol/K = 1.987191683e-3 kcal/mol/K
    qrot = 152389.1908450
    sn is the rotational symmetry number. We have assumed 3 here
       if it is different for your molecule then you should correct
       the printed rotational entropy by manually evaluating the equation
       as given above

For convenience we print out the resulting values for sn=1 - 12:
 sn= 1  qrot/sn=  152389.1908 T*S(rot)=     7.96 kcal/mol T*S(tot)=    23.77 kcal/mol
 sn= 2  qrot/sn=   76194.5954 T*S(rot)=     7.55 kcal/mol T*S(tot)=    23.36 kcal/mol
 sn= 3  qrot/sn=   50796.3969 T*S(rot)=     7.31 kcal/mol T*S(tot)=    23.12 kcal/mol
 sn= 4  qrot/sn=   38097.2977 T*S(rot)=     7.14 kcal/mol T*S(tot)=    22.95 kcal/mol
 sn= 5  qrot/sn=   30477.8382 T*S(rot)=     7.01 kcal/mol T*S(tot)=    22.82 kcal/mol
 sn= 6  qrot/sn=   25398.1985 T*S(rot)=     6.90 kcal/mol T*S(tot)=    22.71 kcal/mol
 sn= 7  qrot/sn=   21769.8844 T*S(rot)=     6.81 kcal/mol T*S(tot)=    22.62 kcal/mol
 sn= 8  qrot/sn=   19048.6489 T*S(rot)=     6.73 kcal/mol T*S(tot)=    22.54 kcal/mol
 sn= 9  qrot/sn=   16932.1323 T*S(rot)=     6.66 kcal/mol T*S(tot)=    22.47 kcal/mol
 sn=10  qrot/sn=   15238.9191 T*S(rot)=     6.60 kcal/mol T*S(tot)=    22.41 kcal/mol
 sn=11  qrot/sn=   13853.5628 T*S(rot)=     6.54 kcal/mol T*S(tot)=    22.35 kcal/mol
 sn=12  qrot/sn=   12699.0992 T*S(rot)=     6.49 kcal/mol T*S(tot)=    22.30 kcal/mol

-------------------
GIBBS FREE ENTHALPY
-------------------

The Gibbs free enthalpy is G = H - T*S

Total enthalpy                    ...   -286.56190628 Eh
Total entropy correction          ...     -0.03684873 Eh    -23.12 kcal/mol
-----------------------------------------------------------------------
Final Gibbs free enthalpy         ...   -286.59875501 Eh

For completeness - the Gibbs free enthalpy minus the electronic energy
G-E(el)                           ...      0.09199174 Eh     57.73 kcal/mol

                             ****ORCA TERMINATED NORMALLY****
TOTAL RUN TIME: 0 days 0 hours 14 minutes 20 seconds 255 msec
