                         Program Version 3.0.3 - RELEASE   -
|  1> ! NORI PBE0 def2-TZVP UseSym TightOPT Freq TightSCF Grid3 FinalGrid5 XYZFile
|  2> % pal
|  3>     nprocs 8
|  4> end
|  5> %method
|  6>     SymThresh 5.0e-2
|  7> end
|  8> % geom
|  9>     MaxIter 10
| 10> end
| 11> % maxcore 2000
| 12> % output
| 13>     printlevel mini
| 14>     print[ P_Basis ] 0
| 15>     print[ P_SCFInfo ] 1
| 16>     print[ P_SCFIterInfo ] 1
| 17>     print[ P_OrbEn ] 0
| 18>     print[ P_Cartesian ] 0
| 19> end
| 20> % elprop
| 21>     Dipole false
| 22> end
| 23> *xyz 1 1
| 24>  C        0.9041869660    -0.0590727474    -0.0290046019
| 25>  C        2.3993035915    -0.1250907301    -0.0270238937
| 26>  N        3.1168321195     0.9542034259     0.7956377756
| 27>  C        4.1330094185    -0.0715961184     1.2458259589
| 28>  C        3.1571925892    -1.1855187095     0.8100149518
| 29>  O        3.6270864920    -2.3231177650     0.2097424811
| 30>  H        0.5307251707     0.8225852052    -0.5540524970
| 31>  H        0.4973829537    -0.0736233080     0.9855623119
| 32>  H        0.5206348431    -0.9396044189    -0.5495660971
| 33>  H        2.8215492034    -0.0655697152    -1.0336923760
| 34>  H        2.5347155310     1.2873851899     1.5640543578
| 35>  H        3.4697094381     1.7655660844     0.2908383745
| 36>  H        4.4136255631     0.0252563350     2.2921100187
| 37>  H        5.0126903355     0.0021236686     0.6069364548
| 38>  H        2.5423506352    -1.5119837873     1.6533138721
| 39>  H        4.1990451495    -2.1241226091    -0.5392470913
| 40> *
| 41>
| 42>                          ****END OF INPUT****
 Total Charge           Charge          ....    1
 Multiplicity           Mult            ....    1
 Number of Electrons    NEL             ....   48
FINAL SINGLE POINT ENERGY      -287.926383032714

CARTESIAN COORDINATES (ANGSTROEM)
---------------------------------
  C     -1.796497   -0.369422   -1.034195
  C     -0.434121   -0.517566   -0.432473
  N      0.734806    0.000143   -1.282467
  C      1.405023    0.524651   -0.032208
  C      0.051347    0.419104    0.701929
  O     -0.000005    0.000063    2.004396
  H     -1.933497   -1.009828   -1.907856
  H     -2.005683    0.667248   -1.310588
  H     -2.537026   -0.666680   -0.288229
  H     -0.194126   -1.557132   -0.193487
  H      0.438893    0.749306   -1.908026
  H      1.249943   -0.686074   -1.831430
  H      1.875251    1.496151   -0.166334
  H      2.135797   -0.208764    0.308321
  H     -0.485170    1.371065    0.661703
  H      0.470006   -0.830729    2.133105

FINAL SINGLE POINT ENERGY      -287.926383578075
                    ***********************HURRAY********************
 Multiplicity           Mult            ....    1
 Number of Electrons    NEL             ....   48
 Basis Dimension        Dim             ....  246
FINAL SINGLE POINT ENERGY      -287.926383813072

VIBRATIONAL FREQUENCIES
-----------------------

   0:         0.00 cm**-1
   1:         0.00 cm**-1
   2:         0.00 cm**-1
   3:         0.00 cm**-1
   4:         0.00 cm**-1
   5:         0.00 cm**-1
   6:       126.29 cm**-1
   7:       219.06 cm**-1
   8:       257.31 cm**-1
   9:       306.15 cm**-1
  10:       359.75 cm**-1
  11:       413.89 cm**-1
  12:       510.88 cm**-1
  13:       633.07 cm**-1
  14:       797.76 cm**-1
  15:       808.30 cm**-1
  16:       868.26 cm**-1
  17:       920.59 cm**-1
  18:       941.97 cm**-1
  19:       967.91 cm**-1
  20:      1053.88 cm**-1
  21:      1095.45 cm**-1
  22:      1117.68 cm**-1
  23:      1173.64 cm**-1
  24:      1209.19 cm**-1
  25:      1248.15 cm**-1
  26:      1271.57 cm**-1
  27:      1288.92 cm**-1
  28:      1307.41 cm**-1
  29:      1316.24 cm**-1
  30:      1369.64 cm**-1
  31:      1391.60 cm**-1
  32:      1418.13 cm**-1
  33:      1449.48 cm**-1
  34:      1478.60 cm**-1
  35:      1482.80 cm**-1
  36:      1490.29 cm**-1
  37:      1647.56 cm**-1
  38:      3056.55 cm**-1
  39:      3088.40 cm**-1
  40:      3101.64 cm**-1
  41:      3116.60 cm**-1
  42:      3139.14 cm**-1
  43:      3144.74 cm**-1
  44:      3192.90 cm**-1
  45:      3467.08 cm**-1
  46:      3537.03 cm**-1
  47:      3831.35 cm**-1

IR SPECTRUM
-----------

 Mode    freq (cm**-1)   T**2         TX         TY         TZ
-------------------------------------------------------------------
   6:       126.29    0.820901  ( -0.347811   0.592602   0.590552)
   7:       219.06    0.539294  (  0.451791   0.562968   0.135076)
   8:       257.31    3.596258  ( -1.764458   0.478231  -0.504222)
   9:       306.15   23.068601  (  3.846016   2.048530   2.019971)
  10:       359.75   92.692085  (  8.228821   4.779018   1.462730)
  11:       413.89   11.593654  ( -2.817377  -1.776297  -0.707681)
  12:       510.88    4.389995  (  1.865523  -0.683515   0.665303)
  13:       633.07    6.446926  (  0.696492  -1.457136  -1.959229)
  14:       797.76    6.383509  ( -2.328791  -0.157477  -0.967182)
  15:       808.30    5.399849  ( -0.623004  -1.915239   1.159126)
  16:       868.26    8.305920  ( -2.053221   1.934165  -0.590940)
  17:       920.59   17.243587  (  2.910847   2.821182   0.900826)
  18:       941.97    1.738763  (  0.813335   0.737237  -0.730570)
  19:       967.91    5.444497  (  0.444079   0.007829   2.290683)
  20:      1053.88   10.787901  (  3.095131   0.656079   0.881831)
  21:      1095.45   26.012323  (  1.668872   1.201923  -4.667180)
  22:      1117.68   27.593595  ( -2.160737  -1.192361   4.637142)
  23:      1173.64    5.373778  ( -1.817073  -1.326090  -0.559917)
  24:      1209.19  132.254859  ( -0.711359   1.718487 -11.348816)
  25:      1248.15   43.595040  (  5.891548   2.369494  -1.808369)
  26:      1271.57   12.389917  (  2.894665   1.788158  -0.901843)
  27:      1288.92    8.379948  ( -1.788572  -1.434447  -1.767291)
  28:      1307.41    9.258097  (  2.194512   1.979249  -0.724422)
  29:      1316.24   14.317259  (  2.108745   2.615753   1.740198)
  30:      1369.64    4.228360  (  1.924093   0.407411   0.600201)
  31:      1391.60    2.796693  ( -1.508667  -0.351178  -0.630310)
  32:      1418.13   15.133942  (  3.814858  -0.347322   0.678357)
  33:      1449.48   39.801924  (  0.585020   1.479584  -6.104958)
  34:      1478.60   16.959607  (  0.080258  -2.481956  -3.285279)
  35:      1482.80   19.109470  (  1.974660   2.756199  -2.759267)
  36:      1490.29   14.757298  ( -3.432259   1.713661   0.200652)
  37:      1647.56   63.444560  ( -1.863247  -1.170814   7.655198)
  38:      3056.55    2.594239  (  0.771596   0.962138  -1.035939)
  39:      3088.40    0.683723  (  0.290324   0.621058  -0.462302)
  40:      3101.64    5.896760  ( -1.345408   1.037468  -1.735021)
  41:      3116.60    1.808026  (  0.597099  -0.647944   1.015711)
  42:      3139.14    3.562776  ( -0.936992   1.629006  -0.176527)
  43:      3144.74    1.536116  (  0.871483   0.802263   0.364704)
  44:      3192.90    0.392469  ( -0.612247   0.036561   0.127615)
  45:      3467.08   63.084888  ( -1.845484  -0.677825   7.695429)
  46:      3537.03   84.132160  ( -4.858980   7.772197   0.339750)
  47:      3831.35   58.366554  (  2.511011  -5.463074   4.713406)

--------------------------
THERMOCHEMISTRY AT 298.15K
--------------------------

Temperature         ... 298.15 K
Pressure            ... 1.00 atm
Total Mass          ... 88.13 AMU

Throughout the following assumptions are being made:
  (1) The electronic state is orbitally nondegenerate
  (2) There are no thermally accessible electronically excited states
  (3) Hindered rotations indicated by low frequency modes) are not
      treated as such but are treated as vibrations and this may
      case some error
  (4) All equations used are the standard statistical mechanics
      equations for an ideal gas
  (5) All vibrations are strinctly harmonic

------------
INNER ENERGY
------------

The inner energy is: U= E(el) + E(ZPE) + E(vib) + E(rot) + E(trans)
    E(el)   - is the total energy from the electronic structure calculation
              = E(kin-el) + E(nuc-el) + E(el-el) + E(nuc-nuc)
    E(ZPE)  - the the zero temperature vibrational energy from the frequency calculation
    E(vib)  - the the finite temperature correction to E(ZPE) due to population
              of excietd vibrational states
    E(rot)  - is the rotational thermal energy
    E(trans)- is the translational thermal energy

Summary of contributions to the inner energy U:
Electronic energy                ...   -287.92638381 Eh
Zero point energy                ...      0.14720794 Eh      92.37 kcal/mol
Thermal vibrational correction   ...      0.00368542 Eh       2.31 kcal/mol
Thermal rotational correction    ...      0.00141627 Eh       0.89 kcal/mol
Thermal translational correction ...      0.00141627 Eh       0.89 kcal/mol
-----------------------------------------------------------------------
Total thermal energy                   -287.77265792 Eh

Summary of corrections to the electronic energy:
(perhaps to be used in another calculation)
Total thermal correction                  0.00651796 Eh       4.09 kcal/mol
Non-thermal (ZPE) correction              0.14720794 Eh      92.37 kcal/mol
-----------------------------------------------------------------------
Total correction                          0.15372590 Eh      96.46 kcal/mol

--------
ENTHALPY
--------

The enthalpy is H = U + kB*T
                kB is Boltzmann's constant
Total free energy                 ...   -287.77265792 Eh
Thermal Enthalpy correction       ...      0.00094421 Eh       0.59 kcal/mol
-----------------------------------------------------------------------
Total Enthalpy                    ...   -287.77171371 Eh

-------
ENTROPY
-------

The entropy contributions are T*S = T*(S(el)+S(vib)+S(rot)+S(trans)
     S(el)   - electronic entropy
     S(vib)  - vibrational entropy
     S(rot)  - rotational entropy
     S(trans)- translational entropy
The entropies will be listed as mutliplied by the temperature to get
units of energy

Electronic entropy                ...      0.00000000 Eh      0.00 kcal/mol
Vibrational entropy               ...      0.00596744 Eh      3.74 kcal/mol
Rotational entropy                ...      0.01161279 Eh      7.29 kcal/mol
Translational entropy             ...      0.01869229 Eh     11.73 kcal/mol
-----------------------------------------------------------------------
Final entropy term                ...      0.03627251 Eh     22.76 kcal/mol

CAUTION: The rotational entropy is not quite correctly treated here
         because it includes a symmetry number that is not yet correctly
         implemented in ORCA!
For a nonlinear molecule the correct rotational entropy is:
    S(rot) = R*(ln(qrot/sn)+1.5)
    R    = 8.31441 J/mol/K = 1.987191683e-3 kcal/mol/K
    qrot = 146963.1533529
    sn is the rotational symmetry number. We have assumed 3 here
       if it is different for your molecule then you should correct
       the printed rotational entropy by manually evaluating the equation
       as given above

For convenience we print out the resulting values for sn=1 - 12:
 sn= 1  qrot/sn=  146963.1534 T*S(rot)=     7.94 kcal/mol T*S(tot)=    23.41 kcal/mol
 sn= 2  qrot/sn=   73481.5767 T*S(rot)=     7.53 kcal/mol T*S(tot)=    23.00 kcal/mol
 sn= 3  qrot/sn=   48987.7178 T*S(rot)=     7.29 kcal/mol T*S(tot)=    22.76 kcal/mol
 sn= 4  qrot/sn=   36740.7883 T*S(rot)=     7.12 kcal/mol T*S(tot)=    22.59 kcal/mol
 sn= 5  qrot/sn=   29392.6307 T*S(rot)=     6.98 kcal/mol T*S(tot)=    22.46 kcal/mol
 sn= 6  qrot/sn=   24493.8589 T*S(rot)=     6.88 kcal/mol T*S(tot)=    22.35 kcal/mol
 sn= 7  qrot/sn=   20994.7362 T*S(rot)=     6.79 kcal/mol T*S(tot)=    22.26 kcal/mol
 sn= 8  qrot/sn=   18370.3942 T*S(rot)=     6.71 kcal/mol T*S(tot)=    22.18 kcal/mol
 sn= 9  qrot/sn=   16329.2393 T*S(rot)=     6.64 kcal/mol T*S(tot)=    22.11 kcal/mol
 sn=10  qrot/sn=   14696.3153 T*S(rot)=     6.57 kcal/mol T*S(tot)=    22.05 kcal/mol
 sn=11  qrot/sn=   13360.2867 T*S(rot)=     6.52 kcal/mol T*S(tot)=    21.99 kcal/mol
 sn=12  qrot/sn=   12246.9294 T*S(rot)=     6.47 kcal/mol T*S(tot)=    21.94 kcal/mol

-------------------
GIBBS FREE ENTHALPY
-------------------

The Gibbs free enthalpy is G = H - T*S

Total enthalpy                    ...   -287.77171371 Eh
Total entropy correction          ...     -0.03627251 Eh    -22.76 kcal/mol
-----------------------------------------------------------------------
Final Gibbs free enthalpy         ...   -287.80798622 Eh

For completeness - the Gibbs free enthalpy minus the electronic energy
G-E(el)                           ...      0.11839760 Eh     74.30 kcal/mol

                             ****ORCA TERMINATED NORMALLY****
TOTAL RUN TIME: 0 days 0 hours 16 minutes 57 seconds 450 msec
