                         Program Version 3.0.3 - RELEASE   -
|  1> ! NORI PBE0 def2-TZVP UseSym TightOPT Freq TightSCF Grid3 FinalGrid5 XYZFile
|  2> % pal
|  3>     nprocs 8
|  4> end
|  5> %method
|  6>     SymThresh 5.0e-2
|  7> end
|  8> % geom
|  9>     MaxIter 10
| 10> end
| 11> % maxcore 2000
| 12> % output
| 13>     printlevel mini
| 14>     print[ P_Basis ] 0
| 15>     print[ P_SCFInfo ] 1
| 16>     print[ P_SCFIterInfo ] 1
| 17>     print[ P_OrbEn ] 0
| 18>     print[ P_Cartesian ] 0
| 19> end
| 20> % elprop
| 21>     Dipole false
| 22> end
| 23> *xyz 1 1
| 24>  C        0.9473854639     0.0977889738    -0.2878774643
| 25>  C        2.4225213508    -0.0607897570    -0.1047476882
| 26>  N        2.8673359363     0.0414584325     1.3094904519
| 27>  C        3.2593382408    -0.9637178045    -0.9609259940
| 28>  C        3.4486078301     0.5219366372    -1.0290695869
| 29>  O        4.5363155046     1.0600319456    -0.3502370736
| 30>  H        0.7080736634     0.0739522351    -1.3511280336
| 31>  H        0.5909636395     1.0539150287     0.1061769390
| 32>  H        0.3919794082    -0.7135504121     0.1898689336
| 33>  H        3.8539583498     0.3530400728     1.2879330024
| 34>  H        2.7867516008    -0.8415752950     1.8158125231
| 35>  H        2.3254665708     0.7496953496     1.8093358821
| 36>  H        4.0587071380    -1.5325989012    -0.4977759694
| 37>  H        2.7509463492    -1.4710852826    -1.7710217170
| 38>  H        3.0973532062     1.0820463204    -1.8899852539
| 39>  H        5.3409057476     0.9690024565    -0.8719889512
| 40> *
| 41>
| 42>                          ****END OF INPUT****
 Total Charge           Charge          ....    1
 Multiplicity           Mult            ....    1
 Number of Electrons    NEL             ....   48
FINAL SINGLE POINT ENERGY      -287.929343376010

CARTESIAN COORDINATES (ANGSTROEM)
---------------------------------
  C     -0.272370   -0.958381   -1.739088
  C      0.038444   -0.090751   -0.562062
  N      1.488268    0.000178   -0.248180
  C     -0.754561    1.134600   -0.218507
  C     -0.781661   -0.055955    0.692224
  O     -0.000790   -0.000313    1.841433
  H     -1.352967   -1.025512   -1.866505
  H      0.104737   -1.975999   -1.602138
  H      0.140461   -0.546802   -2.663852
  H      1.560294    0.223261    0.759861
  H      1.970385    0.709469   -0.802109
  H      1.949894   -0.898539   -0.404249
  H     -0.231596    2.012067    0.147057
  H     -1.614438    1.345091   -0.841592
  H     -1.661153   -0.690240    0.742018
  H     -0.450844    0.495194    2.534123

FINAL SINGLE POINT ENERGY      -287.929343792010
                    ***********************HURRAY********************
 Multiplicity           Mult            ....    1
 Number of Electrons    NEL             ....   48
 Basis Dimension        Dim             ....  246
FINAL SINGLE POINT ENERGY      -287.929343978645

VIBRATIONAL FREQUENCIES
-----------------------

   0:         0.00 cm**-1
   1:         0.00 cm**-1
   2:         0.00 cm**-1
   3:         0.00 cm**-1
   4:         0.00 cm**-1
   5:         0.00 cm**-1
   6:       211.90 cm**-1
   7:       230.29 cm**-1
   8:       247.33 cm**-1
   9:       298.74 cm**-1
  10:       339.87 cm**-1
  11:       362.78 cm**-1
  12:       390.93 cm**-1
  13:       475.22 cm**-1
  14:       554.16 cm**-1
  15:       702.22 cm**-1
  16:       844.97 cm**-1
  17:       881.42 cm**-1
  18:       925.70 cm**-1
  19:       959.82 cm**-1
  20:      1001.42 cm**-1
  21:      1032.78 cm**-1
  22:      1070.39 cm**-1
  23:      1092.02 cm**-1
  24:      1124.07 cm**-1
  25:      1185.96 cm**-1
  26:      1207.00 cm**-1
  27:      1249.17 cm**-1
  28:      1295.09 cm**-1
  29:      1344.24 cm**-1
  30:      1416.51 cm**-1
  31:      1436.23 cm**-1
  32:      1471.91 cm**-1
  33:      1481.91 cm**-1
  34:      1484.74 cm**-1
  35:      1512.41 cm**-1
  36:      1641.60 cm**-1
  37:      1661.55 cm**-1
  38:      3052.12 cm**-1
  39:      3124.41 cm**-1
  40:      3152.02 cm**-1
  41:      3155.03 cm**-1
  42:      3176.09 cm**-1
  43:      3248.20 cm**-1
  44:      3271.80 cm**-1
  45:      3455.59 cm**-1
  46:      3508.94 cm**-1
  47:      3837.10 cm**-1

IR SPECTRUM
-----------

 Mode    freq (cm**-1)   T**2         TX         TY         TZ
-------------------------------------------------------------------
   6:       211.90    0.685560  (  0.002802   0.803311   0.200609)
   7:       230.29    1.943523  (  0.871485   1.071472  -0.189697)
   8:       247.33    5.890855  (  0.472937  -2.130162  -1.062824)
   9:       298.74   36.274770  (  3.412522   1.534025  -4.719770)
  10:       339.87   50.957906  ( -1.231738  -4.888334   5.054198)
  11:       362.78   68.800016  ( -2.033661  -7.895014   1.527411)
  12:       390.93   12.391041  ( -2.195560  -1.620782   2.223426)
  13:       475.22   12.385025  (  2.539562   2.025208  -1.354320)
  14:       554.16    9.186413  (  2.329932   1.875500   0.490236)
  15:       702.22    7.106902  (  1.084729   1.589696   1.844758)
  16:       844.97    1.294881  ( -0.651714   0.077321   0.929608)
  17:       881.42    9.514844  ( -1.144045   0.817610   2.745454)
  18:       925.70    7.576120  (  0.513961  -0.206857  -2.696141)
  19:       959.82    1.349814  ( -0.622315  -0.832114  -0.519734)
  20:      1001.42   39.282316  ( -0.407545   1.775884   5.996871)
  21:      1032.78   22.425976  ( -4.198787   2.166911  -0.317269)
  22:      1070.39    3.366838  (  1.429546   0.958993  -0.635271)
  23:      1092.02   10.604524  ( -3.168933  -0.603734   0.444851)
  24:      1124.07   12.816011  ( -0.442335  -0.720357   3.478712)
  25:      1185.96   67.344687  (  1.462182  -1.607726   7.913402)
  26:      1207.00   16.443672  (  2.315294   2.389032   2.318537)
  27:      1249.17   75.536648  ( -5.152287   0.657265  -6.968399)
  28:      1295.09    5.179721  ( -0.653184   1.050307  -1.910478)
  29:      1344.24    8.795275  (  1.090454  -1.715527  -2.159433)
  30:      1416.51   20.599041  ( -3.364789  -2.614404  -1.562731)
  31:      1436.23   13.473145  (  3.161267  -0.360026   1.830278)
  32:      1471.91   99.678896  (  9.939246  -0.575033   0.748074)
  33:      1481.91   23.668671  ( -3.645645   2.316065  -2.239148)
  34:      1484.74   45.674958  ( -6.633404  -1.174870  -0.540911)
  35:      1512.41   28.774288  (  3.888764   3.662462  -0.488033)
  36:      1641.60   21.196142  (  2.051782  -3.562224  -2.072894)
  37:      1661.55   35.137210  (  0.292901   4.031515  -4.335702)
  38:      3052.12    4.572049  ( -1.443303   1.147104   1.083086)
  39:      3124.41    3.780719  (  0.158611  -1.552827   1.159435)
  40:      3152.02    2.158573  (  1.067501  -0.992037   0.186754)
  41:      3155.03    1.094309  (  0.219639   0.232655   0.995961)
  42:      3176.09    1.599195  ( -0.731068  -0.525998  -0.887727)
  43:      3248.20    0.872895  ( -0.896421  -0.109891  -0.239265)
  44:      3271.80  139.649343  ( -1.128138   1.810039  11.623270)
  45:      3455.59   80.822343  ( -6.190507   2.594382   5.980731)
  46:      3508.94   84.546649  (  1.402575   8.529488  -3.134846)
  47:      3837.10  131.806102  (  3.461715  -4.253694 -10.086066)

--------------------------
THERMOCHEMISTRY AT 298.15K
--------------------------

Temperature         ... 298.15 K
Pressure            ... 1.00 atm
Total Mass          ... 88.13 AMU

Throughout the following assumptions are being made:
  (1) The electronic state is orbitally nondegenerate
  (2) There are no thermally accessible electronically excited states
  (3) Hindered rotations indicated by low frequency modes) are not
      treated as such but are treated as vibrations and this may
      case some error
  (4) All equations used are the standard statistical mechanics
      equations for an ideal gas
  (5) All vibrations are strinctly harmonic

------------
INNER ENERGY
------------

The inner energy is: U= E(el) + E(ZPE) + E(vib) + E(rot) + E(trans)
    E(el)   - is the total energy from the electronic structure calculation
              = E(kin-el) + E(nuc-el) + E(el-el) + E(nuc-nuc)
    E(ZPE)  - the the zero temperature vibrational energy from the frequency calculation
    E(vib)  - the the finite temperature correction to E(ZPE) due to population
              of excietd vibrational states
    E(rot)  - is the rotational thermal energy
    E(trans)- is the translational thermal energy

Summary of contributions to the inner energy U:
Electronic energy                ...   -287.92934398 Eh
Zero point energy                ...      0.14606615 Eh      91.66 kcal/mol
Thermal vibrational correction   ...      0.00401908 Eh       2.52 kcal/mol
Thermal rotational correction    ...      0.00141627 Eh       0.89 kcal/mol
Thermal translational correction ...      0.00141627 Eh       0.89 kcal/mol
-----------------------------------------------------------------------
Total thermal energy                   -287.77642620 Eh

Summary of corrections to the electronic energy:
(perhaps to be used in another calculation)
Total thermal correction                  0.00685162 Eh       4.30 kcal/mol
Non-thermal (ZPE) correction              0.14606615 Eh      91.66 kcal/mol
-----------------------------------------------------------------------
Total correction                          0.15291778 Eh      95.96 kcal/mol

--------
ENTHALPY
--------

The enthalpy is H = U + kB*T
                kB is Boltzmann's constant
Total free energy                 ...   -287.77642620 Eh
Thermal Enthalpy correction       ...      0.00094421 Eh       0.59 kcal/mol
-----------------------------------------------------------------------
Total Enthalpy                    ...   -287.77548199 Eh

-------
ENTROPY
-------

The entropy contributions are T*S = T*(S(el)+S(vib)+S(rot)+S(trans)
     S(el)   - electronic entropy
     S(vib)  - vibrational entropy
     S(rot)  - rotational entropy
     S(trans)- translational entropy
The entropies will be listed as mutliplied by the temperature to get
units of energy

Electronic entropy                ...      0.00000000 Eh      0.00 kcal/mol
Vibrational entropy               ...      0.00624715 Eh      3.92 kcal/mol
Rotational entropy                ...      0.01152804 Eh      7.23 kcal/mol
Translational entropy             ...      0.01869229 Eh     11.73 kcal/mol
-----------------------------------------------------------------------
Final entropy term                ...      0.03646747 Eh     22.88 kcal/mol

CAUTION: The rotational entropy is not quite correctly treated here
         because it includes a symmetry number that is not yet correctly
         implemented in ORCA!
For a nonlinear molecule the correct rotational entropy is:
    S(rot) = R*(ln(qrot/sn)+1.5)
    R    = 8.31441 J/mol/K = 1.987191683e-3 kcal/mol/K
    qrot = 134346.6035364
    sn is the rotational symmetry number. We have assumed 3 here
       if it is different for your molecule then you should correct
       the printed rotational entropy by manually evaluating the equation
       as given above

For convenience we print out the resulting values for sn=1 - 12:
 sn= 1  qrot/sn=  134346.6035 T*S(rot)=     7.88 kcal/mol T*S(tot)=    23.53 kcal/mol
 sn= 2  qrot/sn=   67173.3018 T*S(rot)=     7.47 kcal/mol T*S(tot)=    23.12 kcal/mol
 sn= 3  qrot/sn=   44782.2012 T*S(rot)=     7.23 kcal/mol T*S(tot)=    22.88 kcal/mol
 sn= 4  qrot/sn=   33586.6509 T*S(rot)=     7.06 kcal/mol T*S(tot)=    22.71 kcal/mol
 sn= 5  qrot/sn=   26869.3207 T*S(rot)=     6.93 kcal/mol T*S(tot)=    22.58 kcal/mol
 sn= 6  qrot/sn=   22391.1006 T*S(rot)=     6.82 kcal/mol T*S(tot)=    22.47 kcal/mol
 sn= 7  qrot/sn=   19192.3719 T*S(rot)=     6.73 kcal/mol T*S(tot)=    22.38 kcal/mol
 sn= 8  qrot/sn=   16793.3254 T*S(rot)=     6.65 kcal/mol T*S(tot)=    22.30 kcal/mol
 sn= 9  qrot/sn=   14927.4004 T*S(rot)=     6.58 kcal/mol T*S(tot)=    22.23 kcal/mol
 sn=10  qrot/sn=   13434.6604 T*S(rot)=     6.52 kcal/mol T*S(tot)=    22.17 kcal/mol
 sn=11  qrot/sn=   12213.3276 T*S(rot)=     6.46 kcal/mol T*S(tot)=    22.11 kcal/mol
 sn=12  qrot/sn=   11195.5503 T*S(rot)=     6.41 kcal/mol T*S(tot)=    22.06 kcal/mol

-------------------
GIBBS FREE ENTHALPY
-------------------

The Gibbs free enthalpy is G = H - T*S

Total enthalpy                    ...   -287.77548199 Eh
Total entropy correction          ...     -0.03646747 Eh    -22.88 kcal/mol
-----------------------------------------------------------------------
Final Gibbs free enthalpy         ...   -287.81194947 Eh

For completeness - the Gibbs free enthalpy minus the electronic energy
G-E(el)                           ...      0.11739451 Eh     73.67 kcal/mol

                             ****ORCA TERMINATED NORMALLY****
TOTAL RUN TIME: 0 days 0 hours 17 minutes 12 seconds 12 msec
