                         Program Version 3.0.3 - RELEASE   -
|  1> ! NORI PBE0 def2-TZVP UseSym TightOPT Freq TightSCF Grid3 FinalGrid5 XYZFile
|  2> % pal
|  3>     nprocs 8
|  4> end
|  5> %method
|  6>     SymThresh 5.0e-2
|  7> end
|  8> % geom
|  9>     MaxIter 10
| 10> end
| 11> % maxcore 2000
| 12> % output
| 13>     printlevel mini
| 14>     print[ P_Basis ] 0
| 15>     print[ P_SCFInfo ] 1
| 16>     print[ P_SCFIterInfo ] 1
| 17>     print[ P_OrbEn ] 0
| 18>     print[ P_Cartesian ] 0
| 19> end
| 20> % elprop
| 21>     Dipole false
| 22> end
| 23> *xyz 1 1
| 24>  C        0.9912601717     0.0603802421     0.2333944237
| 25>  C        2.4775775026    -0.0435509935     0.0436750117
| 26>  N        3.3102845673     1.0598447458     0.7311141360
| 27>  C        4.1373985528     0.0445410989     1.4963788998
| 28>  C        3.2601122839    -1.0571095872     0.8922928891
| 29>  O        3.1895105056    -2.2227461206     1.0363262650
| 30>  H        0.5737659700     0.9071477361    -0.3142361636
| 31>  H        0.7176379163     0.1320123814     1.2887962986
| 32>  H        0.5381380702    -0.8507239166    -0.1630512234
| 33>  H        2.7657671712    -0.0860098362    -1.0102208136
| 34>  H        2.7444887384     1.6593303762     1.3314237722
| 35>  H        3.8417654180     1.6548013709     0.0974003346
| 36>  H        4.0793202334     0.1824809121     2.5762514519
| 37>  H        5.1772928985     0.0397815906     1.1684347178
| 38> *
| 39>
| 40>                          ****END OF INPUT****
 Total Charge           Charge          ....    1
 Multiplicity           Mult            ....    1
 Number of Electrons    NEL             ....   46
FINAL SINGLE POINT ENERGY      -286.709045836379

CARTESIAN COORDINATES (ANGSTROEM)
---------------------------------
  C     -1.845584    0.133061   -0.762738
  C     -0.522159   -0.508197   -0.456814
  N      0.668612    0.000015   -1.297710
  C      1.462233    0.373412   -0.060321
  C      0.253485   -0.042243    0.784635
  O      0.000048   -0.000056    1.932798
  H     -2.226219   -0.175262   -1.737963
  H     -1.792811    1.223276   -0.714832
  H     -2.560035   -0.195591   -0.005161
  H     -0.555307   -1.598410   -0.531012
  H      0.422639    0.800017   -1.880190
  H      1.106170   -0.702846   -1.891420
  H      1.737420    1.427590   -0.039220
  H      2.346460   -0.253241    0.057559

FINAL SINGLE POINT ENERGY      -286.709046345988
                    ***********************HURRAY********************
 Multiplicity           Mult            ....    1
 Number of Electrons    NEL             ....   46
 Basis Dimension        Dim             ....  234
FINAL SINGLE POINT ENERGY      -286.709046460637

VIBRATIONAL FREQUENCIES
-----------------------

   0:         0.00 cm**-1
   1:         0.00 cm**-1
   2:         0.00 cm**-1
   3:         0.00 cm**-1
   4:         0.00 cm**-1
   5:         0.00 cm**-1
   6:        90.28 cm**-1
   7:       201.77 cm**-1
   8:       223.43 cm**-1
   9:       343.48 cm**-1
  10:       447.13 cm**-1
  11:       522.67 cm**-1
  12:       698.90 cm**-1
  13:       756.00 cm**-1
  14:       803.67 cm**-1
  15:       811.97 cm**-1
  16:       917.59 cm**-1
  17:       924.85 cm**-1
  18:      1008.99 cm**-1
  19:      1038.19 cm**-1
  20:      1077.43 cm**-1
  21:      1114.96 cm**-1
  22:      1194.59 cm**-1
  23:      1241.37 cm**-1
  24:      1275.55 cm**-1
  25:      1286.37 cm**-1
  26:      1306.32 cm**-1
  27:      1338.47 cm**-1
  28:      1409.81 cm**-1
  29:      1442.61 cm**-1
  30:      1475.84 cm**-1
  31:      1483.28 cm**-1
  32:      1645.14 cm**-1
  33:      1981.43 cm**-1
  34:      3060.89 cm**-1
  35:      3104.21 cm**-1
  36:      3112.36 cm**-1
  37:      3145.86 cm**-1
  38:      3152.26 cm**-1
  39:      3184.17 cm**-1
  40:      3471.97 cm**-1
  41:      3539.45 cm**-1

IR SPECTRUM
-----------

 Mode    freq (cm**-1)   T**2         TX         TY         TZ
-------------------------------------------------------------------
   6:        90.28    0.337799  ( -0.511210   0.047070  -0.272484)
   7:       201.77    4.161843  ( -1.909899   0.581550  -0.419437)
   8:       223.43    1.363306  ( -0.675177  -0.821685  -0.481949)
   9:       343.48    2.035135  ( -1.413778   0.183757  -0.050996)
  10:       447.13    1.016478  ( -0.810455  -0.587269   0.121473)
  11:       522.67    0.475606  (  0.627779   0.225425  -0.175164)
  12:       698.90    5.410498  (  0.957021  -0.744684  -1.984957)
  13:       756.00    1.031572  ( -0.341226   0.108272   0.950481)
  14:       803.67    8.357984  (  1.187250   2.397286   1.096102)
  15:       811.97   11.451734  (  2.874605  -1.783419   0.088303)
  16:       917.59    3.218054  ( -1.648589  -0.035348  -0.706370)
  17:       924.85   16.398481  (  3.485131   1.127665   1.726475)
  18:      1008.99    7.013827  ( -1.839672  -0.471835  -1.845753)
  19:      1038.19   43.823990  ( -5.961753  -2.302278   1.726560)
  20:      1077.43   24.769564  (  3.821064   1.504299   2.811782)
  21:      1114.96   21.104582  (  4.184439   1.308916  -1.371784)
  22:      1194.59   22.467885  (  3.698649   2.964435   0.001245)
  23:      1241.37   50.210012  (  6.909328   1.444533   0.620096)
  24:      1275.55    1.773547  ( -0.878006  -0.875602  -0.485771)
  25:      1286.37    2.913237  (  0.032311  -1.064128   1.334101)
  26:      1306.32    9.994791  ( -2.318980  -2.083500  -0.525501)
  27:      1338.47    3.428492  (  0.786210  -0.820153  -1.462093)
  28:      1409.81   10.157103  ( -2.807176   1.225665   0.880119)
  29:      1442.61   24.358638  (  4.576180   1.716158  -0.687031)
  30:      1475.84   11.833846  (  0.233583   1.726965   2.965953)
  31:      1483.28   12.596170  ( -1.470229  -3.227476   0.134135)
  32:      1645.14   61.745764  (  1.918362   1.228378  -7.520421)
  33:      1981.43  225.166841  (  2.584484   0.130165 -14.780742)
  34:      3060.89    3.641222  ( -1.314783  -0.954902   1.000365)
  35:      3104.21    6.038087  ( -1.751713  -1.377434  -1.035503)
  36:      3112.36    8.099905  ( -2.683959  -0.592375   0.738485)
  37:      3145.86    1.830220  (  1.123418  -0.576240  -0.485900)
  38:      3152.26    1.434142  ( -1.085555  -0.330166   0.383017)
  39:      3184.17    6.990623  (  0.937320  -2.467124   0.159235)
  40:      3471.97   79.046541  ( -1.760496  -1.056257   8.650521)
  41:      3539.45  100.313579  ( -4.442140   8.902195   1.154078)

--------------------------
THERMOCHEMISTRY AT 298.15K
--------------------------

Temperature         ... 298.15 K
Pressure            ... 1.00 atm
Total Mass          ... 86.11 AMU

Throughout the following assumptions are being made:
  (1) The electronic state is orbitally nondegenerate
  (2) There are no thermally accessible electronically excited states
  (3) Hindered rotations indicated by low frequency modes) are not
      treated as such but are treated as vibrations and this may
      case some error
  (4) All equations used are the standard statistical mechanics
      equations for an ideal gas
  (5) All vibrations are strinctly harmonic

------------
INNER ENERGY
------------

The inner energy is: U= E(el) + E(ZPE) + E(vib) + E(rot) + E(trans)
    E(el)   - is the total energy from the electronic structure calculation
              = E(kin-el) + E(nuc-el) + E(el-el) + E(nuc-nuc)
    E(ZPE)  - the the zero temperature vibrational energy from the frequency calculation
    E(vib)  - the the finite temperature correction to E(ZPE) due to population
              of excietd vibrational states
    E(rot)  - is the rotational thermal energy
    E(trans)- is the translational thermal energy

Summary of contributions to the inner energy U:
Electronic energy                ...   -286.70904646 Eh
Zero point energy                ...      0.12264119 Eh      76.96 kcal/mol
Thermal vibrational correction   ...      0.00335787 Eh       2.11 kcal/mol
Thermal rotational correction    ...      0.00141627 Eh       0.89 kcal/mol
Thermal translational correction ...      0.00141627 Eh       0.89 kcal/mol
-----------------------------------------------------------------------
Total thermal energy                   -286.58021486 Eh

Summary of corrections to the electronic energy:
(perhaps to be used in another calculation)
Total thermal correction                  0.00619041 Eh       3.88 kcal/mol
Non-thermal (ZPE) correction              0.12264119 Eh      76.96 kcal/mol
-----------------------------------------------------------------------
Total correction                          0.12883160 Eh      80.84 kcal/mol

--------
ENTHALPY
--------

The enthalpy is H = U + kB*T
                kB is Boltzmann's constant
Total free energy                 ...   -286.58021486 Eh
Thermal Enthalpy correction       ...      0.00094421 Eh       0.59 kcal/mol
-----------------------------------------------------------------------
Total Enthalpy                    ...   -286.57927065 Eh

-------
ENTROPY
-------

The entropy contributions are T*S = T*(S(el)+S(vib)+S(rot)+S(trans)
     S(el)   - electronic entropy
     S(vib)  - vibrational entropy
     S(rot)  - rotational entropy
     S(trans)- translational entropy
The entropies will be listed as mutliplied by the temperature to get
units of energy

Electronic entropy                ...      0.00000000 Eh      0.00 kcal/mol
Vibrational entropy               ...      0.00573401 Eh      3.60 kcal/mol
Rotational entropy                ...      0.01151155 Eh      7.22 kcal/mol
Translational entropy             ...      0.01865951 Eh     11.71 kcal/mol
-----------------------------------------------------------------------
Final entropy term                ...      0.03590507 Eh     22.53 kcal/mol

CAUTION: The rotational entropy is not quite correctly treated here
         because it includes a symmetry number that is not yet correctly
         implemented in ORCA!
For a nonlinear molecule the correct rotational entropy is:
    S(rot) = R*(ln(qrot/sn)+1.5)
    R    = 8.31441 J/mol/K = 1.987191683e-3 kcal/mol/K
    qrot = 132020.9654879
    sn is the rotational symmetry number. We have assumed 3 here
       if it is different for your molecule then you should correct
       the printed rotational entropy by manually evaluating the equation
       as given above

For convenience we print out the resulting values for sn=1 - 12:
 sn= 1  qrot/sn=  132020.9655 T*S(rot)=     7.87 kcal/mol T*S(tot)=    23.18 kcal/mol
 sn= 2  qrot/sn=   66010.4827 T*S(rot)=     7.46 kcal/mol T*S(tot)=    22.77 kcal/mol
 sn= 3  qrot/sn=   44006.9885 T*S(rot)=     7.22 kcal/mol T*S(tot)=    22.53 kcal/mol
 sn= 4  qrot/sn=   33005.2414 T*S(rot)=     7.05 kcal/mol T*S(tot)=    22.36 kcal/mol
 sn= 5  qrot/sn=   26404.1931 T*S(rot)=     6.92 kcal/mol T*S(tot)=    22.23 kcal/mol
 sn= 6  qrot/sn=   22003.4942 T*S(rot)=     6.81 kcal/mol T*S(tot)=    22.12 kcal/mol
 sn= 7  qrot/sn=   18860.1379 T*S(rot)=     6.72 kcal/mol T*S(tot)=    22.03 kcal/mol
 sn= 8  qrot/sn=   16502.6207 T*S(rot)=     6.64 kcal/mol T*S(tot)=    21.95 kcal/mol
 sn= 9  qrot/sn=   14668.9962 T*S(rot)=     6.57 kcal/mol T*S(tot)=    21.88 kcal/mol
 sn=10  qrot/sn=   13202.0965 T*S(rot)=     6.51 kcal/mol T*S(tot)=    21.82 kcal/mol
 sn=11  qrot/sn=   12001.9060 T*S(rot)=     6.45 kcal/mol T*S(tot)=    21.76 kcal/mol
 sn=12  qrot/sn=   11001.7471 T*S(rot)=     6.40 kcal/mol T*S(tot)=    21.71 kcal/mol

-------------------
GIBBS FREE ENTHALPY
-------------------

The Gibbs free enthalpy is G = H - T*S

Total enthalpy                    ...   -286.57927065 Eh
Total entropy correction          ...     -0.03590507 Eh    -22.53 kcal/mol
-----------------------------------------------------------------------
Final Gibbs free enthalpy         ...   -286.61517573 Eh

For completeness - the Gibbs free enthalpy minus the electronic energy
G-E(el)                           ...      0.09387073 Eh     58.90 kcal/mol

                             ****ORCA TERMINATED NORMALLY****
TOTAL RUN TIME: 0 days 0 hours 15 minutes 28 seconds 883 msec
