                         Program Version 3.0.3 - RELEASE   -
|  1> ! NORI PBE0 def2-TZVP UseSym TightOPT Freq TightSCF Grid3 FinalGrid5 XYZFile
|  2> % pal
|  3>     nprocs 8
|  4> end
|  5> %method
|  6>     SymThresh 5.0e-2
|  7> end
|  8> % geom
|  9>     MaxIter 10
| 10> end
| 11> % maxcore 2000
| 12> % output
| 13>     printlevel mini
| 14>     print[ P_Basis ] 0
| 15>     print[ P_SCFInfo ] 1
| 16>     print[ P_SCFIterInfo ] 1
| 17>     print[ P_OrbEn ] 0
| 18>     print[ P_Cartesian ] 0
| 19> end
| 20> % elprop
| 21>     Dipole false
| 22> end
| 23> *xyz 1 1
| 24>  C        0.8917096308    -0.1109645161     0.1000883731
| 25>  C        2.3897505448    -0.0614566249     0.1161169652
| 26>  N        2.9321405203    -0.0955554531    -1.2998555196
| 27>  C        3.1896778331     1.0078744609     0.8697790907
| 28>  O        4.1993816732     0.0357574862     1.1729680275
| 29>  C        3.2555180211    -1.0190808841     0.9435410839
| 30>  H        0.4616257219     0.7452852335    -0.4266987367
| 31>  H        0.5208047154    -0.0868375739     1.1248501825
| 32>  H        0.5196770967    -1.0288469598    -0.3634115380
| 33>  H        2.6014312615     0.7014766587    -1.8484679753
| 34>  H        2.6548238309    -0.9503204873    -1.7878457876
| 35>  H        3.9566359362    -0.0608648007    -1.2625125853
| 36>  H        2.6625625674     1.3478998252     1.7664537428
| 37>  H        3.5754977408     1.8723078159     0.3215217769
| 38>  H        3.6973658664    -1.8946524279     0.4590119972
| 39>  H        2.7492570396    -1.3263017526     1.8639009026
| 40> *
| 41>
| 42>                          ****END OF INPUT****
 Total Charge           Charge          ....    1
 Multiplicity           Mult            ....    1
 Number of Electrons    NEL             ....   48
FINAL SINGLE POINT ENERGY      -287.909985141939
FINAL SINGLE POINT ENERGY      -287.909985827286

CARTESIAN COORDINATES (ANGSTROEM)
---------------------------------
  C     -1.720089   -0.896685   -0.000000
  C     -0.452265   -0.096772   -0.000000
  N     -0.768275    1.386655    0.000000
  C      0.677761   -0.307033    1.014861
  O      1.643777   -0.001210    0.000000
  C      0.677761   -0.307033   -1.014861
  H     -2.326333   -0.697933    0.888133
  H     -1.475821   -1.959165   -0.000000
  H     -2.326333   -0.697933   -0.888133
  H     -1.305957    1.656225    0.826693
  H     -1.305957    1.656225   -0.826693
  H      0.112296    1.912677   -0.000000
  H      0.738451   -1.350276    1.340035
  H      0.744408    0.352340    1.884943
  H      0.744408    0.352340   -1.884943
  H      0.738451   -1.350276   -1.340035

FINAL SINGLE POINT ENERGY      -287.909986047821
                    ***********************HURRAY********************
 Multiplicity           Mult            ....    1
 Number of Electrons    NEL             ....   48
 Basis Dimension        Dim             ....  246
FINAL SINGLE POINT ENERGY      -287.909986108769

VIBRATIONAL FREQUENCIES
-----------------------

   0:         0.00 cm**-1
   1:         0.00 cm**-1
   2:         0.00 cm**-1
   3:         0.00 cm**-1
   4:         0.00 cm**-1
   5:         0.00 cm**-1
   6:       162.71 cm**-1
   7:       219.17 cm**-1
   8:       284.55 cm**-1
   9:       308.00 cm**-1
  10:       342.47 cm**-1
  11:       405.04 cm**-1
  12:       420.69 cm**-1
  13:       636.25 cm**-1
  14:       796.00 cm**-1
  15:       884.92 cm**-1
  16:       891.37 cm**-1
  17:       932.70 cm**-1
  18:       952.52 cm**-1
  19:      1014.58 cm**-1
  20:      1037.49 cm**-1
  21:      1043.05 cm**-1
  22:      1064.36 cm**-1
  23:      1144.82 cm**-1
  24:      1175.60 cm**-1
  25:      1248.08 cm**-1
  26:      1259.22 cm**-1
  27:      1304.69 cm**-1
  28:      1316.66 cm**-1
  29:      1400.70 cm**-1
  30:      1430.02 cm**-1
  31:      1478.12 cm**-1
  32:      1484.84 cm**-1
  33:      1485.95 cm**-1
  34:      1497.61 cm**-1
  35:      1524.70 cm**-1
  36:      1653.41 cm**-1
  37:      1658.56 cm**-1
  38:      3053.69 cm**-1
  39:      3054.90 cm**-1
  40:      3061.94 cm**-1
  41:      3115.69 cm**-1
  42:      3116.25 cm**-1
  43:      3126.05 cm**-1
  44:      3155.98 cm**-1
  45:      3395.57 cm**-1
  46:      3480.65 cm**-1
  47:      3504.10 cm**-1

IR SPECTRUM
-----------

 Mode    freq (cm**-1)   T**2         TX         TY         TZ
-------------------------------------------------------------------
   6:       162.71   26.898998  ( -3.210832   4.073028   0.000036)
   7:       219.17    0.882952  ( -0.000025   0.000055  -0.939656)
   8:       284.55    2.294923  (  0.000016   0.000073  -1.514900)
   9:       308.00    1.159574  (  0.000019   0.000044   1.076835)
  10:       342.47    8.282174  ( -2.519310  -1.391132   0.000022)
  11:       405.04    2.228199  ( -0.000045  -0.000047  -1.492715)
  12:       420.69    2.950419  (  1.083733  -1.332645   0.000042)
  13:       636.25    0.199358  ( -0.219638   0.388738   0.000001)
  14:       796.00    3.566848  (  1.473710  -1.181112   0.000001)
  15:       884.92    3.591990  ( -0.000044  -0.000022   1.895255)
  16:       891.37   21.168976  ( -4.097088  -2.093524  -0.000023)
  17:       932.70    1.505464  (  0.000065   0.000014  -1.226974)
  18:       952.52   19.235051  (  4.247812   1.091397   0.000022)
  19:      1014.58   12.619425  (  3.348097  -1.187294  -0.000022)
  20:      1037.49    4.350699  ( -0.973791  -1.844568   0.000130)
  21:      1043.05   50.711347  ( -0.000018  -0.000028  -7.121190)
  22:      1064.36   30.495565  (  0.000027   0.000001   5.522279)
  23:      1144.82    0.629181  ( -0.000001  -0.000014  -0.793209)
  24:      1175.60    3.734337  (  1.649844  -1.006157   0.000001)
  25:      1248.08   15.502490  ( -0.028474  -3.937217  -0.000002)
  26:      1259.22    3.575659  ( -0.000012  -0.000013  -1.890941)
  27:      1304.69    1.147180  (  0.000004   0.000013  -1.071065)
  28:      1316.66   14.812641  ( -3.630886  -1.276445  -0.000012)
  29:      1400.70   12.610506  (  2.655150  -2.358110   0.000008)
  30:      1430.02   38.251079  ( -4.233484  -4.508735   0.000000)
  31:      1478.12    1.301123  ( -0.204404   1.122204  -0.000000)
  32:      1484.84   10.820424  ( -0.000144   0.000738   3.289441)
  33:      1485.95  164.944184  (  2.432467 -12.610602   0.000252)
  34:      1497.61    7.736696  (  0.000020  -0.000095  -2.781492)
  35:      1524.70    2.043953  (  1.361567   0.435991   0.000004)
  36:      1653.41   32.408480  (  5.643512   0.747831   0.001453)
  37:      1658.56   37.035010  (  0.001406   0.000087  -6.085640)
  38:      3053.69    2.279370  ( -0.791522   1.285637  -0.000003)
  39:      3054.90   25.443709  (  0.000000   0.000001   5.044176)
  40:      3061.94    3.844231  (  1.941299   0.274935  -0.000016)
  41:      3115.69   10.126629  ( -0.361802  -3.161602   0.000013)
  42:      3116.25    3.891427  (  0.000000  -0.000001  -1.972670)
  43:      3126.05    2.597374  (  0.000000  -0.000000   1.611637)
  44:      3155.98    0.623279  (  0.777006   0.139790   0.000001)
  45:      3395.57   40.022988  (  1.746985   6.080381   0.000029)
  46:      3480.65   90.320174  ( -9.500384   0.250756  -0.000007)
  47:      3504.10   78.408938  ( -0.000020  -0.000040   8.854882)

--------------------------
THERMOCHEMISTRY AT 298.15K
--------------------------

Temperature         ... 298.15 K
Pressure            ... 1.00 atm
Total Mass          ... 88.13 AMU

Throughout the following assumptions are being made:
  (1) The electronic state is orbitally nondegenerate
  (2) There are no thermally accessible electronically excited states
  (3) Hindered rotations indicated by low frequency modes) are not
      treated as such but are treated as vibrations and this may
      case some error
  (4) All equations used are the standard statistical mechanics
      equations for an ideal gas
  (5) All vibrations are strinctly harmonic

------------
INNER ENERGY
------------

The inner energy is: U= E(el) + E(ZPE) + E(vib) + E(rot) + E(trans)
    E(el)   - is the total energy from the electronic structure calculation
              = E(kin-el) + E(nuc-el) + E(el-el) + E(nuc-nuc)
    E(ZPE)  - the the zero temperature vibrational energy from the frequency calculation
    E(vib)  - the the finite temperature correction to E(ZPE) due to population
              of excietd vibrational states
    E(rot)  - is the rotational thermal energy
    E(trans)- is the translational thermal energy

Summary of contributions to the inner energy U:
Electronic energy                ...   -287.90998611 Eh
Zero point energy                ...      0.14699575 Eh      92.24 kcal/mol
Thermal vibrational correction   ...      0.00365124 Eh       2.29 kcal/mol
Thermal rotational correction    ...      0.00141627 Eh       0.89 kcal/mol
Thermal translational correction ...      0.00141627 Eh       0.89 kcal/mol
-----------------------------------------------------------------------
Total thermal energy                   -287.75650657 Eh

Summary of corrections to the electronic energy:
(perhaps to be used in another calculation)
Total thermal correction                  0.00648378 Eh       4.07 kcal/mol
Non-thermal (ZPE) correction              0.14699575 Eh      92.24 kcal/mol
-----------------------------------------------------------------------
Total correction                          0.15347953 Eh      96.31 kcal/mol

--------
ENTHALPY
--------

The enthalpy is H = U + kB*T
                kB is Boltzmann's constant
Total free energy                 ...   -287.75650657 Eh
Thermal Enthalpy correction       ...      0.00094421 Eh       0.59 kcal/mol
-----------------------------------------------------------------------
Total Enthalpy                    ...   -287.75556236 Eh

-------
ENTROPY
-------

The entropy contributions are T*S = T*(S(el)+S(vib)+S(rot)+S(trans)
     S(el)   - electronic entropy
     S(vib)  - vibrational entropy
     S(rot)  - rotational entropy
     S(trans)- translational entropy
The entropies will be listed as mutliplied by the temperature to get
units of energy

Electronic entropy                ...      0.00000000 Eh      0.00 kcal/mol
Vibrational entropy               ...      0.00578255 Eh      3.63 kcal/mol
Rotational entropy                ...      0.01145597 Eh      7.19 kcal/mol
Translational entropy             ...      0.01869229 Eh     11.73 kcal/mol
-----------------------------------------------------------------------
Final entropy term                ...      0.03593081 Eh     22.55 kcal/mol

CAUTION: The rotational entropy is not quite correctly treated here
         because it includes a symmetry number that is not yet correctly
         implemented in ORCA!
For a nonlinear molecule the correct rotational entropy is:
    S(rot) = R*(ln(qrot/sn)+1.5)
    R    = 8.31441 J/mol/K = 1.987191683e-3 kcal/mol/K
    qrot = 124473.2786509
    sn is the rotational symmetry number. We have assumed 3 here
       if it is different for your molecule then you should correct
       the printed rotational entropy by manually evaluating the equation
       as given above

For convenience we print out the resulting values for sn=1 - 12:
 sn= 1  qrot/sn=  124473.2787 T*S(rot)=     7.84 kcal/mol T*S(tot)=    23.20 kcal/mol
 sn= 2  qrot/sn=   62236.6393 T*S(rot)=     7.43 kcal/mol T*S(tot)=    22.79 kcal/mol
 sn= 3  qrot/sn=   41491.0929 T*S(rot)=     7.19 kcal/mol T*S(tot)=    22.55 kcal/mol
 sn= 4  qrot/sn=   31118.3197 T*S(rot)=     7.02 kcal/mol T*S(tot)=    22.38 kcal/mol
 sn= 5  qrot/sn=   24894.6557 T*S(rot)=     6.89 kcal/mol T*S(tot)=    22.24 kcal/mol
 sn= 6  qrot/sn=   20745.5464 T*S(rot)=     6.78 kcal/mol T*S(tot)=    22.14 kcal/mol
 sn= 7  qrot/sn=   17781.8970 T*S(rot)=     6.69 kcal/mol T*S(tot)=    22.04 kcal/mol
 sn= 8  qrot/sn=   15559.1598 T*S(rot)=     6.61 kcal/mol T*S(tot)=    21.97 kcal/mol
 sn= 9  qrot/sn=   13830.3643 T*S(rot)=     6.54 kcal/mol T*S(tot)=    21.90 kcal/mol
 sn=10  qrot/sn=   12447.3279 T*S(rot)=     6.48 kcal/mol T*S(tot)=    21.83 kcal/mol
 sn=11  qrot/sn=   11315.7526 T*S(rot)=     6.42 kcal/mol T*S(tot)=    21.78 kcal/mol
 sn=12  qrot/sn=   10372.7732 T*S(rot)=     6.37 kcal/mol T*S(tot)=    21.73 kcal/mol

-------------------
GIBBS FREE ENTHALPY
-------------------

The Gibbs free enthalpy is G = H - T*S

Total enthalpy                    ...   -287.75556236 Eh
Total entropy correction          ...     -0.03593081 Eh    -22.55 kcal/mol
-----------------------------------------------------------------------
Final Gibbs free enthalpy         ...   -287.79149317 Eh

For completeness - the Gibbs free enthalpy minus the electronic energy
G-E(el)                           ...      0.11849293 Eh     74.36 kcal/mol

                             ****ORCA TERMINATED NORMALLY****
TOTAL RUN TIME: 0 days 0 hours 19 minutes 16 seconds 580 msec
