                         Program Version 3.0.3 - RELEASE   -
|  1> ! NORI PBE0 def2-TZVP UseSym TightOPT Freq TightSCF Grid3 FinalGrid5 XYZFile
|  2> % pal
|  3>     nprocs 8
|  4> end
|  5> %method
|  6>     SymThresh 5.0e-2
|  7> end
|  8> % geom
|  9>     MaxIter 10
| 10> end
| 11> % maxcore 2000
| 12> % output
| 13>     printlevel mini
| 14>     print[ P_Basis ] 0
| 15>     print[ P_SCFInfo ] 1
| 16>     print[ P_SCFIterInfo ] 1
| 17>     print[ P_OrbEn ] 0
| 18>     print[ P_Cartesian ] 0
| 19> end
| 20> % elprop
| 21>     Dipole false
| 22> end
| 23> *xyz 1 1
| 24>  C        1.0336838734     0.0644322253    -0.1656037397
| 25>  C        2.5029460423     0.2650733809     0.0051855543
| 26>  O        3.3650793813    -0.6198892310    -0.7000211730
| 27>  C        3.3666308409     0.7262308739    -1.0927044782
| 28>  C        4.6756548677     1.4107027341    -0.8249147966
| 29>  N        4.4953232066     2.9071355119    -0.8136646079
| 30>  H        0.4813935161     0.9387537967     0.1871770178
| 31>  H        0.7064684781    -0.7953921711     0.4217626608
| 32>  H        0.7807516640    -0.1187159634    -1.2105041159
| 33>  H        2.8449253495     0.4672755465     1.0216897913
| 34>  H        2.9185507273     0.9245436683    -2.0682747644
| 35>  H        5.4188089399     1.1884885875    -1.5928912507
| 36>  H        5.0712690489     1.1211890620     0.1484847542
| 37>  H        4.1346996322     3.2430686975    -1.7097728116
| 38>  H        5.3772785576     3.3918850129    -0.6343670288
| 39>  H        3.8275958743     3.1857982680    -0.0909010115
| 40> *
| 41>
| 42>                          ****END OF INPUT****
 Total Charge           Charge          ....    1
 Multiplicity           Mult            ....    1
 Number of Electrons    NEL             ....   48
FINAL SINGLE POINT ENERGY      -287.909347369367

CARTESIAN COORDINATES (ANGSTROEM)
---------------------------------
  C     -2.326881   -0.087791    0.590826
  C     -0.930898    0.429272    0.479694
  O     -0.000354    0.001241    1.466856
  C      0.207348   -0.443816    0.153320
  C      1.465631    0.103849   -0.455877
  N      1.412211    0.000493   -1.958805
  H     -2.873776    0.075218   -0.340696
  H     -2.855928    0.442001    1.385135
  H     -2.334040   -1.152826    0.826288
  H     -0.829015    1.487783    0.233736
  H      0.025432   -1.507994   -0.009573
  H      2.350637   -0.447534   -0.133258
  H      1.590527    1.156941   -0.204348
  H      1.307169   -0.971390   -2.259350
  H      2.261954    0.367898   -2.392464
  H      0.615415    0.523586   -2.329516

FINAL SINGLE POINT ENERGY      -287.909348075278
                    ***********************HURRAY********************
 Multiplicity           Mult            ....    1
 Number of Electrons    NEL             ....   48
 Basis Dimension        Dim             ....  246
FINAL SINGLE POINT ENERGY      -287.909348610516

VIBRATIONAL FREQUENCIES
-----------------------

   0:         0.00 cm**-1
   1:         0.00 cm**-1
   2:         0.00 cm**-1
   3:         0.00 cm**-1
   4:         0.00 cm**-1
   5:         0.00 cm**-1
   6:        78.75 cm**-1
   7:       163.96 cm**-1
   8:       190.71 cm**-1
   9:       205.48 cm**-1
  10:       284.54 cm**-1
  11:       372.71 cm**-1
  12:       430.58 cm**-1
  13:       509.98 cm**-1
  14:       790.91 cm**-1
  15:       830.00 cm**-1
  16:       885.83 cm**-1
  17:       913.46 cm**-1
  18:       992.66 cm**-1
  19:      1001.07 cm**-1
  20:      1041.50 cm**-1
  21:      1057.79 cm**-1
  22:      1153.81 cm**-1
  23:      1156.93 cm**-1
  24:      1177.28 cm**-1
  25:      1205.78 cm**-1
  26:      1282.92 cm**-1
  27:      1326.04 cm**-1
  28:      1368.03 cm**-1
  29:      1401.96 cm**-1
  30:      1417.97 cm**-1
  31:      1464.92 cm**-1
  32:      1480.09 cm**-1
  33:      1489.46 cm**-1
  34:      1506.69 cm**-1
  35:      1522.72 cm**-1
  36:      1658.09 cm**-1
  37:      1663.66 cm**-1
  38:      3063.61 cm**-1
  39:      3100.28 cm**-1
  40:      3100.94 cm**-1
  41:      3105.22 cm**-1
  42:      3140.96 cm**-1
  43:      3154.12 cm**-1
  44:      3166.80 cm**-1
  45:      3419.81 cm**-1
  46:      3499.89 cm**-1
  47:      3505.18 cm**-1

IR SPECTRUM
-----------

 Mode    freq (cm**-1)   T**2         TX         TY         TZ
-------------------------------------------------------------------
   6:        78.75    4.736140  ( -2.114400   0.329850   0.395791)
   7:       163.96    4.335951  ( -2.035767  -0.262634  -0.350183)
   8:       190.71    0.116869  ( -0.208000  -0.224795  -0.151897)
   9:       205.48    0.545553  ( -0.219056   0.417591  -0.568494)
  10:       284.54    0.639338  (  0.430293   0.195963  -0.644814)
  11:       372.71   10.013716  ( -0.417979   0.413583   3.109334)
  12:       430.58    3.943518  (  1.542039   0.335621  -1.205401)
  13:       509.98   20.650017  ( -3.604995  -0.905554   2.614192)
  14:       790.91   13.645500  (  0.763334  -0.631839  -3.558595)
  15:       830.00    8.589008  ( -2.074953   1.792768  -1.034197)
  16:       885.83   19.116081  ( -0.640185   3.504230  -2.535077)
  17:       913.46   21.054833  (  4.526942   0.623700  -0.415490)
  18:       992.66   21.789746  ( -1.473047  -1.820476  -4.038037)
  19:      1001.07    8.712589  (  0.826543   0.293114   2.818422)
  20:      1041.50    6.555335  (  1.744667  -1.245368   1.400189)
  21:      1057.79   22.293816  (  2.924790   0.110895  -3.705013)
  22:      1153.81    1.513210  ( -0.276141   0.006586   1.198713)
  23:      1156.93    4.414336  ( -0.193531  -1.234745  -1.688872)
  24:      1177.28    1.070292  (  0.543321   0.864640  -0.165808)
  25:      1205.78    3.741129  (  1.615314   0.421655  -0.976778)
  26:      1282.92   12.148504  (  2.951571  -1.451197   1.153585)
  27:      1326.04    4.473435  (  0.248603  -2.057750   0.421067)
  28:      1368.03   14.743265  (  3.503945  -1.023310  -1.190997)
  29:      1401.96    4.981661  (  1.376549   0.030906  -1.756650)
  30:      1417.97   10.404508  (  2.778696   1.479978   0.702155)
  31:      1464.92   11.301963  ( -1.801100   2.343600   1.601730)
  32:      1480.09    9.709696  ( -1.234244   1.987317  -2.058375)
  33:      1489.46   15.351595  ( -3.512814  -1.630790  -0.593514)
  34:      1506.69  120.470577  ( -2.036705  -0.608615  10.768101)
  35:      1522.72   47.862865  (  3.098497   1.637262   5.965028)
  36:      1658.09   50.174957  ( -1.524546   6.892203  -0.590126)
  37:      1663.66   37.626649  ( -6.018814  -0.890010   0.780002)
  38:      3063.61    2.359027  ( -1.334223  -0.502168  -0.571580)
  39:      3100.28    6.823688  (  0.627776   0.276434  -2.520549)
  40:      3100.94    0.649039  ( -0.433413   0.677452  -0.047445)
  41:      3105.22   16.495174  ( -1.116406  -3.900014   0.196737)
  42:      3140.96    3.231601  ( -0.415784   0.279653  -1.726418)
  43:      3154.12    6.324224  ( -0.517399   2.364937  -0.680879)
  44:      3166.80    0.230663  ( -0.401193  -0.080467   0.251460)
  45:      3419.81   44.281550  (  0.941243  -0.364490  -6.577443)
  46:      3499.89   96.176880  ( -3.575270   9.131969  -0.038328)
  47:      3505.18  109.909038  ( -9.706399  -3.764186   1.235217)

--------------------------
THERMOCHEMISTRY AT 298.15K
--------------------------

Temperature         ... 298.15 K
Pressure            ... 1.00 atm
Total Mass          ... 88.13 AMU

Throughout the following assumptions are being made:
  (1) The electronic state is orbitally nondegenerate
  (2) There are no thermally accessible electronically excited states
  (3) Hindered rotations indicated by low frequency modes) are not
      treated as such but are treated as vibrations and this may
      case some error
  (4) All equations used are the standard statistical mechanics
      equations for an ideal gas
  (5) All vibrations are strinctly harmonic

------------
INNER ENERGY
------------

The inner energy is: U= E(el) + E(ZPE) + E(vib) + E(rot) + E(trans)
    E(el)   - is the total energy from the electronic structure calculation
              = E(kin-el) + E(nuc-el) + E(el-el) + E(nuc-nuc)
    E(ZPE)  - the the zero temperature vibrational energy from the frequency calculation
    E(vib)  - the the finite temperature correction to E(ZPE) due to population
              of excietd vibrational states
    E(rot)  - is the rotational thermal energy
    E(trans)- is the translational thermal energy

Summary of contributions to the inner energy U:
Electronic energy                ...   -287.90934861 Eh
Zero point energy                ...      0.14644763 Eh      91.90 kcal/mol
Thermal vibrational correction   ...      0.00434264 Eh       2.73 kcal/mol
Thermal rotational correction    ...      0.00141627 Eh       0.89 kcal/mol
Thermal translational correction ...      0.00141627 Eh       0.89 kcal/mol
-----------------------------------------------------------------------
Total thermal energy                   -287.75572580 Eh

Summary of corrections to the electronic energy:
(perhaps to be used in another calculation)
Total thermal correction                  0.00717518 Eh       4.50 kcal/mol
Non-thermal (ZPE) correction              0.14644763 Eh      91.90 kcal/mol
-----------------------------------------------------------------------
Total correction                          0.15362281 Eh      96.40 kcal/mol

--------
ENTHALPY
--------

The enthalpy is H = U + kB*T
                kB is Boltzmann's constant
Total free energy                 ...   -287.75572580 Eh
Thermal Enthalpy correction       ...      0.00094421 Eh       0.59 kcal/mol
-----------------------------------------------------------------------
Total Enthalpy                    ...   -287.75478159 Eh

-------
ENTROPY
-------

The entropy contributions are T*S = T*(S(el)+S(vib)+S(rot)+S(trans)
     S(el)   - electronic entropy
     S(vib)  - vibrational entropy
     S(rot)  - rotational entropy
     S(trans)- translational entropy
The entropies will be listed as mutliplied by the temperature to get
units of energy

Electronic entropy                ...      0.00000000 Eh      0.00 kcal/mol
Vibrational entropy               ...      0.00768958 Eh      4.83 kcal/mol
Rotational entropy                ...      0.01173222 Eh      7.36 kcal/mol
Translational entropy             ...      0.01869229 Eh     11.73 kcal/mol
-----------------------------------------------------------------------
Final entropy term                ...      0.03811409 Eh     23.92 kcal/mol

CAUTION: The rotational entropy is not quite correctly treated here
         because it includes a symmetry number that is not yet correctly
         implemented in ORCA!
For a nonlinear molecule the correct rotational entropy is:
    S(rot) = R*(ln(qrot/sn)+1.5)
    R    = 8.31441 J/mol/K = 1.987191683e-3 kcal/mol/K
    qrot = 166779.9996869
    sn is the rotational symmetry number. We have assumed 3 here
       if it is different for your molecule then you should correct
       the printed rotational entropy by manually evaluating the equation
       as given above

For convenience we print out the resulting values for sn=1 - 12:
 sn= 1  qrot/sn=  166779.9997 T*S(rot)=     8.01 kcal/mol T*S(tot)=    24.57 kcal/mol
 sn= 2  qrot/sn=   83389.9998 T*S(rot)=     7.60 kcal/mol T*S(tot)=    24.16 kcal/mol
 sn= 3  qrot/sn=   55593.3332 T*S(rot)=     7.36 kcal/mol T*S(tot)=    23.92 kcal/mol
 sn= 4  qrot/sn=   41694.9999 T*S(rot)=     7.19 kcal/mol T*S(tot)=    23.75 kcal/mol
 sn= 5  qrot/sn=   33355.9999 T*S(rot)=     7.06 kcal/mol T*S(tot)=    23.61 kcal/mol
 sn= 6  qrot/sn=   27796.6666 T*S(rot)=     6.95 kcal/mol T*S(tot)=    23.51 kcal/mol
 sn= 7  qrot/sn=   23825.7142 T*S(rot)=     6.86 kcal/mol T*S(tot)=    23.41 kcal/mol
 sn= 8  qrot/sn=   20847.5000 T*S(rot)=     6.78 kcal/mol T*S(tot)=    23.34 kcal/mol
 sn= 9  qrot/sn=   18531.1111 T*S(rot)=     6.71 kcal/mol T*S(tot)=    23.27 kcal/mol
 sn=10  qrot/sn=   16678.0000 T*S(rot)=     6.65 kcal/mol T*S(tot)=    23.20 kcal/mol
 sn=11  qrot/sn=   15161.8182 T*S(rot)=     6.59 kcal/mol T*S(tot)=    23.15 kcal/mol
 sn=12  qrot/sn=   13898.3333 T*S(rot)=     6.54 kcal/mol T*S(tot)=    23.10 kcal/mol

-------------------
GIBBS FREE ENTHALPY
-------------------

The Gibbs free enthalpy is G = H - T*S

Total enthalpy                    ...   -287.75478159 Eh
Total entropy correction          ...     -0.03811409 Eh    -23.92 kcal/mol
-----------------------------------------------------------------------
Final Gibbs free enthalpy         ...   -287.79289568 Eh

For completeness - the Gibbs free enthalpy minus the electronic energy
G-E(el)                           ...      0.11645293 Eh     73.08 kcal/mol

                             ****ORCA TERMINATED NORMALLY****
TOTAL RUN TIME: 0 days 0 hours 16 minutes 28 seconds 459 msec
