                         Program Version 3.0.3 - RELEASE   -
|  1> ! NORI PBE0 def2-TZVP UseSym TightOPT Freq TightSCF Grid3 FinalGrid5 XYZFile
|  2> % pal
|  3>     nprocs 8
|  4> end
|  5> %method
|  6>     SymThresh 5.0e-2
|  7> end
|  8> % geom
|  9>     MaxIter 10
| 10> end
| 11> % maxcore 2000
| 12> % output
| 13>     printlevel mini
| 14>     print[ P_Basis ] 0
| 15>     print[ P_SCFInfo ] 1
| 16>     print[ P_SCFIterInfo ] 1
| 17>     print[ P_OrbEn ] 0
| 18>     print[ P_Cartesian ] 0
| 19> end
| 20> % elprop
| 21>     Dipole false
| 22> end
| 23> *xyz 1 1
| 24>  C        1.0157737884     0.1358767988     0.1720634685
| 25>  C        2.4962300823    -0.0577326795     0.0346611230
| 26>  O        3.2714174585     0.9894849567     0.6374755959
| 27>  C        4.0889987120     0.0724394242     1.3561942896
| 28>  C        3.1928752205    -1.0897217479     0.9361991834
| 29>  N        3.8802660741    -2.2129403093     0.2205237276
| 30>  H        0.7182971117     1.0463020580    -0.3506324384
| 31>  H        0.7289310131     0.2342140307     1.2204157713
| 32>  H        0.4701036209    -0.7000672151    -0.2742206101
| 33>  H        2.7755317361    -0.1803429589    -1.0246975566
| 34>  H        4.1282465308     0.2887798586     2.4254096377
| 35>  H        5.1140302614     0.0230049306     0.9623446811
| 36>  H        2.5744832792    -1.5350228398     1.7142822542
| 37>  H        4.4795097197    -1.8529840612    -0.5273638159
| 38>  H        3.2047336584    -2.8540049087    -0.2041624451
| 39>  H        4.4693917329    -2.7597653372     0.8542471337
| 40> *
| 41>
| 42>                          ****END OF INPUT****
 Total Charge           Charge          ....    1
 Multiplicity           Mult            ....    1
 Number of Electrons    NEL             ....   48
FINAL SINGLE POINT ENERGY      -287.908449245924

CARTESIAN COORDINATES (ANGSTROEM)
---------------------------------
  C     -1.954438    0.749940    0.126646
  C     -0.462517    0.619646    0.202148
  O     -0.000088   -0.000187    1.411695
  C      0.818802   -0.929546    0.710536
  C      0.225976   -0.480097   -0.622265
  N      1.213925   -0.000080   -1.642146
  H     -2.303213    1.400442    0.930255
  H     -2.439128   -0.221502    0.238275
  H     -2.259058    1.197784   -0.823144
  H      0.020776    1.600809    0.065280
  H      0.626669   -1.964466    0.998843
  H      1.891261   -0.717873    0.826793
  H     -0.437416   -1.183547   -1.123446
  H      1.867350    0.668928   -1.226048
  H      0.746895    0.467192   -2.423758
  H      1.763867   -0.772351   -2.027501

FINAL SINGLE POINT ENERGY      -287.908449736698
                    ***********************HURRAY********************
 Multiplicity           Mult            ....    1
 Number of Electrons    NEL             ....   48
 Basis Dimension        Dim             ....  246
FINAL SINGLE POINT ENERGY      -287.908449951233

VIBRATIONAL FREQUENCIES
-----------------------

   0:         0.00 cm**-1
   1:         0.00 cm**-1
   2:         0.00 cm**-1
   3:         0.00 cm**-1
   4:         0.00 cm**-1
   5:         0.00 cm**-1
   6:        25.33 cm**-1
   7:       199.75 cm**-1
   8:       222.45 cm**-1
   9:       271.22 cm**-1
  10:       285.33 cm**-1
  11:       391.98 cm**-1
  12:       495.39 cm**-1
  13:       679.46 cm**-1
  14:       812.95 cm**-1
  15:       902.45 cm**-1
  16:       905.92 cm**-1
  17:       932.69 cm**-1
  18:       994.34 cm**-1
  19:      1030.88 cm**-1
  20:      1087.61 cm**-1
  21:      1116.29 cm**-1
  22:      1147.55 cm**-1
  23:      1154.86 cm**-1
  24:      1174.47 cm**-1
  25:      1211.25 cm**-1
  26:      1279.16 cm**-1
  27:      1291.84 cm**-1
  28:      1356.33 cm**-1
  29:      1373.56 cm**-1
  30:      1412.88 cm**-1
  31:      1426.17 cm**-1
  32:      1472.27 cm**-1
  33:      1485.21 cm**-1
  34:      1504.70 cm**-1
  35:      1520.83 cm**-1
  36:      1653.00 cm**-1
  37:      1658.05 cm**-1
  38:      2980.95 cm**-1
  39:      3014.11 cm**-1
  40:      3058.68 cm**-1
  41:      3119.89 cm**-1
  42:      3139.00 cm**-1
  43:      3144.35 cm**-1
  44:      3153.42 cm**-1
  45:      3406.86 cm**-1
  46:      3488.38 cm**-1
  47:      3491.39 cm**-1

IR SPECTRUM
-----------

 Mode    freq (cm**-1)   T**2         TX         TY         TZ
-------------------------------------------------------------------
   7:       199.75    0.552212  ( -0.595796   0.221618  -0.384869)
   8:       222.45    2.051932  (  1.086249  -0.933793  -0.005150)
   9:       271.22    7.255487  ( -2.407179   0.442501  -1.124796)
  10:       285.33    6.408903  ( -1.340646   0.594510   2.063523)
  11:       391.98    3.978598  ( -1.492066  -0.186972   1.310487)
  12:       495.39    5.823828  ( -0.201991  -0.354074  -2.378584)
  13:       679.46    0.773246  (  0.502392   0.183696  -0.697929)
  14:       812.95    8.199088  ( -1.477311   1.539027   1.909983)
  15:       902.45    0.334469  ( -0.330949  -0.218736  -0.420827)
  16:       905.92   29.645177  (  2.027916  -1.527520   4.816577)
  17:       932.69    5.550211  (  2.006860  -0.709618   1.009538)
  18:       994.34   19.698532  ( -0.303586   4.021980   1.852037)
  19:      1030.88    9.526194  ( -1.022304   2.899844  -0.268321)
  20:      1087.61   79.798615  (  6.807305  -5.736826  -0.740305)
  21:      1116.29   27.272489  ( -1.538153   3.063923  -3.939410)
  22:      1147.55    7.917505  (  1.995328  -1.958425   0.317401)
  23:      1154.86   11.541439  ( -0.736538   1.762890  -2.809123)
  24:      1174.47   12.042346  (  2.558022  -2.099220   1.045059)
  25:      1211.25    0.247127  ( -0.461476  -0.010811   0.184529)
  26:      1279.16    1.454324  ( -0.545576   0.599648  -0.892801)
  27:      1291.84    2.405135  ( -0.237997   0.652876   1.386451)
  28:      1356.33    5.386219  ( -0.767212   0.662234   2.087834)
  29:      1373.56    7.827462  (  1.772367  -1.891371  -1.053039)
  30:      1412.88   15.327607  ( -3.736479   1.168634   0.025015)
  31:      1426.17   12.382925  ( -1.995655   1.000815  -2.720047)
  32:      1472.27   10.738031  ( -0.267892  -2.134544  -2.471839)
  33:      1485.21   11.185867  ( -0.786496  -1.905635   2.633599)
  34:      1504.70  101.474086  (  5.950622   3.784486  -7.193181)
  35:      1520.83   51.284622  (  6.100135   1.802061  -3.290219)
  36:      1653.00   38.596020  (  3.816396  -4.725118   1.305526)
  37:      1658.05   49.133829  (  3.342531   3.732685   4.901875)
  38:      2980.95   35.837547  ( -2.069685  -5.001954   2.556248)
  39:      3014.11   39.560425  (  6.125828  -0.754602  -1.210469)
  40:      3058.68    2.295308  (  0.549357   0.227017   1.393549)
  41:      3119.89    4.848046  ( -0.058198   2.168714  -0.375950)
  42:      3139.00    5.332387  ( -0.182947  -1.635052   1.620346)
  43:      3144.35    0.429154  (  0.105820   0.422783   0.489092)
  44:      3153.42    2.384798  (  0.669148   1.391497   0.027840)
  45:      3406.86   41.218682  ( -4.179401  -1.457026   4.650631)
  46:      3488.38   92.418273  ( -3.494041  -5.549862  -7.029152)
  47:      3491.39   97.636243  (  6.199256  -7.340102   2.308327)

--------------------------
THERMOCHEMISTRY AT 298.15K
--------------------------

Temperature         ... 298.15 K
Pressure            ... 1.00 atm
Total Mass          ... 88.13 AMU

Throughout the following assumptions are being made:
  (1) The electronic state is orbitally nondegenerate
  (2) There are no thermally accessible electronically excited states
  (3) Hindered rotations indicated by low frequency modes) are not
      treated as such but are treated as vibrations and this may
      case some error
  (4) All equations used are the standard statistical mechanics
      equations for an ideal gas
  (5) All vibrations are strinctly harmonic

------------
INNER ENERGY
------------

The inner energy is: U= E(el) + E(ZPE) + E(vib) + E(rot) + E(trans)
    E(el)   - is the total energy from the electronic structure calculation
              = E(kin-el) + E(nuc-el) + E(el-el) + E(nuc-nuc)
    E(ZPE)  - the the zero temperature vibrational energy from the frequency calculation
    E(vib)  - the the finite temperature correction to E(ZPE) due to population
              of excietd vibrational states
    E(rot)  - is the rotational thermal energy
    E(trans)- is the translational thermal energy

Summary of contributions to the inner energy U:
Electronic energy                ...   -287.90844995 Eh
Zero point energy                ...      0.14682307 Eh      92.13 kcal/mol
Thermal vibrational correction   ...      0.00315368 Eh       1.98 kcal/mol
Thermal rotational correction    ...      0.00141627 Eh       0.89 kcal/mol
Thermal translational correction ...      0.00141627 Eh       0.89 kcal/mol
-----------------------------------------------------------------------
Total thermal energy                   -287.75564065 Eh

Summary of corrections to the electronic energy:
(perhaps to be used in another calculation)
Total thermal correction                  0.00598623 Eh       3.76 kcal/mol
Non-thermal (ZPE) correction              0.14682307 Eh      92.13 kcal/mol
-----------------------------------------------------------------------
Total correction                          0.15280930 Eh      95.89 kcal/mol

--------
ENTHALPY
--------

The enthalpy is H = U + kB*T
                kB is Boltzmann's constant
Total free energy                 ...   -287.75564065 Eh
Thermal Enthalpy correction       ...      0.00094421 Eh       0.59 kcal/mol
-----------------------------------------------------------------------
Total Enthalpy                    ...   -287.75469644 Eh

-------
ENTROPY
-------

The entropy contributions are T*S = T*(S(el)+S(vib)+S(rot)+S(trans)
     S(el)   - electronic entropy
     S(vib)  - vibrational entropy
     S(rot)  - rotational entropy
     S(trans)- translational entropy
The entropies will be listed as mutliplied by the temperature to get
units of energy

Electronic entropy                ...      0.00000000 Eh      0.00 kcal/mol
Vibrational entropy               ...      0.00495775 Eh      3.11 kcal/mol
Rotational entropy                ...      0.01158604 Eh      7.27 kcal/mol
Translational entropy             ...      0.01869229 Eh     11.73 kcal/mol
-----------------------------------------------------------------------
Final entropy term                ...      0.03523608 Eh     22.11 kcal/mol

CAUTION: The rotational entropy is not quite correctly treated here
         because it includes a symmetry number that is not yet correctly
         implemented in ORCA!
For a nonlinear molecule the correct rotational entropy is:
    S(rot) = R*(ln(qrot/sn)+1.5)
    R    = 8.31441 J/mol/K = 1.987191683e-3 kcal/mol/K
    qrot = 142858.7386792
    sn is the rotational symmetry number. We have assumed 3 here
       if it is different for your molecule then you should correct
       the printed rotational entropy by manually evaluating the equation
       as given above

For convenience we print out the resulting values for sn=1 - 12:
 sn= 1  qrot/sn=  142858.7387 T*S(rot)=     7.92 kcal/mol T*S(tot)=    22.76 kcal/mol
 sn= 2  qrot/sn=   71429.3693 T*S(rot)=     7.51 kcal/mol T*S(tot)=    22.35 kcal/mol
 sn= 3  qrot/sn=   47619.5796 T*S(rot)=     7.27 kcal/mol T*S(tot)=    22.11 kcal/mol
 sn= 4  qrot/sn=   35714.6847 T*S(rot)=     7.10 kcal/mol T*S(tot)=    21.94 kcal/mol
 sn= 5  qrot/sn=   28571.7477 T*S(rot)=     6.97 kcal/mol T*S(tot)=    21.81 kcal/mol
 sn= 6  qrot/sn=   23809.7898 T*S(rot)=     6.86 kcal/mol T*S(tot)=    21.70 kcal/mol
 sn= 7  qrot/sn=   20408.3912 T*S(rot)=     6.77 kcal/mol T*S(tot)=    21.61 kcal/mol
 sn= 8  qrot/sn=   17857.3423 T*S(rot)=     6.69 kcal/mol T*S(tot)=    21.53 kcal/mol
 sn= 9  qrot/sn=   15873.1932 T*S(rot)=     6.62 kcal/mol T*S(tot)=    21.46 kcal/mol
 sn=10  qrot/sn=   14285.8739 T*S(rot)=     6.56 kcal/mol T*S(tot)=    21.40 kcal/mol
 sn=11  qrot/sn=   12987.1581 T*S(rot)=     6.50 kcal/mol T*S(tot)=    21.34 kcal/mol
 sn=12  qrot/sn=   11904.8949 T*S(rot)=     6.45 kcal/mol T*S(tot)=    21.29 kcal/mol

-------------------
GIBBS FREE ENTHALPY
-------------------

The Gibbs free enthalpy is G = H - T*S

Total enthalpy                    ...   -287.75469644 Eh
Total entropy correction          ...     -0.03523608 Eh    -22.11 kcal/mol
-----------------------------------------------------------------------
Final Gibbs free enthalpy         ...   -287.78993253 Eh

For completeness - the Gibbs free enthalpy minus the electronic energy
G-E(el)                           ...      0.11851743 Eh     74.37 kcal/mol

                             ****ORCA TERMINATED NORMALLY****
TOTAL RUN TIME: 0 days 0 hours 19 minutes 6 seconds 245 msec
