                         Program Version 3.0.3 - RELEASE   -
|  1> ! NORI PBE0 def2-TZVP UseSym TightOPT Freq TightSCF Grid3 FinalGrid5 XYZFile
|  2> % pal
|  3>     nprocs 8
|  4> end
|  5> %method
|  6>     SymThresh 5.0e-2
|  7> end
|  8> % geom
|  9>     MaxIter 10
| 10> end
| 11> % maxcore 2000
| 12> % output
| 13>     printlevel mini
| 14>     print[ P_Basis ] 0
| 15>     print[ P_SCFInfo ] 1
| 16>     print[ P_SCFIterInfo ] 1
| 17>     print[ P_OrbEn ] 0
| 18>     print[ P_Cartesian ] 0
| 19> end
| 20> % elprop
| 21>     Dipole false
| 22> end
| 23> *xyz 1 1
| 24>  C        1.0819343132     0.0016870486    -0.0036832120
| 25>  C        2.5765262460    -0.0206598818    -0.0338573951
| 26>  O        3.2232329705     0.2130672436     1.1863471812
| 27>  C        3.3559287014    -0.8453773956    -1.0149973577
| 28>  C        3.3422837193     0.6474674155    -1.1393661305
| 29>  N        4.5392955362     1.3725980630    -0.6727958405
| 30>  H        0.6692793734    -0.0737379293    -1.0109973773
| 31>  H        0.7225424929     0.9242369680     0.4552880784
| 32>  H        0.7007426601    -0.8443657705     0.5732011508
| 33>  H        3.0927247491    -0.5308751951     1.7842825333
| 34>  H        4.2619249424    -1.3190219782    -0.6524789635
| 35>  H        2.8284088411    -1.3976603314    -1.7823870829
| 36>  H        2.8413987842     1.1346312168    -1.9645906475
| 37>  H        4.6582072375     1.1049244614     0.3213322946
| 38>  H        4.4038303615     2.3846463608    -0.7097471097
| 39>  H        5.3815490711     1.1400597042    -1.2013601216
| 40> *
| 41>
| 42>                          ****END OF INPUT****
 Total Charge           Charge          ....    1
 Multiplicity           Mult            ....    1
 Number of Electrons    NEL             ....   48
FINAL SINGLE POINT ENERGY      -287.929793099037

CARTESIAN COORDINATES (ANGSTROEM)
---------------------------------
  C     -1.757712    0.963557    0.010715
  C     -0.564390    0.074428    0.155005
  O      0.000278    0.000486    1.434631
  C     -0.346688   -1.136180   -0.703528
  C      0.529936    0.066847   -0.873280
  N      1.884101   -0.000181   -0.292155
  H     -2.057895    1.048375   -1.034979
  H     -1.540132    1.960866    0.396394
  H     -2.605468    0.554268    0.565238
  H     -0.588143   -0.469033    2.035773
  H      0.076006   -2.012467   -0.223948
  H     -1.037401   -1.346728   -1.510106
  H      0.476836    0.675358   -1.765527
  H      1.745900   -0.194021    0.716542
  H      2.373132    0.892851   -0.374527
  H      2.466027   -0.726864   -0.711896

FINAL SINGLE POINT ENERGY      -287.929793764206
                    ***********************HURRAY********************
 Multiplicity           Mult            ....    1
 Number of Electrons    NEL             ....   48
 Basis Dimension        Dim             ....  246
FINAL SINGLE POINT ENERGY      -287.929794147433

VIBRATIONAL FREQUENCIES
-----------------------

   0:         0.00 cm**-1
   1:         0.00 cm**-1
   2:         0.00 cm**-1
   3:         0.00 cm**-1
   4:         0.00 cm**-1
   5:         0.00 cm**-1
   6:       212.36 cm**-1
   7:       226.96 cm**-1
   8:       250.31 cm**-1
   9:       285.10 cm**-1
  10:       327.42 cm**-1
  11:       364.04 cm**-1
  12:       417.29 cm**-1
  13:       464.66 cm**-1
  14:       572.00 cm**-1
  15:       728.82 cm**-1
  16:       802.91 cm**-1
  17:       853.45 cm**-1
  18:       927.75 cm**-1
  19:       957.99 cm**-1
  20:       987.62 cm**-1
  21:      1020.02 cm**-1
  22:      1066.15 cm**-1
  23:      1102.03 cm**-1
  24:      1117.93 cm**-1
  25:      1172.13 cm**-1
  26:      1198.78 cm**-1
  27:      1253.96 cm**-1
  28:      1302.12 cm**-1
  29:      1336.72 cm**-1
  30:      1413.73 cm**-1
  31:      1430.29 cm**-1
  32:      1472.73 cm**-1
  33:      1479.06 cm**-1
  34:      1485.91 cm**-1
  35:      1511.83 cm**-1
  36:      1644.24 cm**-1
  37:      1662.21 cm**-1
  38:      3062.50 cm**-1
  39:      3139.46 cm**-1
  40:      3152.45 cm**-1
  41:      3154.19 cm**-1
  42:      3223.27 cm**-1
  43:      3249.11 cm**-1
  44:      3254.42 cm**-1
  45:      3460.43 cm**-1
  46:      3512.12 cm**-1
  47:      3835.70 cm**-1

IR SPECTRUM
-----------

 Mode    freq (cm**-1)   T**2         TX         TY         TZ
-------------------------------------------------------------------
   6:       212.36    5.834223  (  0.140944   2.402684  -0.203640)
   7:       226.96    2.818210  ( -0.898653  -0.899311   1.096300)
   8:       250.31    5.441601  ( -1.078845  -1.395403   1.526612)
   9:       285.10   49.193222  (  3.869475  -4.055790  -4.215560)
  10:       327.42   69.162316  (  1.108726  -8.202012  -0.812432)
  11:       364.04   35.329114  (  3.776677  -3.215678  -3.274941)
  12:       417.29    1.575622  ( -0.620743  -1.056824   0.270965)
  13:       464.66   14.730426  ( -3.331286   1.506556   1.167583)
  14:       572.00   13.225330  ( -3.128791   1.558985  -1.002776)
  15:       728.82    8.725829  ( -1.453020   0.900594  -2.409044)
  16:       802.91   12.945710  (  2.190735   0.865815  -2.719697)
  17:       853.45    3.445224  (  0.206061   1.819554   0.303293)
  18:       927.75    7.122657  ( -0.577386  -1.948847   1.729531)
  19:       957.99   16.632956  (  2.554291   2.182223   2.312240)
  20:       987.62    2.033480  ( -1.182011   0.742509  -0.291566)
  21:      1020.02   70.116903  ( -2.769089   0.453486   7.889449)
  22:      1066.15    1.737936  ( -1.007458   0.847628   0.067014)
  23:      1102.03   13.785181  (  0.355298   1.472372  -3.389847)
  24:      1117.93   12.319058  ( -1.920516   2.030838   2.122822)
  25:      1172.13   11.138756  ( -1.621641   1.422141   2.546871)
  26:      1198.78   28.042310  ( -1.767408   1.846403  -4.637820)
  27:      1253.96   82.718068  ( -3.666210  -2.064165  -8.063262)
  28:      1302.12   32.764520  (  4.387439  -1.468193   3.370357)
  29:      1336.72   12.602884  (  2.667890   0.921216  -2.153279)
  30:      1413.73    4.525699  ( -0.938261   1.859148  -0.434668)
  31:      1430.29   23.079222  (  3.978379  -0.595558   2.626221)
  32:      1472.73   16.198338  ( -3.876674   0.201852   1.062540)
  33:      1479.06   14.940527  (  0.295896  -3.620361  -1.321348)
  34:      1485.91  140.980269  ( 11.124714  -0.159933   4.146737)
  35:      1511.83   24.689732  ( -2.708304   3.818786  -1.664843)
  36:      1644.24   25.422988  (  2.816326   2.678828  -3.211725)
  37:      1662.21   31.943456  ( -1.127168   4.390249   3.376191)
  38:      3062.50    1.802328  (  1.136034  -0.664760  -0.264291)
  39:      3139.46    3.275887  (  0.803625   0.931674  -1.327425)
  40:      3152.45    4.255195  (  0.431414   1.384184   1.467349)
  41:      3154.19    0.684937  ( -0.746921  -0.303512  -0.186886)
  42:      3223.27    3.629015  (  0.976203   0.014340  -1.635799)
  43:      3249.11    3.299369  ( -1.376404  -0.049540   1.184241)
  44:      3254.42  134.659770  (  3.945348   1.344905 -10.829830)
  45:      3460.43   98.783990  ( -8.286413  -1.399466   5.306680)
  46:      3512.12   95.973678  (  0.057679   9.618800   1.857160)
  47:      3835.70  110.230957  (  4.441449   4.060205  -8.603442)

--------------------------
THERMOCHEMISTRY AT 298.15K
--------------------------

Temperature         ... 298.15 K
Pressure            ... 1.00 atm
Total Mass          ... 88.13 AMU

Throughout the following assumptions are being made:
  (1) The electronic state is orbitally nondegenerate
  (2) There are no thermally accessible electronically excited states
  (3) Hindered rotations indicated by low frequency modes) are not
      treated as such but are treated as vibrations and this may
      case some error
  (4) All equations used are the standard statistical mechanics
      equations for an ideal gas
  (5) All vibrations are strinctly harmonic

------------
INNER ENERGY
------------

The inner energy is: U= E(el) + E(ZPE) + E(vib) + E(rot) + E(trans)
    E(el)   - is the total energy from the electronic structure calculation
              = E(kin-el) + E(nuc-el) + E(el-el) + E(nuc-nuc)
    E(ZPE)  - the the zero temperature vibrational energy from the frequency calculation
    E(vib)  - the the finite temperature correction to E(ZPE) due to population
              of excietd vibrational states
    E(rot)  - is the rotational thermal energy
    E(trans)- is the translational thermal energy

Summary of contributions to the inner energy U:
Electronic energy                ...   -287.92979415 Eh
Zero point energy                ...      0.14601273 Eh      91.62 kcal/mol
Thermal vibrational correction   ...      0.00403413 Eh       2.53 kcal/mol
Thermal rotational correction    ...      0.00141627 Eh       0.89 kcal/mol
Thermal translational correction ...      0.00141627 Eh       0.89 kcal/mol
-----------------------------------------------------------------------
Total thermal energy                   -287.77691475 Eh

Summary of corrections to the electronic energy:
(perhaps to be used in another calculation)
Total thermal correction                  0.00686667 Eh       4.31 kcal/mol
Non-thermal (ZPE) correction              0.14601273 Eh      91.62 kcal/mol
-----------------------------------------------------------------------
Total correction                          0.15287940 Eh      95.93 kcal/mol

--------
ENTHALPY
--------

The enthalpy is H = U + kB*T
                kB is Boltzmann's constant
Total free energy                 ...   -287.77691475 Eh
Thermal Enthalpy correction       ...      0.00094421 Eh       0.59 kcal/mol
-----------------------------------------------------------------------
Total Enthalpy                    ...   -287.77597054 Eh

-------
ENTROPY
-------

The entropy contributions are T*S = T*(S(el)+S(vib)+S(rot)+S(trans)
     S(el)   - electronic entropy
     S(vib)  - vibrational entropy
     S(rot)  - rotational entropy
     S(trans)- translational entropy
The entropies will be listed as mutliplied by the temperature to get
units of energy

Electronic entropy                ...      0.00000000 Eh      0.00 kcal/mol
Vibrational entropy               ...      0.00627855 Eh      3.94 kcal/mol
Rotational entropy                ...      0.01152071 Eh      7.23 kcal/mol
Translational entropy             ...      0.01869229 Eh     11.73 kcal/mol
-----------------------------------------------------------------------
Final entropy term                ...      0.03649154 Eh     22.90 kcal/mol

CAUTION: The rotational entropy is not quite correctly treated here
         because it includes a symmetry number that is not yet correctly
         implemented in ORCA!
For a nonlinear molecule the correct rotational entropy is:
    S(rot) = R*(ln(qrot/sn)+1.5)
    R    = 8.31441 J/mol/K = 1.987191683e-3 kcal/mol/K
    qrot = 133307.1615013
    sn is the rotational symmetry number. We have assumed 3 here
       if it is different for your molecule then you should correct
       the printed rotational entropy by manually evaluating the equation
       as given above

For convenience we print out the resulting values for sn=1 - 12:
 sn= 1  qrot/sn=  133307.1615 T*S(rot)=     7.88 kcal/mol T*S(tot)=    23.55 kcal/mol
 sn= 2  qrot/sn=   66653.5808 T*S(rot)=     7.47 kcal/mol T*S(tot)=    23.14 kcal/mol
 sn= 3  qrot/sn=   44435.7205 T*S(rot)=     7.23 kcal/mol T*S(tot)=    22.90 kcal/mol
 sn= 4  qrot/sn=   33326.7904 T*S(rot)=     7.06 kcal/mol T*S(tot)=    22.73 kcal/mol
 sn= 5  qrot/sn=   26661.4323 T*S(rot)=     6.93 kcal/mol T*S(tot)=    22.60 kcal/mol
 sn= 6  qrot/sn=   22217.8603 T*S(rot)=     6.82 kcal/mol T*S(tot)=    22.49 kcal/mol
 sn= 7  qrot/sn=   19043.8802 T*S(rot)=     6.73 kcal/mol T*S(tot)=    22.40 kcal/mol
 sn= 8  qrot/sn=   16663.3952 T*S(rot)=     6.65 kcal/mol T*S(tot)=    22.32 kcal/mol
 sn= 9  qrot/sn=   14811.9068 T*S(rot)=     6.58 kcal/mol T*S(tot)=    22.25 kcal/mol
 sn=10  qrot/sn=   13330.7162 T*S(rot)=     6.52 kcal/mol T*S(tot)=    22.19 kcal/mol
 sn=11  qrot/sn=   12118.8329 T*S(rot)=     6.46 kcal/mol T*S(tot)=    22.13 kcal/mol
 sn=12  qrot/sn=   11108.9301 T*S(rot)=     6.41 kcal/mol T*S(tot)=    22.08 kcal/mol

-------------------
GIBBS FREE ENTHALPY
-------------------

The Gibbs free enthalpy is G = H - T*S

Total enthalpy                    ...   -287.77597054 Eh
Total entropy correction          ...     -0.03649154 Eh    -22.90 kcal/mol
-----------------------------------------------------------------------
Final Gibbs free enthalpy         ...   -287.81246208 Eh

For completeness - the Gibbs free enthalpy minus the electronic energy
G-E(el)                           ...      0.11733207 Eh     73.63 kcal/mol

                             ****ORCA TERMINATED NORMALLY****
TOTAL RUN TIME: 0 days 0 hours 18 minutes 14 seconds 296 msec
