                         Program Version 3.0.3 - RELEASE   -
|  1> ! NORI PBE0 def2-TZVP UseSym TightOPT Freq TightSCF Grid3 FinalGrid5 XYZFile
|  2> % pal
|  3>     nprocs 8
|  4> end
|  5> %method
|  6>     SymThresh 5.0e-2
|  7> end
|  8> % geom
|  9>     MaxIter 10
| 10> end
| 11> % maxcore 2000
| 12> % output
| 13>     printlevel mini
| 14>     print[ P_Basis ] 0
| 15>     print[ P_SCFInfo ] 1
| 16>     print[ P_SCFIterInfo ] 1
| 17>     print[ P_OrbEn ] 0
| 18>     print[ P_Cartesian ] 0
| 19> end
| 20> % elprop
| 21>     Dipole false
| 22> end
| 23> *xyz 1 1
| 24>  C        0.8918830030    -0.1155197073     0.0297760643
| 25>  C        2.3925984314    -0.0920283350     0.0667780496
| 26>  O        2.9956882246    -0.1549792300    -1.1971496206
| 27>  C        3.0998695627     0.9841373040     0.9340894210
| 28>  N        4.1275647879    -0.0596821934     1.3194696458
| 29>  C        3.1395706015    -1.1357951449     0.9179285562
| 30>  H        0.5093305939     0.7582059830    -0.5051756205
| 31>  H        0.4617360489    -0.1063260489     1.0327013327
| 32>  H        0.5452352070    -1.0104244784    -0.4904807842
| 33>  H        2.5261898777     0.4100853549    -1.8201142150
| 34>  H        2.5478415693     1.2748775063     1.8264467381
| 35>  H        3.5302953269     1.8479628256     0.4324296075
| 36>  H        4.4654058509    -0.0593488467     2.2804181770
| 37>  H        4.9270544566    -0.0426157865     0.6863682937
| 38>  H        3.5974303250    -1.9712822592     0.3934871447
| 39>  H        2.5944061326    -1.4604469436     1.8017372097
| 40> *
| 41>
| 42>                          ****END OF INPUT****
 Total Charge           Charge          ....    1
 Multiplicity           Mult            ....    1
 Number of Electrons    NEL             ....   48
FINAL SINGLE POINT ENERGY      -287.930163217530

CARTESIAN COORDINATES (ANGSTROEM)
---------------------------------
  C     -1.922198    0.027103    0.038621
  C     -0.429713   -0.006091    0.199980
  O      0.000153   -0.000145    1.534290
  C      0.384496   -1.050883   -0.609938
  N      1.456450    0.000011   -0.811000
  C      0.426156    1.066094   -0.499834
  H     -2.373852   -0.865090    0.480996
  H     -2.215150    0.062516   -1.012061
  H     -2.332928    0.902135    0.545496
  H     -0.549657   -0.586234    2.065397
  H     -0.044593   -1.299937   -1.579253
  H      0.742516   -1.937941   -0.092311
  H      1.919317    0.036723   -1.717649
  H      2.164208   -0.049374   -0.078302
  H      0.811894    1.875653    0.115116
  H      0.004267    1.430938   -1.434038

FINAL SINGLE POINT ENERGY      -287.930163720359
                    ***********************HURRAY********************
 Multiplicity           Mult            ....    1
 Number of Electrons    NEL             ....   48
 Basis Dimension        Dim             ....  246
FINAL SINGLE POINT ENERGY      -287.930164077087

VIBRATIONAL FREQUENCIES
-----------------------

   0:         0.00 cm**-1
   1:         0.00 cm**-1
   2:         0.00 cm**-1
   3:         0.00 cm**-1
   4:         0.00 cm**-1
   5:         0.00 cm**-1
   6:       131.56 cm**-1
   7:       231.87 cm**-1
   8:       289.18 cm**-1
   9:       316.57 cm**-1
  10:       378.86 cm**-1
  11:       417.42 cm**-1
  12:       456.31 cm**-1
  13:       646.00 cm**-1
  14:       752.76 cm**-1
  15:       809.40 cm**-1
  16:       890.55 cm**-1
  17:       910.55 cm**-1
  18:       932.20 cm**-1
  19:       957.55 cm**-1
  20:       980.42 cm**-1
  21:       987.32 cm**-1
  22:      1073.43 cm**-1
  23:      1124.46 cm**-1
  24:      1190.90 cm**-1
  25:      1234.05 cm**-1
  26:      1262.65 cm**-1
  27:      1293.53 cm**-1
  28:      1319.07 cm**-1
  29:      1324.31 cm**-1
  30:      1329.31 cm**-1
  31:      1410.14 cm**-1
  32:      1427.60 cm**-1
  33:      1466.05 cm**-1
  34:      1480.69 cm**-1
  35:      1487.84 cm**-1
  36:      1490.30 cm**-1
  37:      1636.40 cm**-1
  38:      3058.94 cm**-1
  39:      3119.47 cm**-1
  40:      3128.33 cm**-1
  41:      3135.51 cm**-1
  42:      3152.08 cm**-1
  43:      3200.20 cm**-1
  44:      3208.91 cm**-1
  45:      3469.41 cm**-1
  46:      3540.33 cm**-1
  47:      3837.12 cm**-1

IR SPECTRUM
-----------

 Mode    freq (cm**-1)   T**2         TX         TY         TZ
-------------------------------------------------------------------
   6:       131.56    8.857331  ( -0.052259  -0.700193   2.892115)
   7:       231.87    0.515841  ( -0.018265   0.709850  -0.107795)
   8:       289.18    3.997977  (  0.834464  -1.817040  -0.003587)
   9:       316.57   94.566202  (  6.390738  -7.192928  -1.409416)
  10:       378.86   24.387301  (  4.027504  -2.110923  -1.926269)
  11:       417.42   13.839820  ( -2.304395   1.899325   2.218592)
  12:       456.31    6.881159  ( -0.596583   0.380621   2.525941)
  13:       646.00    1.657675  (  0.204986  -0.294308   1.236543)
  14:       752.76    2.405322  (  0.523953  -0.181197   1.448435)
  15:       809.40    1.517661  (  0.127029   1.208753  -0.201099)
  16:       890.55    2.547996  (  1.411500   0.706820  -0.236791)
  17:       910.55    5.593555  (  0.836943  -2.056884   0.813825)
  18:       932.20    4.001091  (  0.918917  -0.163588   1.769159)
  19:       957.55   22.733530  ( -1.381286  -0.259633  -4.556113)
  20:       980.42    6.462049  ( -0.500355   0.066582  -2.491438)
  21:       987.32   21.439250  ( -1.398109   0.217681   4.408759)
  22:      1073.43    6.649540  ( -0.625588   0.120559  -2.498729)
  23:      1124.46   50.957822  (  1.882201  -1.805622   6.644913)
  24:      1190.90   46.775486  ( -0.599569   3.848999   5.621495)
  25:      1234.05   31.750153  ( -0.542023  -5.608107   0.074145)
  26:      1262.65    0.397265  ( -0.263737   0.397343  -0.412099)
  27:      1293.53   70.812058  ( -2.362267  -1.082912  -8.003690)
  28:      1319.07    7.908546  ( -0.260654  -2.436074   1.380634)
  29:      1324.31   26.087425  ( -0.243269   5.028946  -0.859039)
  30:      1329.31    8.354232  ( -0.466974  -2.599203  -1.174866)
  31:      1410.14    4.516326  ( -2.061624  -0.465296  -0.222553)
  32:      1427.60   43.288609  (  6.353340   0.166868   1.701714)
  33:      1466.05   16.394429  (  0.097952   4.046471   0.104420)
  34:      1480.69    7.226574  ( -0.166803  -2.673711   0.223653)
  35:      1487.84    3.418906  (  1.232409  -1.343826   0.306927)
  36:      1490.30   14.161434  ( -0.287756   0.618445  -3.700832)
  37:      1636.40   69.416824  (  8.212193  -0.130393  -1.399895)
  38:      3058.94    0.627860  ( -0.521612  -0.583328  -0.124537)
  39:      3119.47    0.232081  (  0.357743   0.310752   0.086797)
  40:      3128.33    0.445103  (  0.541925   0.322367   0.217945)
  41:      3135.51    3.690947  (  0.043891  -1.125373   1.556456)
  42:      3152.08    2.030798  (  0.080190   0.453655   1.348542)
  43:      3200.20    0.162983  ( -0.344051  -0.210112   0.021555)
  44:      3208.91    0.568669  (  0.416830   0.041572   0.627051)
  45:      3469.41   76.020685  ( -8.689935   0.096170   0.704604)
  46:      3540.33   93.511734  ( -1.404854   0.519147  -9.553460)
  47:      3837.12   82.983421  (  3.563825   3.947523  -7.395920)

--------------------------
THERMOCHEMISTRY AT 298.15K
--------------------------

Temperature         ... 298.15 K
Pressure            ... 1.00 atm
Total Mass          ... 88.13 AMU

Throughout the following assumptions are being made:
  (1) The electronic state is orbitally nondegenerate
  (2) There are no thermally accessible electronically excited states
  (3) Hindered rotations indicated by low frequency modes) are not
      treated as such but are treated as vibrations and this may
      case some error
  (4) All equations used are the standard statistical mechanics
      equations for an ideal gas
  (5) All vibrations are strinctly harmonic

------------
INNER ENERGY
------------

The inner energy is: U= E(el) + E(ZPE) + E(vib) + E(rot) + E(trans)
    E(el)   - is the total energy from the electronic structure calculation
              = E(kin-el) + E(nuc-el) + E(el-el) + E(nuc-nuc)
    E(ZPE)  - the the zero temperature vibrational energy from the frequency calculation
    E(vib)  - the the finite temperature correction to E(ZPE) due to population
              of excietd vibrational states
    E(rot)  - is the rotational thermal energy
    E(trans)- is the translational thermal energy

Summary of contributions to the inner energy U:
Electronic energy                ...   -287.93016408 Eh
Zero point energy                ...      0.14691804 Eh      92.19 kcal/mol
Thermal vibrational correction   ...      0.00366191 Eh       2.30 kcal/mol
Thermal rotational correction    ...      0.00141627 Eh       0.89 kcal/mol
Thermal translational correction ...      0.00141627 Eh       0.89 kcal/mol
-----------------------------------------------------------------------
Total thermal energy                   -287.77675159 Eh

Summary of corrections to the electronic energy:
(perhaps to be used in another calculation)
Total thermal correction                  0.00649445 Eh       4.08 kcal/mol
Non-thermal (ZPE) correction              0.14691804 Eh      92.19 kcal/mol
-----------------------------------------------------------------------
Total correction                          0.15341249 Eh      96.27 kcal/mol

--------
ENTHALPY
--------

The enthalpy is H = U + kB*T
                kB is Boltzmann's constant
Total free energy                 ...   -287.77675159 Eh
Thermal Enthalpy correction       ...      0.00094421 Eh       0.59 kcal/mol
-----------------------------------------------------------------------
Total Enthalpy                    ...   -287.77580738 Eh

-------
ENTROPY
-------

The entropy contributions are T*S = T*(S(el)+S(vib)+S(rot)+S(trans)
     S(el)   - electronic entropy
     S(vib)  - vibrational entropy
     S(rot)  - rotational entropy
     S(trans)- translational entropy
The entropies will be listed as mutliplied by the temperature to get
units of energy

Electronic entropy                ...      0.00000000 Eh      0.00 kcal/mol
Vibrational entropy               ...      0.00583648 Eh      3.66 kcal/mol
Rotational entropy                ...      0.01145019 Eh      7.19 kcal/mol
Translational entropy             ...      0.01869229 Eh     11.73 kcal/mol
-----------------------------------------------------------------------
Final entropy term                ...      0.03597896 Eh     22.58 kcal/mol

CAUTION: The rotational entropy is not quite correctly treated here
         because it includes a symmetry number that is not yet correctly
         implemented in ORCA!
For a nonlinear molecule the correct rotational entropy is:
    S(rot) = R*(ln(qrot/sn)+1.5)
    R    = 8.31441 J/mol/K = 1.987191683e-3 kcal/mol/K
    qrot = 123714.2375054
    sn is the rotational symmetry number. We have assumed 3 here
       if it is different for your molecule then you should correct
       the printed rotational entropy by manually evaluating the equation
       as given above

For convenience we print out the resulting values for sn=1 - 12:
 sn= 1  qrot/sn=  123714.2375 T*S(rot)=     7.84 kcal/mol T*S(tot)=    23.23 kcal/mol
 sn= 2  qrot/sn=   61857.1188 T*S(rot)=     7.43 kcal/mol T*S(tot)=    22.82 kcal/mol
 sn= 3  qrot/sn=   41238.0792 T*S(rot)=     7.19 kcal/mol T*S(tot)=    22.58 kcal/mol
 sn= 4  qrot/sn=   30928.5594 T*S(rot)=     7.01 kcal/mol T*S(tot)=    22.41 kcal/mol
 sn= 5  qrot/sn=   24742.8475 T*S(rot)=     6.88 kcal/mol T*S(tot)=    22.27 kcal/mol
 sn= 6  qrot/sn=   20619.0396 T*S(rot)=     6.77 kcal/mol T*S(tot)=    22.17 kcal/mol
 sn= 7  qrot/sn=   17673.4625 T*S(rot)=     6.68 kcal/mol T*S(tot)=    22.08 kcal/mol
 sn= 8  qrot/sn=   15464.2797 T*S(rot)=     6.60 kcal/mol T*S(tot)=    22.00 kcal/mol
 sn= 9  qrot/sn=   13746.0264 T*S(rot)=     6.53 kcal/mol T*S(tot)=    21.93 kcal/mol
 sn=10  qrot/sn=   12371.4238 T*S(rot)=     6.47 kcal/mol T*S(tot)=    21.86 kcal/mol
 sn=11  qrot/sn=   11246.7489 T*S(rot)=     6.42 kcal/mol T*S(tot)=    21.81 kcal/mol
 sn=12  qrot/sn=   10309.5198 T*S(rot)=     6.36 kcal/mol T*S(tot)=    21.76 kcal/mol

-------------------
GIBBS FREE ENTHALPY
-------------------

The Gibbs free enthalpy is G = H - T*S

Total enthalpy                    ...   -287.77580738 Eh
Total entropy correction          ...     -0.03597896 Eh    -22.58 kcal/mol
-----------------------------------------------------------------------
Final Gibbs free enthalpy         ...   -287.81178634 Eh

For completeness - the Gibbs free enthalpy minus the electronic energy
G-E(el)                           ...      0.11837774 Eh     74.28 kcal/mol

                             ****ORCA TERMINATED NORMALLY****
TOTAL RUN TIME: 0 days 0 hours 19 minutes 39 seconds 244 msec
