                         Program Version 3.0.3 - RELEASE   -
|  1> ! NORI PBE0 def2-TZVP UseSym TightOPT Freq TightSCF Grid3 FinalGrid5 XYZFile
|  2> % pal
|  3>     nprocs 8
|  4> end
|  5> %method
|  6>     SymThresh 5.0e-2
|  7> end
|  8> % geom
|  9>     MaxIter 10
| 10> end
| 11> % maxcore 2000
| 12> % output
| 13>     printlevel mini
| 14>     print[ P_Basis ] 0
| 15>     print[ P_SCFInfo ] 1
| 16>     print[ P_SCFIterInfo ] 1
| 17>     print[ P_OrbEn ] 0
| 18>     print[ P_Cartesian ] 0
| 19> end
| 20> % elprop
| 21>     Dipole false
| 22> end
| 23> *xyz 1 1
| 24>  C        0.9890954090    -0.0942982853    -0.0142215358
| 25>  C        2.4981989633    -0.0551165147     0.0880477937
| 26>  C        2.9977463275     1.0645743205     0.9832309499
| 27>  N        2.9846227310    -1.3617825310     0.7049669516
| 28>  C        3.1653132903    -0.0215325302    -1.2850766384
| 29>  O        4.5252552811    -0.3251625740    -1.0721002028
| 30>  H        0.6379494684    -0.9413997887    -0.6096735755
| 31>  H        0.6374988869     0.8173126769    -0.5000330076
| 32>  H        0.5214835611    -0.1361546580     0.9720162051
| 33>  H        2.6772766583     2.0211249088     0.5692042444
| 34>  H        4.0871971143     1.0748345363     1.0465290158
| 35>  H        2.5767023497     0.9888321298     1.9887712035
| 36>  H        2.5219436499    -2.1707697206     0.2878007769
| 37>  H        2.8289737311    -1.3845050904     1.7129029743
| 38>  H        3.9921461078    -1.4284668961     0.5027077304
| 39>  H        2.6932187796    -0.7514964440    -1.9560649601
| 40>  H        3.0238747908     0.9764820871    -1.7120905170
| 41>  H        5.0217428996    -0.2864856264    -1.8943674082
| 42> *
| 43>
| 44>                          ****END OF INPUT****
 Total Charge           Charge          ....    1
 Multiplicity           Mult            ....    1
 Number of Electrons    NEL             ....   50
FINAL SINGLE POINT ENERGY      -289.170146011266
FINAL SINGLE POINT ENERGY      -289.170147593957

CARTESIAN COORDINATES (ANGSTROEM)
---------------------------------
  C     -0.401621    0.808070   -1.689931
  C     -0.080851   -0.003467   -0.453675
  C     -0.502708   -1.456464   -0.578855
  N      1.428694   -0.001432   -0.240463
  C     -0.636603    0.641553    0.814337
  O      0.002631    0.003700    1.896892
  H     -0.038692    1.836458   -1.612969
  H     -1.483758    0.850360   -1.822534
  H      0.017468    0.350366   -2.588786
  H     -1.582311   -1.503295   -0.725159
  H     -0.261665   -2.025672    0.320360
  H     -0.035788   -1.932715   -1.445134
  H      1.825421    0.931911   -0.359666
  H      1.901199   -0.637934   -0.882150
  H      1.590959   -0.297675    0.732212
  H     -0.436136    1.721268    0.811490
  H     -1.721168    0.495290    0.826893
  H     -0.326944    0.333773    2.737291

FINAL SINGLE POINT ENERGY      -289.170148532113
                    ***********************HURRAY********************
 Multiplicity           Mult            ....    1
 Number of Electrons    NEL             ....   50
 Basis Dimension        Dim             ....  258
FINAL SINGLE POINT ENERGY      -289.170148787954

VIBRATIONAL FREQUENCIES
-----------------------

   0:         0.00 cm**-1
   1:         0.00 cm**-1
   2:         0.00 cm**-1
   3:         0.00 cm**-1
   4:         0.00 cm**-1
   5:         0.00 cm**-1
   6:       150.63 cm**-1
   7:       214.67 cm**-1
   8:       231.34 cm**-1
   9:       248.70 cm**-1
  10:       277.68 cm**-1
  11:       292.33 cm**-1
  12:       333.44 cm**-1
  13:       361.22 cm**-1
  14:       407.30 cm**-1
  15:       417.29 cm**-1
  16:       549.94 cm**-1
  17:       730.28 cm**-1
  18:       870.62 cm**-1
  19:       928.99 cm**-1
  20:       954.91 cm**-1
  21:       958.83 cm**-1
  22:       965.91 cm**-1
  23:      1034.72 cm**-1
  24:      1084.12 cm**-1
  25:      1114.68 cm**-1
  26:      1172.45 cm**-1
  27:      1220.05 cm**-1
  28:      1264.99 cm**-1
  29:      1309.62 cm**-1
  30:      1346.61 cm**-1
  31:      1412.67 cm**-1
  32:      1423.18 cm**-1
  33:      1435.14 cm**-1
  34:      1468.99 cm**-1
  35:      1477.97 cm**-1
  36:      1479.20 cm**-1
  37:      1494.68 cm**-1
  38:      1504.62 cm**-1
  39:      1515.43 cm**-1
  40:      1635.18 cm**-1
  41:      1662.98 cm**-1
  42:      3023.21 cm**-1
  43:      3056.10 cm**-1
  44:      3061.34 cm**-1
  45:      3089.90 cm**-1
  46:      3133.72 cm**-1
  47:      3140.14 cm**-1
  48:      3149.41 cm**-1
  49:      3158.46 cm**-1
  50:      3347.73 cm**-1
  51:      3477.17 cm**-1
  52:      3529.97 cm**-1
  53:      3870.18 cm**-1

IR SPECTRUM
-----------

 Mode    freq (cm**-1)   T**2         TX         TY         TZ
-------------------------------------------------------------------
   6:       150.63   15.130479  ( -2.702336  -2.529894   1.194777)
   7:       214.67    4.568101  ( -0.836314  -1.662273  -1.051442)
   8:       231.34   17.921237  ( -2.479139  -3.362586  -0.684194)
   9:       248.70    6.382129  ( -1.236229   0.790769   2.056344)
  10:       277.68   44.937349  ( -4.898511  -4.119439   1.993028)
  11:       292.33   60.296554  ( -4.285818  -6.354317  -1.245384)
  12:       333.44    7.182930  ( -1.617541  -0.821137   1.972872)
  13:       361.22   19.771846  (  0.964640   0.749516  -4.275458)
  14:       407.30    4.727549  (  1.711720   1.281381   0.394496)
  15:       417.29    5.674531  ( -2.269088   0.720016   0.085716)
  16:       549.94    5.986078  ( -1.557450   0.665227  -1.765758)
  17:       730.28    1.259546  (  0.573082  -0.426698   0.865478)
  18:       870.62   11.868612  (  2.168812  -0.220445   2.667634)
  19:       928.99   12.696919  ( -0.846149   0.436267   3.433747)
  20:       954.91    1.068546  (  0.322881   0.981970   0.005364)
  21:       958.83   10.174049  (  0.319841  -0.152601  -3.169931)
  22:       965.91   10.115729  ( -0.687154  -2.280331   2.107994)
  23:      1034.72   21.096900  (  2.308865  -0.128177   3.968578)
  24:      1084.12    7.322605  (  1.294031   1.054866  -2.129635)
  25:      1114.68   59.276816  ( -2.488233   3.156662  -6.566658)
  26:      1172.45   61.106702  ( -5.884829   3.391909  -3.869167)
  27:      1220.05   31.402640  ( -1.323577   4.120612  -3.559683)
  28:      1264.99    4.985331  (  1.756416   0.940237  -1.008110)
  29:      1309.62   14.185739  (  1.141051  -1.133285  -3.405790)
  30:      1346.61    3.901737  ( -0.412790  -1.577327  -1.115070)
  31:      1412.67   19.929799  (  0.437953   4.372178  -0.788706)
  32:      1423.18   44.373239  (  5.484121  -0.016674   3.781187)
  33:      1435.14   55.243629  (  7.339873   0.603034  -1.003120)
  34:      1468.99    0.217004  ( -0.444125   0.125756  -0.062783)
  35:      1477.97   69.557571  ( -8.064473   2.077045  -0.455771)
  36:      1479.20   44.838235  ( -6.683536   0.095439   0.399337)
  37:      1494.68   21.995585  (  4.630514   0.362980   0.649750)
  38:      1504.62   12.581301  (  2.644892  -0.956700  -2.161151)
  39:      1515.43    9.303352  (  1.969611  -1.390796  -1.868066)
  40:      1635.18   34.189180  (  1.144788   5.582583  -1.308973)
  41:      1662.98   44.215282  ( -1.110650   3.102509   5.775481)
  42:      3023.21   23.408725  (  0.940892  -4.436420   1.685712)
  43:      3056.10    3.293209  (  0.851043   1.575532  -0.294341)
  44:      3061.34    3.451914  ( -1.407247   0.412522   1.140787)
  45:      3089.90    7.615514  ( -2.144071  -1.390396  -1.041763)
  46:      3133.72    6.218429  ( -0.304211  -2.281006  -0.960675)
  47:      3140.14    2.960781  ( -0.640672   0.551433   1.498746)
  48:      3149.41    1.887757  ( -0.689771  -0.436249   1.105287)
  49:      3158.46    1.083086  (  0.653291  -0.765226   0.265946)
  50:      3347.73   93.596144  ( -1.775663   1.264733  -9.425689)
  51:      3477.17   86.184451  (  5.341615   2.741290  -7.080743)
  52:      3529.97   72.804014  ( -1.526069   7.623012   3.516364)
  53:      3870.18  137.742014  (  2.274314  -2.125384 -11.316018)

--------------------------
THERMOCHEMISTRY AT 298.15K
--------------------------

Temperature         ... 298.15 K
Pressure            ... 1.00 atm
Total Mass          ... 90.15 AMU

Throughout the following assumptions are being made:
  (1) The electronic state is orbitally nondegenerate
  (2) There are no thermally accessible electronically excited states
  (3) Hindered rotations indicated by low frequency modes) are not
      treated as such but are treated as vibrations and this may
      case some error
  (4) All equations used are the standard statistical mechanics
      equations for an ideal gas
  (5) All vibrations are strinctly harmonic

------------
INNER ENERGY
------------

The inner energy is: U= E(el) + E(ZPE) + E(vib) + E(rot) + E(trans)
    E(el)   - is the total energy from the electronic structure calculation
              = E(kin-el) + E(nuc-el) + E(el-el) + E(nuc-nuc)
    E(ZPE)  - the the zero temperature vibrational energy from the frequency calculation
    E(vib)  - the the finite temperature correction to E(ZPE) due to population
              of excietd vibrational states
    E(rot)  - is the rotational thermal energy
    E(trans)- is the translational thermal energy

Summary of contributions to the inner energy U:
Electronic energy                ...   -289.17014879 Eh
Zero point energy                ...      0.16855873 Eh     105.77 kcal/mol
Thermal vibrational correction   ...      0.00511918 Eh       3.21 kcal/mol
Thermal rotational correction    ...      0.00141627 Eh       0.89 kcal/mol
Thermal translational correction ...      0.00141627 Eh       0.89 kcal/mol
-----------------------------------------------------------------------
Total thermal energy                   -288.99363833 Eh

Summary of corrections to the electronic energy:
(perhaps to be used in another calculation)
Total thermal correction                  0.00795173 Eh       4.99 kcal/mol
Non-thermal (ZPE) correction              0.16855873 Eh     105.77 kcal/mol
-----------------------------------------------------------------------
Total correction                          0.17651045 Eh     110.76 kcal/mol

--------
ENTHALPY
--------

The enthalpy is H = U + kB*T
                kB is Boltzmann's constant
Total free energy                 ...   -288.99363833 Eh
Thermal Enthalpy correction       ...      0.00094421 Eh       0.59 kcal/mol
-----------------------------------------------------------------------
Total Enthalpy                    ...   -288.99269412 Eh

-------
ENTROPY
-------

The entropy contributions are T*S = T*(S(el)+S(vib)+S(rot)+S(trans)
     S(el)   - electronic entropy
     S(vib)  - vibrational entropy
     S(rot)  - rotational entropy
     S(trans)- translational entropy
The entropies will be listed as mutliplied by the temperature to get
units of energy

Electronic entropy                ...      0.00000000 Eh      0.00 kcal/mol
Vibrational entropy               ...      0.00827516 Eh      5.19 kcal/mol
Rotational entropy                ...      0.01165997 Eh      7.32 kcal/mol
Translational entropy             ...      0.01872432 Eh     11.75 kcal/mol
-----------------------------------------------------------------------
Final entropy term                ...      0.03865945 Eh     24.26 kcal/mol

CAUTION: The rotational entropy is not quite correctly treated here
         because it includes a symmetry number that is not yet correctly
         implemented in ORCA!
For a nonlinear molecule the correct rotational entropy is:
    S(rot) = R*(ln(qrot/sn)+1.5)
    R    = 8.31441 J/mol/K = 1.987191683e-3 kcal/mol/K
    qrot = 154493.0175788
    sn is the rotational symmetry number. We have assumed 3 here
       if it is different for your molecule then you should correct
       the printed rotational entropy by manually evaluating the equation
       as given above

For convenience we print out the resulting values for sn=1 - 12:
 sn= 1  qrot/sn=  154493.0176 T*S(rot)=     7.97 kcal/mol T*S(tot)=    24.91 kcal/mol
 sn= 2  qrot/sn=   77246.5088 T*S(rot)=     7.56 kcal/mol T*S(tot)=    24.50 kcal/mol
 sn= 3  qrot/sn=   51497.6725 T*S(rot)=     7.32 kcal/mol T*S(tot)=    24.26 kcal/mol
 sn= 4  qrot/sn=   38623.2544 T*S(rot)=     7.15 kcal/mol T*S(tot)=    24.09 kcal/mol
 sn= 5  qrot/sn=   30898.6035 T*S(rot)=     7.01 kcal/mol T*S(tot)=    23.96 kcal/mol
 sn= 6  qrot/sn=   25748.8363 T*S(rot)=     6.91 kcal/mol T*S(tot)=    23.85 kcal/mol
 sn= 7  qrot/sn=   22070.4311 T*S(rot)=     6.81 kcal/mol T*S(tot)=    23.76 kcal/mol
 sn= 8  qrot/sn=   19311.6272 T*S(rot)=     6.74 kcal/mol T*S(tot)=    23.68 kcal/mol
 sn= 9  qrot/sn=   17165.8908 T*S(rot)=     6.67 kcal/mol T*S(tot)=    23.61 kcal/mol
 sn=10  qrot/sn=   15449.3018 T*S(rot)=     6.60 kcal/mol T*S(tot)=    23.55 kcal/mol
 sn=11  qrot/sn=   14044.8198 T*S(rot)=     6.55 kcal/mol T*S(tot)=    23.49 kcal/mol
 sn=12  qrot/sn=   12874.4181 T*S(rot)=     6.50 kcal/mol T*S(tot)=    23.44 kcal/mol

-------------------
GIBBS FREE ENTHALPY
-------------------

The Gibbs free enthalpy is G = H - T*S

Total enthalpy                    ...   -288.99269412 Eh
Total entropy correction          ...     -0.03865945 Eh    -24.26 kcal/mol
-----------------------------------------------------------------------
Final Gibbs free enthalpy         ...   -289.03135357 Eh

For completeness - the Gibbs free enthalpy minus the electronic energy
G-E(el)                           ...      0.13879522 Eh     87.10 kcal/mol

                             ****ORCA TERMINATED NORMALLY****
TOTAL RUN TIME: 0 days 0 hours 31 minutes 1 seconds 277 msec
