                         Program Version 3.0.3 - RELEASE   -
|  1> ! NORI PBE0 def2-TZVP UseSym TightOPT Freq TightSCF Grid3 FinalGrid5 XYZFile
|  2> % pal
|  3>     nprocs 8
|  4> end
|  5> %method
|  6>     SymThresh 5.0e-2
|  7> end
|  8> % geom
|  9>     MaxIter 10
| 10> end
| 11> % maxcore 2000
| 12> % output
| 13>     printlevel mini
| 14>     print[ P_Basis ] 0
| 15>     print[ P_SCFInfo ] 1
| 16>     print[ P_SCFIterInfo ] 1
| 17>     print[ P_OrbEn ] 0
| 18>     print[ P_Cartesian ] 0
| 19> end
| 20> % elprop
| 21>     Dipole false
| 22> end
| 23> *xyz 1 1
| 24>  C        0.9558436868     0.2949622744     0.1331420689
| 25>  C        2.4334948569     0.0051305586    -0.1119486308
| 26>  C        2.9011165167    -1.2680789908     0.5815604972
| 27>  N        2.1223475245    -2.4533917607     0.0823459665
| 28>  C        2.7932060276    -0.0050082256    -1.5915532646
| 29>  O        2.2103269974    -1.1687483149    -2.1866816319
| 30>  H        0.7031915537     1.2928619504    -0.2269960886
| 31>  H        0.7136158061     0.2639788311     1.1982105709
| 32>  H        0.2992246932    -0.3994321772    -0.3979449361
| 33>  H        3.0230163281     0.8095115984     0.3409951586
| 34>  H        2.7681023023    -1.2147809054     1.6625188523
| 35>  H        3.9507749990    -1.4770150289     0.3680213950
| 36>  H        1.1591453739    -2.4291791516     0.4162759789
| 37>  H        2.5381863120    -3.3377935795     0.3704786791
| 38>  H        2.1028108567    -2.3677441037    -0.9586305969
| 39>  H        2.4050312054     0.8981428632    -2.0702911982
| 40>  H        3.8811340062    -0.0259910090    -1.7205510541
| 41>  H        2.3481909536    -1.1684848290    -3.1381417661
| 42> *
| 43>
| 44>                          ****END OF INPUT****
 Total Charge           Charge          ....    1
 Multiplicity           Mult            ....    1
 Number of Electrons    NEL             ....   50
FINAL SINGLE POINT ENERGY      -289.169247219594
FINAL SINGLE POINT ENERGY      -289.169248043519
FINAL SINGLE POINT ENERGY      -289.169248745251

CARTESIAN COORDINATES (ANGSTROEM)
---------------------------------
  C     -0.870534    1.325384   -0.893014
  C     -0.726937   -0.165737   -0.605862
  C      0.633284   -0.711783   -1.021641
  N      1.732158    0.000727   -0.282588
  C     -1.046628   -0.518470    0.840715
  O     -0.001075   -0.000013    1.668915
  H     -1.905127    1.638852   -0.748940
  H     -0.601513    1.562472   -1.925399
  H     -0.265255    1.940225   -0.221136
  H     -1.452321   -0.708367   -1.221390
  H      0.813804   -0.583874   -2.089102
  H      0.731710   -1.769897   -0.774801
  H      1.834069    0.961428   -0.609451
  H      2.631660   -0.467358   -0.382388
  H      1.433634    0.032148    0.717696
  H     -2.005920   -0.076611    1.124110
  H     -1.115033   -1.604981    0.963149
  H     -0.210580   -0.124987    2.598703

FINAL SINGLE POINT ENERGY      -289.169249236370
                    ***********************HURRAY********************
 Multiplicity           Mult            ....    1
 Number of Electrons    NEL             ....   50
 Basis Dimension        Dim             ....  258
FINAL SINGLE POINT ENERGY      -289.169249382258

VIBRATIONAL FREQUENCIES
-----------------------

   0:         0.00 cm**-1
   1:         0.00 cm**-1
   2:         0.00 cm**-1
   3:         0.00 cm**-1
   4:         0.00 cm**-1
   5:         0.00 cm**-1
   6:       121.08 cm**-1
   7:       176.87 cm**-1
   8:       230.72 cm**-1
   9:       287.13 cm**-1
  10:       305.19 cm**-1
  11:       322.60 cm**-1
  12:       341.42 cm**-1
  13:       377.02 cm**-1
  14:       437.90 cm**-1
  15:       671.55 cm**-1
  16:       776.71 cm**-1
  17:       868.58 cm**-1
  18:       906.21 cm**-1
  19:       959.59 cm**-1
  20:       974.97 cm**-1
  21:       996.09 cm**-1
  22:      1039.87 cm**-1
  23:      1061.12 cm**-1
  24:      1143.80 cm**-1
  25:      1169.01 cm**-1
  26:      1197.14 cm**-1
  27:      1229.72 cm**-1
  28:      1277.03 cm**-1
  29:      1332.78 cm**-1
  30:      1370.71 cm**-1
  31:      1380.99 cm**-1
  32:      1402.53 cm**-1
  33:      1416.08 cm**-1
  34:      1446.58 cm**-1
  35:      1486.10 cm**-1
  36:      1491.11 cm**-1
  37:      1505.08 cm**-1
  38:      1510.27 cm**-1
  39:      1520.07 cm**-1
  40:      1639.15 cm**-1
  41:      1676.94 cm**-1
  42:      3043.44 cm**-1
  43:      3053.76 cm**-1
  44:      3073.70 cm**-1
  45:      3084.00 cm**-1
  46:      3100.79 cm**-1
  47:      3101.58 cm**-1
  48:      3125.25 cm**-1
  49:      3144.53 cm**-1
  50:      3156.51 cm**-1
  51:      3481.25 cm**-1
  52:      3541.28 cm**-1
  53:      3865.45 cm**-1

IR SPECTRUM
-----------

 Mode    freq (cm**-1)   T**2         TX         TY         TZ
-------------------------------------------------------------------
   6:       121.08   10.845263  ( -0.993768   2.994046  -0.945185)
   7:       176.87    3.750685  ( -0.461222  -0.520149   1.807596)
   8:       230.72    1.040719  ( -0.207432   0.195229   0.979580)
   9:       287.13   13.871750  (  1.735525   3.294860   0.060033)
  10:       305.19   51.917602  ( -1.021489   6.828497  -2.060531)
  11:       322.60   92.692651  (  6.423280  -4.868382  -5.266211)
  12:       341.42   29.711523  (  1.829337  -5.063989   0.849155)
  13:       377.02    2.527453  ( -0.780269   1.292546  -0.497954)
  14:       437.90   11.553143  ( -3.015096   0.917497  -1.273004)
  15:       671.55    9.455408  ( -1.265539   1.180500   2.541700)
  16:       776.71    2.758180  (  0.243186  -0.355693  -1.603909)
  17:       868.58   20.014014  ( -0.099315  -1.624682   4.167081)
  18:       906.21    3.527335  (  1.606041  -0.218614  -0.948777)
  19:       959.59   10.790398  (  0.796554  -0.933405  -3.047073)
  20:       974.97   17.559498  (  3.025202   1.397689   2.540496)
  21:       996.09   26.936790  ( -2.973111  -0.277331  -4.245055)
  22:      1039.87    4.595734  ( -1.516207   1.061043   1.082146)
  23:      1061.12   37.932231  ( -5.910797  -1.536268  -0.796616)
  24:      1143.80   26.379202  (  2.542710  -2.158060  -3.905970)
  25:      1169.01    6.125364  (  2.085931  -0.373057  -1.278704)
  26:      1197.14    4.721306  (  1.839718  -1.155816  -0.028854)
  27:      1229.72   67.253033  ( -5.349768  -3.857107  -4.873986)
  28:      1277.03    2.991070  (  1.527925  -0.798866  -0.135381)
  29:      1332.78   10.283203  (  1.235113   1.839123  -2.318475)
  30:      1370.71    4.281617  (  1.832793   0.158822  -0.947239)
  31:      1380.99    9.661977  (  1.747253   0.326133   2.550043)
  32:      1402.53    1.660017  (  0.157555   1.137742  -0.583727)
  33:      1416.08    5.849907  (  0.525936  -2.259006   0.685705)
  34:      1446.58    7.319929  ( -2.397895   0.896517  -0.875378)
  35:      1486.10   16.617574  (  3.883802   0.109102   1.233594)
  36:      1491.11   23.798410  ( -2.956895  -3.257824  -2.107550)
  37:      1505.08   17.390713  ( -0.388601  -1.160543  -3.986583)
  38:      1510.27  144.983333  ( 11.775638   2.513273  -0.033730)
  39:      1520.07   36.618257  ( -5.052670  -3.327450  -0.129844)
  40:      1639.15   16.737475  (  0.073769   3.718414  -1.704533)
  41:      1676.94   38.459071  ( -5.228856   3.095413   1.239580)
  42:      3043.44   38.575060  ( -4.389722  -3.772016   2.253286)
  43:      3053.76    4.328251  ( -0.698647  -1.874074  -0.572705)
  44:      3073.70   17.010485  (  2.264456   1.374875  -3.161082)
  45:      3084.00  368.087626  (  9.591637  -0.879596 -16.592602)
  46:      3100.79   49.977501  (  4.062181   0.343528  -5.775653)
  47:      3101.58   12.616887  (  1.210423  -2.928032   1.605737)
  48:      3125.25   10.513565  (  1.121049   0.955479   2.888576)
  49:      3144.53    6.925246  (  2.202919   0.127144  -1.433955)
  50:      3156.51    1.219592  ( -0.742974   0.768375   0.277814)
  51:      3481.25   78.504993  (  7.212200   3.185642  -4.042382)
  52:      3541.28   91.114743  (  5.877688  -7.491046   0.672126)
  53:      3865.45  121.537593  (  0.652887   0.416489 -10.997176)

--------------------------
THERMOCHEMISTRY AT 298.15K
--------------------------

Temperature         ... 298.15 K
Pressure            ... 1.00 atm
Total Mass          ... 90.15 AMU

Throughout the following assumptions are being made:
  (1) The electronic state is orbitally nondegenerate
  (2) There are no thermally accessible electronically excited states
  (3) Hindered rotations indicated by low frequency modes) are not
      treated as such but are treated as vibrations and this may
      case some error
  (4) All equations used are the standard statistical mechanics
      equations for an ideal gas
  (5) All vibrations are strinctly harmonic

------------
INNER ENERGY
------------

The inner energy is: U= E(el) + E(ZPE) + E(vib) + E(rot) + E(trans)
    E(el)   - is the total energy from the electronic structure calculation
              = E(kin-el) + E(nuc-el) + E(el-el) + E(nuc-nuc)
    E(ZPE)  - the the zero temperature vibrational energy from the frequency calculation
    E(vib)  - the the finite temperature correction to E(ZPE) due to population
              of excietd vibrational states
    E(rot)  - is the rotational thermal energy
    E(trans)- is the translational thermal energy

Summary of contributions to the inner energy U:
Electronic energy                ...   -289.16924938 Eh
Zero point energy                ...      0.17045526 Eh     106.96 kcal/mol
Thermal vibrational correction   ...      0.00469308 Eh       2.94 kcal/mol
Thermal rotational correction    ...      0.00141627 Eh       0.89 kcal/mol
Thermal translational correction ...      0.00141627 Eh       0.89 kcal/mol
-----------------------------------------------------------------------
Total thermal energy                   -288.99126850 Eh

Summary of corrections to the electronic energy:
(perhaps to be used in another calculation)
Total thermal correction                  0.00752562 Eh       4.72 kcal/mol
Non-thermal (ZPE) correction              0.17045526 Eh     106.96 kcal/mol
-----------------------------------------------------------------------
Total correction                          0.17798089 Eh     111.68 kcal/mol

--------
ENTHALPY
--------

The enthalpy is H = U + kB*T
                kB is Boltzmann's constant
Total free energy                 ...   -288.99126850 Eh
Thermal Enthalpy correction       ...      0.00094421 Eh       0.59 kcal/mol
-----------------------------------------------------------------------
Total Enthalpy                    ...   -288.99032429 Eh

-------
ENTROPY
-------

The entropy contributions are T*S = T*(S(el)+S(vib)+S(rot)+S(trans)
     S(el)   - electronic entropy
     S(vib)  - vibrational entropy
     S(rot)  - rotational entropy
     S(trans)- translational entropy
The entropies will be listed as mutliplied by the temperature to get
units of energy

Electronic entropy                ...      0.00000000 Eh      0.00 kcal/mol
Vibrational entropy               ...      0.00774423 Eh      4.86 kcal/mol
Rotational entropy                ...      0.01169262 Eh      7.34 kcal/mol
Translational entropy             ...      0.01872432 Eh     11.75 kcal/mol
-----------------------------------------------------------------------
Final entropy term                ...      0.03816117 Eh     23.95 kcal/mol

CAUTION: The rotational entropy is not quite correctly treated here
         because it includes a symmetry number that is not yet correctly
         implemented in ORCA!
For a nonlinear molecule the correct rotational entropy is:
    S(rot) = R*(ln(qrot/sn)+1.5)
    R    = 8.31441 J/mol/K = 1.987191683e-3 kcal/mol/K
    qrot = 159928.8573065
    sn is the rotational symmetry number. We have assumed 3 here
       if it is different for your molecule then you should correct
       the printed rotational entropy by manually evaluating the equation
       as given above

For convenience we print out the resulting values for sn=1 - 12:
 sn= 1  qrot/sn=  159928.8573 T*S(rot)=     7.99 kcal/mol T*S(tot)=    24.60 kcal/mol
 sn= 2  qrot/sn=   79964.4287 T*S(rot)=     7.58 kcal/mol T*S(tot)=    24.19 kcal/mol
 sn= 3  qrot/sn=   53309.6191 T*S(rot)=     7.34 kcal/mol T*S(tot)=    23.95 kcal/mol
 sn= 4  qrot/sn=   39982.2143 T*S(rot)=     7.17 kcal/mol T*S(tot)=    23.78 kcal/mol
 sn= 5  qrot/sn=   31985.7715 T*S(rot)=     7.03 kcal/mol T*S(tot)=    23.64 kcal/mol
 sn= 6  qrot/sn=   26654.8096 T*S(rot)=     6.93 kcal/mol T*S(tot)=    23.54 kcal/mol
 sn= 7  qrot/sn=   22846.9796 T*S(rot)=     6.84 kcal/mol T*S(tot)=    23.44 kcal/mol
 sn= 8  qrot/sn=   19991.1072 T*S(rot)=     6.76 kcal/mol T*S(tot)=    23.37 kcal/mol
 sn= 9  qrot/sn=   17769.8730 T*S(rot)=     6.69 kcal/mol T*S(tot)=    23.30 kcal/mol
 sn=10  qrot/sn=   15992.8857 T*S(rot)=     6.62 kcal/mol T*S(tot)=    23.23 kcal/mol
 sn=11  qrot/sn=   14538.9870 T*S(rot)=     6.57 kcal/mol T*S(tot)=    23.18 kcal/mol
 sn=12  qrot/sn=   13327.4048 T*S(rot)=     6.52 kcal/mol T*S(tot)=    23.13 kcal/mol

-------------------
GIBBS FREE ENTHALPY
-------------------

The Gibbs free enthalpy is G = H - T*S

Total enthalpy                    ...   -288.99032429 Eh
Total entropy correction          ...     -0.03816117 Eh    -23.95 kcal/mol
-----------------------------------------------------------------------
Final Gibbs free enthalpy         ...   -289.02848546 Eh

For completeness - the Gibbs free enthalpy minus the electronic energy
G-E(el)                           ...      0.14076393 Eh     88.33 kcal/mol

                             ****ORCA TERMINATED NORMALLY****
TOTAL RUN TIME: 0 days 0 hours 31 minutes 32 seconds 751 msec
