                         Program Version 3.0.3 - RELEASE   -
|  1> ! NORI PBE0 def2-TZVP UseSym TightOPT Freq TightSCF Grid3 FinalGrid5 XYZFile
|  2> % pal
|  3>     nprocs 8
|  4> end
|  5> %method
|  6>     SymThresh 5.0e-2
|  7> end
|  8> % geom
|  9>     MaxIter 10
| 10> end
| 11> % maxcore 2000
| 12> % output
| 13>     printlevel mini
| 14>     print[ P_Basis ] 0
| 15>     print[ P_SCFInfo ] 1
| 16>     print[ P_SCFIterInfo ] 1
| 17>     print[ P_OrbEn ] 0
| 18>     print[ P_Cartesian ] 0
| 19> end
| 20> % elprop
| 21>     Dipole false
| 22> end
| 23> *xyz 1 1
| 24>  C        1.4490388587     0.8873490869    -0.5953212107
| 25>  C        1.5250164171     0.3610113094     0.8292301705
| 26>  C        2.8795492491     0.5711097239     1.4824819677
| 27>  N        2.7835043350     0.0807057892     2.9131135560
| 28>  C        4.0645000781    -0.1266291251     0.8190161533
| 29>  O        4.5294460867     0.7543859631    -0.1576340682
| 30>  H        0.4393775226     0.7448632113    -0.9815154178
| 31>  H        2.1420137590     0.3689103948    -1.2569165219
| 32>  H        1.6814705268     1.9525403642    -0.6382611928
| 33>  H        1.2882944463    -0.7108144041     0.8400488694
| 34>  H        0.7599225763     0.8624430366     1.4345421221
| 35>  H        3.1200678882     1.6351714829     1.5565082635
| 36>  H        2.6024770480    -0.9256679519     2.9418047202
| 37>  H        2.0114597612     0.5414476153     3.3987594121
| 38>  H        3.6433168393     0.2604270273     3.4357931307
| 39>  H        4.8433516900    -0.3363145589     1.5710863264
| 40>  H        3.7417817709    -1.0898264019     0.3991533097
| 41>  H        5.1998011466     0.3263874369    -0.6983295902
| 42> *
| 43>
| 44>                          ****END OF INPUT****
 Total Charge           Charge          ....    1
 Multiplicity           Mult            ....    1
 Number of Electrons    NEL             ....   50
FINAL SINGLE POINT ENERGY      -289.150465578922
FINAL SINGLE POINT ENERGY      -289.150467434619
FINAL SINGLE POINT ENERGY      -289.150468836074
FINAL SINGLE POINT ENERGY      -289.150469876660

CARTESIAN COORDINATES (ANGSTROEM)
---------------------------------
  C     -2.081139   -0.399312   -0.320595
  C     -0.821443   -0.082192   -1.111616
  C      0.458176   -0.249853   -0.311059
  N      1.623723   -0.000560   -1.246327
  C      0.619748    0.664502    0.900355
  O     -0.015762    0.016679    1.959277
  H     -2.951331   -0.301625   -0.969817
  H     -2.209764    0.274484    0.525418
  H     -2.060142   -1.419217    0.066936
  H     -0.870476    0.947270   -1.489700
  H     -0.776821   -0.740887   -1.987828
  H      0.575560   -1.281794    0.031019
  H      1.619714    0.964817   -1.584595
  H      1.562588   -0.608776   -2.065332
  H      2.521387   -0.169852   -0.788048
  H      1.691590    0.817850    1.111732
  H      0.180556    1.649089    0.683679
  H     -0.057029    0.596063    2.725744

FINAL SINGLE POINT ENERGY      -289.150470632093
                    ***********************HURRAY********************
 Multiplicity           Mult            ....    1
 Number of Electrons    NEL             ....   50
 Basis Dimension        Dim             ....  258
FINAL SINGLE POINT ENERGY      -289.150470939146

VIBRATIONAL FREQUENCIES
-----------------------

   0:         0.00 cm**-1
   1:         0.00 cm**-1
   2:         0.00 cm**-1
   3:         0.00 cm**-1
   4:         0.00 cm**-1
   5:         0.00 cm**-1
   6:        61.37 cm**-1
   7:       109.02 cm**-1
   8:       197.16 cm**-1
   9:       215.36 cm**-1
  10:       232.01 cm**-1
  11:       268.10 cm**-1
  12:       321.84 cm**-1
  13:       369.08 cm**-1
  14:       409.93 cm**-1
  15:       506.01 cm**-1
  16:       789.57 cm**-1
  17:       827.94 cm**-1
  18:       912.83 cm**-1
  19:       939.39 cm**-1
  20:       994.43 cm**-1
  21:      1007.75 cm**-1
  22:      1042.93 cm**-1
  23:      1093.15 cm**-1
  24:      1150.65 cm**-1
  25:      1165.14 cm**-1
  26:      1211.10 cm**-1
  27:      1260.54 cm**-1
  28:      1275.06 cm**-1
  29:      1322.73 cm**-1
  30:      1354.09 cm**-1
  31:      1379.87 cm**-1
  32:      1397.28 cm**-1
  33:      1426.34 cm**-1
  34:      1468.59 cm**-1
  35:      1479.71 cm**-1
  36:      1490.41 cm**-1
  37:      1491.15 cm**-1
  38:      1504.58 cm**-1
  39:      1520.43 cm**-1
  40:      1650.06 cm**-1
  41:      1660.36 cm**-1
  42:      2963.11 cm**-1
  43:      3020.72 cm**-1
  44:      3021.46 cm**-1
  45:      3060.96 cm**-1
  46:      3075.70 cm**-1
  47:      3102.62 cm**-1
  48:      3152.48 cm**-1
  49:      3165.48 cm**-1
  50:      3417.94 cm**-1
  51:      3500.41 cm**-1
  52:      3509.93 cm**-1
  53:      3861.56 cm**-1

IR SPECTRUM
-----------

 Mode    freq (cm**-1)   T**2         TX         TY         TZ
-------------------------------------------------------------------
   6:        61.37    7.048543  (  2.538191  -0.738728   0.245785)
   7:       109.02    2.488297  ( -1.270406  -0.931921  -0.076742)
   8:       197.16    0.950859  (  0.776894   0.308249   0.502272)
   9:       215.36    1.425169  (  0.347446  -0.981400   0.584213)
  10:       232.01    5.168776  (  2.151685  -0.069287   0.730908)
  11:       268.10  125.818105  ( -9.702073   3.928407  -4.031811)
  12:       321.84    2.362727  ( -0.226597   1.507419  -0.197663)
  13:       369.08   11.903280  ( -1.296662   0.131953  -3.194454)
  14:       409.93    0.729054  (  0.838153   0.071381  -0.146487)
  15:       506.01   21.007522  ( -2.916771   0.189698   3.530436)
  16:       789.57    8.787764  ( -0.429423   1.544564   2.493528)
  17:       827.94    4.124422  ( -1.021703  -0.263844   1.735203)
  18:       912.83   13.751942  (  2.379711  -1.174974  -2.590049)
  19:       939.39   10.680283  (  2.907355   0.481396   1.412738)
  20:       994.43   15.022025  ( -2.404971   1.939262  -2.340384)
  21:      1007.75    8.423162  (  0.082498  -1.153162   2.662062)
  22:      1042.93   12.078644  (  2.153237   2.727947  -0.022807)
  23:      1093.15   52.679554  (  4.666795   3.810476  -4.047327)
  24:      1150.65   28.328408  ( -2.007188  -2.057452   4.479564)
  25:      1165.14    3.803231  (  0.140216  -0.854407  -1.747443)
  26:      1211.10    3.977482  ( -1.491433  -0.774569  -1.073849)
  27:      1260.54   14.792015  ( -0.984589  -1.631674   3.340694)
  28:      1275.06   37.326372  ( -2.278937  -3.263778   4.634714)
  29:      1322.73    3.329239  ( -0.499779  -1.547798   0.826911)
  30:      1354.09    2.776274  ( -0.998268   0.856383  -1.022909)
  31:      1379.87    2.471707  (  0.341069  -1.351779  -0.726686)
  32:      1397.28    4.747057  (  1.483913  -1.363484  -0.828235)
  33:      1426.34    3.621778  (  1.780346   0.355414  -0.570812)
  34:      1468.59    9.460388  ( -2.337593  -1.214048   1.588122)
  35:      1479.71    7.089912  (  1.021096   0.646366  -2.372654)
  36:      1490.41   11.458583  (  1.051903  -3.110832  -0.821465)
  37:      1491.15   87.762701  (  8.455140   0.508239  -4.001875)
  38:      1504.58   60.754488  ( -4.085111  -0.649223   6.606426)
  39:      1520.43   24.982424  (  3.688813   2.408069  -2.361416)
  40:      1650.06   54.261619  ( -1.271528   7.040723   1.753012)
  41:      1660.36   39.017574  (  4.076537  -1.075176   4.609058)
  42:      2963.11   56.503314  ( -6.698805  -2.996965   1.627123)
  43:      3020.72   16.927003  ( -3.299223   2.431096  -0.363187)
  44:      3021.46   25.401865  ( -1.007163  -2.454995   4.284914)
  45:      3060.96   10.525412  ( -0.159105   2.788518   1.650536)
  46:      3075.70    5.204419  ( -1.781731  -0.986724   1.027729)
  47:      3102.62    2.633345  ( -0.780303   1.418479  -0.111311)
  48:      3152.48    6.946976  (  1.169219  -2.187719   0.890950)
  49:      3165.48    7.007854  (  0.382149   1.809272   1.894294)
  50:      3417.94   39.159240  ( -4.903065  -0.901813   3.782318)
  51:      3500.41   82.078287  (  2.782936  -8.614901   0.342106)
  52:      3509.93   82.088956  ( -5.017539  -2.082703  -7.250904)
  53:      3861.56  107.591650  ( -1.555838   3.682580   9.571291)

--------------------------
THERMOCHEMISTRY AT 298.15K
--------------------------

Temperature         ... 298.15 K
Pressure            ... 1.00 atm
Total Mass          ... 90.15 AMU

Throughout the following assumptions are being made:
  (1) The electronic state is orbitally nondegenerate
  (2) There are no thermally accessible electronically excited states
  (3) Hindered rotations indicated by low frequency modes) are not
      treated as such but are treated as vibrations and this may
      case some error
  (4) All equations used are the standard statistical mechanics
      equations for an ideal gas
  (5) All vibrations are strinctly harmonic

------------
INNER ENERGY
------------

The inner energy is: U= E(el) + E(ZPE) + E(vib) + E(rot) + E(trans)
    E(el)   - is the total energy from the electronic structure calculation
              = E(kin-el) + E(nuc-el) + E(el-el) + E(nuc-nuc)
    E(ZPE)  - the the zero temperature vibrational energy from the frequency calculation
    E(vib)  - the the finite temperature correction to E(ZPE) due to population
              of excietd vibrational states
    E(rot)  - is the rotational thermal energy
    E(trans)- is the translational thermal energy

Summary of contributions to the inner energy U:
Electronic energy                ...   -289.15047094 Eh
Zero point energy                ...      0.16940079 Eh     106.30 kcal/mol
Thermal vibrational correction   ...      0.00539748 Eh       3.39 kcal/mol
Thermal rotational correction    ...      0.00141627 Eh       0.89 kcal/mol
Thermal translational correction ...      0.00141627 Eh       0.89 kcal/mol
-----------------------------------------------------------------------
Total thermal energy                   -288.97284013 Eh

Summary of corrections to the electronic energy:
(perhaps to be used in another calculation)
Total thermal correction                  0.00823002 Eh       5.16 kcal/mol
Non-thermal (ZPE) correction              0.16940079 Eh     106.30 kcal/mol
-----------------------------------------------------------------------
Total correction                          0.17763081 Eh     111.46 kcal/mol

--------
ENTHALPY
--------

The enthalpy is H = U + kB*T
                kB is Boltzmann's constant
Total free energy                 ...   -288.97284013 Eh
Thermal Enthalpy correction       ...      0.00094421 Eh       0.59 kcal/mol
-----------------------------------------------------------------------
Total Enthalpy                    ...   -288.97189592 Eh

-------
ENTROPY
-------

The entropy contributions are T*S = T*(S(el)+S(vib)+S(rot)+S(trans)
     S(el)   - electronic entropy
     S(vib)  - vibrational entropy
     S(rot)  - rotational entropy
     S(trans)- translational entropy
The entropies will be listed as mutliplied by the temperature to get
units of energy

Electronic entropy                ...      0.00000000 Eh      0.00 kcal/mol
Vibrational entropy               ...      0.00981233 Eh      6.16 kcal/mol
Rotational entropy                ...      0.01187376 Eh      7.45 kcal/mol
Translational entropy             ...      0.01872432 Eh     11.75 kcal/mol
-----------------------------------------------------------------------
Final entropy term                ...      0.04041041 Eh     25.36 kcal/mol

CAUTION: The rotational entropy is not quite correctly treated here
         because it includes a symmetry number that is not yet correctly
         implemented in ORCA!
For a nonlinear molecule the correct rotational entropy is:
    S(rot) = R*(ln(qrot/sn)+1.5)
    R    = 8.31441 J/mol/K = 1.987191683e-3 kcal/mol/K
    qrot = 193752.5275041
    sn is the rotational symmetry number. We have assumed 3 here
       if it is different for your molecule then you should correct
       the printed rotational entropy by manually evaluating the equation
       as given above

For convenience we print out the resulting values for sn=1 - 12:
 sn= 1  qrot/sn=  193752.5275 T*S(rot)=     8.10 kcal/mol T*S(tot)=    26.01 kcal/mol
 sn= 2  qrot/sn=   96876.2638 T*S(rot)=     7.69 kcal/mol T*S(tot)=    25.60 kcal/mol
 sn= 3  qrot/sn=   64584.1758 T*S(rot)=     7.45 kcal/mol T*S(tot)=    25.36 kcal/mol
 sn= 4  qrot/sn=   48438.1319 T*S(rot)=     7.28 kcal/mol T*S(tot)=    25.19 kcal/mol
 sn= 5  qrot/sn=   38750.5055 T*S(rot)=     7.15 kcal/mol T*S(tot)=    25.06 kcal/mol
 sn= 6  qrot/sn=   32292.0879 T*S(rot)=     7.04 kcal/mol T*S(tot)=    24.95 kcal/mol
 sn= 7  qrot/sn=   27678.9325 T*S(rot)=     6.95 kcal/mol T*S(tot)=    24.86 kcal/mol
 sn= 8  qrot/sn=   24219.0659 T*S(rot)=     6.87 kcal/mol T*S(tot)=    24.78 kcal/mol
 sn= 9  qrot/sn=   21528.0586 T*S(rot)=     6.80 kcal/mol T*S(tot)=    24.71 kcal/mol
 sn=10  qrot/sn=   19375.2528 T*S(rot)=     6.74 kcal/mol T*S(tot)=    24.64 kcal/mol
 sn=11  qrot/sn=   17613.8661 T*S(rot)=     6.68 kcal/mol T*S(tot)=    24.59 kcal/mol
 sn=12  qrot/sn=   16146.0440 T*S(rot)=     6.63 kcal/mol T*S(tot)=    24.54 kcal/mol

-------------------
GIBBS FREE ENTHALPY
-------------------

The Gibbs free enthalpy is G = H - T*S

Total enthalpy                    ...   -288.97189592 Eh
Total entropy correction          ...     -0.04041041 Eh    -25.36 kcal/mol
-----------------------------------------------------------------------
Final Gibbs free enthalpy         ...   -289.01230633 Eh

For completeness - the Gibbs free enthalpy minus the electronic energy
G-E(el)                           ...      0.13816461 Eh     86.70 kcal/mol

                             ****ORCA TERMINATED NORMALLY****
TOTAL RUN TIME: 0 days 0 hours 30 minutes 38 seconds 310 msec
