                         Program Version 3.0.3 - RELEASE   -
|  1> ! NORI PBE0 def2-TZVP UseSym TightOPT Freq TightSCF Grid3 FinalGrid5 XYZFile
|  2> % pal
|  3>     nprocs 8
|  4> end
|  5> %method
|  6>     SymThresh 5.0e-2
|  7> end
|  8> % geom
|  9>     MaxIter 10
| 10> end
| 11> % maxcore 2000
| 12> % output
| 13>     printlevel mini
| 14>     print[ P_Basis ] 0
| 15>     print[ P_SCFInfo ] 1
| 16>     print[ P_SCFIterInfo ] 1
| 17>     print[ P_OrbEn ] 0
| 18>     print[ P_Cartesian ] 0
| 19> end
| 20> % elprop
| 21>     Dipole false
| 22> end
| 23> *xyz 1 1
| 24>  C        1.1698005343    -0.1893090176     0.1362734108
| 25>  C        2.6570159143    -0.0154091386    -0.1080882810
| 26>  C        3.0158179014     1.4419197071    -0.3607206804
| 27>  O        3.4271493389    -0.5454917413     0.9715321678
| 28>  C        3.0811926620    -0.9195981094    -1.2667835889
| 29>  N        4.5731172880    -1.0598733202    -1.2298644652
| 30>  H        0.5882185017     0.0996015935    -0.7422296385
| 31>  H        0.8489132963     0.4476609307     0.9633762734
| 32>  H        0.9367351694    -1.2247983974     0.3888913104
| 33>  H        2.4713378594     1.8392700324    -1.2194846576
| 34>  H        4.0877304511     1.5871011431    -0.5270284965
| 35>  H        2.7473554818     2.0482079431     0.5068982704
| 36>  H        3.2286856905    -0.0822207716     1.7910235548
| 37>  H        2.6749614630    -1.9216770843    -1.1300378558
| 38>  H        2.7828990000    -0.5307545821    -2.2387414905
| 39>  H        4.8131285703    -1.1307536117    -0.2271122038
| 40>  H        5.0470180744    -0.2413556303    -1.6117763391
| 41>  H        4.9038228029    -1.8840499454    -1.7302572902
| 42> *
| 43>
| 44>                          ****END OF INPUT****
 Total Charge           Charge          ....    1
 Multiplicity           Mult            ....    1
 Number of Electrons    NEL             ....   50
FINAL SINGLE POINT ENERGY      -289.169471414504

CARTESIAN COORDINATES (ANGSTROEM)
---------------------------------
  C     -1.697418   -0.873276   -0.144856
  C     -0.472533    0.007429    0.016816
  C     -0.741055    1.430484   -0.451037
  O      0.000093   -0.000240    1.364663
  C      0.701682   -0.629214   -0.728954
  N      1.968285    0.000311   -0.232537
  H     -1.980779   -0.967077   -1.195594
  H     -2.546433   -0.434672    0.383688
  H     -1.515682   -1.869315    0.262170
  H     -1.049383    1.450170   -1.498186
  H      0.128644    2.083207   -0.329044
  H     -1.549421    1.869763    0.137017
  H     -0.667910    0.350349    1.961760
  H      0.770306   -1.689594   -0.486973
  H      0.637861   -0.500847   -1.808048
  H      1.830373    0.118132    0.785052
  H      2.125988    0.922320   -0.639413
  H      2.790723   -0.574466   -0.412426

FINAL SINGLE POINT ENERGY      -289.169472367629
                    ***********************HURRAY********************
 Multiplicity           Mult            ....    1
 Number of Electrons    NEL             ....   50
 Basis Dimension        Dim             ....  258
FINAL SINGLE POINT ENERGY      -289.169473093731

VIBRATIONAL FREQUENCIES
-----------------------

   0:         0.00 cm**-1
   1:         0.00 cm**-1
   2:         0.00 cm**-1
   3:         0.00 cm**-1
   4:         0.00 cm**-1
   5:         0.00 cm**-1
   6:       135.36 cm**-1
   7:       206.54 cm**-1
   8:       222.76 cm**-1
   9:       244.40 cm**-1
  10:       274.56 cm**-1
  11:       288.31 cm**-1
  12:       345.04 cm**-1
  13:       377.96 cm**-1
  14:       408.99 cm**-1
  15:       459.74 cm**-1
  16:       547.80 cm**-1
  17:       755.63 cm**-1
  18:       854.68 cm**-1
  19:       896.87 cm**-1
  20:       938.74 cm**-1
  21:       973.06 cm**-1
  22:       979.42 cm**-1
  23:      1005.00 cm**-1
  24:      1052.66 cm**-1
  25:      1085.26 cm**-1
  26:      1159.16 cm**-1
  27:      1234.63 cm**-1
  28:      1262.06 cm**-1
  29:      1327.01 cm**-1
  30:      1359.47 cm**-1
  31:      1404.24 cm**-1
  32:      1407.89 cm**-1
  33:      1428.51 cm**-1
  34:      1463.20 cm**-1
  35:      1470.82 cm**-1
  36:      1479.12 cm**-1
  37:      1489.57 cm**-1
  38:      1499.59 cm**-1
  39:      1503.87 cm**-1
  40:      1637.79 cm**-1
  41:      1668.38 cm**-1
  42:      3050.22 cm**-1
  43:      3060.34 cm**-1
  44:      3113.74 cm**-1
  45:      3124.17 cm**-1
  46:      3138.25 cm**-1
  47:      3144.80 cm**-1
  48:      3148.52 cm**-1
  49:      3181.47 cm**-1
  50:      3297.05 cm**-1
  51:      3484.81 cm**-1
  52:      3538.12 cm**-1
  53:      3855.21 cm**-1

IR SPECTRUM
-----------

 Mode    freq (cm**-1)   T**2         TX         TY         TZ
-------------------------------------------------------------------
   6:       135.36   14.281337  ( -0.061959  -3.000543   2.296572)
   7:       206.54   22.131855  (  0.431500   4.679936  -0.209436)
   8:       222.76    0.625900  ( -0.256392   0.082959   0.743829)
   9:       244.40   12.946466  (  2.866181   0.363563  -2.144596)
  10:       274.56   13.837560  ( -2.883761  -1.338766   1.931111)
  11:       288.31   83.401633  ( -1.696444  -8.941371   0.758678)
  12:       345.04    1.766354  (  0.672714   0.663871   0.934391)
  13:       377.96   34.310948  (  5.007341   1.326521  -2.734562)
  14:       408.99   10.947892  ( -3.122767  -0.261368   1.062028)
  15:       459.74    7.704784  (  0.072829  -2.517690  -1.166497)
  16:       547.80    7.066247  ( -1.268354   0.280872  -2.319189)
  17:       755.63    4.805391  ( -1.851120   0.575597  -1.023443)
  18:       854.68    8.482995  ( -1.970760  -1.975948   0.833505)
  19:       896.87   19.972663  ( -0.006016   0.782419   4.400051)
  20:       938.74    0.912100  (  0.882408   0.362932  -0.041672)
  21:       973.06   10.558960  ( -3.171432  -0.636571   0.309446)
  22:       979.42   17.178664  ( -0.722619   1.077772  -3.936355)
  23:      1005.00    6.815696  ( -2.459731   0.837376   0.253414)
  24:      1052.66   93.530561  (  1.414953  -0.636465  -9.545857)
  25:      1085.26   22.207944  (  2.781932  -3.491312  -1.509814)
  26:      1159.16   26.473356  ( -2.563980   0.628260  -4.416407)
  27:      1234.63   43.798276  (  4.345626  -0.008314   4.991367)
  28:      1262.06    5.476817  ( -1.802057  -1.490392   0.090227)
  29:      1327.01    6.466030  (  2.422899  -0.730419  -0.249154)
  30:      1359.47   30.868820  (  1.904952  -2.477835   4.593507)
  31:      1404.24   14.114269  ( -2.661942   2.344914  -1.236815)
  32:      1407.89   20.084831  ( -2.411733  -3.766899   0.280800)
  33:      1428.51    8.173032  ( -2.037307   1.192475  -1.612580)
  34:      1463.20   13.298064  ( -3.564871  -0.599187  -0.480345)
  35:      1470.82  122.297918  ( 10.365253   2.598770   2.847078)
  36:      1479.12   45.654851  ( -6.246871  -2.395598  -0.944758)
  37:      1489.57   21.775824  (  4.157729  -2.077013  -0.418484)
  38:      1499.59    3.429920  (  1.596801  -0.410816  -0.843432)
  39:      1503.87   40.162754  (  2.675340   2.376649   5.230377)
  40:      1637.79   36.703667  (  1.379463   4.097042  -4.244408)
  41:      1668.38   40.126725  (  4.551629  -3.792495  -2.241959)
  42:      3050.22   10.779904  ( -2.356756  -2.278914   0.179310)
  43:      3060.34    0.284203  ( -0.339207  -0.392927  -0.121447)
  44:      3113.74    0.715836  (  0.436331  -0.542332  -0.480965)
  45:      3124.17   14.644171  (  3.477313   1.558556   0.351237)
  46:      3138.25    1.213840  (  0.685697  -0.265766  -0.820383)
  47:      3144.80    6.541278  ( -0.403150   0.980028   2.327723)
  48:      3148.52    5.257987  ( -0.938643   1.876558  -0.924915)
  49:      3181.47    0.496035  ( -0.166123   0.338041  -0.595119)
  50:      3297.05  125.439047  ( -3.624706   1.409334  10.503063)
  51:      3484.81   99.372085  (  7.893409   2.017644  -5.744153)
  52:      3538.12  102.084336  (  5.528044  -8.438207   0.567213)
  53:      3855.21   90.519018  (  4.426789  -2.610870  -8.006617)

--------------------------
THERMOCHEMISTRY AT 298.15K
--------------------------

Temperature         ... 298.15 K
Pressure            ... 1.00 atm
Total Mass          ... 90.15 AMU

Throughout the following assumptions are being made:
  (1) The electronic state is orbitally nondegenerate
  (2) There are no thermally accessible electronically excited states
  (3) Hindered rotations indicated by low frequency modes) are not
      treated as such but are treated as vibrations and this may
      case some error
  (4) All equations used are the standard statistical mechanics
      equations for an ideal gas
  (5) All vibrations are strinctly harmonic

------------
INNER ENERGY
------------

The inner energy is: U= E(el) + E(ZPE) + E(vib) + E(rot) + E(trans)
    E(el)   - is the total energy from the electronic structure calculation
              = E(kin-el) + E(nuc-el) + E(el-el) + E(nuc-nuc)
    E(ZPE)  - the the zero temperature vibrational energy from the frequency calculation
    E(vib)  - the the finite temperature correction to E(ZPE) due to population
              of excietd vibrational states
    E(rot)  - is the rotational thermal energy
    E(trans)- is the translational thermal energy

Summary of contributions to the inner energy U:
Electronic energy                ...   -289.16947309 Eh
Zero point energy                ...      0.16854986 Eh     105.77 kcal/mol
Thermal vibrational correction   ...      0.00512867 Eh       3.22 kcal/mol
Thermal rotational correction    ...      0.00141627 Eh       0.89 kcal/mol
Thermal translational correction ...      0.00141627 Eh       0.89 kcal/mol
-----------------------------------------------------------------------
Total thermal energy                   -288.99296202 Eh

Summary of corrections to the electronic energy:
(perhaps to be used in another calculation)
Total thermal correction                  0.00796121 Eh       5.00 kcal/mol
Non-thermal (ZPE) correction              0.16854986 Eh     105.77 kcal/mol
-----------------------------------------------------------------------
Total correction                          0.17651108 Eh     110.76 kcal/mol

--------
ENTHALPY
--------

The enthalpy is H = U + kB*T
                kB is Boltzmann's constant
Total free energy                 ...   -288.99296202 Eh
Thermal Enthalpy correction       ...      0.00094421 Eh       0.59 kcal/mol
-----------------------------------------------------------------------
Total Enthalpy                    ...   -288.99201781 Eh

-------
ENTROPY
-------

The entropy contributions are T*S = T*(S(el)+S(vib)+S(rot)+S(trans)
     S(el)   - electronic entropy
     S(vib)  - vibrational entropy
     S(rot)  - rotational entropy
     S(trans)- translational entropy
The entropies will be listed as mutliplied by the temperature to get
units of energy

Electronic entropy                ...      0.00000000 Eh      0.00 kcal/mol
Vibrational entropy               ...      0.00836164 Eh      5.25 kcal/mol
Rotational entropy                ...      0.01165733 Eh      7.32 kcal/mol
Translational entropy             ...      0.01872432 Eh     11.75 kcal/mol
-----------------------------------------------------------------------
Final entropy term                ...      0.03874329 Eh     24.31 kcal/mol

CAUTION: The rotational entropy is not quite correctly treated here
         because it includes a symmetry number that is not yet correctly
         implemented in ORCA!
For a nonlinear molecule the correct rotational entropy is:
    S(rot) = R*(ln(qrot/sn)+1.5)
    R    = 8.31441 J/mol/K = 1.987191683e-3 kcal/mol/K
    qrot = 154062.9192003
    sn is the rotational symmetry number. We have assumed 3 here
       if it is different for your molecule then you should correct
       the printed rotational entropy by manually evaluating the equation
       as given above

For convenience we print out the resulting values for sn=1 - 12:
 sn= 1  qrot/sn=  154062.9192 T*S(rot)=     7.97 kcal/mol T*S(tot)=    24.96 kcal/mol
 sn= 2  qrot/sn=   77031.4596 T*S(rot)=     7.56 kcal/mol T*S(tot)=    24.55 kcal/mol
 sn= 3  qrot/sn=   51354.3064 T*S(rot)=     7.32 kcal/mol T*S(tot)=    24.31 kcal/mol
 sn= 4  qrot/sn=   38515.7298 T*S(rot)=     7.14 kcal/mol T*S(tot)=    24.14 kcal/mol
 sn= 5  qrot/sn=   30812.5838 T*S(rot)=     7.01 kcal/mol T*S(tot)=    24.01 kcal/mol
 sn= 6  qrot/sn=   25677.1532 T*S(rot)=     6.90 kcal/mol T*S(tot)=    23.90 kcal/mol
 sn= 7  qrot/sn=   22008.9885 T*S(rot)=     6.81 kcal/mol T*S(tot)=    23.81 kcal/mol
 sn= 8  qrot/sn=   19257.8649 T*S(rot)=     6.73 kcal/mol T*S(tot)=    23.73 kcal/mol
 sn= 9  qrot/sn=   17118.1021 T*S(rot)=     6.66 kcal/mol T*S(tot)=    23.66 kcal/mol
 sn=10  qrot/sn=   15406.2919 T*S(rot)=     6.60 kcal/mol T*S(tot)=    23.60 kcal/mol
 sn=11  qrot/sn=   14005.7199 T*S(rot)=     6.55 kcal/mol T*S(tot)=    23.54 kcal/mol
 sn=12  qrot/sn=   12838.5766 T*S(rot)=     6.49 kcal/mol T*S(tot)=    23.49 kcal/mol

-------------------
GIBBS FREE ENTHALPY
-------------------

The Gibbs free enthalpy is G = H - T*S

Total enthalpy                    ...   -288.99201781 Eh
Total entropy correction          ...     -0.03874329 Eh    -24.31 kcal/mol
-----------------------------------------------------------------------
Final Gibbs free enthalpy         ...   -289.03076110 Eh

For completeness - the Gibbs free enthalpy minus the electronic energy
G-E(el)                           ...      0.13871199 Eh     87.04 kcal/mol

                             ****ORCA TERMINATED NORMALLY****
TOTAL RUN TIME: 0 days 0 hours 29 minutes 27 seconds 139 msec
