                         Program Version 3.0.3 - RELEASE   -
|  1> ! NORI PBE0 def2-TZVP UseSym TightOPT Freq TightSCF Grid3 FinalGrid5 XYZFile
|  2> % pal
|  3>     nprocs 8
|  4> end
|  5> %method
|  6>     SymThresh 5.0e-2
|  7> end
|  8> % geom
|  9>     MaxIter 10
| 10> end
| 11> % maxcore 2000
| 12> % output
| 13>     printlevel mini
| 14>     print[ P_Basis ] 0
| 15>     print[ P_SCFInfo ] 1
| 16>     print[ P_SCFIterInfo ] 1
| 17>     print[ P_OrbEn ] 0
| 18>     print[ P_Cartesian ] 0
| 19> end
| 20> % elprop
| 21>     Dipole false
| 22> end
| 23> *xyz 1 1
| 24>  C        1.1654698457     0.3817147593    -0.1416677645
| 25>  C        2.6520692541     0.1412467384     0.0641799905
| 26>  C        3.2004052628    -0.9559278082    -0.8275810035
| 27>  O        3.1478170485    -0.6495975838    -2.2116645352
| 28>  C        4.6802159537    -1.1851625910    -0.5787345752
| 29>  N        5.1954288178    -2.0646000748    -1.6798093612
| 30>  H        0.8055427272     1.1436417227     0.5499709669
| 31>  H        0.5821404056    -0.5253792068     0.0344656904
| 32>  H        0.9398348598     0.7467125671    -1.1475408139
| 33>  H        3.2161405998     1.0609244871    -0.1231495392
| 34>  H        2.8364246985    -0.1419059409     1.1062284150
| 35>  H        2.6484519923    -1.8895149787    -0.6347541531
| 36>  H        2.2501614404    -0.4277217687    -2.4758881346
| 37>  H        5.2267624194    -0.2445354789    -0.6516139202
| 38>  H        4.8832160445    -1.6575742890     0.3807660006
| 39>  H        4.7445653717    -1.7185079442    -2.5417222111
| 40>  H        4.9190988925    -3.0391789215    -1.5517184690
| 41>  H        6.2100643655    -2.0289336882    -1.7757965827
| 42> *
| 43>
| 44>                          ****END OF INPUT****
 Total Charge           Charge          ....    1
 Multiplicity           Mult            ....    1
 Number of Electrons    NEL             ....   50
FINAL SINGLE POINT ENERGY      -289.165433125452
FINAL SINGLE POINT ENERGY      -289.165435155839
FINAL SINGLE POINT ENERGY      -289.165438065710
FINAL SINGLE POINT ENERGY      -289.165438679486

CARTESIAN COORDINATES (ANGSTROEM)
---------------------------------
  C     -2.554051    0.358455   -0.334873
  C     -1.261937   -0.284792   -0.811575
  C     -0.035921    0.268484   -0.110431
  O     -0.004003    0.002269    1.282760
  C      1.235269   -0.387181   -0.619388
  N      2.349593   -0.002377    0.308384
  H     -3.401922   -0.027915   -0.900757
  H     -2.536607    1.443174   -0.467080
  H     -2.758998    0.140663    0.716997
  H     -1.296421   -1.367933   -0.655214
  H     -1.143387   -0.118423   -1.887776
  H      0.020015    1.355287   -0.280907
  H     -0.790800    0.351503    1.711798
  H      1.148870   -1.472944   -0.566678
  H      1.493835   -0.085694   -1.632861
  H      1.946472   -0.049705    1.257760
  H      2.665635    0.955491    0.150260
  H      3.156770   -0.621535    0.238165

FINAL SINGLE POINT ENERGY      -289.165439102023
                    ***********************HURRAY********************
 Multiplicity           Mult            ....    1
 Number of Electrons    NEL             ....   50
 Basis Dimension        Dim             ....  258
FINAL SINGLE POINT ENERGY      -289.165439210289

VIBRATIONAL FREQUENCIES
-----------------------

   0:         0.00 cm**-1
   1:         0.00 cm**-1
   2:         0.00 cm**-1
   3:         0.00 cm**-1
   4:         0.00 cm**-1
   5:         0.00 cm**-1
   6:        97.14 cm**-1
   7:       130.69 cm**-1
   8:       195.55 cm**-1
   9:       224.22 cm**-1
  10:       240.03 cm**-1
  11:       298.63 cm**-1
  12:       336.53 cm**-1
  13:       402.00 cm**-1
  14:       474.21 cm**-1
  15:       527.51 cm**-1
  16:       779.65 cm**-1
  17:       835.74 cm**-1
  18:       899.95 cm**-1
  19:       934.56 cm**-1
  20:       985.75 cm**-1
  21:      1004.09 cm**-1
  22:      1051.04 cm**-1
  23:      1064.06 cm**-1
  24:      1103.25 cm**-1
  25:      1169.97 cm**-1
  26:      1191.28 cm**-1
  27:      1263.26 cm**-1
  28:      1297.44 cm**-1
  29:      1323.48 cm**-1
  30:      1344.10 cm**-1
  31:      1382.35 cm**-1
  32:      1400.60 cm**-1
  33:      1417.36 cm**-1
  34:      1438.69 cm**-1
  35:      1466.10 cm**-1
  36:      1482.70 cm**-1
  37:      1487.64 cm**-1
  38:      1490.65 cm**-1
  39:      1502.94 cm**-1
  40:      1640.52 cm**-1
  41:      1669.91 cm**-1
  42:      2991.81 cm**-1
  43:      3048.01 cm**-1
  44:      3053.80 cm**-1
  45:      3091.87 cm**-1
  46:      3110.71 cm**-1
  47:      3124.26 cm**-1
  48:      3147.90 cm**-1
  49:      3180.57 cm**-1
  50:      3314.49 cm**-1
  51:      3477.98 cm**-1
  52:      3532.17 cm**-1
  53:      3858.69 cm**-1

IR SPECTRUM
-----------

 Mode    freq (cm**-1)   T**2         TX         TY         TZ
-------------------------------------------------------------------
   6:        97.14    2.518677  (  0.272906   1.473430  -0.522687)
   7:       130.69    8.430172  (  0.919620   2.563789  -1.005712)
   8:       195.55    9.908949  (  2.897959   0.338008  -1.181751)
   9:       224.22   19.255124  (  0.391137   4.065348   1.604707)
  10:       240.03    2.204995  ( -1.315690  -0.022353   0.688081)
  11:       298.63   99.075561  ( -5.047029  -8.215958  -2.470039)
  12:       336.53   24.801430  (  4.348481  -0.498920  -2.375546)
  13:       402.00   24.447662  (  4.853144   0.720150   0.613219)
  14:       474.21    3.149378  (  0.315121   1.203473   1.265594)
  15:       527.51   10.347406  ( -0.239308   0.370854  -3.186315)
  16:       779.65    1.342285  (  0.475880   1.055987  -0.026744)
  17:       835.74    7.787142  ( -2.598688  -0.319160  -0.965454)
  18:       899.95   11.432281  ( -0.980371  -3.220620   0.314257)
  19:       934.56   23.050895  (  3.679688   0.228810  -3.075457)
  20:       985.75    3.319615  (  1.558323   0.605327  -0.724446)
  21:      1004.09   57.892149  ( -0.362252  -0.042620  -7.599941)
  22:      1051.04   41.629361  (  0.133551  -1.746735   6.209705)
  23:      1064.06   41.537407  ( -5.360483   0.999870   3.435533)
  24:      1103.25    1.486165  (  0.710691  -0.977721   0.158574)
  25:      1169.97    3.572555  ( -0.289597   0.759852  -1.706258)
  26:      1191.28   32.028382  ( -3.015529   2.275811  -4.213746)
  27:      1263.26   39.812814  (  2.822758  -0.595452   5.611621)
  28:      1297.44    0.503045  (  0.227461  -0.493705   0.455589)
  29:      1323.48    3.490581  (  1.836498  -0.114972   0.323481)
  30:      1344.10   12.995802  (  0.630613   1.589452  -3.173605)
  31:      1382.35    4.967455  (  0.300983  -0.765973  -2.071268)
  32:      1400.60    8.725346  ( -0.614753  -0.744969  -2.791495)
  33:      1417.36    5.993115  (  2.093449  -1.256764  -0.176446)
  34:      1438.69    2.529662  ( -0.726269  -1.362918  -0.380328)
  35:      1466.10    7.083948  ( -2.503640   0.374799  -0.821744)
  36:      1482.70  169.759814  ( 10.573533   2.283596   7.262603)
  37:      1487.64   30.677305  (  5.068917  -1.782847   1.343442)
  38:      1490.65   23.050261  ( -1.534432  -1.741555  -4.202709)
  39:      1502.94   16.455265  ( -0.387000   2.657639  -3.040140)
  40:      1640.52   36.867701  (  1.902491   4.950674  -2.956189)
  41:      1669.91   36.079064  (  4.131375  -3.569793  -2.503475)
  42:      2991.81   23.738159  (  1.172454   4.374523  -1.796401)
  43:      3048.01    1.408074  (  0.574570  -0.971222  -0.366977)
  44:      3053.80   21.830098  ( -2.191233   2.737161   3.088130)
  45:      3091.87    2.466388  (  0.280947   1.368112  -0.718140)
  46:      3110.71    0.869996  ( -0.221755   0.796922   0.430971)
  47:      3124.26   21.333592  ( -0.097346  -3.118606   3.405644)
  48:      3147.90    4.932905  ( -1.134058  -1.626610  -1.000479)
  49:      3180.57    0.225100  ( -0.091525  -0.286173   0.367190)
  50:      3314.49  116.703196  ( -5.776689   0.121621   9.127884)
  51:      3477.98  112.280682  ( -9.648458  -2.948324   3.239649)
  52:      3532.17  102.854805  (  4.721370  -8.975575   0.050276)
  53:      3858.69   93.958377  (  7.226656  -2.604879  -5.911719)

--------------------------
THERMOCHEMISTRY AT 298.15K
--------------------------

Temperature         ... 298.15 K
Pressure            ... 1.00 atm
Total Mass          ... 90.15 AMU

Throughout the following assumptions are being made:
  (1) The electronic state is orbitally nondegenerate
  (2) There are no thermally accessible electronically excited states
  (3) Hindered rotations indicated by low frequency modes) are not
      treated as such but are treated as vibrations and this may
      case some error
  (4) All equations used are the standard statistical mechanics
      equations for an ideal gas
  (5) All vibrations are strinctly harmonic

------------
INNER ENERGY
------------

The inner energy is: U= E(el) + E(ZPE) + E(vib) + E(rot) + E(trans)
    E(el)   - is the total energy from the electronic structure calculation
              = E(kin-el) + E(nuc-el) + E(el-el) + E(nuc-nuc)
    E(ZPE)  - the the zero temperature vibrational energy from the frequency calculation
    E(vib)  - the the finite temperature correction to E(ZPE) due to population
              of excietd vibrational states
    E(rot)  - is the rotational thermal energy
    E(trans)- is the translational thermal energy

Summary of contributions to the inner energy U:
Electronic energy                ...   -289.16543921 Eh
Zero point energy                ...      0.16969125 Eh     106.48 kcal/mol
Thermal vibrational correction   ...      0.00511746 Eh       3.21 kcal/mol
Thermal rotational correction    ...      0.00141627 Eh       0.89 kcal/mol
Thermal translational correction ...      0.00141627 Eh       0.89 kcal/mol
-----------------------------------------------------------------------
Total thermal energy                   -288.98779795 Eh

Summary of corrections to the electronic energy:
(perhaps to be used in another calculation)
Total thermal correction                  0.00795000 Eh       4.99 kcal/mol
Non-thermal (ZPE) correction              0.16969125 Eh     106.48 kcal/mol
-----------------------------------------------------------------------
Total correction                          0.17764126 Eh     111.47 kcal/mol

--------
ENTHALPY
--------

The enthalpy is H = U + kB*T
                kB is Boltzmann's constant
Total free energy                 ...   -288.98779795 Eh
Thermal Enthalpy correction       ...      0.00094421 Eh       0.59 kcal/mol
-----------------------------------------------------------------------
Total Enthalpy                    ...   -288.98685374 Eh

-------
ENTROPY
-------

The entropy contributions are T*S = T*(S(el)+S(vib)+S(rot)+S(trans)
     S(el)   - electronic entropy
     S(vib)  - vibrational entropy
     S(rot)  - rotational entropy
     S(trans)- translational entropy
The entropies will be listed as mutliplied by the temperature to get
units of energy

Electronic entropy                ...      0.00000000 Eh      0.00 kcal/mol
Vibrational entropy               ...      0.00887725 Eh      5.57 kcal/mol
Rotational entropy                ...      0.01177428 Eh      7.39 kcal/mol
Translational entropy             ...      0.01872432 Eh     11.75 kcal/mol
-----------------------------------------------------------------------
Final entropy term                ...      0.03937585 Eh     24.71 kcal/mol

CAUTION: The rotational entropy is not quite correctly treated here
         because it includes a symmetry number that is not yet correctly
         implemented in ORCA!
For a nonlinear molecule the correct rotational entropy is:
    S(rot) = R*(ln(qrot/sn)+1.5)
    R    = 8.31441 J/mol/K = 1.987191683e-3 kcal/mol/K
    qrot = 174377.2128823
    sn is the rotational symmetry number. We have assumed 3 here
       if it is different for your molecule then you should correct
       the printed rotational entropy by manually evaluating the equation
       as given above

For convenience we print out the resulting values for sn=1 - 12:
 sn= 1  qrot/sn=  174377.2129 T*S(rot)=     8.04 kcal/mol T*S(tot)=    25.36 kcal/mol
 sn= 2  qrot/sn=   87188.6064 T*S(rot)=     7.63 kcal/mol T*S(tot)=    24.95 kcal/mol
 sn= 3  qrot/sn=   58125.7376 T*S(rot)=     7.39 kcal/mol T*S(tot)=    24.71 kcal/mol
 sn= 4  qrot/sn=   43594.3032 T*S(rot)=     7.22 kcal/mol T*S(tot)=    24.54 kcal/mol
 sn= 5  qrot/sn=   34875.4426 T*S(rot)=     7.09 kcal/mol T*S(tot)=    24.41 kcal/mol
 sn= 6  qrot/sn=   29062.8688 T*S(rot)=     6.98 kcal/mol T*S(tot)=    24.30 kcal/mol
 sn= 7  qrot/sn=   24911.0304 T*S(rot)=     6.89 kcal/mol T*S(tot)=    24.21 kcal/mol
 sn= 8  qrot/sn=   21797.1516 T*S(rot)=     6.81 kcal/mol T*S(tot)=    24.13 kcal/mol
 sn= 9  qrot/sn=   19375.2459 T*S(rot)=     6.74 kcal/mol T*S(tot)=    24.06 kcal/mol
 sn=10  qrot/sn=   17437.7213 T*S(rot)=     6.68 kcal/mol T*S(tot)=    24.00 kcal/mol
 sn=11  qrot/sn=   15852.4739 T*S(rot)=     6.62 kcal/mol T*S(tot)=    23.94 kcal/mol
 sn=12  qrot/sn=   14531.4344 T*S(rot)=     6.57 kcal/mol T*S(tot)=    23.89 kcal/mol

-------------------
GIBBS FREE ENTHALPY
-------------------

The Gibbs free enthalpy is G = H - T*S

Total enthalpy                    ...   -288.98685374 Eh
Total entropy correction          ...     -0.03937585 Eh    -24.71 kcal/mol
-----------------------------------------------------------------------
Final Gibbs free enthalpy         ...   -289.02622959 Eh

For completeness - the Gibbs free enthalpy minus the electronic energy
G-E(el)                           ...      0.13920962 Eh     87.36 kcal/mol

                             ****ORCA TERMINATED NORMALLY****
TOTAL RUN TIME: 0 days 0 hours 29 minutes 34 seconds 115 msec
