                         Program Version 3.0.3 - RELEASE   -
|  1> ! NORI PBE0 def2-TZVP UseSym TightOPT Freq TightSCF Grid3 FinalGrid5 XYZFile
|  2> % pal
|  3>     nprocs 8
|  4> end
|  5> %method
|  6>     SymThresh 5.0e-2
|  7> end
|  8> % geom
|  9>     MaxIter 10
| 10> end
| 11> % maxcore 2000
| 12> % output
| 13>     printlevel mini
| 14>     print[ P_Basis ] 0
| 15>     print[ P_SCFInfo ] 1
| 16>     print[ P_SCFIterInfo ] 1
| 17>     print[ P_OrbEn ] 0
| 18>     print[ P_Cartesian ] 0
| 19> end
| 20> % elprop
| 21>     Dipole false
| 22> end
| 23> *xyz 1 1
| 24>  C        1.0599817993     0.0261603232     0.1065720971
| 25>  C        2.5536725857     0.2123725498    -0.0538990026
| 26>  N        3.1521874407     0.5838036784     1.2810919289
| 27>  C        3.2427807128    -1.0733260886    -0.4790287770
| 28>  C        4.6680497485    -1.3215187468    -0.3116235998
| 29>  O        3.7103234262    -1.8547430127     0.6107384281
| 30>  H        0.6261822400    -0.2460830283    -0.8562666827
| 31>  H        0.5725193411     0.9477622095     0.4333015759
| 32>  H        0.8317376909    -0.7751036565     0.8142308359
| 33>  H        2.7741845845     1.0225513784    -0.7516207575
| 34>  H        3.4530167142    -0.3198847494     1.6989318821
| 35>  H        2.4694345246     1.0371696259     1.8880390586
| 36>  H        3.9644923782     1.1944624664     1.2009042464
| 37>  H        2.7038936968    -1.6256186725    -1.2443534858
| 38>  H        5.3313737818    -0.5585611809     0.0913837368
| 39>  H        5.1533693349    -2.0602330957    -0.9401614845
| 40> *
| 41>
| 42>                          ****END OF INPUT****
 Total Charge           Charge          ....    1
 Multiplicity           Mult            ....    1
 Number of Electrons    NEL             ....   48
FINAL SINGLE POINT ENERGY      -287.914660085505

CARTESIAN COORDINATES (ANGSTROEM)
---------------------------------
  C     -0.453675    1.484444   -1.400663
  C     -0.103663    0.079816   -0.957421
  N      1.380077    0.000616   -0.691966
  C     -0.783132   -0.287879    0.350836
  C     -0.334476   -1.365846    1.221212
  O      0.002061   -0.001175    1.498872
  H     -1.526051    1.545029   -1.589330
  H      0.055146    1.751683   -2.329660
  H     -0.208596    2.218955   -0.629078
  H     -0.339032   -0.646610   -1.737487
  H      1.479246    0.194096    0.325142
  H      1.897709    0.695237   -1.229800
  H      1.775349   -0.917674   -0.891267
  H     -1.819864    0.032314    0.409744
  H      0.500080   -2.006200    0.943170
  H     -1.037409   -1.810805    1.917008

FINAL SINGLE POINT ENERGY      -287.914660994144
                    ***********************HURRAY********************
 Multiplicity           Mult            ....    1
 Number of Electrons    NEL             ....   48
 Basis Dimension        Dim             ....  246
FINAL SINGLE POINT ENERGY      -287.914661469801

VIBRATIONAL FREQUENCIES
-----------------------

   0:         0.00 cm**-1
   1:         0.00 cm**-1
   2:         0.00 cm**-1
   3:         0.00 cm**-1
   4:         0.00 cm**-1
   5:         0.00 cm**-1
   6:        85.22 cm**-1
   7:       236.07 cm**-1
   8:       255.55 cm**-1
   9:       263.34 cm**-1
  10:       324.61 cm**-1
  11:       377.88 cm**-1
  12:       457.86 cm**-1
  13:       623.13 cm**-1
  14:       755.91 cm**-1
  15:       865.99 cm**-1
  16:       896.34 cm**-1
  17:       949.85 cm**-1
  18:       974.45 cm**-1
  19:       990.90 cm**-1
  20:      1013.11 cm**-1
  21:      1082.90 cm**-1
  22:      1122.82 cm**-1
  23:      1145.17 cm**-1
  24:      1173.07 cm**-1
  25:      1182.15 cm**-1
  26:      1218.89 cm**-1
  27:      1293.11 cm**-1
  28:      1339.85 cm**-1
  29:      1378.55 cm**-1
  30:      1420.77 cm**-1
  31:      1439.00 cm**-1
  32:      1465.91 cm**-1
  33:      1485.68 cm**-1
  34:      1490.97 cm**-1
  35:      1540.87 cm**-1
  36:      1638.46 cm**-1
  37:      1673.15 cm**-1
  38:      3058.39 cm**-1
  39:      3111.99 cm**-1
  40:      3119.52 cm**-1
  41:      3140.67 cm**-1
  42:      3154.57 cm**-1
  43:      3171.28 cm**-1
  44:      3192.97 cm**-1
  45:      3223.27 cm**-1
  46:      3483.51 cm**-1
  47:      3539.88 cm**-1

IR SPECTRUM
-----------

 Mode    freq (cm**-1)   T**2         TX         TY         TZ
-------------------------------------------------------------------
   6:        85.22    6.628215  ( -1.624677   1.797531   0.870358)
   7:       236.07    1.394295  (  0.508743   0.266874  -1.031627)
   8:       255.55   15.798094  ( -2.538251  -1.244847   2.793874)
   9:       263.34    3.650176  ( -1.526525  -0.912247   0.698356)
  10:       324.61   41.098914  (  3.437148   0.685879  -5.367913)
  11:       377.88    7.742251  ( -1.764312   1.846287   1.104843)
  12:       457.86    3.538256  ( -0.642165  -0.775155   1.589029)
  13:       623.13    3.599780  ( -1.773195  -0.488109  -0.466164)
  14:       755.91    7.903379  ( -0.695923  -2.408462  -1.272155)
  15:       865.99    5.993068  (  1.407106   1.872381  -0.712257)
  16:       896.34   31.233203  (  2.021046  -1.338462   5.035583)
  17:       949.85   27.746087  ( -3.932111  -3.385714  -0.906385)
  18:       974.45   20.070013  (  1.267285   4.291685  -0.213168)
  19:       990.90   18.475690  ( -0.890327   2.849339   3.092616)
  20:      1013.11   17.388810  (  2.975669   1.535725  -2.485107)
  21:      1082.90   12.022939  ( -0.138960  -0.045866  -3.464322)
  22:      1122.82   25.971279  ( -1.215801  -1.407295   4.744747)
  23:      1145.17    7.590043  ( -2.702281  -0.472981   0.253001)
  24:      1173.07    0.646865  (  0.562729  -0.306842   0.485849)
  25:      1182.15    0.372057  (  0.133103   0.031644   0.594423)
  26:      1218.89    4.609833  ( -0.246603  -2.112885  -0.291098)
  27:      1293.11   13.543199  ( -1.879351  -2.386755  -2.077171)
  28:      1339.85    9.297376  (  1.312362   0.538147   2.699163)
  29:      1378.55    6.219821  ( -0.760635  -1.009949  -2.149711)
  30:      1420.77   24.859032  (  3.782071  -3.224469   0.397200)
  31:      1439.00   34.276163  (  5.296537   2.433090  -0.550392)
  32:      1465.91  168.260881  ( 12.885821   1.482174   0.140210)
  33:      1485.68    1.500297  (  1.007262   0.389285   0.578081)
  34:      1490.97    8.975017  ( -0.340792   1.330283   2.662560)
  35:      1540.87    4.851119  (  1.227573   0.659984  -1.705463)
  36:      1638.46   36.055590  (  2.629153  -4.495596  -2.988773)
  37:      1673.15   39.892637  ( -2.498905  -3.830441   4.356126)
  38:      3058.39    1.621860  ( -1.172371  -0.468263   0.167737)
  39:      3111.99    0.674137  ( -0.101905  -0.393035  -0.713635)
  40:      3119.52    8.441226  ( -1.674971   2.319095   0.507443)
  41:      3140.67    3.472493  (  0.424043  -0.121085  -1.810530)
  42:      3154.57    0.452667  (  0.063727  -0.663006  -0.095018)
  43:      3171.28    0.588406  ( -0.537656  -0.472758   0.275376)
  44:      3192.97  176.585021  ( -2.838109  -0.612582  12.967456)
  45:      3223.27    1.555643  ( -1.087259   0.447219   0.416540)
  46:      3483.51   97.387158  ( -7.233812   0.655219   6.680555)
  47:      3539.88   88.883580  (  0.594773   9.285517  -1.519541)

--------------------------
THERMOCHEMISTRY AT 298.15K
--------------------------

Temperature         ... 298.15 K
Pressure            ... 1.00 atm
Total Mass          ... 88.13 AMU

Throughout the following assumptions are being made:
  (1) The electronic state is orbitally nondegenerate
  (2) There are no thermally accessible electronically excited states
  (3) Hindered rotations indicated by low frequency modes) are not
      treated as such but are treated as vibrations and this may
      case some error
  (4) All equations used are the standard statistical mechanics
      equations for an ideal gas
  (5) All vibrations are strinctly harmonic

------------
INNER ENERGY
------------

The inner energy is: U= E(el) + E(ZPE) + E(vib) + E(rot) + E(trans)
    E(el)   - is the total energy from the electronic structure calculation
              = E(kin-el) + E(nuc-el) + E(el-el) + E(nuc-nuc)
    E(ZPE)  - the the zero temperature vibrational energy from the frequency calculation
    E(vib)  - the the finite temperature correction to E(ZPE) due to population
              of excietd vibrational states
    E(rot)  - is the rotational thermal energy
    E(trans)- is the translational thermal energy

Summary of contributions to the inner energy U:
Electronic energy                ...   -287.91466147 Eh
Zero point energy                ...      0.14661742 Eh      92.00 kcal/mol
Thermal vibrational correction   ...      0.00390008 Eh       2.45 kcal/mol
Thermal rotational correction    ...      0.00141627 Eh       0.89 kcal/mol
Thermal translational correction ...      0.00141627 Eh       0.89 kcal/mol
-----------------------------------------------------------------------
Total thermal energy                   -287.76131143 Eh

Summary of corrections to the electronic energy:
(perhaps to be used in another calculation)
Total thermal correction                  0.00673262 Eh       4.22 kcal/mol
Non-thermal (ZPE) correction              0.14661742 Eh      92.00 kcal/mol
-----------------------------------------------------------------------
Total correction                          0.15335004 Eh      96.23 kcal/mol

--------
ENTHALPY
--------

The enthalpy is H = U + kB*T
                kB is Boltzmann's constant
Total free energy                 ...   -287.76131143 Eh
Thermal Enthalpy correction       ...      0.00094421 Eh       0.59 kcal/mol
-----------------------------------------------------------------------
Total Enthalpy                    ...   -287.76036722 Eh

-------
ENTROPY
-------

The entropy contributions are T*S = T*(S(el)+S(vib)+S(rot)+S(trans)
     S(el)   - electronic entropy
     S(vib)  - vibrational entropy
     S(rot)  - rotational entropy
     S(trans)- translational entropy
The entropies will be listed as mutliplied by the temperature to get
units of energy

Electronic entropy                ...      0.00000000 Eh      0.00 kcal/mol
Vibrational entropy               ...      0.00658934 Eh      4.13 kcal/mol
Rotational entropy                ...      0.01154234 Eh      7.24 kcal/mol
Translational entropy             ...      0.01869229 Eh     11.73 kcal/mol
-----------------------------------------------------------------------
Final entropy term                ...      0.03682396 Eh     23.11 kcal/mol

CAUTION: The rotational entropy is not quite correctly treated here
         because it includes a symmetry number that is not yet correctly
         implemented in ORCA!
For a nonlinear molecule the correct rotational entropy is:
    S(rot) = R*(ln(qrot/sn)+1.5)
    R    = 8.31441 J/mol/K = 1.987191683e-3 kcal/mol/K
    qrot = 136396.2679862
    sn is the rotational symmetry number. We have assumed 3 here
       if it is different for your molecule then you should correct
       the printed rotational entropy by manually evaluating the equation
       as given above

For convenience we print out the resulting values for sn=1 - 12:
 sn= 1  qrot/sn=  136396.2680 T*S(rot)=     7.89 kcal/mol T*S(tot)=    23.76 kcal/mol
 sn= 2  qrot/sn=   68198.1340 T*S(rot)=     7.48 kcal/mol T*S(tot)=    23.35 kcal/mol
 sn= 3  qrot/sn=   45465.4227 T*S(rot)=     7.24 kcal/mol T*S(tot)=    23.11 kcal/mol
 sn= 4  qrot/sn=   34099.0670 T*S(rot)=     7.07 kcal/mol T*S(tot)=    22.94 kcal/mol
 sn= 5  qrot/sn=   27279.2536 T*S(rot)=     6.94 kcal/mol T*S(tot)=    22.80 kcal/mol
 sn= 6  qrot/sn=   22732.7113 T*S(rot)=     6.83 kcal/mol T*S(tot)=    22.70 kcal/mol
 sn= 7  qrot/sn=   19485.1811 T*S(rot)=     6.74 kcal/mol T*S(tot)=    22.61 kcal/mol
 sn= 8  qrot/sn=   17049.5335 T*S(rot)=     6.66 kcal/mol T*S(tot)=    22.53 kcal/mol
 sn= 9  qrot/sn=   15155.1409 T*S(rot)=     6.59 kcal/mol T*S(tot)=    22.46 kcal/mol
 sn=10  qrot/sn=   13639.6268 T*S(rot)=     6.53 kcal/mol T*S(tot)=    22.39 kcal/mol
 sn=11  qrot/sn=   12399.6607 T*S(rot)=     6.47 kcal/mol T*S(tot)=    22.34 kcal/mol
 sn=12  qrot/sn=   11366.3557 T*S(rot)=     6.42 kcal/mol T*S(tot)=    22.29 kcal/mol

-------------------
GIBBS FREE ENTHALPY
-------------------

The Gibbs free enthalpy is G = H - T*S

Total enthalpy                    ...   -287.76036722 Eh
Total entropy correction          ...     -0.03682396 Eh    -23.11 kcal/mol
-----------------------------------------------------------------------
Final Gibbs free enthalpy         ...   -287.79719118 Eh

For completeness - the Gibbs free enthalpy minus the electronic energy
G-E(el)                           ...      0.11747029 Eh     73.71 kcal/mol

                             ****ORCA TERMINATED NORMALLY****
TOTAL RUN TIME: 0 days 0 hours 22 minutes 32 seconds 667 msec
