                         Program Version 3.0.3 - RELEASE   -
|  1> ! NORI PBE0 def2-TZVP UseSym TightOPT Freq TightSCF Grid3 FinalGrid5 XYZFile
|  2> % pal
|  3>     nprocs 8
|  4> end
|  5> %method
|  6>     SymThresh 5.0e-2
|  7> end
|  8> % geom
|  9>     MaxIter 10
| 10> end
| 11> % maxcore 2000
| 12> % output
| 13>     printlevel mini
| 14>     print[ P_Basis ] 0
| 15>     print[ P_SCFInfo ] 1
| 16>     print[ P_SCFIterInfo ] 1
| 17>     print[ P_OrbEn ] 0
| 18>     print[ P_Cartesian ] 0
| 19> end
| 20> % elprop
| 21>     Dipole false
| 22> end
| 23> *xyz 1 1
| 24>  C        1.1758694574     0.2040153957    -0.2837553382
| 25>  C        2.6352107494     0.5873921356    -0.2837868630
| 26>  N        3.4401453251    -0.3788087914     0.5283752256
| 27>  C        4.9013012843    -0.0801867709     0.6471512520
| 28>  C        5.0949896212     1.0004040483     1.6898585388
| 29>  O        4.2961856972     0.6002938056     2.7801803180
| 30>  H        0.6172239759     0.9227909288    -0.8838550374
| 31>  H        0.7531838845     0.2165116127     0.7234096607
| 32>  H        1.0144937363    -0.7836185382    -0.7225719298
| 33>  H        2.7941225804     1.5736872399     0.1523279204
| 34>  H        3.0618265100     0.5820297697    -1.2879982547
| 35>  H        3.3055226707    -1.3177884383     0.1532573645
| 36>  H        3.0883151425    -0.3827831257     1.4960792117
| 37>  H        5.2865471898     0.2063395347    -0.3307595010
| 38>  H        5.3834576922    -1.0032474045     0.9711030800
| 39>  H        4.7945312453     1.9842790175     1.3105474772
| 40>  H        6.1586808975     1.0458962799     1.9431718514
| 41>  H        4.4158323404     1.1869733006     3.5320750238
| 42> *
| 43>
| 44>                          ****END OF INPUT****
 Total Charge           Charge          ....    1
 Multiplicity           Mult            ....    1
 Number of Electrons    NEL             ....   50
FINAL SINGLE POINT ENERGY      -289.161844480095
FINAL SINGLE POINT ENERGY      -289.161845796355
FINAL SINGLE POINT ENERGY      -289.161846834834

CARTESIAN COORDINATES (ANGSTROEM)
---------------------------------
  C     -0.100534   -1.856590   -1.942272
  C     -0.446158   -0.499102   -1.380966
  N      0.643140    0.000212   -0.483542
  C      0.400371    1.323136    0.172051
  C     -0.523315    1.119591    1.354737
  O     -0.005395   -0.002752    2.032833
  H     -0.909845   -2.190704   -2.592286
  H      0.017652   -2.603023   -1.153618
  H      0.811319   -1.828816   -2.543592
  H     -1.356953   -0.528593   -0.783187
  H     -0.572093    0.249481   -2.164737
  H      1.517332    0.026704   -1.008468
  H      0.771589   -0.663136    0.293283
  H     -0.006816    2.015343   -0.564108
  H      1.370901    1.684934    0.513474
  H     -1.557960    0.953424    1.032938
  H     -0.501254    2.026718    1.966530
  H     -0.487476   -0.167689    2.847858

FINAL SINGLE POINT ENERGY      -289.161847063052
                    ***********************HURRAY********************
 Multiplicity           Mult            ....    1
 Number of Electrons    NEL             ....   50
 Basis Dimension        Dim             ....  258
FINAL SINGLE POINT ENERGY      -289.161847239940

VIBRATIONAL FREQUENCIES
-----------------------

   0:         0.00 cm**-1
   1:         0.00 cm**-1
   2:         0.00 cm**-1
   3:         0.00 cm**-1
   4:         0.00 cm**-1
   5:         0.00 cm**-1
   6:        68.76 cm**-1
   7:        81.30 cm**-1
   8:       176.46 cm**-1
   9:       247.60 cm**-1
  10:       269.04 cm**-1
  11:       282.11 cm**-1
  12:       318.05 cm**-1
  13:       425.77 cm**-1
  14:       559.97 cm**-1
  15:       777.37 cm**-1
  16:       808.88 cm**-1
  17:       850.29 cm**-1
  18:       917.30 cm**-1
  19:       945.06 cm**-1
  20:      1037.65 cm**-1
  21:      1041.53 cm**-1
  22:      1079.83 cm**-1
  23:      1102.50 cm**-1
  24:      1144.84 cm**-1
  25:      1168.14 cm**-1
  26:      1231.55 cm**-1
  27:      1259.38 cm**-1
  28:      1287.09 cm**-1
  29:      1325.07 cm**-1
  30:      1380.76 cm**-1
  31:      1390.80 cm**-1
  32:      1423.68 cm**-1
  33:      1424.70 cm**-1
  34:      1430.90 cm**-1
  35:      1464.28 cm**-1
  36:      1481.27 cm**-1
  37:      1487.31 cm**-1
  38:      1490.28 cm**-1
  39:      1503.36 cm**-1
  40:      1522.06 cm**-1
  41:      1630.01 cm**-1
  42:      3040.95 cm**-1
  43:      3060.59 cm**-1
  44:      3090.31 cm**-1
  45:      3099.87 cm**-1
  46:      3108.02 cm**-1
  47:      3131.50 cm**-1
  48:      3154.73 cm**-1
  49:      3162.82 cm**-1
  50:      3170.26 cm**-1
  51:      3353.82 cm**-1
  52:      3493.16 cm**-1
  53:      3869.94 cm**-1

IR SPECTRUM
-----------

 Mode    freq (cm**-1)   T**2         TX         TY         TZ
-------------------------------------------------------------------
   6:        68.76    0.431035  (  0.655495   0.025461   0.026700)
   7:        81.30    4.987665  (  1.431960   1.648489   0.468657)
   8:       176.46    9.473633  ( -0.256969  -0.982211  -2.905660)
   9:       247.60    2.357611  ( -0.704634  -0.451068  -1.287494)
  10:       269.04   26.593619  (  1.155608   0.862772   4.951143)
  11:       282.11  111.962514  ( -7.653965  -6.230777  -3.815331)
  12:       318.05   18.657639  ( -0.822271  -0.856975  -4.152963)
  13:       425.77    8.802734  (  0.118906   0.122236   2.962035)
  14:       559.97    7.533646  (  1.053687  -2.512913   0.329633)
  15:       777.37   18.073857  (  1.270332   0.254091  -4.049142)
  16:       808.88    5.748102  ( -0.292419  -2.335628   0.455452)
  17:       850.29    4.726978  ( -0.027611   0.000428  -2.173986)
  18:       917.30    7.221308  (  0.181248  -1.353594   2.314355)
  19:       945.06    8.211040  ( -0.131881  -2.082093   1.964316)
  20:      1037.65   12.091609  ( -1.820528   2.831544  -0.871578)
  21:      1041.53   38.374881  ( -2.062352  -4.230226  -4.028247)
  22:      1079.83    8.947824  ( -0.295957  -2.607914   1.434927)
  23:      1102.50   73.305909  (  2.569371  -5.804780   5.745326)
  24:      1144.84    3.776581  (  0.294285  -1.733398  -0.827835)
  25:      1168.14    2.205100  ( -1.219530   0.074990   0.843933)
  26:      1231.55   16.962298  ( -2.756278   2.726864  -1.389043)
  27:      1259.38    1.602476  ( -0.882579   0.661095   0.621679)
  28:      1287.09   21.945235  (  3.578150  -2.804281   1.130523)
  29:      1325.07   23.747012  ( -1.035306   4.663506  -0.962740)
  30:      1380.76    7.910882  (  0.924200   0.635598   2.579293)
  31:      1390.80    0.160740  ( -0.009604  -0.207080  -0.343170)
  32:      1423.68    1.233944  (  0.997232  -0.429354   0.234791)
  33:      1424.70   60.081450  (  0.472566   6.061784   4.807588)
  34:      1430.90   25.765392  ( -0.923403  -2.900289  -4.062147)
  35:      1464.28   19.392608  (  0.216428  -2.556042  -3.579444)
  36:      1481.27   12.582727  ( -2.269054  -2.676266  -0.521265)
  37:      1487.31   10.915268  (  1.732375   2.193430  -1.761536)
  38:      1490.28   15.674216  (  1.968794   1.528769  -3.075863)
  39:      1503.36   10.870343  (  2.215865  -2.339277   0.698618)
  40:      1522.06   10.941114  ( -2.220060   1.000829   2.238479)
  41:      1630.01   59.952437  (  6.432365  -4.207812  -0.933509)
  42:      3040.95   20.421065  ( -3.788423   1.641083  -1.837324)
  43:      3060.59    2.702846  (  1.536589  -0.498596   0.305193)
  44:      3090.31    6.690246  ( -0.845065  -2.125460  -1.207697)
  45:      3099.87    3.833322  ( -1.355633   1.403947  -0.156567)
  46:      3108.02    2.792746  ( -0.984486  -1.350376   0.004228)
  47:      3131.50    2.175025  ( -0.655659  -0.709774   1.114162)
  48:      3154.73    0.877970  (  0.619891  -0.693479   0.113102)
  49:      3162.82    3.582524  (  0.967263   0.596700  -1.513564)
  50:      3170.26    0.391452  (  0.398796  -0.017188   0.481787)
  51:      3353.82   95.836614  (  1.638018  -3.729763   8.901819)
  52:      3493.16   72.950776  (  6.287306   0.929440  -5.705848)
  53:      3869.94  130.217056  (  3.729648   3.460045 -10.214444)

--------------------------
THERMOCHEMISTRY AT 298.15K
--------------------------

Temperature         ... 298.15 K
Pressure            ... 1.00 atm
Total Mass          ... 90.15 AMU

Throughout the following assumptions are being made:
  (1) The electronic state is orbitally nondegenerate
  (2) There are no thermally accessible electronically excited states
  (3) Hindered rotations indicated by low frequency modes) are not
      treated as such but are treated as vibrations and this may
      case some error
  (4) All equations used are the standard statistical mechanics
      equations for an ideal gas
  (5) All vibrations are strinctly harmonic

------------
INNER ENERGY
------------

The inner energy is: U= E(el) + E(ZPE) + E(vib) + E(rot) + E(trans)
    E(el)   - is the total energy from the electronic structure calculation
              = E(kin-el) + E(nuc-el) + E(el-el) + E(nuc-nuc)
    E(ZPE)  - the the zero temperature vibrational energy from the frequency calculation
    E(vib)  - the the finite temperature correction to E(ZPE) due to population
              of excietd vibrational states
    E(rot)  - is the rotational thermal energy
    E(trans)- is the translational thermal energy

Summary of contributions to the inner energy U:
Electronic energy                ...   -289.16184724 Eh
Zero point energy                ...      0.17034067 Eh     106.89 kcal/mol
Thermal vibrational correction   ...      0.00502195 Eh       3.15 kcal/mol
Thermal rotational correction    ...      0.00141627 Eh       0.89 kcal/mol
Thermal translational correction ...      0.00141627 Eh       0.89 kcal/mol
-----------------------------------------------------------------------
Total thermal energy                   -288.98365207 Eh

Summary of corrections to the electronic energy:
(perhaps to be used in another calculation)
Total thermal correction                  0.00785450 Eh       4.93 kcal/mol
Non-thermal (ZPE) correction              0.17034067 Eh     106.89 kcal/mol
-----------------------------------------------------------------------
Total correction                          0.17819517 Eh     111.82 kcal/mol

--------
ENTHALPY
--------

The enthalpy is H = U + kB*T
                kB is Boltzmann's constant
Total free energy                 ...   -288.98365207 Eh
Thermal Enthalpy correction       ...      0.00094421 Eh       0.59 kcal/mol
-----------------------------------------------------------------------
Total Enthalpy                    ...   -288.98270786 Eh

-------
ENTROPY
-------

The entropy contributions are T*S = T*(S(el)+S(vib)+S(rot)+S(trans)
     S(el)   - electronic entropy
     S(vib)  - vibrational entropy
     S(rot)  - rotational entropy
     S(trans)- translational entropy
The entropies will be listed as mutliplied by the temperature to get
units of energy

Electronic entropy                ...      0.00000000 Eh      0.00 kcal/mol
Vibrational entropy               ...      0.00927534 Eh      5.82 kcal/mol
Rotational entropy                ...      0.01187376 Eh      7.45 kcal/mol
Translational entropy             ...      0.01872432 Eh     11.75 kcal/mol
-----------------------------------------------------------------------
Final entropy term                ...      0.03987341 Eh     25.02 kcal/mol

CAUTION: The rotational entropy is not quite correctly treated here
         because it includes a symmetry number that is not yet correctly
         implemented in ORCA!
For a nonlinear molecule the correct rotational entropy is:
    S(rot) = R*(ln(qrot/sn)+1.5)
    R    = 8.31441 J/mol/K = 1.987191683e-3 kcal/mol/K
    qrot = 193752.4597361
    sn is the rotational symmetry number. We have assumed 3 here
       if it is different for your molecule then you should correct
       the printed rotational entropy by manually evaluating the equation
       as given above

For convenience we print out the resulting values for sn=1 - 12:
 sn= 1  qrot/sn=  193752.4597 T*S(rot)=     8.10 kcal/mol T*S(tot)=    25.67 kcal/mol
 sn= 2  qrot/sn=   96876.2299 T*S(rot)=     7.69 kcal/mol T*S(tot)=    25.26 kcal/mol
 sn= 3  qrot/sn=   64584.1532 T*S(rot)=     7.45 kcal/mol T*S(tot)=    25.02 kcal/mol
 sn= 4  qrot/sn=   48438.1149 T*S(rot)=     7.28 kcal/mol T*S(tot)=    24.85 kcal/mol
 sn= 5  qrot/sn=   38750.4919 T*S(rot)=     7.15 kcal/mol T*S(tot)=    24.72 kcal/mol
 sn= 6  qrot/sn=   32292.0766 T*S(rot)=     7.04 kcal/mol T*S(tot)=    24.61 kcal/mol
 sn= 7  qrot/sn=   27678.9228 T*S(rot)=     6.95 kcal/mol T*S(tot)=    24.52 kcal/mol
 sn= 8  qrot/sn=   24219.0575 T*S(rot)=     6.87 kcal/mol T*S(tot)=    24.44 kcal/mol
 sn= 9  qrot/sn=   21528.0511 T*S(rot)=     6.80 kcal/mol T*S(tot)=    24.37 kcal/mol
 sn=10  qrot/sn=   19375.2460 T*S(rot)=     6.74 kcal/mol T*S(tot)=    24.31 kcal/mol
 sn=11  qrot/sn=   17613.8600 T*S(rot)=     6.68 kcal/mol T*S(tot)=    24.25 kcal/mol
 sn=12  qrot/sn=   16146.0383 T*S(rot)=     6.63 kcal/mol T*S(tot)=    24.20 kcal/mol

-------------------
GIBBS FREE ENTHALPY
-------------------

The Gibbs free enthalpy is G = H - T*S

Total enthalpy                    ...   -288.98270786 Eh
Total entropy correction          ...     -0.03987341 Eh    -25.02 kcal/mol
-----------------------------------------------------------------------
Final Gibbs free enthalpy         ...   -289.02258128 Eh

For completeness - the Gibbs free enthalpy minus the electronic energy
G-E(el)                           ...      0.13926596 Eh     87.39 kcal/mol

                             ****ORCA TERMINATED NORMALLY****
TOTAL RUN TIME: 0 days 0 hours 27 minutes 29 seconds 26 msec
