                         Program Version 3.0.3 - RELEASE   -
|  1> ! NORI PBE0 def2-TZVP UseSym TightOPT Freq TightSCF Grid3 FinalGrid5 XYZFile
|  2> % pal
|  3>     nprocs 8
|  4> end
|  5> %method
|  6>     SymThresh 5.0e-2
|  7> end
|  8> % geom
|  9>     MaxIter 10
| 10> end
| 11> % maxcore 2000
| 12> % output
| 13>     printlevel mini
| 14>     print[ P_Basis ] 0
| 15>     print[ P_SCFInfo ] 1
| 16>     print[ P_SCFIterInfo ] 1
| 17>     print[ P_OrbEn ] 0
| 18>     print[ P_Cartesian ] 0
| 19> end
| 20> % elprop
| 21>     Dipole false
| 22> end
| 23> *xyz 1 1
| 24>  C        1.0910741454    -0.0247904981    -0.3192189449
| 25>  C        2.5556282469     0.1130797634     0.0253166562
| 26>  N        2.8557022476     1.5529679490     0.3834858882
| 27>  C        3.0087737755    -0.7634430059     1.1831640653
| 28>  C        4.5059348212    -0.7631067522     1.4185904561
| 29>  O        4.9172948118     0.5856907931     1.6529132584
| 30>  H        0.7960496575     0.6553119917    -1.1218827594
| 31>  H        0.4575897459     0.1637492496     0.5521298558
| 32>  H        0.8884578270    -1.0400614551    -0.6608458507
| 33>  H        3.1760472296    -0.0886756679    -0.8530552876
| 34>  H        2.1960678202     1.8933175285     1.0846164817
| 35>  H        2.7973294935     2.1681527759    -0.4269678996
| 36>  H        3.8121786418     1.5698876379     0.8038967731
| 37>  H        2.6958551977    -1.7878720200     0.9678402937
| 38>  H        2.4844382142    -0.4670676731     2.0991013591
| 39>  H        5.0312185236    -1.1700406578     0.5468807538
| 40>  H        4.7419873751    -1.3864441000     2.2849653033
| 41>  H        5.8514522253     0.6229241411     1.8769295974
| 42> *
| 43>
| 44>                          ****END OF INPUT****
 Total Charge           Charge          ....    1
 Multiplicity           Mult            ....    1
 Number of Electrons    NEL             ....   50
FINAL SINGLE POINT ENERGY      -289.175169222052
FINAL SINGLE POINT ENERGY      -289.175170326835
FINAL SINGLE POINT ENERGY      -289.175170526587

CARTESIAN COORDINATES (ANGSTROEM)
---------------------------------
  C      0.301261    0.079726   -2.342890
  C      0.172530   -0.316301   -0.890385
  N      1.461816    0.001820   -0.163190
  C     -0.964113    0.376997   -0.153507
  C     -1.210795   -0.144038    1.248347
  O      0.000242   -0.001043    1.994831
  H      1.156327   -0.402556   -2.822370
  H      0.401308    1.163207   -2.452542
  H     -0.592907   -0.226677   -2.886348
  H      0.063188   -1.400878   -0.798227
  H      1.746707    0.965739   -0.342438
  H      2.224483   -0.609623   -0.451659
  H      1.266574   -0.093330    0.859237
  H     -1.876143    0.234437   -0.737691
  H     -0.781742    1.457684   -0.126176
  H     -1.510787   -1.197672    1.218261
  H     -2.013642    0.429616    1.718091
  H     -0.130251   -0.265195    2.910028

FINAL SINGLE POINT ENERGY      -289.175171491758
                    ***********************HURRAY********************
 Multiplicity           Mult            ....    1
 Number of Electrons    NEL             ....   50
 Basis Dimension        Dim             ....  258
FINAL SINGLE POINT ENERGY      -289.175171661324

VIBRATIONAL FREQUENCIES
-----------------------

   0:         0.00 cm**-1
   1:         0.00 cm**-1
   2:         0.00 cm**-1
   3:         0.00 cm**-1
   4:         0.00 cm**-1
   5:         0.00 cm**-1
   6:        91.29 cm**-1
   7:       224.59 cm**-1
   8:       240.61 cm**-1
   9:       280.19 cm**-1
  10:       317.23 cm**-1
  11:       328.12 cm**-1
  12:       354.05 cm**-1
  13:       389.92 cm**-1
  14:       444.15 cm**-1
  15:       535.54 cm**-1
  16:       797.56 cm**-1
  17:       853.23 cm**-1
  18:       891.34 cm**-1
  19:       968.24 cm**-1
  20:       976.81 cm**-1
  21:      1003.37 cm**-1
  22:      1028.03 cm**-1
  23:      1087.37 cm**-1
  24:      1122.03 cm**-1
  25:      1186.79 cm**-1
  26:      1221.87 cm**-1
  27:      1229.29 cm**-1
  28:      1277.17 cm**-1
  29:      1318.61 cm**-1
  30:      1338.75 cm**-1
  31:      1398.45 cm**-1
  32:      1415.34 cm**-1
  33:      1423.45 cm**-1
  34:      1444.35 cm**-1
  35:      1463.24 cm**-1
  36:      1484.25 cm**-1
  37:      1490.87 cm**-1
  38:      1507.38 cm**-1
  39:      1519.99 cm**-1
  40:      1641.66 cm**-1
  41:      1671.66 cm**-1
  42:      3041.35 cm**-1
  43:      3053.49 cm**-1
  44:      3055.49 cm**-1
  45:      3066.25 cm**-1
  46:      3085.05 cm**-1
  47:      3105.89 cm**-1
  48:      3122.87 cm**-1
  49:      3132.45 cm**-1
  50:      3154.79 cm**-1
  51:      3468.86 cm**-1
  52:      3534.17 cm**-1
  53:      3863.54 cm**-1

IR SPECTRUM
-----------

 Mode    freq (cm**-1)   T**2         TX         TY         TZ
-------------------------------------------------------------------
   6:        91.29    6.649306  (  0.130826   2.559228  -0.287304)
   7:       224.59   11.023745  ( -1.354382   2.321095   1.949849)
   8:       240.61    6.268084  ( -1.455592   1.374599   1.503267)
   9:       280.19   22.349114  ( -2.772988  -3.077979   2.277212)
  10:       317.23    9.677471  ( -0.262123  -1.040850  -2.919828)
  11:       328.12   92.474666  (  1.285141  -9.209910  -2.449621)
  12:       354.05   15.855454  ( -0.154051   3.069518  -2.531754)
  13:       389.92   46.346368  (  3.790800  -3.080931  -4.741737)
  14:       444.15    5.374270  ( -1.605534   1.554726   0.615922)
  15:       535.54   17.144556  ( -0.667800   0.315361  -4.074205)
  16:       797.56    2.184258  ( -0.693534   1.105792  -0.693176)
  17:       853.23   15.612465  (  1.386075   0.398969   3.678598)
  18:       891.34    0.211314  (  0.376640   0.118441  -0.235431)
  19:       968.24    9.185463  ( -0.041148  -0.394204   3.004725)
  20:       976.81    4.299946  ( -1.437993  -0.376153   1.445902)
  21:      1003.37   15.883629  (  3.091647  -0.854720   2.365333)
  22:      1028.03   24.476343  (  1.067625  -0.472592  -4.807616)
  23:      1087.37   23.128122  ( -4.632964   0.614720  -1.133971)
  24:      1122.03   35.811013  ( -4.672517  -1.159951  -3.554309)
  25:      1186.79    7.587920  ( -2.284684   1.446666  -0.524686)
  26:      1221.87   46.244898  ( -5.453483  -2.638840  -3.088841)
  27:      1229.29   39.581397  ( -0.260441   0.640414   6.253274)
  28:      1277.17    3.220242  ( -0.107805   0.492666   1.722179)
  29:      1318.61   28.606935  (  5.334893   0.139798   0.355395)
  30:      1338.75    1.480656  (  0.301366   0.220101   1.158184)
  31:      1398.45   11.545389  (  1.689057  -1.245810   2.672159)
  32:      1415.34    8.416315  ( -1.926290   0.790894   2.019953)
  33:      1423.45   26.664930  (  3.150922  -1.044997   3.955326)
  34:      1444.35    8.333976  (  2.245584  -0.409259   1.767438)
  35:      1463.24    8.677252  (  1.190355  -2.511080   0.977131)
  36:      1484.25   10.394107  ( -2.432799  -1.971951  -0.766164)
  37:      1490.87   13.999071  ( -2.711060   2.560323   0.306545)
  38:      1507.38  123.059301  (-10.965092  -1.611832  -0.477549)
  39:      1519.99   62.684190  ( -7.295213  -2.612230   1.624905)
  40:      1641.66   21.814428  (  0.638181  -4.625118  -0.124234)
  41:      1671.66   38.733209  ( -3.677926   3.703766   3.389423)
  42:      3041.35   49.598488  ( -5.037262  -2.470182   4.257074)
  43:      3053.49   15.851434  ( -2.431931  -2.079281   2.369332)
  44:      3055.49    6.447638  ( -1.959043  -1.405134   0.797111)
  45:      3066.25  486.806793  (  8.124781   0.253303 -20.511718)
  46:      3085.05   13.244414  (  1.513823   1.654924  -2.866004)
  47:      3105.89    9.543566  ( -1.612711   2.559620   0.625358)
  48:      3122.87    1.670637  ( -0.492088  -1.194248   0.047528)
  49:      3132.45    8.302698  (  1.093572  -2.503338  -0.916568)
  50:      3154.79    2.757500  (  1.179928   0.542525  -1.034861)
  51:      3468.86   69.059335  (  6.797821   2.824919  -3.856008)
  52:      3534.17   73.142125  ( -3.887495   7.532274   1.137695)
  53:      3863.54  121.223579  (  0.387451  -2.198504  10.781467)

--------------------------
THERMOCHEMISTRY AT 298.15K
--------------------------

Temperature         ... 298.15 K
Pressure            ... 1.00 atm
Total Mass          ... 90.15 AMU

Throughout the following assumptions are being made:
  (1) The electronic state is orbitally nondegenerate
  (2) There are no thermally accessible electronically excited states
  (3) Hindered rotations indicated by low frequency modes) are not
      treated as such but are treated as vibrations and this may
      case some error
  (4) All equations used are the standard statistical mechanics
      equations for an ideal gas
  (5) All vibrations are strinctly harmonic

------------
INNER ENERGY
------------

The inner energy is: U= E(el) + E(ZPE) + E(vib) + E(rot) + E(trans)
    E(el)   - is the total energy from the electronic structure calculation
              = E(kin-el) + E(nuc-el) + E(el-el) + E(nuc-nuc)
    E(ZPE)  - the the zero temperature vibrational energy from the frequency calculation
    E(vib)  - the the finite temperature correction to E(ZPE) due to population
              of excietd vibrational states
    E(rot)  - is the rotational thermal energy
    E(trans)- is the translational thermal energy

Summary of contributions to the inner energy U:
Electronic energy                ...   -289.17517166 Eh
Zero point energy                ...      0.17006743 Eh     106.72 kcal/mol
Thermal vibrational correction   ...      0.00468719 Eh       2.94 kcal/mol
Thermal rotational correction    ...      0.00141627 Eh       0.89 kcal/mol
Thermal translational correction ...      0.00141627 Eh       0.89 kcal/mol
-----------------------------------------------------------------------
Total thermal energy                   -288.99758450 Eh

Summary of corrections to the electronic energy:
(perhaps to be used in another calculation)
Total thermal correction                  0.00751973 Eh       4.72 kcal/mol
Non-thermal (ZPE) correction              0.17006743 Eh     106.72 kcal/mol
-----------------------------------------------------------------------
Total correction                          0.17758716 Eh     111.44 kcal/mol

--------
ENTHALPY
--------

The enthalpy is H = U + kB*T
                kB is Boltzmann's constant
Total free energy                 ...   -288.99758450 Eh
Thermal Enthalpy correction       ...      0.00094421 Eh       0.59 kcal/mol
-----------------------------------------------------------------------
Total Enthalpy                    ...   -288.99664029 Eh

-------
ENTROPY
-------

The entropy contributions are T*S = T*(S(el)+S(vib)+S(rot)+S(trans)
     S(el)   - electronic entropy
     S(vib)  - vibrational entropy
     S(rot)  - rotational entropy
     S(trans)- translational entropy
The entropies will be listed as mutliplied by the temperature to get
units of energy

Electronic entropy                ...      0.00000000 Eh      0.00 kcal/mol
Vibrational entropy               ...      0.00778324 Eh      4.88 kcal/mol
Rotational entropy                ...      0.01176193 Eh      7.38 kcal/mol
Translational entropy             ...      0.01872432 Eh     11.75 kcal/mol
-----------------------------------------------------------------------
Final entropy term                ...      0.03826950 Eh     24.01 kcal/mol

CAUTION: The rotational entropy is not quite correctly treated here
         because it includes a symmetry number that is not yet correctly
         implemented in ORCA!
For a nonlinear molecule the correct rotational entropy is:
    S(rot) = R*(ln(qrot/sn)+1.5)
    R    = 8.31441 J/mol/K = 1.987191683e-3 kcal/mol/K
    qrot = 172111.7294469
    sn is the rotational symmetry number. We have assumed 3 here
       if it is different for your molecule then you should correct
       the printed rotational entropy by manually evaluating the equation
       as given above

For convenience we print out the resulting values for sn=1 - 12:
 sn= 1  qrot/sn=  172111.7294 T*S(rot)=     8.03 kcal/mol T*S(tot)=    24.67 kcal/mol
 sn= 2  qrot/sn=   86055.8647 T*S(rot)=     7.62 kcal/mol T*S(tot)=    24.25 kcal/mol
 sn= 3  qrot/sn=   57370.5765 T*S(rot)=     7.38 kcal/mol T*S(tot)=    24.01 kcal/mol
 sn= 4  qrot/sn=   43027.9324 T*S(rot)=     7.21 kcal/mol T*S(tot)=    23.84 kcal/mol
 sn= 5  qrot/sn=   34422.3459 T*S(rot)=     7.08 kcal/mol T*S(tot)=    23.71 kcal/mol
 sn= 6  qrot/sn=   28685.2882 T*S(rot)=     6.97 kcal/mol T*S(tot)=    23.60 kcal/mol
 sn= 7  qrot/sn=   24587.3899 T*S(rot)=     6.88 kcal/mol T*S(tot)=    23.51 kcal/mol
 sn= 8  qrot/sn=   21513.9662 T*S(rot)=     6.80 kcal/mol T*S(tot)=    23.43 kcal/mol
 sn= 9  qrot/sn=   19123.5255 T*S(rot)=     6.73 kcal/mol T*S(tot)=    23.36 kcal/mol
 sn=10  qrot/sn=   17211.1729 T*S(rot)=     6.67 kcal/mol T*S(tot)=    23.30 kcal/mol
 sn=11  qrot/sn=   15646.5209 T*S(rot)=     6.61 kcal/mol T*S(tot)=    23.24 kcal/mol
 sn=12  qrot/sn=   14342.6441 T*S(rot)=     6.56 kcal/mol T*S(tot)=    23.19 kcal/mol

-------------------
GIBBS FREE ENTHALPY
-------------------

The Gibbs free enthalpy is G = H - T*S

Total enthalpy                    ...   -288.99664029 Eh
Total entropy correction          ...     -0.03826950 Eh    -24.01 kcal/mol
-----------------------------------------------------------------------
Final Gibbs free enthalpy         ...   -289.03490979 Eh

For completeness - the Gibbs free enthalpy minus the electronic energy
G-E(el)                           ...      0.14026187 Eh     88.02 kcal/mol

                             ****ORCA TERMINATED NORMALLY****
TOTAL RUN TIME: 0 days 0 hours 29 minutes 40 seconds 945 msec
