                         Program Version 3.0.3 - RELEASE   -
|  1> ! NORI PBE0 def2-TZVP UseSym TightOPT Freq TightSCF Grid3 FinalGrid5 XYZFile
|  2> % pal
|  3>     nprocs 8
|  4> end
|  5> %method
|  6>     SymThresh 5.0e-2
|  7> end
|  8> % geom
|  9>     MaxIter 10
| 10> end
| 11> % maxcore 2000
| 12> % output
| 13>     printlevel mini
| 14>     print[ P_Basis ] 0
| 15>     print[ P_SCFInfo ] 1
| 16>     print[ P_SCFIterInfo ] 1
| 17>     print[ P_OrbEn ] 0
| 18>     print[ P_Cartesian ] 0
| 19> end
| 20> % elprop
| 21>     Dipole false
| 22> end
| 23> *xyz 1 1
| 24>  C        1.0293551020    -0.0919836980    -0.0825578211
| 25>  C        2.5354363201    -0.1197350177     0.0418225100
| 26>  N        3.1055639679     1.0289245044    -0.7607030577
| 27>  C        3.0384371362     0.0822055605     1.4752250960
| 28>  C        4.4963718745    -0.2780270296     1.6724370967
| 29>  O        2.7785499014     1.4534778327     1.7321797129
| 30>  H        0.7078976216    -0.1879436818    -1.1224567113
| 31>  H        0.6129143339     0.8235246692     0.3422291360
| 32>  H        0.6093013056    -0.9370938052     0.4637157610
| 33>  H        2.9484149114    -1.0374091693    -0.3798264926
| 34>  H        3.0055097857     1.8633686129    -0.1617910769
| 35>  H        2.6034536623     1.1655539908    -1.6371736079
| 36>  H        4.0963304914     0.9061925987    -0.9690632943
| 37>  H        2.4144676068    -0.5504871794     2.1163848852
| 38>  H        5.1634083629     0.3292289937     1.0535909025
| 39>  H        4.6711999664    -1.3325369615     1.4476350255
| 40>  H        4.7890489149    -0.1154591149     2.7118115218
| 41>  H        3.0369987349     1.6901088945     2.6275404141
| 42> *
| 43>
| 44>                          ****END OF INPUT****
 Total Charge           Charge          ....    1
 Multiplicity           Mult            ....    1
 Number of Electrons    NEL             ....   50
FINAL SINGLE POINT ENERGY      -289.169522253636
FINAL SINGLE POINT ENERGY      -289.169523290776

CARTESIAN COORDINATES (ANGSTROEM)
---------------------------------
  C     -0.105588    1.856141   -0.800898
  C      0.032297    0.350713   -0.796978
  N      1.486788    0.000083   -0.573137
  C     -0.740702   -0.334548    0.335471
  C     -0.897125   -1.830456    0.157142
  O      0.000308   -0.001140    1.498387
  H      0.496360    2.315427   -1.588876
  H      0.174887    2.282553    0.164186
  H     -1.145903    2.119156   -0.994948
  H     -0.251619   -0.073586   -1.761344
  H      1.641107    0.086992    0.443400
  H      2.111360    0.629756   -1.076187
  H      1.702887   -0.958911   -0.844881
  H     -1.730107    0.136171    0.366198
  H      0.066032   -2.348975    0.121382
  H     -1.452682   -2.058190   -0.755004
  H     -1.457325   -2.254704    0.992689
  H     -0.414677   -0.364768    2.285829

FINAL SINGLE POINT ENERGY      -289.169523834715
                    ***********************HURRAY********************
 Multiplicity           Mult            ....    1
 Number of Electrons    NEL             ....   50
 Basis Dimension        Dim             ....  258
FINAL SINGLE POINT ENERGY      -289.169524101443

VIBRATIONAL FREQUENCIES
-----------------------

   0:         0.00 cm**-1
   1:         0.00 cm**-1
   2:         0.00 cm**-1
   3:         0.00 cm**-1
   4:         0.00 cm**-1
   5:         0.00 cm**-1
   6:       102.63 cm**-1
   7:       198.69 cm**-1
   8:       228.34 cm**-1
   9:       237.13 cm**-1
  10:       256.20 cm**-1
  11:       287.00 cm**-1
  12:       329.03 cm**-1
  13:       344.48 cm**-1
  14:       411.81 cm**-1
  15:       506.44 cm**-1
  16:       636.13 cm**-1
  17:       773.02 cm**-1
  18:       870.46 cm**-1
  19:       939.93 cm**-1
  20:       955.48 cm**-1
  21:       975.79 cm**-1
  22:      1020.80 cm**-1
  23:      1057.48 cm**-1
  24:      1078.82 cm**-1
  25:      1147.95 cm**-1
  26:      1178.56 cm**-1
  27:      1219.84 cm**-1
  28:      1245.47 cm**-1
  29:      1339.45 cm**-1
  30:      1372.14 cm**-1
  31:      1385.04 cm**-1
  32:      1411.19 cm**-1
  33:      1419.00 cm**-1
  34:      1422.40 cm**-1
  35:      1465.87 cm**-1
  36:      1482.37 cm**-1
  37:      1484.90 cm**-1
  38:      1494.40 cm**-1
  39:      1496.56 cm**-1
  40:      1633.82 cm**-1
  41:      1664.94 cm**-1
  42:      3047.49 cm**-1
  43:      3056.48 cm**-1
  44:      3062.58 cm**-1
  45:      3117.44 cm**-1
  46:      3125.86 cm**-1
  47:      3141.90 cm**-1
  48:      3143.40 cm**-1
  49:      3158.20 cm**-1
  50:      3322.21 cm**-1
  51:      3484.67 cm**-1
  52:      3537.66 cm**-1
  53:      3864.48 cm**-1

IR SPECTRUM
-----------

 Mode    freq (cm**-1)   T**2         TX         TY         TZ
-------------------------------------------------------------------
   6:       102.63    8.388516  (  0.032364  -2.429232  -1.576801)
   7:       198.69   12.834442  (  0.694594  -3.495778   0.362653)
   8:       228.34    0.757391  ( -0.834196  -0.169241   0.181286)
   9:       237.13    2.432249  (  1.094404   0.400991  -1.036212)
  10:       256.20    8.748117  ( -0.843461  -2.813111  -0.350851)
  11:       287.00  100.941148  (  5.293399  -7.977546  -3.046283)
  12:       329.03   34.112644  (  1.609222   3.499740  -4.390315)
  13:       344.48   19.880519  (  2.625503  -2.655903  -2.435864)
  14:       411.81    2.116246  (  0.054713  -0.099712   1.450279)
  15:       506.44    3.874086  ( -0.408059   1.925158   0.036606)
  16:       636.13    8.953893  ( -2.700157  -0.608326  -1.137096)
  17:       773.02    2.160601  ( -0.218468   0.275078   1.427307)
  18:       870.46    2.836792  ( -0.634578   1.354720   0.773846)
  19:       939.93   22.613547  ( -1.481339  -1.390035  -4.299650)
  20:       955.48   10.904738  ( -2.148774   2.439769  -0.578822)
  21:       975.79   10.258002  ( -2.253746  -0.953977   2.066049)
  22:      1020.80   12.993061  ( -1.419538  -0.018436   3.313251)
  23:      1057.48   80.709648  ( -1.858926   0.139629  -8.788319)
  24:      1078.82   14.966003  ( -1.675453   1.764640  -3.007475)
  25:      1147.95    1.755694  ( -0.366733  -1.169052  -0.504498)
  26:      1178.56   30.849433  ( -4.108551  -2.236532  -2.994523)
  27:      1219.84   31.877333  ( -3.160663  -4.161901  -2.136849)
  28:      1245.47   24.671741  ( -3.273384  -3.203423  -1.922180)
  29:      1339.45    1.096761  (  0.437762   0.892927  -0.328339)
  30:      1372.14    2.350423  (  1.171345  -0.010074   0.989076)
  31:      1385.04   14.012523  (  0.795180   1.592551   3.293022)
  32:      1411.19    2.324801  ( -0.555788   0.364697   1.372187)
  33:      1419.00   36.260127  (  1.635244  -5.651471  -1.283347)
  34:      1422.40   12.278208  (  3.322625  -0.132469   1.104909)
  35:      1465.87  143.087408  ( 11.881774  -0.170350  -1.371804)
  36:      1482.37   16.669672  ( -3.078965  -0.213961  -2.672802)
  37:      1484.90   10.158358  ( -2.243818  -0.203668  -2.254364)
  38:      1494.40   58.205655  ( -7.339513   1.093255  -1.772566)
  39:      1496.56    8.635362  ( -2.876066  -0.291964   0.527604)
  40:      1633.82   35.584045  ( -1.074193   4.767356   3.420888)
  41:      1664.94   47.117900  (  3.174333   3.683240  -4.845127)
  42:      3047.49    2.920350  (  1.117446  -0.914457  -0.914020)
  43:      3056.48   12.978486  (  2.945191  -1.833934   0.970062)
  44:      3062.58    2.925610  ( -0.991924  -1.053112   0.912498)
  45:      3117.44    1.813912  ( -0.070933  -1.236652  -0.528745)
  46:      3125.86   12.372082  ( -3.460900   0.609828   0.149536)
  47:      3141.90    0.865648  (  0.915166   0.074428   0.150264)
  48:      3143.40    6.036768  (  0.317806   0.564104  -2.370138)
  49:      3158.20    0.977181  (  0.497893   0.666184   0.534305)
  50:      3322.21  104.107950  (  0.293247  -0.672133  10.176944)
  51:      3484.67   89.568978  ( -5.729591   1.841493   7.304086)
  52:      3537.66   83.440369  (  2.882157   8.512234  -1.635671)
  53:      3864.48  109.444319  ( -2.548757  -2.167670   9.912082)

--------------------------
THERMOCHEMISTRY AT 298.15K
--------------------------

Temperature         ... 298.15 K
Pressure            ... 1.00 atm
Total Mass          ... 90.15 AMU

Throughout the following assumptions are being made:
  (1) The electronic state is orbitally nondegenerate
  (2) There are no thermally accessible electronically excited states
  (3) Hindered rotations indicated by low frequency modes) are not
      treated as such but are treated as vibrations and this may
      case some error
  (4) All equations used are the standard statistical mechanics
      equations for an ideal gas
  (5) All vibrations are strinctly harmonic

------------
INNER ENERGY
------------

The inner energy is: U= E(el) + E(ZPE) + E(vib) + E(rot) + E(trans)
    E(el)   - is the total energy from the electronic structure calculation
              = E(kin-el) + E(nuc-el) + E(el-el) + E(nuc-nuc)
    E(ZPE)  - the the zero temperature vibrational energy from the frequency calculation
    E(vib)  - the the finite temperature correction to E(ZPE) due to population
              of excietd vibrational states
    E(rot)  - is the rotational thermal energy
    E(trans)- is the translational thermal energy

Summary of contributions to the inner energy U:
Electronic energy                ...   -289.16952410 Eh
Zero point energy                ...      0.16889410 Eh     105.98 kcal/mol
Thermal vibrational correction   ...      0.00515505 Eh       3.23 kcal/mol
Thermal rotational correction    ...      0.00141627 Eh       0.89 kcal/mol
Thermal translational correction ...      0.00141627 Eh       0.89 kcal/mol
-----------------------------------------------------------------------
Total thermal energy                   -288.99264241 Eh

Summary of corrections to the electronic energy:
(perhaps to be used in another calculation)
Total thermal correction                  0.00798759 Eh       5.01 kcal/mol
Non-thermal (ZPE) correction              0.16889410 Eh     105.98 kcal/mol
-----------------------------------------------------------------------
Total correction                          0.17688169 Eh     110.99 kcal/mol

--------
ENTHALPY
--------

The enthalpy is H = U + kB*T
                kB is Boltzmann's constant
Total free energy                 ...   -288.99264241 Eh
Thermal Enthalpy correction       ...      0.00094421 Eh       0.59 kcal/mol
-----------------------------------------------------------------------
Total Enthalpy                    ...   -288.99169820 Eh

-------
ENTROPY
-------

The entropy contributions are T*S = T*(S(el)+S(vib)+S(rot)+S(trans)
     S(el)   - electronic entropy
     S(vib)  - vibrational entropy
     S(rot)  - rotational entropy
     S(trans)- translational entropy
The entropies will be listed as mutliplied by the temperature to get
units of energy

Electronic entropy                ...      0.00000000 Eh      0.00 kcal/mol
Vibrational entropy               ...      0.00862897 Eh      5.41 kcal/mol
Rotational entropy                ...      0.01169712 Eh      7.34 kcal/mol
Translational entropy             ...      0.01872432 Eh     11.75 kcal/mol
-----------------------------------------------------------------------
Final entropy term                ...      0.03905041 Eh     24.50 kcal/mol

CAUTION: The rotational entropy is not quite correctly treated here
         because it includes a symmetry number that is not yet correctly
         implemented in ORCA!
For a nonlinear molecule the correct rotational entropy is:
    S(rot) = R*(ln(qrot/sn)+1.5)
    R    = 8.31441 J/mol/K = 1.987191683e-3 kcal/mol/K
    qrot = 160694.3428328
    sn is the rotational symmetry number. We have assumed 3 here
       if it is different for your molecule then you should correct
       the printed rotational entropy by manually evaluating the equation
       as given above

For convenience we print out the resulting values for sn=1 - 12:
 sn= 1  qrot/sn=  160694.3428 T*S(rot)=     7.99 kcal/mol T*S(tot)=    25.16 kcal/mol
 sn= 2  qrot/sn=   80347.1714 T*S(rot)=     7.58 kcal/mol T*S(tot)=    24.74 kcal/mol
 sn= 3  qrot/sn=   53564.7809 T*S(rot)=     7.34 kcal/mol T*S(tot)=    24.50 kcal/mol
 sn= 4  qrot/sn=   40173.5857 T*S(rot)=     7.17 kcal/mol T*S(tot)=    24.33 kcal/mol
 sn= 5  qrot/sn=   32138.8686 T*S(rot)=     7.04 kcal/mol T*S(tot)=    24.20 kcal/mol
 sn= 6  qrot/sn=   26782.3905 T*S(rot)=     6.93 kcal/mol T*S(tot)=    24.09 kcal/mol
 sn= 7  qrot/sn=   22956.3347 T*S(rot)=     6.84 kcal/mol T*S(tot)=    24.00 kcal/mol
 sn= 8  qrot/sn=   20086.7929 T*S(rot)=     6.76 kcal/mol T*S(tot)=    23.92 kcal/mol
 sn= 9  qrot/sn=   17854.9270 T*S(rot)=     6.69 kcal/mol T*S(tot)=    23.85 kcal/mol
 sn=10  qrot/sn=   16069.4343 T*S(rot)=     6.63 kcal/mol T*S(tot)=    23.79 kcal/mol
 sn=11  qrot/sn=   14608.5766 T*S(rot)=     6.57 kcal/mol T*S(tot)=    23.73 kcal/mol
 sn=12  qrot/sn=   13391.1952 T*S(rot)=     6.52 kcal/mol T*S(tot)=    23.68 kcal/mol

-------------------
GIBBS FREE ENTHALPY
-------------------

The Gibbs free enthalpy is G = H - T*S

Total enthalpy                    ...   -288.99169820 Eh
Total entropy correction          ...     -0.03905041 Eh    -24.50 kcal/mol
-----------------------------------------------------------------------
Final Gibbs free enthalpy         ...   -289.03074861 Eh

For completeness - the Gibbs free enthalpy minus the electronic energy
G-E(el)                           ...      0.13877549 Eh     87.08 kcal/mol

                             ****ORCA TERMINATED NORMALLY****
TOTAL RUN TIME: 0 days 0 hours 29 minutes 37 seconds 911 msec
