                         Program Version 3.0.3 - RELEASE   -
|  1> ! NORI PBE0 def2-TZVP UseSym TightOPT Freq TightSCF Grid3 FinalGrid5 XYZFile
|  2> % pal
|  3>     nprocs 8
|  4> end
|  5> %method
|  6>     SymThresh 5.0e-2
|  7> end
|  8> % geom
|  9>     MaxIter 10
| 10> end
| 11> % maxcore 2000
| 12> % output
| 13>     printlevel mini
| 14>     print[ P_Basis ] 0
| 15>     print[ P_SCFInfo ] 1
| 16>     print[ P_SCFIterInfo ] 1
| 17>     print[ P_OrbEn ] 0
| 18>     print[ P_Cartesian ] 0
| 19> end
| 20> % elprop
| 21>     Dipole false
| 22> end
| 23> *xyz 1 1
| 24>  C        2.2568242625    -1.3512970424    -0.6090028183
| 25>  C        2.7272183177     0.0275493899    -0.3426076090
| 26>  O        2.6550634426     0.9627480521    -1.0975866883
| 27>  C        3.3953418511     0.2994079615     1.0035091362
| 28>  C        4.7739828898     0.8373990682     0.9531431246
| 29>  N        3.6326711518     1.7436168430     1.1505502432
| 30>  H        1.8968921181    -1.4352623422    -1.6319673158
| 31>  H        1.4512250281    -1.6028326483     0.0893755278
| 32>  H        3.0636737631    -2.0692816404    -0.4294068637
| 33>  H        3.0640793455    -0.2179669235     1.8957692205
| 34>  H        5.2543481523     0.9480891862    -0.0117831081
| 35>  H        5.4192720845     0.7245813147     1.8151171618
| 36>  H        3.4933981326     2.1957830877     2.0476872016
| 37>  H        3.3096894603     2.2426356935     0.3096827875
| 38> *
| 39>
| 40>                          ****END OF INPUT****
 Total Charge           Charge          ....    1
 Multiplicity           Mult            ....    1
 Number of Electrons    NEL             ....   46
FINAL SINGLE POINT ENERGY      -286.711431641258

CARTESIAN COORDINATES (ANGSTROEM)
---------------------------------
  C     -2.056221   -0.622753    0.421296
  C     -0.620733   -0.264924    0.490331
  O      0.000058   -0.000941    1.487791
  C      0.154663   -0.194608   -0.823380
  C      0.806624    1.099028   -1.130280
  N      1.584987    0.000147   -0.539404
  H     -2.513223   -0.537554    1.404608
  H     -2.158664   -1.649325    0.052806
  H     -2.574394    0.021532   -0.296209
  H     -0.077449   -0.873175   -1.635297
  H      0.651798    1.932458   -0.455771
  H      1.060445    1.335254   -2.155544
  H      2.286049   -0.479822   -1.093150
  H      1.739099    0.060133    0.476905

FINAL SINGLE POINT ENERGY      -286.711432322508
                    ***********************HURRAY********************
 Multiplicity           Mult            ....    1
 Number of Electrons    NEL             ....   46
 Basis Dimension        Dim             ....  234
FINAL SINGLE POINT ENERGY      -286.711432795838

VIBRATIONAL FREQUENCIES
-----------------------

   0:         0.00 cm**-1
   1:         0.00 cm**-1
   2:         0.00 cm**-1
   3:         0.00 cm**-1
   4:         0.00 cm**-1
   5:         0.00 cm**-1
   6:       106.43 cm**-1
   7:       120.43 cm**-1
   8:       252.70 cm**-1
   9:       266.39 cm**-1
  10:       384.67 cm**-1
  11:       592.24 cm**-1
  12:       613.03 cm**-1
  13:       744.56 cm**-1
  14:       867.01 cm**-1
  15:       891.42 cm**-1
  16:       915.92 cm**-1
  17:       926.09 cm**-1
  18:       976.63 cm**-1
  19:      1046.32 cm**-1
  20:      1077.50 cm**-1
  21:      1110.44 cm**-1
  22:      1159.20 cm**-1
  23:      1175.94 cm**-1
  24:      1213.06 cm**-1
  25:      1255.10 cm**-1
  26:      1277.65 cm**-1
  27:      1377.27 cm**-1
  28:      1405.50 cm**-1
  29:      1443.74 cm**-1
  30:      1453.43 cm**-1
  31:      1483.07 cm**-1
  32:      1568.84 cm**-1
  33:      1829.40 cm**-1
  34:      3049.14 cm**-1
  35:      3112.08 cm**-1
  36:      3170.75 cm**-1
  37:      3187.54 cm**-1
  38:      3217.84 cm**-1
  39:      3278.09 cm**-1
  40:      3332.66 cm**-1
  41:      3584.06 cm**-1

IR SPECTRUM
-----------

 Mode    freq (cm**-1)   T**2         TX         TY         TZ
-------------------------------------------------------------------
   6:       106.43    5.621720  ( -0.325959   2.348499   0.004540)
   7:       120.43    0.628724  ( -0.211703   0.763237   0.037072)
   8:       252.70    0.656426  (  0.038250  -0.790400  -0.173870)
   9:       266.39   22.611356  (  2.805782   0.264227  -3.830030)
  10:       384.67   28.329775  (  4.973622   1.382052  -1.297226)
  11:       592.24    1.355588  ( -0.745935  -0.435194   0.780882)
  12:       613.03   11.165787  (  2.674017   0.296712  -1.981762)
  13:       744.56    7.803362  (  1.662594   0.658873  -2.145933)
  14:       867.01    6.842491  (  1.855411  -1.515240   1.050708)
  15:       891.42   14.073870  ( -3.417352  -0.565389   1.440801)
  16:       915.92    4.883290  (  1.149926  -1.461863   1.193279)
  17:       926.09   24.377023  ( -4.841021  -0.368081   0.897806)
  18:       976.63    1.329873  (  0.765281   0.857334   0.095894)
  19:      1046.32   24.659783  ( -2.158774  -4.425162  -0.646080)
  20:      1077.50   59.626154  ( -5.070985  -5.812319  -0.358074)
  21:      1110.44   28.453366  (  4.112650   2.739563  -2.008549)
  22:      1159.20    2.375539  (  0.143384   1.149769  -1.016371)
  23:      1175.94    7.913494  ( -0.693727  -0.207868   2.718277)
  24:      1213.06   84.717333  (  7.600817   2.094363  -4.749586)
  25:      1255.10    3.410140  ( -1.244527  -1.319266  -0.347604)
  26:      1277.65   12.286747  ( -0.037674   1.239027  -3.278741)
  27:      1377.27   18.157501  ( -2.350753   0.228726  -3.546709)
  28:      1405.50   82.214487  ( -7.478232  -4.005723   3.200738)
  29:      1443.74   19.328611  (  2.112269   1.282222   3.636322)
  30:      1453.43   16.619587  ( -2.324664   3.344055   0.181162)
  31:      1483.07   12.110924  ( -1.783936   2.988032  -0.012673)
  32:      1568.84   99.703715  ( -9.158730   2.056306  -3.404848)
  33:      1829.40  110.387954  ( -5.291002  -1.878736  -8.880518)
  34:      3049.14   11.129101  (  3.094938   1.043758  -0.678990)
  35:      3112.08    0.542272  (  0.112867  -0.725570  -0.055510)
  36:      3170.75    3.886088  (  0.064099  -1.965302   0.139883)
  37:      3187.54    1.638864  (  0.367150   0.423896   1.150816)
  38:      3217.84    4.862207  ( -0.402259  -1.289756  -1.742677)
  39:      3278.09   10.587600  ( -0.779286   1.022851   2.988995)
  40:      3332.66  134.640748  ( -1.401622   2.271861 -11.292247)
  41:      3584.06  186.850179  (  9.852805  -4.786801  -8.176733)

--------------------------
THERMOCHEMISTRY AT 298.15K
--------------------------

Temperature         ... 298.15 K
Pressure            ... 1.00 atm
Total Mass          ... 86.11 AMU

Throughout the following assumptions are being made:
  (1) The electronic state is orbitally nondegenerate
  (2) There are no thermally accessible electronically excited states
  (3) Hindered rotations indicated by low frequency modes) are not
      treated as such but are treated as vibrations and this may
      case some error
  (4) All equations used are the standard statistical mechanics
      equations for an ideal gas
  (5) All vibrations are strinctly harmonic

------------
INNER ENERGY
------------

The inner energy is: U= E(el) + E(ZPE) + E(vib) + E(rot) + E(trans)
    E(el)   - is the total energy from the electronic structure calculation
              = E(kin-el) + E(nuc-el) + E(el-el) + E(nuc-nuc)
    E(ZPE)  - the the zero temperature vibrational energy from the frequency calculation
    E(vib)  - the the finite temperature correction to E(ZPE) due to population
              of excietd vibrational states
    E(rot)  - is the rotational thermal energy
    E(trans)- is the translational thermal energy

Summary of contributions to the inner energy U:
Electronic energy                ...   -286.71143280 Eh
Zero point energy                ...      0.12180479 Eh      76.43 kcal/mol
Thermal vibrational correction   ...      0.00355967 Eh       2.23 kcal/mol
Thermal rotational correction    ...      0.00141627 Eh       0.89 kcal/mol
Thermal translational correction ...      0.00141627 Eh       0.89 kcal/mol
-----------------------------------------------------------------------
Total thermal energy                   -286.58323579 Eh

Summary of corrections to the electronic energy:
(perhaps to be used in another calculation)
Total thermal correction                  0.00639221 Eh       4.01 kcal/mol
Non-thermal (ZPE) correction              0.12180479 Eh      76.43 kcal/mol
-----------------------------------------------------------------------
Total correction                          0.12819700 Eh      80.44 kcal/mol

--------
ENTHALPY
--------

The enthalpy is H = U + kB*T
                kB is Boltzmann's constant
Total free energy                 ...   -286.58323579 Eh
Thermal Enthalpy correction       ...      0.00094421 Eh       0.59 kcal/mol
-----------------------------------------------------------------------
Total Enthalpy                    ...   -286.58229159 Eh

-------
ENTROPY
-------

The entropy contributions are T*S = T*(S(el)+S(vib)+S(rot)+S(trans)
     S(el)   - electronic entropy
     S(vib)  - vibrational entropy
     S(rot)  - rotational entropy
     S(trans)- translational entropy
The entropies will be listed as mutliplied by the temperature to get
units of energy

Electronic entropy                ...      0.00000000 Eh      0.00 kcal/mol
Vibrational entropy               ...      0.00621660 Eh      3.90 kcal/mol
Rotational entropy                ...      0.01147898 Eh      7.20 kcal/mol
Translational entropy             ...      0.01865951 Eh     11.71 kcal/mol
-----------------------------------------------------------------------
Final entropy term                ...      0.03635509 Eh     22.81 kcal/mol

CAUTION: The rotational entropy is not quite correctly treated here
         because it includes a symmetry number that is not yet correctly
         implemented in ORCA!
For a nonlinear molecule the correct rotational entropy is:
    S(rot) = R*(ln(qrot/sn)+1.5)
    R    = 8.31441 J/mol/K = 1.987191683e-3 kcal/mol/K
    qrot = 127543.8448908
    sn is the rotational symmetry number. We have assumed 3 here
       if it is different for your molecule then you should correct
       the printed rotational entropy by manually evaluating the equation
       as given above

For convenience we print out the resulting values for sn=1 - 12:
 sn= 1  qrot/sn=  127543.8449 T*S(rot)=     7.85 kcal/mol T*S(tot)=    23.46 kcal/mol
 sn= 2  qrot/sn=   63771.9224 T*S(rot)=     7.44 kcal/mol T*S(tot)=    23.05 kcal/mol
 sn= 3  qrot/sn=   42514.6150 T*S(rot)=     7.20 kcal/mol T*S(tot)=    22.81 kcal/mol
 sn= 4  qrot/sn=   31885.9612 T*S(rot)=     7.03 kcal/mol T*S(tot)=    22.64 kcal/mol
 sn= 5  qrot/sn=   25508.7690 T*S(rot)=     6.90 kcal/mol T*S(tot)=    22.51 kcal/mol
 sn= 6  qrot/sn=   21257.3075 T*S(rot)=     6.79 kcal/mol T*S(tot)=    22.40 kcal/mol
 sn= 7  qrot/sn=   18220.5493 T*S(rot)=     6.70 kcal/mol T*S(tot)=    22.31 kcal/mol
 sn= 8  qrot/sn=   15942.9806 T*S(rot)=     6.62 kcal/mol T*S(tot)=    22.23 kcal/mol
 sn= 9  qrot/sn=   14171.5383 T*S(rot)=     6.55 kcal/mol T*S(tot)=    22.16 kcal/mol
 sn=10  qrot/sn=   12754.3845 T*S(rot)=     6.49 kcal/mol T*S(tot)=    22.10 kcal/mol
 sn=11  qrot/sn=   11594.8950 T*S(rot)=     6.43 kcal/mol T*S(tot)=    22.04 kcal/mol
 sn=12  qrot/sn=   10628.6537 T*S(rot)=     6.38 kcal/mol T*S(tot)=    21.99 kcal/mol

-------------------
GIBBS FREE ENTHALPY
-------------------

The Gibbs free enthalpy is G = H - T*S

Total enthalpy                    ...   -286.58229159 Eh
Total entropy correction          ...     -0.03635509 Eh    -22.81 kcal/mol
-----------------------------------------------------------------------
Final Gibbs free enthalpy         ...   -286.61864668 Eh

For completeness - the Gibbs free enthalpy minus the electronic energy
G-E(el)                           ...      0.09278612 Eh     58.22 kcal/mol

                             ****ORCA TERMINATED NORMALLY****
TOTAL RUN TIME: 0 days 0 hours 20 minutes 0 seconds 696 msec
