                         Program Version 3.0.3 - RELEASE   -
|  1> ! NORI PBE0 def2-TZVP UseSym TightOPT Freq TightSCF Grid3 FinalGrid5 XYZFile
|  2> % pal
|  3>     nprocs 8
|  4> end
|  5> %method
|  6>     SymThresh 5.0e-2
|  7> end
|  8> % geom
|  9>     MaxIter 10
| 10> end
| 11> % maxcore 2000
| 12> % output
| 13>     printlevel mini
| 14>     print[ P_Basis ] 0
| 15>     print[ P_SCFInfo ] 1
| 16>     print[ P_SCFIterInfo ] 1
| 17>     print[ P_OrbEn ] 0
| 18>     print[ P_Cartesian ] 0
| 19> end
| 20> % elprop
| 21>     Dipole false
| 22> end
| 23> *xyz 1 1
| 24>  C        1.0593228439     0.0629289361    -0.3492859011
| 25>  C        2.5692197871     0.0957967351    -0.2490201759
| 26>  O        3.2012698262    -0.7697732321    -1.1707353598
| 27>  C        3.1350467554     1.4614945412    -0.5677419829
| 28>  C        4.5384972946     1.6320243376    -0.9675748577
| 29>  N        3.4784836142     1.6453274994    -2.0025417581
| 30>  H        0.6897031286    -0.9370519878    -0.1143298872
| 31>  H        0.7207775437     0.3217630058    -1.3552619115
| 32>  H        0.6055955929     0.7530352592     0.3649513083
| 33>  H        2.8830496086    -0.1370800010     0.7771751044
| 34>  H        2.8913968734    -1.6721676607    -1.0517694592
| 35>  H        2.6259547093     2.3136611013    -0.1332630354
| 36>  H        5.0221803569     2.5878553190    -0.8152765473
| 37>  H        5.1748382818     0.7587741098    -1.0264263051
| 38>  H        3.3947737716     0.7871018410    -2.5477266514
| 39>  H        3.2506900119     2.5106901959    -2.4771725799
| 40> *
| 41>
| 42>                          ****END OF INPUT****
 Total Charge           Charge          ....    1
 Multiplicity           Mult            ....    1
 Number of Electrons    NEL             ....   48
FINAL SINGLE POINT ENERGY      -287.926527341511

CARTESIAN COORDINATES (ANGSTROEM)
---------------------------------
  C     -1.458736   -1.488645    0.186577
  C     -0.887066   -0.097655    0.360119
  O      0.000304    0.000659    1.456257
  C     -0.061355    0.335013   -0.830719
  C      0.932640    1.411471   -0.719471
  N      1.382153   -0.000215   -0.709231
  H     -2.045166   -1.765227    1.064840
  H     -0.667891   -2.231761    0.058958
  H     -2.126413   -1.531213   -0.676585
  H     -1.700512    0.634181    0.454657
  H     -0.437234   -0.269172    2.268810
  H     -0.472235    0.125208   -1.811238
  H      1.220874    1.962629   -1.604777
  H      1.064883    1.903600    0.235015
  H      1.631659   -0.368934    0.208692
  H      1.890889   -0.370879   -1.502846

FINAL SINGLE POINT ENERGY      -287.926527911592
                    ***********************HURRAY********************
 Multiplicity           Mult            ....    1
 Number of Electrons    NEL             ....   48
 Basis Dimension        Dim             ....  246
FINAL SINGLE POINT ENERGY      -287.926528076921

VIBRATIONAL FREQUENCIES
-----------------------

   0:         0.00 cm**-1
   1:         0.00 cm**-1
   2:         0.00 cm**-1
   3:         0.00 cm**-1
   4:         0.00 cm**-1
   5:         0.00 cm**-1
   6:       107.70 cm**-1
   7:       227.03 cm**-1
   8:       254.48 cm**-1
   9:       264.14 cm**-1
  10:       298.94 cm**-1
  11:       385.92 cm**-1
  12:       484.69 cm**-1
  13:       619.51 cm**-1
  14:       759.33 cm**-1
  15:       833.64 cm**-1
  16:       886.56 cm**-1
  17:       902.34 cm**-1
  18:       920.65 cm**-1
  19:       966.65 cm**-1
  20:      1039.96 cm**-1
  21:      1059.38 cm**-1
  22:      1077.95 cm**-1
  23:      1132.20 cm**-1
  24:      1165.05 cm**-1
  25:      1180.43 cm**-1
  26:      1187.91 cm**-1
  27:      1231.78 cm**-1
  28:      1258.27 cm**-1
  29:      1282.39 cm**-1
  30:      1359.10 cm**-1
  31:      1379.66 cm**-1
  32:      1417.26 cm**-1
  33:      1439.57 cm**-1
  34:      1480.76 cm**-1
  35:      1487.56 cm**-1
  36:      1495.52 cm**-1
  37:      1590.45 cm**-1
  38:      3034.73 cm**-1
  39:      3057.38 cm**-1
  40:      3139.77 cm**-1
  41:      3142.85 cm**-1
  42:      3178.44 cm**-1
  43:      3212.75 cm**-1
  44:      3284.14 cm**-1
  45:      3456.96 cm**-1
  46:      3606.88 cm**-1
  47:      3865.90 cm**-1

IR SPECTRUM
-----------

 Mode    freq (cm**-1)   T**2         TX         TY         TZ
-------------------------------------------------------------------
   6:       107.70    8.434542  ( -0.269085  -2.532990  -1.395027)
   7:       227.03    4.072221  ( -1.349852   0.473521   1.423341)
   8:       254.48    3.051587  ( -0.109434   1.246625   1.218826)
   9:       264.14  116.199496  (  1.980269 -10.365588  -2.198321)
  10:       298.94   23.876990  ( -2.502896   0.173669   4.193130)
  11:       385.92    6.630495  ( -0.038304   2.572096  -0.115539)
  12:       484.69    6.352557  ( -0.321010   1.815209  -1.718873)
  13:       619.51   10.453824  (  2.200691   0.280850   2.352001)
  14:       759.33    1.460328  (  0.641911  -0.654976   0.786946)
  15:       833.64    9.263230  (  1.966288  -2.312406  -0.222975)
  16:       886.56    4.228627  ( -1.549704   1.317668   0.301320)
  17:       902.34   12.042425  (  2.094325   0.831095  -2.639225)
  18:       920.65   28.532259  (  4.458330  -1.088381   2.733310)
  19:       966.65   12.318713  (  0.794470  -2.629264  -2.185063)
  20:      1039.96   86.813171  (  6.806911   4.496743   4.500938)
  21:      1059.38   29.109268  (  3.559349   3.282559  -2.380149)
  22:      1077.95   37.308543  ( -1.583805  -2.462024   5.360834)
  23:      1132.20    2.532481  (  1.255082  -0.904818   0.372229)
  24:      1165.05    1.268616  (  0.385010   0.969712   0.424314)
  25:      1180.43    5.869834  (  0.921855  -0.103646   2.238141)
  26:      1187.91   33.554306  (  4.814483   0.920258   3.086776)
  27:      1231.78   56.169220  ( -5.722748  -1.411902  -4.628813)
  28:      1258.27    6.061685  ( -1.317909  -0.478595  -2.023795)
  29:      1282.39    4.215503  ( -0.675386  -1.689881   0.950609)
  30:      1359.10    6.103502  (  2.182192   0.561244   1.013186)
  31:      1379.66    4.226698  ( -1.549565  -0.321059   1.312427)
  32:      1417.26   13.658598  ( -1.545962  -3.200321  -1.013187)
  33:      1439.57   19.977789  (  3.910980   2.156300   0.179995)
  34:      1480.76   13.317967  ( -0.020512  -3.503072  -1.022759)
  35:      1487.56   11.255771  (  2.786254  -1.554753   1.036968)
  36:      1495.52    6.269499  ( -0.346442  -0.191579  -2.472403)
  37:      1590.45   74.286979  ( -7.540616   4.128775   0.615879)
  38:      3034.73    8.066797  ( -1.793734   1.751279  -1.335042)
  39:      3057.38    2.469389  ( -0.518175   1.465397   0.231289)
  40:      3139.77    7.229931  (  2.334603  -1.330152  -0.101270)
  41:      3142.85    3.612751  ( -0.072155  -0.215557   1.887082)
  42:      3178.44    3.362833  ( -0.536959  -1.603192  -0.710129)
  43:      3212.75    1.436255  ( -0.504741  -0.115761  -1.080783)
  44:      3284.14    8.934343  ( -0.147372   0.163957   2.980896)
  45:      3456.96  102.677182  ( -4.883494   6.344941  -6.210507)
  46:      3606.88  165.273260  (  5.544215  -1.919245 -11.439031)
  47:      3865.90  114.195299  (  2.353526   1.818560 -10.263969)

--------------------------
THERMOCHEMISTRY AT 298.15K
--------------------------

Temperature         ... 298.15 K
Pressure            ... 1.00 atm
Total Mass          ... 88.13 AMU

Throughout the following assumptions are being made:
  (1) The electronic state is orbitally nondegenerate
  (2) There are no thermally accessible electronically excited states
  (3) Hindered rotations indicated by low frequency modes) are not
      treated as such but are treated as vibrations and this may
      case some error
  (4) All equations used are the standard statistical mechanics
      equations for an ideal gas
  (5) All vibrations are strinctly harmonic

------------
INNER ENERGY
------------

The inner energy is: U= E(el) + E(ZPE) + E(vib) + E(rot) + E(trans)
    E(el)   - is the total energy from the electronic structure calculation
              = E(kin-el) + E(nuc-el) + E(el-el) + E(nuc-nuc)
    E(ZPE)  - the the zero temperature vibrational energy from the frequency calculation
    E(vib)  - the the finite temperature correction to E(ZPE) due to population
              of excietd vibrational states
    E(rot)  - is the rotational thermal energy
    E(trans)- is the translational thermal energy

Summary of contributions to the inner energy U:
Electronic energy                ...   -287.92652808 Eh
Zero point energy                ...      0.14615942 Eh      91.72 kcal/mol
Thermal vibrational correction   ...      0.00393326 Eh       2.47 kcal/mol
Thermal rotational correction    ...      0.00141627 Eh       0.89 kcal/mol
Thermal translational correction ...      0.00141627 Eh       0.89 kcal/mol
-----------------------------------------------------------------------
Total thermal energy                   -287.77360285 Eh

Summary of corrections to the electronic energy:
(perhaps to be used in another calculation)
Total thermal correction                  0.00676580 Eh       4.25 kcal/mol
Non-thermal (ZPE) correction              0.14615942 Eh      91.72 kcal/mol
-----------------------------------------------------------------------
Total correction                          0.15292522 Eh      95.96 kcal/mol

--------
ENTHALPY
--------

The enthalpy is H = U + kB*T
                kB is Boltzmann's constant
Total free energy                 ...   -287.77360285 Eh
Thermal Enthalpy correction       ...      0.00094421 Eh       0.59 kcal/mol
-----------------------------------------------------------------------
Total Enthalpy                    ...   -287.77265864 Eh

-------
ENTROPY
-------

The entropy contributions are T*S = T*(S(el)+S(vib)+S(rot)+S(trans)
     S(el)   - electronic entropy
     S(vib)  - vibrational entropy
     S(rot)  - rotational entropy
     S(trans)- translational entropy
The entropies will be listed as mutliplied by the temperature to get
units of energy

Electronic entropy                ...      0.00000000 Eh      0.00 kcal/mol
Vibrational entropy               ...      0.00649691 Eh      4.08 kcal/mol
Rotational entropy                ...      0.01153110 Eh      7.24 kcal/mol
Translational entropy             ...      0.01869229 Eh     11.73 kcal/mol
-----------------------------------------------------------------------
Final entropy term                ...      0.03672030 Eh     23.04 kcal/mol

CAUTION: The rotational entropy is not quite correctly treated here
         because it includes a symmetry number that is not yet correctly
         implemented in ORCA!
For a nonlinear molecule the correct rotational entropy is:
    S(rot) = R*(ln(qrot/sn)+1.5)
    R    = 8.31441 J/mol/K = 1.987191683e-3 kcal/mol/K
    qrot = 134783.4054754
    sn is the rotational symmetry number. We have assumed 3 here
       if it is different for your molecule then you should correct
       the printed rotational entropy by manually evaluating the equation
       as given above

For convenience we print out the resulting values for sn=1 - 12:
 sn= 1  qrot/sn=  134783.4055 T*S(rot)=     7.89 kcal/mol T*S(tot)=    23.69 kcal/mol
 sn= 2  qrot/sn=   67391.7027 T*S(rot)=     7.48 kcal/mol T*S(tot)=    23.28 kcal/mol
 sn= 3  qrot/sn=   44927.8018 T*S(rot)=     7.24 kcal/mol T*S(tot)=    23.04 kcal/mol
 sn= 4  qrot/sn=   33695.8514 T*S(rot)=     7.07 kcal/mol T*S(tot)=    22.87 kcal/mol
 sn= 5  qrot/sn=   26956.6811 T*S(rot)=     6.93 kcal/mol T*S(tot)=    22.74 kcal/mol
 sn= 6  qrot/sn=   22463.9009 T*S(rot)=     6.83 kcal/mol T*S(tot)=    22.63 kcal/mol
 sn= 7  qrot/sn=   19254.7722 T*S(rot)=     6.73 kcal/mol T*S(tot)=    22.54 kcal/mol
 sn= 8  qrot/sn=   16847.9257 T*S(rot)=     6.65 kcal/mol T*S(tot)=    22.46 kcal/mol
 sn= 9  qrot/sn=   14975.9339 T*S(rot)=     6.58 kcal/mol T*S(tot)=    22.39 kcal/mol
 sn=10  qrot/sn=   13478.3405 T*S(rot)=     6.52 kcal/mol T*S(tot)=    22.33 kcal/mol
 sn=11  qrot/sn=   12253.0369 T*S(rot)=     6.47 kcal/mol T*S(tot)=    22.27 kcal/mol
 sn=12  qrot/sn=   11231.9505 T*S(rot)=     6.41 kcal/mol T*S(tot)=    22.22 kcal/mol

-------------------
GIBBS FREE ENTHALPY
-------------------

The Gibbs free enthalpy is G = H - T*S

Total enthalpy                    ...   -287.77265864 Eh
Total entropy correction          ...     -0.03672030 Eh    -23.04 kcal/mol
-----------------------------------------------------------------------
Final Gibbs free enthalpy         ...   -287.80937895 Eh

For completeness - the Gibbs free enthalpy minus the electronic energy
G-E(el)                           ...      0.11714913 Eh     73.51 kcal/mol

                             ****ORCA TERMINATED NORMALLY****
TOTAL RUN TIME: 0 days 0 hours 22 minutes 22 seconds 536 msec
