                         Program Version 3.0.3 - RELEASE   -
|  1> ! NORI PBE0 def2-TZVP UseSym TightOPT Freq TightSCF Grid3 FinalGrid5 XYZFile
|  2> % pal
|  3>     nprocs 8
|  4> end
|  5> %method
|  6>     SymThresh 5.0e-2
|  7> end
|  8> % geom
|  9>     MaxIter 10
| 10> end
| 11> % maxcore 2000
| 12> % output
| 13>     printlevel mini
| 14>     print[ P_Basis ] 0
| 15>     print[ P_SCFInfo ] 1
| 16>     print[ P_SCFIterInfo ] 1
| 17>     print[ P_OrbEn ] 0
| 18>     print[ P_Cartesian ] 0
| 19> end
| 20> % elprop
| 21>     Dipole false
| 22> end
| 23> *xyz 1 1
| 24>  C        1.1712440889    -0.8288972298     0.0877994501
| 25>  C        2.6445394731    -0.5340659987     0.0736193353
| 26>  O        3.3478971342    -1.7017462932    -0.3704480211
| 27>  C        4.7353254519    -1.5413851339    -0.4552947429
| 28>  C        5.2686569223    -2.8995273662    -0.8606485732
| 29>  N        4.4029216544    -3.3887268082    -1.9841075753
| 30>  H        0.6274085623     0.0502007051     0.4378310162
| 31>  H        0.9434464571    -1.6572214741     0.7605051041
| 32>  H        0.8048686861    -1.0715832257    -0.9116567740
| 33>  H        2.8798326320     0.2969670056    -0.6023026651
| 34>  H        3.0070719429    -0.2731704526     1.0740845410
| 35>  H        5.0028944573    -0.7687565093    -1.1920094035
| 36>  H        5.1824196982    -1.2564308406     0.5043667549
| 37>  H        6.3067404339    -2.8758805847    -1.1878617326
| 38>  H        5.1532927187    -3.6171665396    -0.0485425190
| 39>  H        4.6340296807    -2.9388850917    -2.8708799532
| 40>  H        3.4424743256    -3.1076480266    -1.7236247935
| 41>  H        4.4525556803    -4.3988261358    -2.1138794482
| 42> *
| 43>
| 44>                          ****END OF INPUT****
 Total Charge           Charge          ....    1
 Multiplicity           Mult            ....    1
 Number of Electrons    NEL             ....   50
FINAL SINGLE POINT ENERGY      -289.150391723154

CARTESIAN COORDINATES (ANGSTROEM)
---------------------------------
  C      0.420632   -1.141304    2.432407
  C     -0.624288   -0.494121    1.567862
  O      0.000171    0.000692    0.376070
  C     -0.880853    0.602884   -0.529072
  C     -0.007331    1.110839   -1.656860
  N      0.937791   -0.000291   -2.008426
  H     -0.042451   -1.508975    3.349606
  H      1.197970   -0.427349    2.708984
  H      0.882724   -1.992027    1.927648
  H     -1.407807   -1.207663    1.284851
  H     -1.099808    0.348146    2.082871
  H     -1.629756   -0.115771   -0.894420
  H     -1.418864    1.450071   -0.087397
  H     -0.570435    1.400471   -2.542357
  H      0.609160    1.944569   -1.321941
  H      0.486957   -0.725189   -2.568441
  H      1.207800   -0.418317   -1.101976
  H      1.764931    0.324003   -2.508486

FINAL SINGLE POINT ENERGY      -289.150392345749
                    ***********************HURRAY********************
 Multiplicity           Mult            ....    1
 Number of Electrons    NEL             ....   50
 Basis Dimension        Dim             ....  258
FINAL SINGLE POINT ENERGY      -289.150392684282

VIBRATIONAL FREQUENCIES
-----------------------

   0:         0.00 cm**-1
   1:         0.00 cm**-1
   2:         0.00 cm**-1
   3:         0.00 cm**-1
   4:         0.00 cm**-1
   5:         0.00 cm**-1
   6:        75.65 cm**-1
   7:        91.17 cm**-1
   8:       149.80 cm**-1
   9:       219.86 cm**-1
  10:       250.74 cm**-1
  11:       256.14 cm**-1
  12:       339.62 cm**-1
  13:       429.91 cm**-1
  14:       527.66 cm**-1
  15:       804.98 cm**-1
  16:       821.48 cm**-1
  17:       892.51 cm**-1
  18:       919.00 cm**-1
  19:       955.34 cm**-1
  20:      1016.94 cm**-1
  21:      1057.75 cm**-1
  22:      1099.97 cm**-1
  23:      1147.76 cm**-1
  24:      1166.38 cm**-1
  25:      1185.05 cm**-1
  26:      1196.80 cm**-1
  27:      1275.99 cm**-1
  28:      1307.44 cm**-1
  29:      1342.26 cm**-1
  30:      1374.94 cm**-1
  31:      1400.07 cm**-1
  32:      1413.92 cm**-1
  33:      1443.03 cm**-1
  34:      1476.86 cm**-1
  35:      1478.74 cm**-1
  36:      1489.84 cm**-1
  37:      1491.12 cm**-1
  38:      1508.11 cm**-1
  39:      1524.49 cm**-1
  40:      1639.91 cm**-1
  41:      1669.23 cm**-1
  42:      3003.76 cm**-1
  43:      3027.75 cm**-1
  44:      3064.59 cm**-1
  45:      3065.55 cm**-1
  46:      3072.44 cm**-1
  47:      3117.51 cm**-1
  48:      3144.52 cm**-1
  49:      3151.15 cm**-1
  50:      3182.72 cm**-1
  51:      3291.46 cm**-1
  52:      3477.26 cm**-1
  53:      3534.43 cm**-1

IR SPECTRUM
-----------

 Mode    freq (cm**-1)   T**2         TX         TY         TZ
-------------------------------------------------------------------
   6:        75.65    3.668506  (  1.125948   0.857329   1.290633)
   7:        91.17    9.895927  (  0.626677   2.823663  -1.236984)
   8:       149.80   17.546207  (  0.217682   0.245525   4.175948)
   9:       219.86    9.757882  ( -0.427216   1.358742   2.780142)
  10:       250.74    3.624699  (  1.317100  -0.007323  -1.374734)
  11:       256.14    1.419281  ( -0.484099  -0.954990  -0.522420)
  12:       339.62   36.651679  ( -3.448419  -0.630591   4.935832)
  13:       429.91    1.750605  (  0.346566  -0.711077   1.060597)
  14:       527.66    7.036186  (  2.385493  -0.227011  -1.137575)
  15:       804.98   22.177357  ( -1.738840  -0.003310   4.376503)
  16:       821.48    1.925874  ( -0.065375   0.854737   1.091341)
  17:       892.51    8.293469  (  1.674195  -0.045466  -2.342749)
  18:       919.00    2.201083  (  1.181547   0.660917   0.606809)
  19:       955.34    7.696322  (  1.857856   1.610435   1.284987)
  20:      1016.94   23.399671  (  1.289917   0.943278  -4.565743)
  21:      1057.75   16.417097  ( -3.935497   0.884025   0.384003)
  22:      1099.97   87.810088  ( -2.170546  -3.604833   8.372813)
  23:      1147.76  140.836060  (  2.787515   5.054653 -10.369007)
  24:      1166.38   45.523233  ( -1.739058   1.997003  -6.205714)
  25:      1185.05   35.417146  (  3.222543  -3.817309   3.234272)
  26:      1196.80   17.949277  (  2.427878  -0.593377   3.420905)
  27:      1275.99    4.109203  (  0.512447   1.809607   0.756257)
  28:      1307.44    4.898175  ( -0.570998  -1.623082  -1.392028)
  29:      1342.26   15.098736  ( -2.349640   0.237646  -3.085685)
  30:      1374.94   18.680840  (  0.435856  -1.941118   3.837047)
  31:      1400.07    3.728095  (  1.493422  -1.223189   0.039930)
  32:      1413.92   14.453032  (  1.583265  -1.708686   3.004446)
  33:      1443.03   17.752439  (  1.822492  -1.713479  -3.390421)
  34:      1476.86  123.500847  ( -6.724701   7.959706   3.862944)
  35:      1478.74   23.193097  ( -4.618576   1.231715   0.587136)
  36:      1489.84   12.728525  (  2.418444   1.645288  -2.042714)
  37:      1491.12   17.629813  ( -3.042362   0.171249   2.888689)
  38:      1508.11    4.073413  ( -0.858901   1.249183  -1.332382)
  39:      1524.49   22.172430  ( -4.301437   1.546169   1.131118)
  40:      1639.91   32.041959  ( -3.199359  -3.050365  -3.535722)
  41:      1669.23   36.186105  (  3.290742   2.784888  -4.195416)
  42:      3003.76   23.288800  ( -3.449464  -0.961257  -3.235118)
  43:      3027.75   28.854649  ( -5.132423  -0.991165   1.237122)
  44:      3064.59    4.952406  (  2.058591   0.392311   0.748799)
  45:      3065.55   16.541235  (  1.146829  -3.799117  -0.890355)
  46:      3072.44    9.251180  ( -0.077817  -2.511590  -1.713779)
  47:      3117.51    1.008734  ( -0.253966  -0.802163   0.548425)
  48:      3144.52   14.887888  ( -0.773676   2.923338   2.396541)
  49:      3151.15    7.265850  (  2.012728   1.792622  -0.035775)
  50:      3182.72    0.309604  ( -0.104837   0.194522  -0.510661)
  51:      3291.46  171.143607  ( -0.208827   4.375740 -12.326918)
  52:      3477.26  115.230309  (  2.174494  -2.552489 -10.197386)
  53:      3534.43  106.442365  (  8.366747   5.766173  -1.786383)

--------------------------
THERMOCHEMISTRY AT 298.15K
--------------------------

Temperature         ... 298.15 K
Pressure            ... 1.00 atm
Total Mass          ... 90.15 AMU

Throughout the following assumptions are being made:
  (1) The electronic state is orbitally nondegenerate
  (2) There are no thermally accessible electronically excited states
  (3) Hindered rotations indicated by low frequency modes) are not
      treated as such but are treated as vibrations and this may
      case some error
  (4) All equations used are the standard statistical mechanics
      equations for an ideal gas
  (5) All vibrations are strinctly harmonic

------------
INNER ENERGY
------------

The inner energy is: U= E(el) + E(ZPE) + E(vib) + E(rot) + E(trans)
    E(el)   - is the total energy from the electronic structure calculation
              = E(kin-el) + E(nuc-el) + E(el-el) + E(nuc-nuc)
    E(ZPE)  - the the zero temperature vibrational energy from the frequency calculation
    E(vib)  - the the finite temperature correction to E(ZPE) due to population
              of excietd vibrational states
    E(rot)  - is the rotational thermal energy
    E(trans)- is the translational thermal energy

Summary of contributions to the inner energy U:
Electronic energy                ...   -289.15039268 Eh
Zero point energy                ...      0.16989118 Eh     106.61 kcal/mol
Thermal vibrational correction   ...      0.00508958 Eh       3.19 kcal/mol
Thermal rotational correction    ...      0.00141627 Eh       0.89 kcal/mol
Thermal translational correction ...      0.00141627 Eh       0.89 kcal/mol
-----------------------------------------------------------------------
Total thermal energy                   -288.97257939 Eh

Summary of corrections to the electronic energy:
(perhaps to be used in another calculation)
Total thermal correction                  0.00792212 Eh       4.97 kcal/mol
Non-thermal (ZPE) correction              0.16989118 Eh     106.61 kcal/mol
-----------------------------------------------------------------------
Total correction                          0.17781330 Eh     111.58 kcal/mol

--------
ENTHALPY
--------

The enthalpy is H = U + kB*T
                kB is Boltzmann's constant
Total free energy                 ...   -288.97257939 Eh
Thermal Enthalpy correction       ...      0.00094421 Eh       0.59 kcal/mol
-----------------------------------------------------------------------
Total Enthalpy                    ...   -288.97163518 Eh

-------
ENTROPY
-------

The entropy contributions are T*S = T*(S(el)+S(vib)+S(rot)+S(trans)
     S(el)   - electronic entropy
     S(vib)  - vibrational entropy
     S(rot)  - rotational entropy
     S(trans)- translational entropy
The entropies will be listed as mutliplied by the temperature to get
units of energy

Electronic entropy                ...      0.00000000 Eh      0.00 kcal/mol
Vibrational entropy               ...      0.00939395 Eh      5.89 kcal/mol
Rotational entropy                ...      0.01187251 Eh      7.45 kcal/mol
Translational entropy             ...      0.01872432 Eh     11.75 kcal/mol
-----------------------------------------------------------------------
Final entropy term                ...      0.03999078 Eh     25.09 kcal/mol

CAUTION: The rotational entropy is not quite correctly treated here
         because it includes a symmetry number that is not yet correctly
         implemented in ORCA!
For a nonlinear molecule the correct rotational entropy is:
    S(rot) = R*(ln(qrot/sn)+1.5)
    R    = 8.31441 J/mol/K = 1.987191683e-3 kcal/mol/K
    qrot = 193496.6097672
    sn is the rotational symmetry number. We have assumed 3 here
       if it is different for your molecule then you should correct
       the printed rotational entropy by manually evaluating the equation
       as given above

For convenience we print out the resulting values for sn=1 - 12:
 sn= 1  qrot/sn=  193496.6098 T*S(rot)=     8.10 kcal/mol T*S(tot)=    25.75 kcal/mol
 sn= 2  qrot/sn=   96748.3049 T*S(rot)=     7.69 kcal/mol T*S(tot)=    25.33 kcal/mol
 sn= 3  qrot/sn=   64498.8699 T*S(rot)=     7.45 kcal/mol T*S(tot)=    25.09 kcal/mol
 sn= 4  qrot/sn=   48374.1524 T*S(rot)=     7.28 kcal/mol T*S(tot)=    24.92 kcal/mol
 sn= 5  qrot/sn=   38699.3220 T*S(rot)=     7.15 kcal/mol T*S(tot)=    24.79 kcal/mol
 sn= 6  qrot/sn=   32249.4350 T*S(rot)=     7.04 kcal/mol T*S(tot)=    24.68 kcal/mol
 sn= 7  qrot/sn=   27642.3728 T*S(rot)=     6.95 kcal/mol T*S(tot)=    24.59 kcal/mol
 sn= 8  qrot/sn=   24187.0762 T*S(rot)=     6.87 kcal/mol T*S(tot)=    24.51 kcal/mol
 sn= 9  qrot/sn=   21499.6233 T*S(rot)=     6.80 kcal/mol T*S(tot)=    24.44 kcal/mol
 sn=10  qrot/sn=   19349.6610 T*S(rot)=     6.74 kcal/mol T*S(tot)=    24.38 kcal/mol
 sn=11  qrot/sn=   17590.6009 T*S(rot)=     6.68 kcal/mol T*S(tot)=    24.32 kcal/mol
 sn=12  qrot/sn=   16124.7175 T*S(rot)=     6.63 kcal/mol T*S(tot)=    24.27 kcal/mol

-------------------
GIBBS FREE ENTHALPY
-------------------

The Gibbs free enthalpy is G = H - T*S

Total enthalpy                    ...   -288.97163518 Eh
Total entropy correction          ...     -0.03999078 Eh    -25.09 kcal/mol
-----------------------------------------------------------------------
Final Gibbs free enthalpy         ...   -289.01162596 Eh

For completeness - the Gibbs free enthalpy minus the electronic energy
G-E(el)                           ...      0.13876673 Eh     87.08 kcal/mol

                             ****ORCA TERMINATED NORMALLY****
TOTAL RUN TIME: 0 days 0 hours 24 minutes 34 seconds 692 msec
