                         Program Version 3.0.3 - RELEASE   -
|  1> ! NORI PBE0 def2-TZVP UseSym TightOPT Freq TightSCF Grid3 FinalGrid5 XYZFile
|  2> % pal
|  3>     nprocs 8
|  4> end
|  5> %method
|  6>     SymThresh 5.0e-2
|  7> end
|  8> % geom
|  9>     MaxIter 10
| 10> end
| 11> % maxcore 2000
| 12> % output
| 13>     printlevel mini
| 14>     print[ P_Basis ] 0
| 15>     print[ P_SCFInfo ] 1
| 16>     print[ P_SCFIterInfo ] 1
| 17>     print[ P_OrbEn ] 0
| 18>     print[ P_Cartesian ] 0
| 19> end
| 20> % elprop
| 21>     Dipole false
| 22> end
| 23> *xyz 1 1
| 24>  C        3.5698869577    -0.0342881385    -1.6927183014
| 25>  C        3.0503235495    -0.2457138918    -0.2881000449
| 26>  O        3.6561338793    -1.3993948129     0.3253690771
| 27>  C        3.3073693652     0.9200954489     0.6633390118
| 28>  C        4.7625821974     1.1262062582     1.0356170577
| 29>  N        5.2446952742    -0.0370897574     1.8568328978
| 30>  H        3.3441347219    -0.9007332227    -2.3191427724
| 31>  H        4.6517944590     0.1184574472    -1.7174901234
| 32>  H        3.0866390337     0.8304667919    -2.1518389275
| 33>  H        1.9675224851    -0.4044460932    -0.3249508023
| 34>  H        3.4965661940    -2.1844833130    -0.2071949676
| 35>  H        2.7134959728     0.7856532591     1.5736461453
| 36>  H        2.9463508169     1.8396741527     0.1979569642
| 37>  H        4.9090142028     2.0341038138     1.6204736855
| 38>  H        5.4088019652     1.1759238168     0.1592062718
| 39>  H        4.8435133624    -0.0212155769     2.7944527368
| 40>  H        6.2597513787    -0.0590944647     1.9456326775
| 41>  H        4.8872941842    -0.8921717177     1.3682094139
| 42> *
| 43>
| 44>                          ****END OF INPUT****
 Total Charge           Charge          ....    1
 Multiplicity           Mult            ....    1
 Number of Electrons    NEL             ....   50
FINAL SINGLE POINT ENERGY      -289.173684626863
FINAL SINGLE POINT ENERGY      -289.173685918810
FINAL SINGLE POINT ENERGY      -289.173685637229

CARTESIAN COORDINATES (ANGSTROEM)
---------------------------------
  C     -1.799499   -1.012831    0.146066
  C     -1.016736    0.245325    0.449494
  O     -0.000601    0.002171    1.440718
  C     -0.294731    0.844286   -0.754482
  C      0.867268    0.018124   -1.271031
  N      1.968023   -0.000495   -0.247406
  H     -2.293739   -1.382686    1.047247
  H     -1.163761   -1.815208   -0.235707
  H     -2.579993   -0.808658   -0.589654
  H     -1.698601    1.010066    0.835731
  H     -0.394922   -0.344940    2.246552
  H      0.055156    1.851971   -0.506389
  H     -1.011001    0.963228   -1.570181
  H      1.275519    0.421745   -2.197154
  H      0.587998   -1.021393   -1.443846
  H      2.435859    0.904020   -0.188534
  H      2.672259   -0.710523   -0.443371
  H      1.494471   -0.178436    0.669842

FINAL SINGLE POINT ENERGY      -289.173686777177
                    ***********************HURRAY********************
 Multiplicity           Mult            ....    1
 Number of Electrons    NEL             ....   50
 Basis Dimension        Dim             ....  258
FINAL SINGLE POINT ENERGY      -289.173686883733

VIBRATIONAL FREQUENCIES
-----------------------

   0:         0.00 cm**-1
   1:         0.00 cm**-1
   2:         0.00 cm**-1
   3:         0.00 cm**-1
   4:         0.00 cm**-1
   5:         0.00 cm**-1
   6:        75.71 cm**-1
   7:       220.64 cm**-1
   8:       243.31 cm**-1
   9:       303.54 cm**-1
  10:       314.78 cm**-1
  11:       325.46 cm**-1
  12:       371.74 cm**-1
  13:       400.47 cm**-1
  14:       443.45 cm**-1
  15:       600.60 cm**-1
  16:       784.62 cm**-1
  17:       853.10 cm**-1
  18:       880.39 cm**-1
  19:       915.11 cm**-1
  20:       955.47 cm**-1
  21:      1004.54 cm**-1
  22:      1043.25 cm**-1
  23:      1062.06 cm**-1
  24:      1118.67 cm**-1
  25:      1164.33 cm**-1
  26:      1184.13 cm**-1
  27:      1224.74 cm**-1
  28:      1307.78 cm**-1
  29:      1346.80 cm**-1
  30:      1377.21 cm**-1
  31:      1382.05 cm**-1
  32:      1410.09 cm**-1
  33:      1417.36 cm**-1
  34:      1429.91 cm**-1
  35:      1466.25 cm**-1
  36:      1486.09 cm**-1
  37:      1487.46 cm**-1
  38:      1500.82 cm**-1
  39:      1513.96 cm**-1
  40:      1641.69 cm**-1
  41:      1674.26 cm**-1
  42:      3034.93 cm**-1
  43:      3055.27 cm**-1
  44:      3059.21 cm**-1
  45:      3068.84 cm**-1
  46:      3107.83 cm**-1
  47:      3126.90 cm**-1
  48:      3132.38 cm**-1
  49:      3142.08 cm**-1
  50:      3163.63 cm**-1
  51:      3477.99 cm**-1
  52:      3539.94 cm**-1
  53:      3854.21 cm**-1

IR SPECTRUM
-----------

 Mode    freq (cm**-1)   T**2         TX         TY         TZ
-------------------------------------------------------------------
   6:        75.71    9.217710  (  1.285953   2.727062   0.356608)
   7:       220.64    6.326146  ( -1.546238  -0.157826   1.977469)
   8:       243.31    0.001302  ( -0.000840  -0.009836   0.034711)
   9:       303.54   54.112438  ( -5.599114  -4.739065   0.551028)
  10:       314.78    5.507056  (  0.148609   2.233185  -0.705589)
  11:       325.46  105.741204  (  2.521670  -7.355788  -6.728653)
  12:       371.74    2.731036  ( -0.265733   0.897063  -1.362241)
  13:       400.47   31.536155  (  2.065082  -4.991337  -1.535628)
  14:       443.45   17.463182  ( -3.208562  -1.707844   2.061937)
  15:       600.60    6.872473  ( -0.845093  -0.882113  -2.319519)
  16:       784.62    7.101619  ( -1.978378  -0.642852   1.665647)
  17:       853.10   13.848464  (  0.601520   1.420277  -3.386658)
  18:       880.39   29.209554  ( -0.382428  -1.425618   5.199126)
  19:       915.11    3.882595  (  0.014232   1.556003   1.208821)
  20:       955.47   21.422447  ( -4.570717  -0.728676  -0.004480)
  21:      1004.54    7.347912  ( -2.610887  -0.003373   0.728814)
  22:      1043.25    8.430811  ( -1.651005   1.054606  -2.143082)
  23:      1062.06   33.758942  (  5.606556  -1.222400   0.911709)
  24:      1118.67   23.995837  ( -4.416278   2.041753  -0.568831)
  25:      1164.33   35.374518  (  2.076477  -1.055006   5.472634)
  26:      1184.13   10.761291  (  0.857121   1.717680   2.660114)
  27:      1224.74   55.372194  ( -3.355775  -0.933427  -6.575689)
  28:      1307.78   14.469796  ( -3.325813   1.174951  -1.424167)
  29:      1346.80   24.283754  (  2.571344   2.292262  -3.523844)
  30:      1377.21   10.438811  ( -2.881543  -0.123270  -1.456134)
  31:      1382.05    1.574193  ( -1.191469   0.103270  -0.379381)
  32:      1410.09    6.350467  ( -2.357638   0.194344   0.868469)
  33:      1417.36   12.802764  (  2.474047   2.400168   0.959713)
  34:      1429.91   10.871179  (  2.584096   1.901373   0.760531)
  35:      1466.25   11.853889  ( -0.871761   2.762807  -1.860328)
  36:      1486.09    8.868420  (  2.404419   0.271909  -1.735873)
  37:      1487.46   13.619744  (  3.258594  -1.340745   1.097139)
  38:      1500.82   36.381312  ( -3.686065  -2.898202  -3.794030)
  39:      1513.96  185.384550  (-13.293604   1.658440  -2.431918)
  40:      1641.69   17.087922  (  1.054944   3.995221  -0.115003)
  41:      1674.26   33.283769  ( -3.859864   3.368051   2.653574)
  42:      3034.93  524.312146  ( 15.802973   1.972872 -16.452537)
  43:      3055.27    3.549041  ( -0.282247  -1.414825  -1.211465)
  44:      3059.21    6.699438  (  2.208464  -1.331817  -0.219978)
  45:      3068.84   12.692465  ( -0.607179  -3.323758   1.129794)
  46:      3107.83    1.752086  ( -0.933084  -0.916294   0.204562)
  47:      3126.90    2.501075  (  0.853647   1.289322  -0.331681)
  48:      3132.38   16.864930  ( -2.682132   1.319104   2.816214)
  49:      3142.08    6.613775  (  1.639506  -1.681147   1.048589)
  50:      3163.63    1.150384  (  0.364529  -0.917894  -0.418297)
  51:      3477.99   89.591969  (  9.086879   1.778522  -1.964043)
  52:      3539.94   84.232124  ( -2.283671   8.733903   1.654057)
  53:      3854.21   90.042717  ( -1.830137  -2.772439   8.888582)

--------------------------
THERMOCHEMISTRY AT 298.15K
--------------------------

Temperature         ... 298.15 K
Pressure            ... 1.00 atm
Total Mass          ... 90.15 AMU

Throughout the following assumptions are being made:
  (1) The electronic state is orbitally nondegenerate
  (2) There are no thermally accessible electronically excited states
  (3) Hindered rotations indicated by low frequency modes) are not
      treated as such but are treated as vibrations and this may
      case some error
  (4) All equations used are the standard statistical mechanics
      equations for an ideal gas
  (5) All vibrations are strinctly harmonic

------------
INNER ENERGY
------------

The inner energy is: U= E(el) + E(ZPE) + E(vib) + E(rot) + E(trans)
    E(el)   - is the total energy from the electronic structure calculation
              = E(kin-el) + E(nuc-el) + E(el-el) + E(nuc-nuc)
    E(ZPE)  - the the zero temperature vibrational energy from the frequency calculation
    E(vib)  - the the finite temperature correction to E(ZPE) due to population
              of excietd vibrational states
    E(rot)  - is the rotational thermal energy
    E(trans)- is the translational thermal energy

Summary of contributions to the inner energy U:
Electronic energy                ...   -289.17368688 Eh
Zero point energy                ...      0.17016781 Eh     106.78 kcal/mol
Thermal vibrational correction   ...      0.00464995 Eh       2.92 kcal/mol
Thermal rotational correction    ...      0.00141627 Eh       0.89 kcal/mol
Thermal translational correction ...      0.00141627 Eh       0.89 kcal/mol
-----------------------------------------------------------------------
Total thermal energy                   -288.99603658 Eh

Summary of corrections to the electronic energy:
(perhaps to be used in another calculation)
Total thermal correction                  0.00748249 Eh       4.70 kcal/mol
Non-thermal (ZPE) correction              0.17016781 Eh     106.78 kcal/mol
-----------------------------------------------------------------------
Total correction                          0.17765030 Eh     111.48 kcal/mol

--------
ENTHALPY
--------

The enthalpy is H = U + kB*T
                kB is Boltzmann's constant
Total free energy                 ...   -288.99603658 Eh
Thermal Enthalpy correction       ...      0.00094421 Eh       0.59 kcal/mol
-----------------------------------------------------------------------
Total Enthalpy                    ...   -288.99509237 Eh

-------
ENTROPY
-------

The entropy contributions are T*S = T*(S(el)+S(vib)+S(rot)+S(trans)
     S(el)   - electronic entropy
     S(vib)  - vibrational entropy
     S(rot)  - rotational entropy
     S(trans)- translational entropy
The entropies will be listed as mutliplied by the temperature to get
units of energy

Electronic entropy                ...      0.00000000 Eh      0.00 kcal/mol
Vibrational entropy               ...      0.00782598 Eh      4.91 kcal/mol
Rotational entropy                ...      0.01172216 Eh      7.36 kcal/mol
Translational entropy             ...      0.01872432 Eh     11.75 kcal/mol
-----------------------------------------------------------------------
Final entropy term                ...      0.03827246 Eh     24.02 kcal/mol

CAUTION: The rotational entropy is not quite correctly treated here
         because it includes a symmetry number that is not yet correctly
         implemented in ORCA!
For a nonlinear molecule the correct rotational entropy is:
    S(rot) = R*(ln(qrot/sn)+1.5)
    R    = 8.31441 J/mol/K = 1.987191683e-3 kcal/mol/K
    qrot = 165012.5234594
    sn is the rotational symmetry number. We have assumed 3 here
       if it is different for your molecule then you should correct
       the printed rotational entropy by manually evaluating the equation
       as given above

For convenience we print out the resulting values for sn=1 - 12:
 sn= 1  qrot/sn=  165012.5235 T*S(rot)=     8.01 kcal/mol T*S(tot)=    24.67 kcal/mol
 sn= 2  qrot/sn=   82506.2617 T*S(rot)=     7.60 kcal/mol T*S(tot)=    24.26 kcal/mol
 sn= 3  qrot/sn=   55004.1745 T*S(rot)=     7.36 kcal/mol T*S(tot)=    24.02 kcal/mol
 sn= 4  qrot/sn=   41253.1309 T*S(rot)=     7.19 kcal/mol T*S(tot)=    23.85 kcal/mol
 sn= 5  qrot/sn=   33002.5047 T*S(rot)=     7.05 kcal/mol T*S(tot)=    23.71 kcal/mol
 sn= 6  qrot/sn=   27502.0872 T*S(rot)=     6.95 kcal/mol T*S(tot)=    23.61 kcal/mol
 sn= 7  qrot/sn=   23573.2176 T*S(rot)=     6.85 kcal/mol T*S(tot)=    23.51 kcal/mol
 sn= 8  qrot/sn=   20626.5654 T*S(rot)=     6.77 kcal/mol T*S(tot)=    23.44 kcal/mol
 sn= 9  qrot/sn=   18334.7248 T*S(rot)=     6.70 kcal/mol T*S(tot)=    23.37 kcal/mol
 sn=10  qrot/sn=   16501.2523 T*S(rot)=     6.64 kcal/mol T*S(tot)=    23.30 kcal/mol
 sn=11  qrot/sn=   15001.1385 T*S(rot)=     6.59 kcal/mol T*S(tot)=    23.25 kcal/mol
 sn=12  qrot/sn=   13751.0436 T*S(rot)=     6.53 kcal/mol T*S(tot)=    23.19 kcal/mol

-------------------
GIBBS FREE ENTHALPY
-------------------

The Gibbs free enthalpy is G = H - T*S

Total enthalpy                    ...   -288.99509237 Eh
Total entropy correction          ...     -0.03827246 Eh    -24.02 kcal/mol
-----------------------------------------------------------------------
Final Gibbs free enthalpy         ...   -289.03336483 Eh

For completeness - the Gibbs free enthalpy minus the electronic energy
G-E(el)                           ...      0.14032205 Eh     88.05 kcal/mol

                             ****ORCA TERMINATED NORMALLY****
TOTAL RUN TIME: 0 days 0 hours 30 minutes 27 seconds 573 msec
