                         Program Version 3.0.3 - RELEASE   -
|  1> ! NORI PBE0 def2-TZVP UseSym TightOPT Freq TightSCF Grid3 FinalGrid5 XYZFile
|  2> % pal
|  3>     nprocs 8
|  4> end
|  5> %method
|  6>     SymThresh 5.0e-2
|  7> end
|  8> % geom
|  9>     MaxIter 10
| 10> end
| 11> % maxcore 2000
| 12> % output
| 13>     printlevel mini
| 14>     print[ P_Basis ] 0
| 15>     print[ P_SCFInfo ] 1
| 16>     print[ P_SCFIterInfo ] 1
| 17>     print[ P_OrbEn ] 0
| 18>     print[ P_Cartesian ] 0
| 19> end
| 20> % elprop
| 21>     Dipole false
| 22> end
| 23> *xyz 1 1
| 24>  C        0.9532626705     0.1958572527    -0.2245552634
| 25>  N        2.4190973410     0.2395163392    -0.1477392287
| 26>  C        3.2694163599    -0.7863910861    -0.7858280609
| 27>  C        3.2524567967     0.5841335890    -1.3255671829
| 28>  C        4.3543537815     1.5646394589    -1.0636016519
| 29>  O        3.7225786508     2.7738830152    -0.7480283142
| 30>  H        0.5694774847     1.2084169037    -0.1093990055
| 31>  H        0.5746747579    -0.4496410593     0.5669615216
| 32>  H        0.6629271801    -0.2018662937    -1.1951368046
| 33>  H        2.7751634957     0.6182624985     0.7251799132
| 34>  H        4.1105771260    -1.1140683326    -0.1874896690
| 35>  H        2.7127258645    -1.5654398922    -1.2904469774
| 36>  H        2.6433740610     0.7764305921    -2.2020483777
| 37>  H        4.9743825647     1.6244595429    -1.9660756724
| 38>  H        4.9954887758     1.2055157347    -0.2440421321
| 39>  H        4.3597930892     3.4943317371    -0.7499930941
| 40> *
| 41>
| 42>                          ****END OF INPUT****
 Total Charge           Charge          ....    1
 Multiplicity           Mult            ....    1
 Number of Electrons    NEL             ....   48
FINAL SINGLE POINT ENERGY      -287.913750148755

CARTESIAN COORDINATES (ANGSTROEM)
---------------------------------
  C      1.288831   -1.193626   -1.305151
  N      0.632729   -0.000280   -0.755784
  C     -0.539203    0.620505   -1.406970
  C     -0.703610   -0.068915   -0.115492
  C     -0.829815    0.672058    1.180411
  O      0.000630    0.000892    2.086592
  H      1.785351   -1.721808   -0.492490
  H      2.011073   -0.886461   -2.060411
  H      0.533467   -1.834657   -1.756323
  H      1.268861    0.645844   -0.297097
  H     -0.520835    1.702961   -1.435746
  H     -0.847263    0.125629   -2.319027
  H     -1.099072   -1.078742   -0.126380
  H     -1.886304    0.661501    1.473709
  H     -0.533290    1.723254    1.046584
  H     -0.169980    0.303364    2.983558

FINAL SINGLE POINT ENERGY      -287.913750735519
                    ***********************HURRAY********************
 Multiplicity           Mult            ....    1
 Number of Electrons    NEL             ....   48
 Basis Dimension        Dim             ....  246
FINAL SINGLE POINT ENERGY      -287.913751021387

VIBRATIONAL FREQUENCIES
-----------------------

   0:         0.00 cm**-1
   1:         0.00 cm**-1
   2:         0.00 cm**-1
   3:         0.00 cm**-1
   4:         0.00 cm**-1
   5:         0.00 cm**-1
   6:        75.46 cm**-1
   7:       158.02 cm**-1
   8:       203.19 cm**-1
   9:       269.24 cm**-1
  10:       296.91 cm**-1
  11:       390.30 cm**-1
  12:       409.28 cm**-1
  13:       515.68 cm**-1
  14:       789.38 cm**-1
  15:       829.80 cm**-1
  16:       889.97 cm**-1
  17:       950.49 cm**-1
  18:       980.30 cm**-1
  19:      1059.70 cm**-1
  20:      1101.17 cm**-1
  21:      1125.94 cm**-1
  22:      1145.96 cm**-1
  23:      1162.45 cm**-1
  24:      1184.89 cm**-1
  25:      1203.65 cm**-1
  26:      1232.85 cm**-1
  27:      1238.23 cm**-1
  28:      1287.94 cm**-1
  29:      1305.56 cm**-1
  30:      1384.10 cm**-1
  31:      1450.34 cm**-1
  32:      1454.34 cm**-1
  33:      1479.61 cm**-1
  34:      1483.23 cm**-1
  35:      1496.44 cm**-1
  36:      1507.81 cm**-1
  37:      1527.62 cm**-1
  38:      3001.88 cm**-1
  39:      3067.89 cm**-1
  40:      3085.19 cm**-1
  41:      3169.74 cm**-1
  42:      3184.54 cm**-1
  43:      3187.22 cm**-1
  44:      3199.84 cm**-1
  45:      3270.91 cm**-1
  46:      3532.98 cm**-1
  47:      3860.12 cm**-1

IR SPECTRUM
-----------

 Mode    freq (cm**-1)   T**2         TX         TY         TZ
-------------------------------------------------------------------
   6:        75.46    7.886028  ( -0.995205  -1.369822   2.240353)
   7:       158.02    2.578967  ( -0.223213  -1.086071  -1.161720)
   8:       203.19    0.760405  ( -0.127836  -0.464089   0.727107)
   9:       269.24   41.150624  (  4.577195   4.491046   0.174392)
  10:       296.91   97.082036  (  6.676960   6.888975  -2.245499)
  11:       390.30    4.144884  ( -0.810829  -0.500062  -1.799272)
  12:       409.28    2.856590  ( -1.394886  -0.431215   0.851432)
  13:       515.68    7.336410  ( -0.644204   0.917164  -2.465810)
  14:       789.38    6.723770  (  0.235147  -0.449343   2.542945)
  15:       829.80   16.922600  (  4.051844   0.490737   0.514141)
  16:       889.97    2.990527  (  1.709888  -0.075218  -0.247293)
  17:       950.49   22.711674  ( -0.169177   1.995431  -4.324501)
  18:       980.30   28.846364  (  3.511481  -3.078192   2.653412)
  19:      1059.70   28.869572  (  4.018980  -0.681747  -3.500370)
  20:      1101.17   14.708889  ( -3.096037   2.117610  -0.799483)
  21:      1125.94   49.496455  (  3.866390  -2.563879   5.289046)
  22:      1145.96   19.229345  ( -1.048672  -0.417230   4.237399)
  23:      1162.45    8.671203  (  0.044716  -2.477088   1.591615)
  24:      1184.89    5.602310  (  1.222339   1.419329  -1.446963)
  25:      1203.65    2.051798  (  0.108217  -1.201613   0.772149)
  26:      1232.85   17.824188  ( -2.772212   1.306288  -2.903901)
  27:      1238.23   37.727226  (  3.942106  -3.908483   2.628837)
  28:      1287.94    7.238421  ( -0.105970   2.336338  -1.329930)
  29:      1305.56   11.570147  ( -2.046865   1.476597  -2.280384)
  30:      1384.10    5.063345  (  1.586692  -1.571491   0.275988)
  31:      1450.34   24.711783  (  3.120174  -3.382750  -1.879708)
  32:      1454.34    5.154855  ( -1.530931  -1.286223   1.075517)
  33:      1479.61   15.333114  (  0.583061   2.067066  -3.274201)
  34:      1483.23    4.942602  ( -0.225316   0.638196  -2.117674)
  35:      1496.44   24.925836  (  4.505292   0.921444   1.943995)
  36:      1507.81    9.243716  (  1.329342  -2.198850  -1.625307)
  37:      1527.62   16.132305  (  3.806294  -0.284487  -1.250401)
  38:      3001.88   29.699956  (  0.730199  -4.719915   2.624723)
  39:      3067.89    7.258257  ( -2.555907  -0.836537  -0.160638)
  40:      3085.19    0.431999  ( -0.168552   0.331272   0.542077)
  41:      3169.74    1.970121  ( -0.608799   0.683310  -1.064224)
  42:      3184.54    0.244604  (  0.262242  -0.361388   0.212678)
  43:      3187.22    0.459346  ( -0.089184  -0.173056   0.649187)
  44:      3199.84    1.430999  (  0.728803   0.856672  -0.407381)
  45:      3270.91    4.608077  ( -0.514585  -1.783046  -1.078901)
  46:      3532.98   83.860008  (  6.937827   4.768498   3.603886)
  47:      3860.12  115.660588  ( -0.054266   1.320643  10.673029)

--------------------------
THERMOCHEMISTRY AT 298.15K
--------------------------

Temperature         ... 298.15 K
Pressure            ... 1.00 atm
Total Mass          ... 88.13 AMU

Throughout the following assumptions are being made:
  (1) The electronic state is orbitally nondegenerate
  (2) There are no thermally accessible electronically excited states
  (3) Hindered rotations indicated by low frequency modes) are not
      treated as such but are treated as vibrations and this may
      case some error
  (4) All equations used are the standard statistical mechanics
      equations for an ideal gas
  (5) All vibrations are strinctly harmonic

------------
INNER ENERGY
------------

The inner energy is: U= E(el) + E(ZPE) + E(vib) + E(rot) + E(trans)
    E(el)   - is the total energy from the electronic structure calculation
              = E(kin-el) + E(nuc-el) + E(el-el) + E(nuc-nuc)
    E(ZPE)  - the the zero temperature vibrational energy from the frequency calculation
    E(vib)  - the the finite temperature correction to E(ZPE) due to population
              of excietd vibrational states
    E(rot)  - is the rotational thermal energy
    E(trans)- is the translational thermal energy

Summary of contributions to the inner energy U:
Electronic energy                ...   -287.91375102 Eh
Zero point energy                ...      0.14614477 Eh      91.71 kcal/mol
Thermal vibrational correction   ...      0.00422402 Eh       2.65 kcal/mol
Thermal rotational correction    ...      0.00141627 Eh       0.89 kcal/mol
Thermal translational correction ...      0.00141627 Eh       0.89 kcal/mol
-----------------------------------------------------------------------
Total thermal energy                   -287.76054968 Eh

Summary of corrections to the electronic energy:
(perhaps to be used in another calculation)
Total thermal correction                  0.00705656 Eh       4.43 kcal/mol
Non-thermal (ZPE) correction              0.14614477 Eh      91.71 kcal/mol
-----------------------------------------------------------------------
Total correction                          0.15320134 Eh      96.14 kcal/mol

--------
ENTHALPY
--------

The enthalpy is H = U + kB*T
                kB is Boltzmann's constant
Total free energy                 ...   -287.76054968 Eh
Thermal Enthalpy correction       ...      0.00094421 Eh       0.59 kcal/mol
-----------------------------------------------------------------------
Total Enthalpy                    ...   -287.75960548 Eh

-------
ENTROPY
-------

The entropy contributions are T*S = T*(S(el)+S(vib)+S(rot)+S(trans)
     S(el)   - electronic entropy
     S(vib)  - vibrational entropy
     S(rot)  - rotational entropy
     S(trans)- translational entropy
The entropies will be listed as mutliplied by the temperature to get
units of energy

Electronic entropy                ...      0.00000000 Eh      0.00 kcal/mol
Vibrational entropy               ...      0.00743031 Eh      4.66 kcal/mol
Rotational entropy                ...      0.01166467 Eh      7.32 kcal/mol
Translational entropy             ...      0.01869229 Eh     11.73 kcal/mol
-----------------------------------------------------------------------
Final entropy term                ...      0.03778726 Eh     23.71 kcal/mol

CAUTION: The rotational entropy is not quite correctly treated here
         because it includes a symmetry number that is not yet correctly
         implemented in ORCA!
For a nonlinear molecule the correct rotational entropy is:
    S(rot) = R*(ln(qrot/sn)+1.5)
    R    = 8.31441 J/mol/K = 1.987191683e-3 kcal/mol/K
    qrot = 155264.4345234
    sn is the rotational symmetry number. We have assumed 3 here
       if it is different for your molecule then you should correct
       the printed rotational entropy by manually evaluating the equation
       as given above

For convenience we print out the resulting values for sn=1 - 12:
 sn= 1  qrot/sn=  155264.4345 T*S(rot)=     7.97 kcal/mol T*S(tot)=    24.36 kcal/mol
 sn= 2  qrot/sn=   77632.2173 T*S(rot)=     7.56 kcal/mol T*S(tot)=    23.95 kcal/mol
 sn= 3  qrot/sn=   51754.8115 T*S(rot)=     7.32 kcal/mol T*S(tot)=    23.71 kcal/mol
 sn= 4  qrot/sn=   38816.1086 T*S(rot)=     7.15 kcal/mol T*S(tot)=    23.54 kcal/mol
 sn= 5  qrot/sn=   31052.8869 T*S(rot)=     7.02 kcal/mol T*S(tot)=    23.41 kcal/mol
 sn= 6  qrot/sn=   25877.4058 T*S(rot)=     6.91 kcal/mol T*S(tot)=    23.30 kcal/mol
 sn= 7  qrot/sn=   22180.6335 T*S(rot)=     6.82 kcal/mol T*S(tot)=    23.21 kcal/mol
 sn= 8  qrot/sn=   19408.0543 T*S(rot)=     6.74 kcal/mol T*S(tot)=    23.13 kcal/mol
 sn= 9  qrot/sn=   17251.6038 T*S(rot)=     6.67 kcal/mol T*S(tot)=    23.06 kcal/mol
 sn=10  qrot/sn=   15526.4435 T*S(rot)=     6.61 kcal/mol T*S(tot)=    23.00 kcal/mol
 sn=11  qrot/sn=   14114.9486 T*S(rot)=     6.55 kcal/mol T*S(tot)=    22.94 kcal/mol
 sn=12  qrot/sn=   12938.7029 T*S(rot)=     6.50 kcal/mol T*S(tot)=    22.89 kcal/mol

-------------------
GIBBS FREE ENTHALPY
-------------------

The Gibbs free enthalpy is G = H - T*S

Total enthalpy                    ...   -287.75960548 Eh
Total entropy correction          ...     -0.03778726 Eh    -23.71 kcal/mol
-----------------------------------------------------------------------
Final Gibbs free enthalpy         ...   -287.79739274 Eh

For completeness - the Gibbs free enthalpy minus the electronic energy
G-E(el)                           ...      0.11635828 Eh     73.02 kcal/mol

                             ****ORCA TERMINATED NORMALLY****
TOTAL RUN TIME: 0 days 0 hours 21 minutes 20 seconds 855 msec
