                         Program Version 3.0.3 - RELEASE   -
|  1> ! NORI PBE0 def2-TZVP UseSym TightOPT Freq TightSCF Grid3 FinalGrid5 XYZFile
|  2> % pal
|  3>     nprocs 8
|  4> end
|  5> %method
|  6>     SymThresh 5.0e-2
|  7> end
|  8> % geom
|  9>     MaxIter 10
| 10> end
| 11> % maxcore 2000
| 12> % output
| 13>     printlevel mini
| 14>     print[ P_Basis ] 0
| 15>     print[ P_SCFInfo ] 1
| 16>     print[ P_SCFIterInfo ] 1
| 17>     print[ P_OrbEn ] 0
| 18>     print[ P_Cartesian ] 0
| 19> end
| 20> % elprop
| 21>     Dipole false
| 22> end
| 23> *xyz 1 1
| 24>  C        1.0042077653     0.1500088815    -0.1310509740
| 25>  N        2.4759577113     0.1118648255    -0.0870510735
| 26>  C        3.2665121394    -0.6582697309    -1.0581350780
| 27>  C        3.2951607730     0.8207138516    -1.1025508635
| 28>  C        4.5071780787     1.5612830578    -0.5989802529
| 29>  O        4.9355630855     2.5055114148    -1.1778834388
| 30>  H        0.6619977822     1.0709236058     0.3388551446
| 31>  H        0.6166057057    -0.7180108575     0.4007630285
| 32>  H        0.6845321271     0.1219066415    -1.1712454914
| 33>  H        2.8613683295     0.1308661277     0.8550225187
| 34>  H        4.1096947770    -1.1923311370    -0.6350200766
| 35>  H        2.6768776718    -1.1926986237    -1.7922515301
| 36>  H        2.7105975765     1.3339804285    -1.8575582077
| 37>  H        4.9762464770     1.1514115145     0.3227862946
| 38> *
| 39>
| 40>                          ****END OF INPUT****
 Total Charge           Charge          ....    1
 Multiplicity           Mult            ....    1
 Number of Electrons    NEL             ....   46
FINAL SINGLE POINT ENERGY      -286.681288937134
FINAL SINGLE POINT ENERGY      -286.681288506099
FINAL SINGLE POINT ENERGY      -286.681289998890

CARTESIAN COORDINATES (ANGSTROEM)
---------------------------------
  C      0.410238   -1.108281   -2.054500
  N      0.391907   -0.001052   -1.083320
  C     -0.792276    0.847916   -0.888832
  C     -0.386797   -0.094380    0.177700
  C      0.278176    0.429984    1.424628
  O      0.002443    0.000026    2.496553
  H      1.148656   -1.842563   -1.736067
  H      0.666591   -0.707931   -3.034567
  H     -0.578029   -1.563465   -2.086022
  H      1.282338    0.484210   -0.995105
  H     -0.578875    1.904352   -0.771278
  H     -1.634050    0.594462   -1.520713
  H     -0.930139   -1.025595    0.290659
  H      1.012517    1.251926    1.271837

FINAL SINGLE POINT ENERGY      -286.681290261299
                    ***********************HURRAY********************
 Multiplicity           Mult            ....    1
 Number of Electrons    NEL             ....   46
 Basis Dimension        Dim             ....  234
FINAL SINGLE POINT ENERGY      -286.681290417349

VIBRATIONAL FREQUENCIES
-----------------------

   0:         0.00 cm**-1
   1:         0.00 cm**-1
   2:         0.00 cm**-1
   3:         0.00 cm**-1
   4:         0.00 cm**-1
   5:         0.00 cm**-1
   6:        81.00 cm**-1
   7:       189.60 cm**-1
   8:       217.44 cm**-1
   9:       237.76 cm**-1
  10:       362.61 cm**-1
  11:       424.26 cm**-1
  12:       489.70 cm**-1
  13:       797.52 cm**-1
  14:       850.39 cm**-1
  15:       882.05 cm**-1
  16:       943.07 cm**-1
  17:      1021.95 cm**-1
  18:      1047.94 cm**-1
  19:      1090.21 cm**-1
  20:      1151.66 cm**-1
  21:      1160.24 cm**-1
  22:      1171.92 cm**-1
  23:      1194.63 cm**-1
  24:      1232.60 cm**-1
  25:      1280.52 cm**-1
  26:      1337.74 cm**-1
  27:      1417.79 cm**-1
  28:      1454.59 cm**-1
  29:      1457.92 cm**-1
  30:      1480.65 cm**-1
  31:      1492.39 cm**-1
  32:      1510.97 cm**-1
  33:      1878.44 cm**-1
  34:      2905.33 cm**-1
  35:      3085.82 cm**-1
  36:      3162.28 cm**-1
  37:      3186.27 cm**-1
  38:      3190.37 cm**-1
  39:      3212.96 cm**-1
  40:      3267.10 cm**-1
  41:      3505.08 cm**-1

IR SPECTRUM
-----------

 Mode    freq (cm**-1)   T**2         TX         TY         TZ
-------------------------------------------------------------------
   6:        81.00    8.375299  (  1.854769  -2.115981  -0.676574)
   7:       189.60    3.363613  ( -1.193254  -1.392702  -0.011880)
   8:       217.44    3.184379  (  1.384633   1.109752   0.188741)
   9:       237.76    3.323079  ( -0.758842  -1.621321   0.344319)
  10:       362.61    1.604387  (  0.709629   0.974390  -0.389072)
  11:       424.26    0.398133  ( -0.494180  -0.080183  -0.384044)
  12:       489.70    8.364706  ( -1.019966  -1.093422  -2.475642)
  13:       797.52   10.358341  ( -2.172932  -0.437142   2.333584)
  14:       850.39   25.737403  (  3.566385   0.887443   3.497248)
  15:       882.05    1.753411  ( -1.202570  -0.426028  -0.354595)
  16:       943.07   18.908347  ( -2.062704   1.743672  -3.407816)
  17:      1021.95   27.682646  ( -2.194651   3.278979   3.480581)
  18:      1047.94   64.786659  ( -1.025291   2.214338   7.670211)
  19:      1090.21    1.486647  ( -0.497628   1.096613   0.190926)
  20:      1151.66    7.573655  (  0.419422  -1.635708   2.173063)
  21:      1160.24    6.993875  ( -0.579426  -1.626519   2.003142)
  22:      1171.92   11.542918  (  2.475827   1.756655   1.525569)
  23:      1194.63    1.953891  (  0.443385   0.341058   1.281008)
  24:      1232.60   10.648574  ( -0.756435   3.173998  -0.045977)
  25:      1280.52    3.597859  ( -1.606327   0.981944  -0.230991)
  26:      1337.74    0.476940  ( -0.373411   0.015816  -0.580736)
  27:      1417.79    9.325058  ( -0.576754  -0.334255  -2.980048)
  28:      1454.59    4.765690  ( -1.080149  -1.336978   1.345904)
  29:      1457.92   15.264612  ( -1.235950   3.515440   1.174189)
  30:      1480.65   15.005120  ( -1.500721   2.114211  -2.878032)
  31:      1492.39   20.330015  (  4.503561  -0.053741  -0.212282)
  32:      1510.97   21.540038  (  3.308635  -0.467369  -3.220953)
  33:      1878.44  165.440589  (  1.491714   3.183336 -12.372621)
  34:      2905.33   42.109217  ( -4.337557  -4.594435   1.478508)
  35:      3085.82    0.028347  (  0.163513  -0.019930  -0.034839)
  36:      3162.28    4.378830  ( -1.336675   1.504300  -0.573769)
  37:      3186.27    0.930464  ( -0.156747   0.654682  -0.690858)
  38:      3190.37    0.418030  (  0.482687  -0.037314   0.428546)
  39:      3212.96    8.008216  (  1.553883   2.259089  -0.700131)
  40:      3267.10   10.483112  (  2.032661   1.849668   1.711762)
  41:      3505.08   77.826324  ( -8.202930  -3.236359  -0.253448)

--------------------------
THERMOCHEMISTRY AT 298.15K
--------------------------

Temperature         ... 298.15 K
Pressure            ... 1.00 atm
Total Mass          ... 86.11 AMU

Throughout the following assumptions are being made:
  (1) The electronic state is orbitally nondegenerate
  (2) There are no thermally accessible electronically excited states
  (3) Hindered rotations indicated by low frequency modes) are not
      treated as such but are treated as vibrations and this may
      case some error
  (4) All equations used are the standard statistical mechanics
      equations for an ideal gas
  (5) All vibrations are strinctly harmonic

------------
INNER ENERGY
------------

The inner energy is: U= E(el) + E(ZPE) + E(vib) + E(rot) + E(trans)
    E(el)   - is the total energy from the electronic structure calculation
              = E(kin-el) + E(nuc-el) + E(el-el) + E(nuc-nuc)
    E(ZPE)  - the the zero temperature vibrational energy from the frequency calculation
    E(vib)  - the the finite temperature correction to E(ZPE) due to population
              of excietd vibrational states
    E(rot)  - is the rotational thermal energy
    E(trans)- is the translational thermal energy

Summary of contributions to the inner energy U:
Electronic energy                ...   -286.68129042 Eh
Zero point energy                ...      0.12159217 Eh      76.30 kcal/mol
Thermal vibrational correction   ...      0.00373792 Eh       2.35 kcal/mol
Thermal rotational correction    ...      0.00141627 Eh       0.89 kcal/mol
Thermal translational correction ...      0.00141627 Eh       0.89 kcal/mol
-----------------------------------------------------------------------
Total thermal energy                   -286.55312779 Eh

Summary of corrections to the electronic energy:
(perhaps to be used in another calculation)
Total thermal correction                  0.00657046 Eh       4.12 kcal/mol
Non-thermal (ZPE) correction              0.12159217 Eh      76.30 kcal/mol
-----------------------------------------------------------------------
Total correction                          0.12816263 Eh      80.42 kcal/mol

--------
ENTHALPY
--------

The enthalpy is H = U + kB*T
                kB is Boltzmann's constant
Total free energy                 ...   -286.55312779 Eh
Thermal Enthalpy correction       ...      0.00094421 Eh       0.59 kcal/mol
-----------------------------------------------------------------------
Total Enthalpy                    ...   -286.55218358 Eh

-------
ENTROPY
-------

The entropy contributions are T*S = T*(S(el)+S(vib)+S(rot)+S(trans)
     S(el)   - electronic entropy
     S(vib)  - vibrational entropy
     S(rot)  - rotational entropy
     S(trans)- translational entropy
The entropies will be listed as mutliplied by the temperature to get
units of energy

Electronic entropy                ...      0.00000000 Eh      0.00 kcal/mol
Vibrational entropy               ...      0.00655977 Eh      4.12 kcal/mol
Rotational entropy                ...      0.01161607 Eh      7.29 kcal/mol
Translational entropy             ...      0.01865951 Eh     11.71 kcal/mol
-----------------------------------------------------------------------
Final entropy term                ...      0.03683535 Eh     23.11 kcal/mol

CAUTION: The rotational entropy is not quite correctly treated here
         because it includes a symmetry number that is not yet correctly
         implemented in ORCA!
For a nonlinear molecule the correct rotational entropy is:
    S(rot) = R*(ln(qrot/sn)+1.5)
    R    = 8.31441 J/mol/K = 1.987191683e-3 kcal/mol/K
    qrot = 147474.9651984
    sn is the rotational symmetry number. We have assumed 3 here
       if it is different for your molecule then you should correct
       the printed rotational entropy by manually evaluating the equation
       as given above

For convenience we print out the resulting values for sn=1 - 12:
 sn= 1  qrot/sn=  147474.9652 T*S(rot)=     7.94 kcal/mol T*S(tot)=    23.77 kcal/mol
 sn= 2  qrot/sn=   73737.4826 T*S(rot)=     7.53 kcal/mol T*S(tot)=    23.35 kcal/mol
 sn= 3  qrot/sn=   49158.3217 T*S(rot)=     7.29 kcal/mol T*S(tot)=    23.11 kcal/mol
 sn= 4  qrot/sn=   36868.7413 T*S(rot)=     7.12 kcal/mol T*S(tot)=    22.94 kcal/mol
 sn= 5  qrot/sn=   29494.9930 T*S(rot)=     6.99 kcal/mol T*S(tot)=    22.81 kcal/mol
 sn= 6  qrot/sn=   24579.1609 T*S(rot)=     6.88 kcal/mol T*S(tot)=    22.70 kcal/mol
 sn= 7  qrot/sn=   21067.8522 T*S(rot)=     6.79 kcal/mol T*S(tot)=    22.61 kcal/mol
 sn= 8  qrot/sn=   18434.3706 T*S(rot)=     6.71 kcal/mol T*S(tot)=    22.53 kcal/mol
 sn= 9  qrot/sn=   16386.1072 T*S(rot)=     6.64 kcal/mol T*S(tot)=    22.46 kcal/mol
 sn=10  qrot/sn=   14747.4965 T*S(rot)=     6.58 kcal/mol T*S(tot)=    22.40 kcal/mol
 sn=11  qrot/sn=   13406.8150 T*S(rot)=     6.52 kcal/mol T*S(tot)=    22.34 kcal/mol
 sn=12  qrot/sn=   12289.5804 T*S(rot)=     6.47 kcal/mol T*S(tot)=    22.29 kcal/mol

-------------------
GIBBS FREE ENTHALPY
-------------------

The Gibbs free enthalpy is G = H - T*S

Total enthalpy                    ...   -286.55218358 Eh
Total entropy correction          ...     -0.03683535 Eh    -23.11 kcal/mol
-----------------------------------------------------------------------
Final Gibbs free enthalpy         ...   -286.58901893 Eh

For completeness - the Gibbs free enthalpy minus the electronic energy
G-E(el)                           ...      0.09227148 Eh     57.90 kcal/mol

                             ****ORCA TERMINATED NORMALLY****
TOTAL RUN TIME: 0 days 0 hours 20 minutes 35 seconds 928 msec
