                         Program Version 3.0.3 - RELEASE   -
|  1> ! NORI PBE0 def2-TZVP UseSym TightOPT Freq TightSCF Grid3 FinalGrid5 XYZFile
|  2> % pal
|  3>     nprocs 8
|  4> end
|  5> %method
|  6>     SymThresh 5.0e-2
|  7> end
|  8> % geom
|  9>     MaxIter 10
| 10> end
| 11> % maxcore 2000
| 12> % output
| 13>     printlevel mini
| 14>     print[ P_Basis ] 0
| 15>     print[ P_SCFInfo ] 1
| 16>     print[ P_SCFIterInfo ] 1
| 17>     print[ P_OrbEn ] 0
| 18>     print[ P_Cartesian ] 0
| 19> end
| 20> % elprop
| 21>     Dipole false
| 22> end
| 23> *xyz 1 1
| 24>  C        0.8584915092    -0.0484118164     0.1553698691
| 25>  N        2.3315907333    -0.0358363888     0.0066394537
| 26>  C        3.0833326212     1.0724642764     0.7301196235
| 27>  C        3.8768777118    -0.0044650997     1.4727741643
| 28>  O        4.7378145865     0.0127786415     2.2742165605
| 29>  C        3.1045277670    -1.1130349867     0.7546682603
| 30>  H        0.4455354326     0.8363821428    -0.3274621913
| 31>  H        0.6150460427    -0.0415707088     1.2171175872
| 32>  H        0.4622343507    -0.9489478646    -0.3121389694
| 33>  H        2.5639863753    -0.0448187331    -0.9855174631
| 34>  H        2.4136765355     1.6742531659     1.3459924454
| 35>  H        3.6521021062     1.7081971026     0.0505303911
| 36>  H        3.6863562532    -1.7517427026     0.0890488593
| 37>  H        2.4465279748    -1.7145770284     1.3831314093
| 38> *
| 39>
| 40>                          ****END OF INPUT****
 Total Charge           Charge          ....    1
 Multiplicity           Mult            ....    1
 Number of Electrons    NEL             ....   46
FINAL SINGLE POINT ENERGY      -286.698952823524

CARTESIAN COORDINATES (ANGSTROEM)
---------------------------------
  C     -2.114738   -0.733279    0.000000
  N     -1.048862    0.294610   -0.000000
  C      0.005370    0.188024    1.092806
  C      1.072362    0.097051   -0.000000
  O      2.244549   -0.001084    0.000000
  C      0.005370    0.188024   -1.092806
  H     -2.726531   -0.609850    0.892734
  H     -1.649850   -1.718362    0.000000
  H     -2.726531   -0.609850   -0.892734
  H     -1.479886    1.217934    0.000000
  H     -0.131558   -0.710941    1.695199
  H      0.041856    1.072557    1.729620
  H      0.041856    1.072557   -1.729620
  H     -0.131558   -0.710941   -1.695199

FINAL SINGLE POINT ENERGY      -286.698953175917
                    ***********************HURRAY********************
 Multiplicity           Mult            ....    1
 Number of Electrons    NEL             ....   46
 Basis Dimension        Dim             ....  234
FINAL SINGLE POINT ENERGY      -286.698953409130

VIBRATIONAL FREQUENCIES
-----------------------

   0:         0.00 cm**-1
   1:         0.00 cm**-1
   2:         0.00 cm**-1
   3:         0.00 cm**-1
   4:         0.00 cm**-1
   5:         0.00 cm**-1
   6:        59.41 cm**-1
   7:       250.27 cm**-1
   8:       318.52 cm**-1
   9:       394.25 cm**-1
  10:       413.85 cm**-1
  11:       480.90 cm**-1
  12:       673.58 cm**-1
  13:       680.27 cm**-1
  14:       777.00 cm**-1
  15:       893.81 cm**-1
  16:       920.61 cm**-1
  17:      1005.90 cm**-1
  18:      1060.37 cm**-1
  19:      1075.74 cm**-1
  20:      1096.00 cm**-1
  21:      1118.69 cm**-1
  22:      1194.47 cm**-1
  23:      1262.32 cm**-1
  24:      1279.96 cm**-1
  25:      1288.02 cm**-1
  26:      1327.96 cm**-1
  27:      1422.27 cm**-1
  28:      1428.56 cm**-1
  29:      1441.96 cm**-1
  30:      1468.32 cm**-1
  31:      1487.38 cm**-1
  32:      1496.57 cm**-1
  33:      1983.55 cm**-1
  34:      3082.34 cm**-1
  35:      3101.99 cm**-1
  36:      3106.02 cm**-1
  37:      3176.09 cm**-1
  38:      3176.25 cm**-1
  39:      3184.05 cm**-1
  40:      3184.82 cm**-1
  41:      3495.30 cm**-1

IR SPECTRUM
-----------

 Mode    freq (cm**-1)   T**2         TX         TY         TZ
-------------------------------------------------------------------
   6:        59.41    6.363863  ( -0.094905  -2.520884  -0.000000)
   7:       250.27    0.583773  (  0.000001  -0.000000   0.764050)
   8:       318.52    1.886937  (  0.000001   0.000000   1.373658)
   9:       394.25    0.633617  (  0.587899  -0.536650  -0.000000)
  10:       413.85    0.371721  (  0.516025  -0.324714   0.000000)
  11:       480.90    2.203449  ( -0.000000   0.000000   1.484402)
  12:       673.58    4.101732  ( -1.889290  -0.729600   0.000000)
  13:       680.27    0.304387  ( -0.000000  -0.000000   0.551712)
  14:       777.00    0.836546  (  0.028439  -0.914187  -0.000000)
  15:       893.81   18.937407  (  0.000001   0.000000  -4.351713)
  16:       920.61    7.779559  (  2.699837  -0.700314   0.000000)
  17:      1005.90   16.668560  ( -3.839530  -1.388010  -0.000000)
  18:      1060.37   14.576368  ( -0.000003  -0.000000   3.817901)
  19:      1075.74   52.202240  ( -0.000013  -0.000000   7.225112)
  20:      1096.00    8.586478  (  2.727345   1.071479   0.000000)
  21:      1118.69    3.065469  ( -1.669590   0.527198   0.000000)
  22:      1194.47    0.819690  (  0.000000   0.000000   0.905367)
  23:      1262.32   17.862325  ( -0.000002   0.000000   4.226384)
  24:      1279.96    2.984960  ( -0.397186  -1.681429   0.000000)
  25:      1288.02    3.561079  (  1.878886  -0.175687   0.000000)
  26:      1327.96    2.808340  (  0.000002   0.000000   1.675810)
  27:      1422.27    7.981571  ( -1.643408  -2.297995  -0.000000)
  28:      1428.56   45.980982  (  0.000001   0.000000   6.780928)
  29:      1441.96    8.826415  (  2.939210   0.432964   0.000000)
  30:      1468.32   10.123109  ( -2.080367  -2.407319   0.000000)
  31:      1487.38   13.499473  ( -0.000000  -0.000000  -3.674163)
  32:      1496.57   24.737639  ( -4.272438   2.546352  -0.000000)
  33:      1983.55  263.368332  ( 16.199040  -0.979503  -0.000000)
  34:      3082.34    0.125367  ( -0.353500   0.020126  -0.000000)
  35:      3101.99   13.886567  (  0.000000   0.000000  -3.726468)
  36:      3106.02    1.665487  ( -1.281740   0.150433  -0.000000)
  37:      3176.09   11.433747  ( -0.218159  -3.374337  -0.000000)
  38:      3176.25    0.056338  (  0.000000  -0.000000  -0.237356)
  39:      3184.05    0.419023  ( -0.066073  -0.643939   0.000000)
  40:      3184.82    0.864402  ( -0.000000   0.000000  -0.929732)
  41:      3495.30   80.660597  ( -4.589431   7.719956  -0.000000)

--------------------------
THERMOCHEMISTRY AT 298.15K
--------------------------

Temperature         ... 298.15 K
Pressure            ... 1.00 atm
Total Mass          ... 86.11 AMU

Throughout the following assumptions are being made:
  (1) The electronic state is orbitally nondegenerate
  (2) There are no thermally accessible electronically excited states
  (3) Hindered rotations indicated by low frequency modes) are not
      treated as such but are treated as vibrations and this may
      case some error
  (4) All equations used are the standard statistical mechanics
      equations for an ideal gas
  (5) All vibrations are strinctly harmonic

------------
INNER ENERGY
------------

The inner energy is: U= E(el) + E(ZPE) + E(vib) + E(rot) + E(trans)
    E(el)   - is the total energy from the electronic structure calculation
              = E(kin-el) + E(nuc-el) + E(el-el) + E(nuc-nuc)
    E(ZPE)  - the the zero temperature vibrational energy from the frequency calculation
    E(vib)  - the the finite temperature correction to E(ZPE) due to population
              of excietd vibrational states
    E(rot)  - is the rotational thermal energy
    E(trans)- is the translational thermal energy

Summary of contributions to the inner energy U:
Electronic energy                ...   -286.69895341 Eh
Zero point energy                ...      0.12258220 Eh      76.92 kcal/mol
Thermal vibrational correction   ...      0.00322511 Eh       2.02 kcal/mol
Thermal rotational correction    ...      0.00141627 Eh       0.89 kcal/mol
Thermal translational correction ...      0.00141627 Eh       0.89 kcal/mol
-----------------------------------------------------------------------
Total thermal energy                   -286.57031356 Eh

Summary of corrections to the electronic energy:
(perhaps to be used in another calculation)
Total thermal correction                  0.00605765 Eh       3.80 kcal/mol
Non-thermal (ZPE) correction              0.12258220 Eh      76.92 kcal/mol
-----------------------------------------------------------------------
Total correction                          0.12863985 Eh      80.72 kcal/mol

--------
ENTHALPY
--------

The enthalpy is H = U + kB*T
                kB is Boltzmann's constant
Total free energy                 ...   -286.57031356 Eh
Thermal Enthalpy correction       ...      0.00094421 Eh       0.59 kcal/mol
-----------------------------------------------------------------------
Total Enthalpy                    ...   -286.56936935 Eh

-------
ENTROPY
-------

The entropy contributions are T*S = T*(S(el)+S(vib)+S(rot)+S(trans)
     S(el)   - electronic entropy
     S(vib)  - vibrational entropy
     S(rot)  - rotational entropy
     S(trans)- translational entropy
The entropies will be listed as mutliplied by the temperature to get
units of energy

Electronic entropy                ...      0.00000000 Eh      0.00 kcal/mol
Vibrational entropy               ...      0.00565136 Eh      3.55 kcal/mol
Rotational entropy                ...      0.01144694 Eh      7.18 kcal/mol
Translational entropy             ...      0.01865951 Eh     11.71 kcal/mol
-----------------------------------------------------------------------
Final entropy term                ...      0.03575782 Eh     22.44 kcal/mol

CAUTION: The rotational entropy is not quite correctly treated here
         because it includes a symmetry number that is not yet correctly
         implemented in ORCA!
For a nonlinear molecule the correct rotational entropy is:
    S(rot) = R*(ln(qrot/sn)+1.5)
    R    = 8.31441 J/mol/K = 1.987191683e-3 kcal/mol/K
    qrot = 123289.1504290
    sn is the rotational symmetry number. We have assumed 3 here
       if it is different for your molecule then you should correct
       the printed rotational entropy by manually evaluating the equation
       as given above

For convenience we print out the resulting values for sn=1 - 12:
 sn= 1  qrot/sn=  123289.1504 T*S(rot)=     7.83 kcal/mol T*S(tot)=    23.09 kcal/mol
 sn= 2  qrot/sn=   61644.5752 T*S(rot)=     7.42 kcal/mol T*S(tot)=    22.68 kcal/mol
 sn= 3  qrot/sn=   41096.3835 T*S(rot)=     7.18 kcal/mol T*S(tot)=    22.44 kcal/mol
 sn= 4  qrot/sn=   30822.2876 T*S(rot)=     7.01 kcal/mol T*S(tot)=    22.27 kcal/mol
 sn= 5  qrot/sn=   24657.8301 T*S(rot)=     6.88 kcal/mol T*S(tot)=    22.14 kcal/mol
 sn= 6  qrot/sn=   20548.1917 T*S(rot)=     6.77 kcal/mol T*S(tot)=    22.03 kcal/mol
 sn= 7  qrot/sn=   17612.7358 T*S(rot)=     6.68 kcal/mol T*S(tot)=    21.94 kcal/mol
 sn= 8  qrot/sn=   15411.1438 T*S(rot)=     6.60 kcal/mol T*S(tot)=    21.86 kcal/mol
 sn= 9  qrot/sn=   13698.7945 T*S(rot)=     6.53 kcal/mol T*S(tot)=    21.79 kcal/mol
 sn=10  qrot/sn=   12328.9150 T*S(rot)=     6.47 kcal/mol T*S(tot)=    21.72 kcal/mol
 sn=11  qrot/sn=   11208.1046 T*S(rot)=     6.41 kcal/mol T*S(tot)=    21.67 kcal/mol
 sn=12  qrot/sn=   10274.0959 T*S(rot)=     6.36 kcal/mol T*S(tot)=    21.62 kcal/mol

-------------------
GIBBS FREE ENTHALPY
-------------------

The Gibbs free enthalpy is G = H - T*S

Total enthalpy                    ...   -286.56936935 Eh
Total entropy correction          ...     -0.03575782 Eh    -22.44 kcal/mol
-----------------------------------------------------------------------
Final Gibbs free enthalpy         ...   -286.60512717 Eh

For completeness - the Gibbs free enthalpy minus the electronic energy
G-E(el)                           ...      0.09382624 Eh     58.88 kcal/mol

                             ****ORCA TERMINATED NORMALLY****
TOTAL RUN TIME: 0 days 0 hours 20 minutes 55 seconds 283 msec
