                         Program Version 3.0.3 - RELEASE   -
|  1> ! NORI PBE0 def2-TZVP UseSym TightOPT Freq TightSCF Grid3 FinalGrid5 XYZFile
|  2> % pal
|  3>     nprocs 8
|  4> end
|  5> %method
|  6>     SymThresh 5.0e-2
|  7> end
|  8> % geom
|  9>     MaxIter 10
| 10> end
| 11> % maxcore 2000
| 12> % output
| 13>     printlevel mini
| 14>     print[ P_Basis ] 0
| 15>     print[ P_SCFInfo ] 1
| 16>     print[ P_SCFIterInfo ] 1
| 17>     print[ P_OrbEn ] 0
| 18>     print[ P_Cartesian ] 0
| 19> end
| 20> % elprop
| 21>     Dipole false
| 22> end
| 23> *xyz 1 1
| 24>  C        0.8891429613     0.0238989090     0.6130346080
| 25>  N        2.2342111618     0.0255796412    -0.0036788976
| 26>  C        3.1774482803     1.1052818154     0.4944531638
| 27>  C        3.9142978006     0.0511940076     1.3506846332
| 28>  O        5.2830796405     0.0608191939     1.4136414058
| 29>  C        3.1912237427    -1.0304032239     0.5176732495
| 30>  H        0.3470801036     0.9093882035     0.2825870606
| 31>  H        0.9966856028     0.0377872148     1.6964371304
| 32>  H        0.3589740856    -0.8765260167     0.3042927136
| 33>  H        2.1306917514     0.0137490946    -1.0164962543
| 34>  H        2.6570084531     1.9271715205     0.9827909863
| 35>  H        3.7763136687     1.4763208461    -0.3375846933
| 36>  H        3.5624363051     0.0604260451     2.3833543816
| 37>  H        5.6846804121     0.0502107799     0.5382280879
| 38>  H        3.7951573733    -1.4111581243    -0.3063253590
| 39>  H        2.6820486570    -1.8488599068     1.0233977833
| 40> *
| 41>
| 42>                          ****END OF INPUT****
 Total Charge           Charge          ....    1
 Multiplicity           Mult            ....    1
 Number of Electrons    NEL             ....   48
FINAL SINGLE POINT ENERGY      -287.915323789516

CARTESIAN COORDINATES (ANGSTROEM)
---------------------------------
  C     -2.171981   -0.578592   -0.000000
  N     -1.079475    0.419636    0.000000
  C     -0.019068    0.224280    1.067836
  C      0.933688   -0.357747    0.000000
  O      2.256573   -0.000710    0.000000
  C     -0.019068    0.224280   -1.067836
  H     -2.780065   -0.438144    0.892782
  H     -1.738969   -1.577574   -0.000000
  H     -2.780065   -0.438144   -0.892782
  H     -1.487196    1.352491    0.000000
  H     -0.357414   -0.405736    1.888222
  H      0.301288    1.196515    1.443467
  H      0.913464   -1.448410    0.000000
  H      2.371975    0.955454   -0.000000
  H      0.301288    1.196515   -1.443467
  H     -0.357414   -0.405736   -1.888222

FINAL SINGLE POINT ENERGY      -287.915324382980
                    ***********************HURRAY********************
 Multiplicity           Mult            ....    1
 Number of Electrons    NEL             ....   48
 Basis Dimension        Dim             ....  246
FINAL SINGLE POINT ENERGY      -287.915324568844

VIBRATIONAL FREQUENCIES
-----------------------

   0:         0.00 cm**-1
   1:         0.00 cm**-1
   2:         0.00 cm**-1
   3:         0.00 cm**-1
   4:         0.00 cm**-1
   5:         0.00 cm**-1
   6:        90.89 cm**-1
   7:       247.41 cm**-1
   8:       283.79 cm**-1
   9:       352.36 cm**-1
  10:       354.57 cm**-1
  11:       419.77 cm**-1
  12:       467.62 cm**-1
  13:       676.23 cm**-1
  14:       807.92 cm**-1
  15:       831.91 cm**-1
  16:       902.47 cm**-1
  17:       927.29 cm**-1
  18:       998.07 cm**-1
  19:      1007.73 cm**-1
  20:      1088.77 cm**-1
  21:      1091.30 cm**-1
  22:      1107.19 cm**-1
  23:      1204.28 cm**-1
  24:      1215.52 cm**-1
  25:      1255.62 cm**-1
  26:      1286.62 cm**-1
  27:      1293.74 cm**-1
  28:      1309.90 cm**-1
  29:      1333.36 cm**-1
  30:      1368.61 cm**-1
  31:      1428.70 cm**-1
  32:      1452.04 cm**-1
  33:      1456.50 cm**-1
  34:      1470.60 cm**-1
  35:      1488.63 cm**-1
  36:      1492.12 cm**-1
  37:      1503.09 cm**-1
  38:      3084.04 cm**-1
  39:      3106.98 cm**-1
  40:      3109.10 cm**-1
  41:      3121.66 cm**-1
  42:      3182.39 cm**-1
  43:      3185.37 cm**-1
  44:      3186.16 cm**-1
  45:      3187.71 cm**-1
  46:      3499.44 cm**-1
  47:      3831.57 cm**-1

IR SPECTRUM
-----------

 Mode    freq (cm**-1)   T**2         TX         TY         TZ
-------------------------------------------------------------------
   6:        90.89    2.052543  (  0.858984   1.146599  -0.000000)
   7:       247.41    0.245333  ( -0.000000  -0.000000  -0.495311)
   8:       283.79    6.631076  (  0.000000   0.000000  -2.575088)
   9:       352.36    0.208301  ( -0.054393   0.453147  -0.000000)
  10:       354.57  105.915991  (  0.000000   0.000000  10.291550)
  11:       419.77   10.986880  ( -0.000000  -0.000000   3.314646)
  12:       467.62    2.897659  (  1.336575   1.054147   0.000000)
  13:       676.23    3.258683  (  1.801803  -0.110402  -0.000000)
  14:       807.92    2.304556  ( -0.851117   1.257042  -0.000000)
  15:       831.91    2.408265  ( -0.000000  -0.000000  -1.551859)
  16:       902.47    7.875917  ( -0.000000  -0.000000   2.806406)
  17:       927.29    6.184201  (  2.032164   1.433357  -0.000000)
  18:       998.07   17.470837  (  0.000000   0.000000  -4.179813)
  19:      1007.73   29.281557  ( -5.270941  -1.224232  -0.000000)
  20:      1088.77   10.857265  ( -3.170954  -0.895722   0.000000)
  21:      1091.30    1.638548  (  0.000000   0.000000  -1.280058)
  22:      1107.19    0.381813  (  0.585380  -0.197846   0.000000)
  23:      1204.28  182.722328  ( 13.360970   2.051050   0.000000)
  24:      1215.52    0.035592  (  0.000000   0.000000   0.188658)
  25:      1255.62    9.805116  ( -0.000000  -0.000000  -3.131312)
  26:      1286.62    0.663294  ( -0.210131   0.786854  -0.000000)
  27:      1293.74    1.006785  (  0.000000   0.000000   1.003387)
  28:      1309.90    8.781000  (  2.277368  -1.895941   0.000000)
  29:      1333.36   10.095921  (  0.000000   0.000000   3.177408)
  30:      1368.61    1.072185  (  0.432104  -0.940995   0.000000)
  31:      1428.70    9.293769  ( -1.976165  -2.321323  -0.000000)
  32:      1452.04   56.868286  (  7.536166   0.272924   0.000000)
  33:      1456.50   12.084216  (  2.281434   2.622837  -0.000000)
  34:      1470.60   29.660610  ( -0.000000  -0.000000  -5.446156)
  35:      1488.63    8.226697  ( -0.000000  -0.000000  -2.868222)
  36:      1492.12    2.480515  ( -1.028880   1.192443  -0.000000)
  37:      1503.09   29.650713  ( -4.690695   2.765519   0.000000)
  38:      3084.04    0.035289  (  0.002442   0.187839  -0.000000)
  39:      3106.98    0.140380  ( -0.000000  -0.000000   0.374673)
  40:      3109.10    0.015153  (  0.009855  -0.122704   0.000000)
  41:      3121.66    3.975429  ( -1.466571  -1.350777  -0.000000)
  42:      3182.39    0.452002  (  0.000000   0.000000   0.672311)
  43:      3185.37    0.467917  ( -0.673550   0.119366  -0.000000)
  44:      3186.16    0.049555  ( -0.000000  -0.000000   0.222610)
  45:      3187.71    0.206711  ( -0.306724   0.335605   0.000000)
  46:      3499.44   65.367794  ( -3.693288   7.192178   0.000000)
  47:      3831.57   57.601894  (  4.731417   5.934273   0.000000)

--------------------------
THERMOCHEMISTRY AT 298.15K
--------------------------

Temperature         ... 298.15 K
Pressure            ... 1.00 atm
Total Mass          ... 88.13 AMU

Throughout the following assumptions are being made:
  (1) The electronic state is orbitally nondegenerate
  (2) There are no thermally accessible electronically excited states
  (3) Hindered rotations indicated by low frequency modes) are not
      treated as such but are treated as vibrations and this may
      case some error
  (4) All equations used are the standard statistical mechanics
      equations for an ideal gas
  (5) All vibrations are strinctly harmonic

------------
INNER ENERGY
------------

The inner energy is: U= E(el) + E(ZPE) + E(vib) + E(rot) + E(trans)
    E(el)   - is the total energy from the electronic structure calculation
              = E(kin-el) + E(nuc-el) + E(el-el) + E(nuc-nuc)
    E(ZPE)  - the the zero temperature vibrational energy from the frequency calculation
    E(vib)  - the the finite temperature correction to E(ZPE) due to population
              of excietd vibrational states
    E(rot)  - is the rotational thermal energy
    E(trans)- is the translational thermal energy

Summary of contributions to the inner energy U:
Electronic energy                ...   -287.91532457 Eh
Zero point energy                ...      0.14741802 Eh      92.51 kcal/mol
Thermal vibrational correction   ...      0.00359471 Eh       2.26 kcal/mol
Thermal rotational correction    ...      0.00141627 Eh       0.89 kcal/mol
Thermal translational correction ...      0.00141627 Eh       0.89 kcal/mol
-----------------------------------------------------------------------
Total thermal energy                   -287.76147930 Eh

Summary of corrections to the electronic energy:
(perhaps to be used in another calculation)
Total thermal correction                  0.00642726 Eh       4.03 kcal/mol
Non-thermal (ZPE) correction              0.14741802 Eh      92.51 kcal/mol
-----------------------------------------------------------------------
Total correction                          0.15384527 Eh      96.54 kcal/mol

--------
ENTHALPY
--------

The enthalpy is H = U + kB*T
                kB is Boltzmann's constant
Total free energy                 ...   -287.76147930 Eh
Thermal Enthalpy correction       ...      0.00094421 Eh       0.59 kcal/mol
-----------------------------------------------------------------------
Total Enthalpy                    ...   -287.76053509 Eh

-------
ENTROPY
-------

The entropy contributions are T*S = T*(S(el)+S(vib)+S(rot)+S(trans)
     S(el)   - electronic entropy
     S(vib)  - vibrational entropy
     S(rot)  - rotational entropy
     S(trans)- translational entropy
The entropies will be listed as mutliplied by the temperature to get
units of energy

Electronic entropy                ...      0.00000000 Eh      0.00 kcal/mol
Vibrational entropy               ...      0.00595394 Eh      3.74 kcal/mol
Rotational entropy                ...      0.01151190 Eh      7.22 kcal/mol
Translational entropy             ...      0.01869229 Eh     11.73 kcal/mol
-----------------------------------------------------------------------
Final entropy term                ...      0.03615812 Eh     22.69 kcal/mol

CAUTION: The rotational entropy is not quite correctly treated here
         because it includes a symmetry number that is not yet correctly
         implemented in ORCA!
For a nonlinear molecule the correct rotational entropy is:
    S(rot) = R*(ln(qrot/sn)+1.5)
    R    = 8.31441 J/mol/K = 1.987191683e-3 kcal/mol/K
    qrot = 132068.9294627
    sn is the rotational symmetry number. We have assumed 3 here
       if it is different for your molecule then you should correct
       the printed rotational entropy by manually evaluating the equation
       as given above

For convenience we print out the resulting values for sn=1 - 12:
 sn= 1  qrot/sn=  132068.9295 T*S(rot)=     7.87 kcal/mol T*S(tot)=    23.34 kcal/mol
 sn= 2  qrot/sn=   66034.4647 T*S(rot)=     7.46 kcal/mol T*S(tot)=    22.93 kcal/mol
 sn= 3  qrot/sn=   44022.9765 T*S(rot)=     7.22 kcal/mol T*S(tot)=    22.69 kcal/mol
 sn= 4  qrot/sn=   33017.2324 T*S(rot)=     7.05 kcal/mol T*S(tot)=    22.52 kcal/mol
 sn= 5  qrot/sn=   26413.7859 T*S(rot)=     6.92 kcal/mol T*S(tot)=    22.39 kcal/mol
 sn= 6  qrot/sn=   22011.4882 T*S(rot)=     6.81 kcal/mol T*S(tot)=    22.28 kcal/mol
 sn= 7  qrot/sn=   18866.9899 T*S(rot)=     6.72 kcal/mol T*S(tot)=    22.19 kcal/mol
 sn= 8  qrot/sn=   16508.6162 T*S(rot)=     6.64 kcal/mol T*S(tot)=    22.11 kcal/mol
 sn= 9  qrot/sn=   14674.3255 T*S(rot)=     6.57 kcal/mol T*S(tot)=    22.04 kcal/mol
 sn=10  qrot/sn=   13206.8929 T*S(rot)=     6.51 kcal/mol T*S(tot)=    21.98 kcal/mol
 sn=11  qrot/sn=   12006.2663 T*S(rot)=     6.45 kcal/mol T*S(tot)=    21.92 kcal/mol
 sn=12  qrot/sn=   11005.7441 T*S(rot)=     6.40 kcal/mol T*S(tot)=    21.87 kcal/mol

-------------------
GIBBS FREE ENTHALPY
-------------------

The Gibbs free enthalpy is G = H - T*S

Total enthalpy                    ...   -287.76053509 Eh
Total entropy correction          ...     -0.03615812 Eh    -22.69 kcal/mol
-----------------------------------------------------------------------
Final Gibbs free enthalpy         ...   -287.79669321 Eh

For completeness - the Gibbs free enthalpy minus the electronic energy
G-E(el)                           ...      0.11863136 Eh     74.44 kcal/mol

                             ****ORCA TERMINATED NORMALLY****
TOTAL RUN TIME: 0 days 0 hours 23 minutes 0 seconds 514 msec
