                         Program Version 3.0.3 - RELEASE   -
|  1> ! NORI PBE0 def2-TZVP UseSym TightOPT Freq TightSCF Grid3 FinalGrid5 XYZFile
|  2> % pal
|  3>     nprocs 8
|  4> end
|  5> %method
|  6>     SymThresh 5.0e-2
|  7> end
|  8> % geom
|  9>     MaxIter 10
| 10> end
| 11> % maxcore 2000
| 12> % output
| 13>     printlevel mini
| 14>     print[ P_Basis ] 0
| 15>     print[ P_SCFInfo ] 1
| 16>     print[ P_SCFIterInfo ] 1
| 17>     print[ P_OrbEn ] 0
| 18>     print[ P_Cartesian ] 0
| 19> end
| 20> % elprop
| 21>     Dipole false
| 22> end
| 23> *xyz 1 1
| 24>  C        2.7614957290     1.1280527908     0.4609625646
| 25>  N        2.2149633050    -0.1646506357    -0.0470397639
| 26>  C        2.6039280827    -1.3329486301     0.7664018304
| 27>  C        2.5845733485    -2.7041567037     0.1731155228
| 28>  C        3.8887614950    -2.0230861729     0.4856832400
| 29>  O        4.6185903514    -2.3485345827     1.6007009406
| 30>  H        2.4467882312     1.9323614797    -0.2016752668
| 31>  H        3.8463870059     1.0522336141     0.4876732386
| 32>  H        2.3758291302     1.2931284391     1.4646862580
| 33>  H        2.5270057119    -0.3086072350    -1.0095293749
| 34>  H        1.1939930114    -0.1120895632    -0.0911532576
| 35>  H        2.3183818463    -1.2099358704     1.8036295387
| 36>  H        2.2402723940    -3.4945695973     0.8276766384
| 37>  H        2.3248410356    -2.8296689187    -0.8725229774
| 38>  H        4.4576292997    -1.6744506124    -0.3788630039
| 39>  H        5.1150000221    -3.1588878017     1.4433438724
| 40> *
| 41>
| 42>                          ****END OF INPUT****
 Total Charge           Charge          ....    1
 Multiplicity           Mult            ....    1
 Number of Electrons    NEL             ....   48
FINAL SINGLE POINT ENERGY      -287.911379939306

CARTESIAN COORDINATES (ANGSTROEM)
---------------------------------
  C      1.795584    0.089843   -1.563059
  N      0.306988   -0.000406   -1.503807
  C     -0.263501    0.457360   -0.222024
  C     -1.619175   -0.002316    0.206363
  C     -0.384543   -0.500523    0.906626
  O      0.000241   -0.000319    2.124590
  H      2.136662   -0.282591   -2.527402
  H      2.205740   -0.507536   -0.751914
  H      2.081429    1.132080   -1.438167
  H      0.019945   -0.966860   -1.671332
  H     -0.100868    0.546410   -2.266513
  H      0.041547    1.469699    0.011642
  H     -2.233264    0.740313    0.699766
  H     -2.162816   -0.709630   -0.410781
  H     -0.114552   -1.539092    0.704009
  H     -0.522280   -0.404489    2.825599

FINAL SINGLE POINT ENERGY      -287.911380432508
                    ***********************HURRAY********************
 Multiplicity           Mult            ....    1
 Number of Electrons    NEL             ....   48
 Basis Dimension        Dim             ....  246
FINAL SINGLE POINT ENERGY      -287.911380874839

VIBRATIONAL FREQUENCIES
-----------------------

   0:         0.00 cm**-1
   1:         0.00 cm**-1
   2:         0.00 cm**-1
   3:         0.00 cm**-1
   4:         0.00 cm**-1
   5:         0.00 cm**-1
   6:        90.09 cm**-1
   7:       161.61 cm**-1
   8:       207.76 cm**-1
   9:       306.82 cm**-1
  10:       320.16 cm**-1
  11:       390.70 cm**-1
  12:       428.72 cm**-1
  13:       467.64 cm**-1
  14:       777.71 cm**-1
  15:       837.65 cm**-1
  16:       848.53 cm**-1
  17:       922.68 cm**-1
  18:       980.37 cm**-1
  19:       996.03 cm**-1
  20:      1059.09 cm**-1
  21:      1064.32 cm**-1
  22:      1082.86 cm**-1
  23:      1109.23 cm**-1
  24:      1185.91 cm**-1
  25:      1216.30 cm**-1
  26:      1228.08 cm**-1
  27:      1246.53 cm**-1
  28:      1288.68 cm**-1
  29:      1339.90 cm**-1
  30:      1394.52 cm**-1
  31:      1411.49 cm**-1
  32:      1440.36 cm**-1
  33:      1456.77 cm**-1
  34:      1490.19 cm**-1
  35:      1494.54 cm**-1
  36:      1523.12 cm**-1
  37:      1650.42 cm**-1
  38:      3093.41 cm**-1
  39:      3094.35 cm**-1
  40:      3153.45 cm**-1
  41:      3195.93 cm**-1
  42:      3202.02 cm**-1
  43:      3213.18 cm**-1
  44:      3249.90 cm**-1
  45:      3431.75 cm**-1
  46:      3481.72 cm**-1
  47:      3836.87 cm**-1

IR SPECTRUM
-----------

 Mode    freq (cm**-1)   T**2         TX         TY         TZ
-------------------------------------------------------------------
   6:        90.09    0.481574  ( -0.120355  -0.683222   0.017210)
   7:       161.61    2.148565  (  0.161879  -0.465229   1.380551)
   8:       207.76    0.202941  (  0.237515  -0.085380   0.373146)
   9:       306.82    8.778569  ( -0.919974   2.811016  -0.174377)
  10:       320.16  123.804178  (  7.786164  -7.647753   2.166034)
  11:       390.70   11.491322  ( -1.810269   2.746711  -0.818429)
  12:       428.72   15.586066  (  0.867938  -1.511298  -3.542418)
  13:       467.64    4.218308  ( -1.713588   0.787415  -0.813573)
  14:       777.71   18.447579  (  0.519346   2.769001  -3.241989)
  15:       837.65    0.295872  ( -0.188349  -0.415787  -0.295835)
  16:       848.53   11.574952  ( -0.751099  -2.792827   1.791904)
  17:       922.68   27.093632  ( -3.380888   2.358984   3.177802)
  18:       980.37    6.567842  ( -0.031555  -1.743431  -1.878110)
  19:       996.03    4.187019  (  1.445895   1.193924   0.819117)
  20:      1059.09   11.704949  (  1.628436  -2.604611  -1.506368)
  21:      1064.32   13.168717  ( -1.931228  -1.256429   2.803651)
  22:      1082.86   11.780335  ( -0.653180  -0.537934   3.326307)
  23:      1109.23   17.490098  ( -2.714217  -1.169295  -2.959032)
  24:      1185.91    6.319987  ( -1.629841   0.424320   1.866429)
  25:      1216.30    7.691988  ( -1.433045  -0.342383  -2.349712)
  26:      1228.08    0.525519  ( -0.617338  -0.157761  -0.345723)
  27:      1246.53   86.199723  ( -2.932341  -1.012998  -8.750711)
  28:      1288.68   64.363467  (  3.685811   2.932917   6.494326)
  29:      1339.90    6.586312  ( -1.029386  -1.943884  -1.322116)
  30:      1394.52    7.715800  ( -2.336792   1.282087  -0.781958)
  31:      1411.49   44.572539  (  5.470135  -0.432058  -3.803089)
  32:      1440.36    1.228530  ( -0.327447  -0.412423  -0.975303)
  33:      1456.77    2.232036  ( -1.416939   0.279791   0.382146)
  34:      1490.19   21.596722  (  0.304229  -4.581679   0.715810)
  35:      1494.54   24.249578  ( -1.068086   0.892103   4.723656)
  36:      1523.12   22.287461  (  3.524481  -0.409800   3.114090)
  37:      1650.42   55.390525  ( -3.701345  -3.285846  -5.558218)
  38:      3093.41   19.991171  ( -0.787596   2.864330   3.341628)
  39:      3094.35    0.057405  (  0.054801  -0.020968  -0.232297)
  40:      3153.45    3.324215  ( -1.287776   0.906316   0.918934)
  41:      3195.93    0.235644  ( -0.359118  -0.286041  -0.157667)
  42:      3202.02    0.273745  ( -0.093407   0.307451  -0.412909)
  43:      3213.18    2.785214  (  0.245740   1.614540   0.343637)
  44:      3249.90    2.206881  ( -0.760042   1.194252   0.450531)
  45:      3431.75   46.065704  ( -3.604254  -0.118805  -5.749864)
  46:      3481.72   67.510892  (  0.315740  -7.999380   1.849629)
  47:      3836.87  106.865804  (  3.225485   2.717282  -9.438137)

--------------------------
THERMOCHEMISTRY AT 298.15K
--------------------------

Temperature         ... 298.15 K
Pressure            ... 1.00 atm
Total Mass          ... 88.13 AMU

Throughout the following assumptions are being made:
  (1) The electronic state is orbitally nondegenerate
  (2) There are no thermally accessible electronically excited states
  (3) Hindered rotations indicated by low frequency modes) are not
      treated as such but are treated as vibrations and this may
      case some error
  (4) All equations used are the standard statistical mechanics
      equations for an ideal gas
  (5) All vibrations are strinctly harmonic

------------
INNER ENERGY
------------

The inner energy is: U= E(el) + E(ZPE) + E(vib) + E(rot) + E(trans)
    E(el)   - is the total energy from the electronic structure calculation
              = E(kin-el) + E(nuc-el) + E(el-el) + E(nuc-nuc)
    E(ZPE)  - the the zero temperature vibrational energy from the frequency calculation
    E(vib)  - the the finite temperature correction to E(ZPE) due to population
              of excietd vibrational states
    E(rot)  - is the rotational thermal energy
    E(trans)- is the translational thermal energy

Summary of contributions to the inner energy U:
Electronic energy                ...   -287.91138087 Eh
Zero point energy                ...      0.14664873 Eh      92.02 kcal/mol
Thermal vibrational correction   ...      0.00416525 Eh       2.61 kcal/mol
Thermal rotational correction    ...      0.00141627 Eh       0.89 kcal/mol
Thermal translational correction ...      0.00141627 Eh       0.89 kcal/mol
-----------------------------------------------------------------------
Total thermal energy                   -287.75773435 Eh

Summary of corrections to the electronic energy:
(perhaps to be used in another calculation)
Total thermal correction                  0.00699780 Eh       4.39 kcal/mol
Non-thermal (ZPE) correction              0.14664873 Eh      92.02 kcal/mol
-----------------------------------------------------------------------
Total correction                          0.15364653 Eh      96.41 kcal/mol

--------
ENTHALPY
--------

The enthalpy is H = U + kB*T
                kB is Boltzmann's constant
Total free energy                 ...   -287.75773435 Eh
Thermal Enthalpy correction       ...      0.00094421 Eh       0.59 kcal/mol
-----------------------------------------------------------------------
Total Enthalpy                    ...   -287.75679014 Eh

-------
ENTROPY
-------

The entropy contributions are T*S = T*(S(el)+S(vib)+S(rot)+S(trans)
     S(el)   - electronic entropy
     S(vib)  - vibrational entropy
     S(rot)  - rotational entropy
     S(trans)- translational entropy
The entropies will be listed as mutliplied by the temperature to get
units of energy

Electronic entropy                ...      0.00000000 Eh      0.00 kcal/mol
Vibrational entropy               ...      0.00714112 Eh      4.48 kcal/mol
Rotational entropy                ...      0.01171434 Eh      7.35 kcal/mol
Translational entropy             ...      0.01869229 Eh     11.73 kcal/mol
-----------------------------------------------------------------------
Final entropy term                ...      0.03754775 Eh     23.56 kcal/mol

CAUTION: The rotational entropy is not quite correctly treated here
         because it includes a symmetry number that is not yet correctly
         implemented in ORCA!
For a nonlinear molecule the correct rotational entropy is:
    S(rot) = R*(ln(qrot/sn)+1.5)
    R    = 8.31441 J/mol/K = 1.987191683e-3 kcal/mol/K
    qrot = 163651.8675694
    sn is the rotational symmetry number. We have assumed 3 here
       if it is different for your molecule then you should correct
       the printed rotational entropy by manually evaluating the equation
       as given above

For convenience we print out the resulting values for sn=1 - 12:
 sn= 1  qrot/sn=  163651.8676 T*S(rot)=     8.00 kcal/mol T*S(tot)=    24.21 kcal/mol
 sn= 2  qrot/sn=   81825.9338 T*S(rot)=     7.59 kcal/mol T*S(tot)=    23.80 kcal/mol
 sn= 3  qrot/sn=   54550.6225 T*S(rot)=     7.35 kcal/mol T*S(tot)=    23.56 kcal/mol
 sn= 4  qrot/sn=   40912.9669 T*S(rot)=     7.18 kcal/mol T*S(tot)=    23.39 kcal/mol
 sn= 5  qrot/sn=   32730.3735 T*S(rot)=     7.05 kcal/mol T*S(tot)=    23.26 kcal/mol
 sn= 6  qrot/sn=   27275.3113 T*S(rot)=     6.94 kcal/mol T*S(tot)=    23.15 kcal/mol
 sn= 7  qrot/sn=   23378.8382 T*S(rot)=     6.85 kcal/mol T*S(tot)=    23.06 kcal/mol
 sn= 8  qrot/sn=   20456.4834 T*S(rot)=     6.77 kcal/mol T*S(tot)=    22.98 kcal/mol
 sn= 9  qrot/sn=   18183.5408 T*S(rot)=     6.70 kcal/mol T*S(tot)=    22.91 kcal/mol
 sn=10  qrot/sn=   16365.1868 T*S(rot)=     6.64 kcal/mol T*S(tot)=    22.85 kcal/mol
 sn=11  qrot/sn=   14877.4425 T*S(rot)=     6.58 kcal/mol T*S(tot)=    22.79 kcal/mol
 sn=12  qrot/sn=   13637.6556 T*S(rot)=     6.53 kcal/mol T*S(tot)=    22.74 kcal/mol

-------------------
GIBBS FREE ENTHALPY
-------------------

The Gibbs free enthalpy is G = H - T*S

Total enthalpy                    ...   -287.75679014 Eh
Total entropy correction          ...     -0.03754775 Eh    -23.56 kcal/mol
-----------------------------------------------------------------------
Final Gibbs free enthalpy         ...   -287.79433789 Eh

For completeness - the Gibbs free enthalpy minus the electronic energy
G-E(el)                           ...      0.11704299 Eh     73.45 kcal/mol

                             ****ORCA TERMINATED NORMALLY****
TOTAL RUN TIME: 0 days 0 hours 20 minutes 43 seconds 514 msec
