                         Program Version 3.0.3 - RELEASE   -
|  1> ! NORI PBE0 def2-TZVP UseSym TightOPT Freq TightSCF Grid3 FinalGrid5 XYZFile
|  2> % pal
|  3>     nprocs 8
|  4> end
|  5> %method
|  6>     SymThresh 5.0e-2
|  7> end
|  8> % geom
|  9>     MaxIter 10
| 10> end
| 11> % maxcore 2000
| 12> % output
| 13>     printlevel mini
| 14>     print[ P_Basis ] 0
| 15>     print[ P_SCFInfo ] 1
| 16>     print[ P_SCFIterInfo ] 1
| 17>     print[ P_OrbEn ] 0
| 18>     print[ P_Cartesian ] 0
| 19> end
| 20> % elprop
| 21>     Dipole false
| 22> end
| 23> *xyz 1 1
| 24>  C        2.0448857230    -1.3201186628     0.2970565690
| 25>  N        2.1677591597     0.1394140546     0.0319660504
| 26>  C        2.9425812696     0.9023638376     1.0630007682
| 27>  C        2.8233118275     2.4064231157     0.8260322582
| 28>  O        1.7143128040     2.4686420171     1.7310015804
| 29>  C        2.0818378183     1.2018835678     2.2893390028
| 30>  H        1.4404862185    -1.7738212134    -0.4863826743
| 31>  H        1.5689720082    -1.4629073598     1.2645503518
| 32>  H        3.0415652727    -1.7569226702     0.3025372272
| 33>  H        1.2370202442     0.5641404663    -0.0278905117
| 34>  H        2.6027460348     0.2802833589    -0.8824739590
| 35>  H        3.9187178441     0.4326123122     1.1697792527
| 36>  H        2.5737670565     2.7571378176    -0.1800486000
| 37>  H        3.6942387977     2.9551410553     1.1971465167
| 38>  H        2.6819282520     1.3065116978     3.1982760056
| 39>  H        1.2192096692     0.5623166054     2.4947701621
| 40> *
| 41>
| 42>                          ****END OF INPUT****
 Total Charge           Charge          ....    1
 Multiplicity           Mult            ....    1
 Number of Electrons    NEL             ....   48
FINAL SINGLE POINT ENERGY      -287.899890520453

CARTESIAN COORDINATES (ANGSTROEM)
---------------------------------
  C      0.400533    0.938807   -2.165115
  N      0.727762   -0.000136   -1.057368
  C     -0.447142   -0.435760   -0.235492
  C      0.012638   -1.208336    0.999408
  O     -0.000218   -0.000104    1.769292
  C     -0.830167    0.632118    0.787972
  H      1.319722    1.219281   -2.676273
  H     -0.077893    1.821725   -1.747541
  H     -0.275350    0.438451   -2.855807
  H      1.403758    0.432374   -0.420010
  H      1.189858   -0.827203   -1.441727
  H     -1.193743   -0.855657   -0.907282
  H      0.994952   -1.689915    0.976803
  H     -0.737530   -1.927613    1.341662
  H     -1.891403    0.588909    1.050935
  H     -0.545221    1.670340    0.596330

FINAL SINGLE POINT ENERGY      -287.899890750219
                    ***********************HURRAY********************
 Multiplicity           Mult            ....    1
 Number of Electrons    NEL             ....   48
 Basis Dimension        Dim             ....  246
FINAL SINGLE POINT ENERGY      -287.899890834271

VIBRATIONAL FREQUENCIES
-----------------------

   0:         0.00 cm**-1
   1:         0.00 cm**-1
   2:         0.00 cm**-1
   3:         0.00 cm**-1
   4:         0.00 cm**-1
   5:         0.00 cm**-1
   6:       108.71 cm**-1
   7:       137.23 cm**-1
   8:       207.25 cm**-1
   9:       259.24 cm**-1
  10:       385.63 cm**-1
  11:       439.15 cm**-1
  12:       796.52 cm**-1
  13:       805.08 cm**-1
  14:       860.38 cm**-1
  15:       880.41 cm**-1
  16:       957.08 cm**-1
  17:      1008.64 cm**-1
  18:      1029.71 cm**-1
  19:      1058.03 cm**-1
  20:      1067.57 cm**-1
  21:      1097.12 cm**-1
  22:      1149.66 cm**-1
  23:      1162.20 cm**-1
  24:      1176.46 cm**-1
  25:      1240.76 cm**-1
  26:      1263.54 cm**-1
  27:      1309.05 cm**-1
  28:      1342.82 cm**-1
  29:      1369.13 cm**-1
  30:      1414.20 cm**-1
  31:      1427.99 cm**-1
  32:      1459.27 cm**-1
  33:      1491.27 cm**-1
  34:      1494.07 cm**-1
  35:      1499.13 cm**-1
  36:      1522.63 cm**-1
  37:      1650.58 cm**-1
  38:      3055.13 cm**-1
  39:      3062.39 cm**-1
  40:      3094.78 cm**-1
  41:      3111.90 cm**-1
  42:      3114.78 cm**-1
  43:      3152.24 cm**-1
  44:      3194.06 cm**-1
  45:      3200.37 cm**-1
  46:      3418.03 cm**-1
  47:      3475.04 cm**-1

IR SPECTRUM
-----------

 Mode    freq (cm**-1)   T**2         TX         TY         TZ
-------------------------------------------------------------------
   6:       108.71   15.644095  (  2.327470   1.963802  -2.523977)
   7:       137.23    8.288597  (  1.517927  -1.218517  -2.121253)
   8:       207.25    0.865293  (  0.538889  -0.574437  -0.494888)
   9:       259.24    1.796889  (  0.317467   0.772818   1.048263)
  10:       385.63    3.928752  ( -0.178060   0.333293   1.945755)
  11:       439.15    1.025936  ( -0.122347   1.001229  -0.092235)
  12:       796.52    9.046128  ( -1.013466   1.341545   2.493847)
  13:       805.08    5.857275  (  0.659143   0.293973  -2.310062)
  14:       860.38    0.947802  (  0.007404  -0.615585  -0.754190)
  15:       880.41   21.450416  (  2.003437   2.474908   3.363255)
  16:       957.08   17.941193  (  2.175957   0.240613   3.626087)
  17:      1008.64    7.741810  ( -0.087977  -1.743329   2.166766)
  18:      1029.71    2.755928  ( -0.544090   1.384068   0.737732)
  19:      1058.03   68.850829  (  3.147183  -7.650371   0.646452)
  20:      1067.57    8.778417  (  2.800352   0.330512  -0.909508)
  21:      1097.12   13.415276  (  0.477740  -0.509502   3.595476)
  22:      1149.66    3.728671  (  0.380323   1.710420  -0.811474)
  23:      1162.20   15.206793  (  0.155381  -3.608554   1.470030)
  24:      1176.46    3.097476  (  1.514306   0.836645  -0.323074)
  25:      1240.76    2.767777  (  1.040161   1.103668   0.683929)
  26:      1263.54    7.347716  ( -0.853697   2.461279  -0.749013)
  27:      1309.05    0.113722  (  0.236619  -0.111823  -0.212673)
  28:      1342.82    1.707897  ( -0.766658  -0.940874  -0.484653)
  29:      1369.13    0.107594  ( -0.073800  -0.025551   0.318583)
  30:      1414.20   31.513757  ( -2.576054  -3.218162   3.810661)
  31:      1427.99   24.409216  ( -1.830928  -1.223146   4.422763)
  32:      1459.27    7.790157  ( -0.149164   1.618254  -2.269176)
  33:      1491.27   11.040124  ( -1.614361  -0.076700   2.903115)
  34:      1494.07   23.855762  ( -2.217930  -4.166355  -1.256198)
  35:      1499.13   21.278791  ( -4.004155   1.491332   1.738235)
  36:      1522.63    1.818754  ( -0.134706   0.276813   1.313005)
  37:      1650.58   48.322887  (  6.638226  -1.579899   1.326937)
  38:      3055.13   27.621584  ( -2.144335   4.791573  -0.253446)
  39:      3062.39    4.711218  ( -0.815298   0.617895  -1.914344)
  40:      3094.78    0.129736  (  0.343713  -0.034958  -0.101860)
  41:      3111.90    7.524513  ( -2.630034  -0.314455   0.713128)
  42:      3114.78    6.157948  ( -1.309206  -1.851092   1.008657)
  43:      3152.24    2.304268  (  0.404422   0.407755   1.405150)
  44:      3194.06    0.340096  ( -0.576034  -0.090991   0.001539)
  45:      3200.37    0.081155  (  0.191555  -0.102497  -0.184271)
  46:      3418.03   46.652811  (  6.369317  -0.457343   2.423933)
  47:      3475.04   75.192755  ( -0.487849   6.870700   5.267660)

--------------------------
THERMOCHEMISTRY AT 298.15K
--------------------------

Temperature         ... 298.15 K
Pressure            ... 1.00 atm
Total Mass          ... 88.13 AMU

Throughout the following assumptions are being made:
  (1) The electronic state is orbitally nondegenerate
  (2) There are no thermally accessible electronically excited states
  (3) Hindered rotations indicated by low frequency modes) are not
      treated as such but are treated as vibrations and this may
      case some error
  (4) All equations used are the standard statistical mechanics
      equations for an ideal gas
  (5) All vibrations are strinctly harmonic

------------
INNER ENERGY
------------

The inner energy is: U= E(el) + E(ZPE) + E(vib) + E(rot) + E(trans)
    E(el)   - is the total energy from the electronic structure calculation
              = E(kin-el) + E(nuc-el) + E(el-el) + E(nuc-nuc)
    E(ZPE)  - the the zero temperature vibrational energy from the frequency calculation
    E(vib)  - the the finite temperature correction to E(ZPE) due to population
              of excietd vibrational states
    E(rot)  - is the rotational thermal energy
    E(trans)- is the translational thermal energy

Summary of contributions to the inner energy U:
Electronic energy                ...   -287.89989083 Eh
Zero point energy                ...      0.14796527 Eh      92.85 kcal/mol
Thermal vibrational correction   ...      0.00363184 Eh       2.28 kcal/mol
Thermal rotational correction    ...      0.00141627 Eh       0.89 kcal/mol
Thermal translational correction ...      0.00141627 Eh       0.89 kcal/mol
-----------------------------------------------------------------------
Total thermal energy                   -287.74546119 Eh

Summary of corrections to the electronic energy:
(perhaps to be used in another calculation)
Total thermal correction                  0.00646438 Eh       4.06 kcal/mol
Non-thermal (ZPE) correction              0.14796527 Eh      92.85 kcal/mol
-----------------------------------------------------------------------
Total correction                          0.15442965 Eh      96.91 kcal/mol

--------
ENTHALPY
--------

The enthalpy is H = U + kB*T
                kB is Boltzmann's constant
Total free energy                 ...   -287.74546119 Eh
Thermal Enthalpy correction       ...      0.00094421 Eh       0.59 kcal/mol
-----------------------------------------------------------------------
Total Enthalpy                    ...   -287.74451698 Eh

-------
ENTROPY
-------

The entropy contributions are T*S = T*(S(el)+S(vib)+S(rot)+S(trans)
     S(el)   - electronic entropy
     S(vib)  - vibrational entropy
     S(rot)  - rotational entropy
     S(trans)- translational entropy
The entropies will be listed as mutliplied by the temperature to get
units of energy

Electronic entropy                ...      0.00000000 Eh      0.00 kcal/mol
Vibrational entropy               ...      0.00632714 Eh      3.97 kcal/mol
Rotational entropy                ...      0.01152912 Eh      7.23 kcal/mol
Translational entropy             ...      0.01869229 Eh     11.73 kcal/mol
-----------------------------------------------------------------------
Final entropy term                ...      0.03654854 Eh     22.93 kcal/mol

CAUTION: The rotational entropy is not quite correctly treated here
         because it includes a symmetry number that is not yet correctly
         implemented in ORCA!
For a nonlinear molecule the correct rotational entropy is:
    S(rot) = R*(ln(qrot/sn)+1.5)
    R    = 8.31441 J/mol/K = 1.987191683e-3 kcal/mol/K
    qrot = 134499.8732680
    sn is the rotational symmetry number. We have assumed 3 here
       if it is different for your molecule then you should correct
       the printed rotational entropy by manually evaluating the equation
       as given above

For convenience we print out the resulting values for sn=1 - 12:
 sn= 1  qrot/sn=  134499.8733 T*S(rot)=     7.89 kcal/mol T*S(tot)=    23.59 kcal/mol
 sn= 2  qrot/sn=   67249.9366 T*S(rot)=     7.47 kcal/mol T*S(tot)=    23.17 kcal/mol
 sn= 3  qrot/sn=   44833.2911 T*S(rot)=     7.23 kcal/mol T*S(tot)=    22.93 kcal/mol
 sn= 4  qrot/sn=   33624.9683 T*S(rot)=     7.06 kcal/mol T*S(tot)=    22.76 kcal/mol
 sn= 5  qrot/sn=   26899.9747 T*S(rot)=     6.93 kcal/mol T*S(tot)=    22.63 kcal/mol
 sn= 6  qrot/sn=   22416.6455 T*S(rot)=     6.82 kcal/mol T*S(tot)=    22.52 kcal/mol
 sn= 7  qrot/sn=   19214.2676 T*S(rot)=     6.73 kcal/mol T*S(tot)=    22.43 kcal/mol
 sn= 8  qrot/sn=   16812.4842 T*S(rot)=     6.65 kcal/mol T*S(tot)=    22.35 kcal/mol
 sn= 9  qrot/sn=   14944.4304 T*S(rot)=     6.58 kcal/mol T*S(tot)=    22.28 kcal/mol
 sn=10  qrot/sn=   13449.9873 T*S(rot)=     6.52 kcal/mol T*S(tot)=    22.22 kcal/mol
 sn=11  qrot/sn=   12227.2612 T*S(rot)=     6.46 kcal/mol T*S(tot)=    22.16 kcal/mol
 sn=12  qrot/sn=   11208.3228 T*S(rot)=     6.41 kcal/mol T*S(tot)=    22.11 kcal/mol

-------------------
GIBBS FREE ENTHALPY
-------------------

The Gibbs free enthalpy is G = H - T*S

Total enthalpy                    ...   -287.74451698 Eh
Total entropy correction          ...     -0.03654854 Eh    -22.93 kcal/mol
-----------------------------------------------------------------------
Final Gibbs free enthalpy         ...   -287.78106552 Eh

For completeness - the Gibbs free enthalpy minus the electronic energy
G-E(el)                           ...      0.11882531 Eh     74.56 kcal/mol

                             ****ORCA TERMINATED NORMALLY****
TOTAL RUN TIME: 0 days 0 hours 22 minutes 10 seconds 224 msec
