                         Program Version 3.0.3 - RELEASE   -
|  1> ! NORI PBE0 def2-TZVP UseSym TightOPT Freq TightSCF Grid3 FinalGrid5 XYZFile
|  2> % pal
|  3>     nprocs 8
|  4> end
|  5> %method
|  6>     SymThresh 5.0e-2
|  7> end
|  8> % geom
|  9>     MaxIter 10
| 10> end
| 11> % maxcore 2000
| 12> % output
| 13>     printlevel mini
| 14>     print[ P_Basis ] 0
| 15>     print[ P_SCFInfo ] 1
| 16>     print[ P_SCFIterInfo ] 1
| 17>     print[ P_OrbEn ] 0
| 18>     print[ P_Cartesian ] 0
| 19> end
| 20> % elprop
| 21>     Dipole false
| 22> end
| 23> *xyz 1 1
| 24>  C        1.2097985533     0.1485038018    -0.3305282706
| 25>  N        2.5834731979    -0.2846478768    -0.7117244732
| 26>  C        3.4432763328    -0.6936818901     0.4465422191
| 27>  C        4.8118285133    -1.1066279740    -0.0145867388
| 28>  C        5.9070309174    -0.1322789534    -0.0811943024
| 29>  O        5.7829295377    -1.0420690874     0.9944071015
| 30>  H        0.6607904313     0.4233151157    -1.2293737929
| 31>  H        1.2893750928     1.0033420584     0.3382925885
| 32>  H        0.7139568744    -0.6770007254     0.1764663519
| 33>  H        3.0548411488     0.4698816149    -1.2158445548
| 34>  H        2.5205610132    -1.0629292393    -1.3718440167
| 35>  H        2.9237602077    -1.5081503186     0.9557001330
| 36>  H        3.5111577987     0.1586449800     1.1238875625
| 37>  H        4.8580859502    -1.9982799966    -0.6412174909
| 38>  H        5.7239464653     0.9103772962     0.1721891546
| 39>  H        6.7361479651    -0.3190488053    -0.7572314710
| 40> *
| 41>
| 42>                          ****END OF INPUT****
 Total Charge           Charge          ....    1
 Multiplicity           Mult            ....    1
 Number of Electrons    NEL             ....   48
FINAL SINGLE POINT ENERGY      -287.900054724249

CARTESIAN COORDINATES (ANGSTROEM)
---------------------------------
  C     -0.313441   -0.846775   -2.665755
  N      0.175103   -0.000027   -1.541338
  C      0.021555   -0.626065   -0.187478
  C      0.525930    0.288986    0.891765
  C     -0.379384    1.227071    1.564796
  O     -0.001320    0.000198    2.158297
  H     -0.161165   -0.315740   -3.603616
  H     -1.372088   -1.047064   -2.514018
  H      0.246366   -1.779809   -2.665997
  H     -0.320132    0.894497   -1.543756
  H      1.160058    0.227472   -1.694044
  H      0.571113   -1.569214   -0.209328
  H     -1.037917   -0.839407   -0.041263
  H      1.595046    0.504488    0.876679
  H     -1.422069    1.290579    1.259679
  H      0.035767    2.117049    2.027928

FINAL SINGLE POINT ENERGY      -287.900055670275
                    ***********************HURRAY********************
 Multiplicity           Mult            ....    1
 Number of Electrons    NEL             ....   48
 Basis Dimension        Dim             ....  246
FINAL SINGLE POINT ENERGY      -287.900056107755

VIBRATIONAL FREQUENCIES
-----------------------

   0:         0.00 cm**-1
   1:         0.00 cm**-1
   2:         0.00 cm**-1
   3:         0.00 cm**-1
   4:         0.00 cm**-1
   5:         0.00 cm**-1
   6:        75.90 cm**-1
   7:        88.03 cm**-1
   8:       175.81 cm**-1
   9:       231.39 cm**-1
  10:       332.64 cm**-1
  11:       425.79 cm**-1
  12:       442.65 cm**-1
  13:       797.02 cm**-1
  14:       847.68 cm**-1
  15:       902.98 cm**-1
  16:       922.75 cm**-1
  17:       944.91 cm**-1
  18:      1004.22 cm**-1
  19:      1030.78 cm**-1
  20:      1061.91 cm**-1
  21:      1117.01 cm**-1
  22:      1164.38 cm**-1
  23:      1178.53 cm**-1
  24:      1184.96 cm**-1
  25:      1199.76 cm**-1
  26:      1298.31 cm**-1
  27:      1306.66 cm**-1
  28:      1357.96 cm**-1
  29:      1397.32 cm**-1
  30:      1426.43 cm**-1
  31:      1454.48 cm**-1
  32:      1464.70 cm**-1
  33:      1485.69 cm**-1
  34:      1493.21 cm**-1
  35:      1498.42 cm**-1
  36:      1530.88 cm**-1
  37:      1657.41 cm**-1
  38:      3093.43 cm**-1
  39:      3096.31 cm**-1
  40:      3110.61 cm**-1
  41:      3115.60 cm**-1
  42:      3160.58 cm**-1
  43:      3195.37 cm**-1
  44:      3198.30 cm**-1
  45:      3212.53 cm**-1
  46:      3438.42 cm**-1
  47:      3486.20 cm**-1

IR SPECTRUM
-----------

 Mode    freq (cm**-1)   T**2         TX         TY         TZ
-------------------------------------------------------------------
   6:        75.90    2.016231  ( -1.253515   0.361643  -0.560486)
   7:        88.03    1.590504  ( -1.009187   0.592242   0.470420)
   8:       175.81    3.774402  ( -1.453193  -1.254468   0.298233)
   9:       231.39    1.217363  ( -0.869952   0.650315   0.194002)
  10:       332.64    1.689911  ( -0.116555   0.854763   0.972474)
  11:       425.79    6.574212  ( -0.334708  -0.551522  -2.481533)
  12:       442.65   12.901032  ( -0.141884  -0.451969  -3.560425)
  13:       797.02   14.940753  (  3.339626  -0.700881  -1.815604)
  14:       847.68   32.958750  ( -1.166543   3.433629  -4.450631)
  15:       902.98    0.899230  (  0.922633  -0.216313  -0.034458)
  16:       922.75   23.487850  ( -1.077384  -0.509043   4.697656)
  17:       944.91    2.946250  ( -1.391436   0.893278  -0.460663)
  18:      1004.22   11.531616  ( -0.924976  -3.045150   1.184524)
  19:      1030.78   24.153082  ( -0.194963  -1.383227  -4.711874)
  20:      1061.91    6.052135  (  0.606671  -1.193064   2.064143)
  21:      1117.01    3.721947  (  0.776819   1.381754   1.099661)
  22:      1164.38    5.204503  (  0.355494   0.738283  -2.129100)
  23:      1178.53    2.418339  (  0.094137  -0.731427   1.369121)
  24:      1184.96    3.428027  (  1.320333   0.100217   1.294103)
  25:      1199.76    0.695316  (  0.407617   0.079471  -0.723083)
  26:      1298.31   11.430795  (  1.041774  -3.035345   1.064040)
  27:      1306.66    0.858194  ( -0.850582  -0.233909   0.282825)
  28:      1357.96    5.193672  (  1.323128   0.355789   1.821103)
  29:      1397.32    0.556389  (  0.672830  -0.280990  -0.157272)
  30:      1426.43   64.344735  (  0.099650   0.913062   7.968759)
  31:      1454.48    2.456052  ( -0.555188   0.194128  -1.452629)
  32:      1464.70    2.192079  ( -0.252209   1.333569   0.591660)
  33:      1485.69   22.412999  ( -1.351495  -1.035707  -4.417439)
  34:      1493.21   23.721361  ( -4.386113   1.925395   0.881037)
  35:      1498.42   24.529024  (  1.540876   3.900970  -2.633849)
  36:      1530.88    5.258344  ( -1.498394  -0.769971   1.555733)
  37:      1657.41   45.771436  ( -2.460796  -6.258275   0.741557)
  38:      3093.43    0.167542  (  0.083221  -0.113025  -0.384502)
  39:      3096.31    1.007447  ( -0.071786   0.472536   0.882612)
  40:      3110.61    8.910114  ( -2.465638   1.297017  -1.071677)
  41:      3115.60    6.804678  (  1.769537   1.161380  -1.524668)
  42:      3160.58    0.384107  ( -0.256923   0.294460   0.481031)
  43:      3195.37    0.389916  ( -0.165431  -0.592824   0.105397)
  44:      3198.30    0.175603  ( -0.381044   0.159976   0.069395)
  45:      3212.53    2.886448  ( -1.384124  -0.742252  -0.647851)
  46:      3438.42   42.979494  (  2.727216   5.819161  -1.295821)
  47:      3486.20   73.168198  ( -7.806958   3.328029   1.069500)

--------------------------
THERMOCHEMISTRY AT 298.15K
--------------------------

Temperature         ... 298.15 K
Pressure            ... 1.00 atm
Total Mass          ... 88.13 AMU

Throughout the following assumptions are being made:
  (1) The electronic state is orbitally nondegenerate
  (2) There are no thermally accessible electronically excited states
  (3) Hindered rotations indicated by low frequency modes) are not
      treated as such but are treated as vibrations and this may
      case some error
  (4) All equations used are the standard statistical mechanics
      equations for an ideal gas
  (5) All vibrations are strinctly harmonic

------------
INNER ENERGY
------------

The inner energy is: U= E(el) + E(ZPE) + E(vib) + E(rot) + E(trans)
    E(el)   - is the total energy from the electronic structure calculation
              = E(kin-el) + E(nuc-el) + E(el-el) + E(nuc-nuc)
    E(ZPE)  - the the zero temperature vibrational energy from the frequency calculation
    E(vib)  - the the finite temperature correction to E(ZPE) due to population
              of excietd vibrational states
    E(rot)  - is the rotational thermal energy
    E(trans)- is the translational thermal energy

Summary of contributions to the inner energy U:
Electronic energy                ...   -287.90005611 Eh
Zero point energy                ...      0.14718768 Eh      92.36 kcal/mol
Thermal vibrational correction   ...      0.00415447 Eh       2.61 kcal/mol
Thermal rotational correction    ...      0.00141627 Eh       0.89 kcal/mol
Thermal translational correction ...      0.00141627 Eh       0.89 kcal/mol
-----------------------------------------------------------------------
Total thermal energy                   -287.74588141 Eh

Summary of corrections to the electronic energy:
(perhaps to be used in another calculation)
Total thermal correction                  0.00698701 Eh       4.38 kcal/mol
Non-thermal (ZPE) correction              0.14718768 Eh      92.36 kcal/mol
-----------------------------------------------------------------------
Total correction                          0.15417470 Eh      96.75 kcal/mol

--------
ENTHALPY
--------

The enthalpy is H = U + kB*T
                kB is Boltzmann's constant
Total free energy                 ...   -287.74588141 Eh
Thermal Enthalpy correction       ...      0.00094421 Eh       0.59 kcal/mol
-----------------------------------------------------------------------
Total Enthalpy                    ...   -287.74493720 Eh

-------
ENTROPY
-------

The entropy contributions are T*S = T*(S(el)+S(vib)+S(rot)+S(trans)
     S(el)   - electronic entropy
     S(vib)  - vibrational entropy
     S(rot)  - rotational entropy
     S(trans)- translational entropy
The entropies will be listed as mutliplied by the temperature to get
units of energy

Electronic entropy                ...      0.00000000 Eh      0.00 kcal/mol
Vibrational entropy               ...      0.00775185 Eh      4.86 kcal/mol
Rotational entropy                ...      0.01168422 Eh      7.33 kcal/mol
Translational entropy             ...      0.01869229 Eh     11.73 kcal/mol
-----------------------------------------------------------------------
Final entropy term                ...      0.03812835 Eh     23.93 kcal/mol

CAUTION: The rotational entropy is not quite correctly treated here
         because it includes a symmetry number that is not yet correctly
         implemented in ORCA!
For a nonlinear molecule the correct rotational entropy is:
    S(rot) = R*(ln(qrot/sn)+1.5)
    R    = 8.31441 J/mol/K = 1.987191683e-3 kcal/mol/K
    qrot = 158512.1764885
    sn is the rotational symmetry number. We have assumed 3 here
       if it is different for your molecule then you should correct
       the printed rotational entropy by manually evaluating the equation
       as given above

For convenience we print out the resulting values for sn=1 - 12:
 sn= 1  qrot/sn=  158512.1765 T*S(rot)=     7.98 kcal/mol T*S(tot)=    24.58 kcal/mol
 sn= 2  qrot/sn=   79256.0882 T*S(rot)=     7.57 kcal/mol T*S(tot)=    24.17 kcal/mol
 sn= 3  qrot/sn=   52837.3922 T*S(rot)=     7.33 kcal/mol T*S(tot)=    23.93 kcal/mol
 sn= 4  qrot/sn=   39628.0441 T*S(rot)=     7.16 kcal/mol T*S(tot)=    23.76 kcal/mol
 sn= 5  qrot/sn=   31702.4353 T*S(rot)=     7.03 kcal/mol T*S(tot)=    23.62 kcal/mol
 sn= 6  qrot/sn=   26418.6961 T*S(rot)=     6.92 kcal/mol T*S(tot)=    23.52 kcal/mol
 sn= 7  qrot/sn=   22644.5966 T*S(rot)=     6.83 kcal/mol T*S(tot)=    23.42 kcal/mol
 sn= 8  qrot/sn=   19814.0221 T*S(rot)=     6.75 kcal/mol T*S(tot)=    23.34 kcal/mol
 sn= 9  qrot/sn=   17612.4641 T*S(rot)=     6.68 kcal/mol T*S(tot)=    23.27 kcal/mol
 sn=10  qrot/sn=   15851.2176 T*S(rot)=     6.62 kcal/mol T*S(tot)=    23.21 kcal/mol
 sn=11  qrot/sn=   14410.1979 T*S(rot)=     6.56 kcal/mol T*S(tot)=    23.16 kcal/mol
 sn=12  qrot/sn=   13209.3480 T*S(rot)=     6.51 kcal/mol T*S(tot)=    23.10 kcal/mol

-------------------
GIBBS FREE ENTHALPY
-------------------

The Gibbs free enthalpy is G = H - T*S

Total enthalpy                    ...   -287.74493720 Eh
Total entropy correction          ...     -0.03812835 Eh    -23.93 kcal/mol
-----------------------------------------------------------------------
Final Gibbs free enthalpy         ...   -287.78306555 Eh

For completeness - the Gibbs free enthalpy minus the electronic energy
G-E(el)                           ...      0.11699055 Eh     73.41 kcal/mol

                             ****ORCA TERMINATED NORMALLY****
TOTAL RUN TIME: 0 days 0 hours 19 minutes 46 seconds 802 msec
