                         Program Version 3.0.3 - RELEASE   -
|  1> ! NORI PBE0 def2-TZVP UseSym TightOPT Freq TightSCF Grid3 FinalGrid5 XYZFile
|  2> % pal
|  3>     nprocs 8
|  4> end
|  5> %method
|  6>     SymThresh 5.0e-2
|  7> end
|  8> % geom
|  9>     MaxIter 10
| 10> end
| 11> % maxcore 2000
| 12> % output
| 13>     printlevel mini
| 14>     print[ P_Basis ] 0
| 15>     print[ P_SCFInfo ] 1
| 16>     print[ P_SCFIterInfo ] 1
| 17>     print[ P_OrbEn ] 0
| 18>     print[ P_Cartesian ] 0
| 19> end
| 20> % elprop
| 21>     Dipole false
| 22> end
| 23> *xyz 1 1
| 24>  C        1.0397632947     0.0185931615     0.0176668820
| 25>  N        2.4901672966     0.2968022227     0.1248008230
| 26>  C        3.1401981052    -0.2345537584     1.3664633551
| 27>  C        4.6500335924    -0.1329310144     1.2652017855
| 28>  C        5.2485829195    -1.0573839023     0.2250956082
| 29>  O        4.6193049605    -0.7746991171    -1.0262481057
| 30>  H        0.6541365223     0.4720284061    -0.8937781394
| 31>  H        0.5289747267     0.4343929901     0.8847040203
| 32>  H        0.8932492748    -1.0593691916    -0.0161229797
| 33>  H        2.6534119505     1.3029084740     0.0727287777
| 34>  H        3.0284847271    -0.1196094873    -0.6617342010
| 35>  H        2.8149257785    -1.2724506412     1.4646921616
| 36>  H        2.7445824020     0.3292418338     2.2121517738
| 37>  H        4.9461501820     0.9024275297     1.0631989307
| 38>  H        5.0703282506    -0.3865234952     2.2414216648
| 39>  H        6.3265525964    -0.8894518129     0.1565293106
| 40>  H        5.0784562042    -2.1042271651     0.5028723118
| 41>  H        5.0257272161    -1.2852950324    -1.7322539793
| 42> *
| 43>
| 44>                          ****END OF INPUT****
 Total Charge           Charge          ....    1
 Multiplicity           Mult            ....    1
 Number of Electrons    NEL             ....   50
FINAL SINGLE POINT ENERGY      -289.167011618326
FINAL SINGLE POINT ENERGY      -289.167011322703
FINAL SINGLE POINT ENERGY      -289.167013246230

CARTESIAN COORDINATES (ANGSTROEM)
---------------------------------
  C      1.836634   -0.969101   -1.435296
  N      1.002809   -0.000960   -0.686775
  C     -0.446911    0.004260   -1.067243
  C     -1.254206    0.829368   -0.083170
  C     -1.335356    0.211851    1.298085
  O     -0.000243   -0.000745    1.760326
  H      2.872329   -0.872990   -1.114347
  H      1.757013   -0.763100   -2.501429
  H      1.477605   -1.974815   -1.225718
  H      1.377202    0.940849   -0.806517
  H      1.013230   -0.182681    0.336957
  H     -0.768477   -1.039467   -1.072193
  H     -0.518998    0.389448   -2.085174
  H     -0.845884    1.843818   -0.017939
  H     -2.266926    0.931826   -0.480310
  H     -1.870512    0.884038    1.973829
  H     -1.875414   -0.741125    1.258886
  H     -0.003478   -0.321488    2.666581

FINAL SINGLE POINT ENERGY      -289.167013465083
                    ***********************HURRAY********************
 Multiplicity           Mult            ....    1
 Number of Electrons    NEL             ....   50
 Basis Dimension        Dim             ....  258
FINAL SINGLE POINT ENERGY      -289.167013701095

VIBRATIONAL FREQUENCIES
-----------------------

   0:         0.00 cm**-1
   1:         0.00 cm**-1
   2:         0.00 cm**-1
   3:         0.00 cm**-1
   4:         0.00 cm**-1
   5:         0.00 cm**-1
   6:       103.93 cm**-1
   7:       118.34 cm**-1
   8:       198.93 cm**-1
   9:       264.63 cm**-1
  10:       284.98 cm**-1
  11:       331.48 cm**-1
  12:       340.22 cm**-1
  13:       394.74 cm**-1
  14:       524.23 cm**-1
  15:       817.55 cm**-1
  16:       827.94 cm**-1
  17:       896.44 cm**-1
  18:       915.99 cm**-1
  19:       945.74 cm**-1
  20:      1027.88 cm**-1
  21:      1061.09 cm**-1
  22:      1071.70 cm**-1
  23:      1106.42 cm**-1
  24:      1165.86 cm**-1
  25:      1187.06 cm**-1
  26:      1227.52 cm**-1
  27:      1274.96 cm**-1
  28:      1307.79 cm**-1
  29:      1320.11 cm**-1
  30:      1370.80 cm**-1
  31:      1403.73 cm**-1
  32:      1416.63 cm**-1
  33:      1444.58 cm**-1
  34:      1461.17 cm**-1
  35:      1468.25 cm**-1
  36:      1476.27 cm**-1
  37:      1493.37 cm**-1
  38:      1500.04 cm**-1
  39:      1502.33 cm**-1
  40:      1520.16 cm**-1
  41:      1670.37 cm**-1
  42:      3041.11 cm**-1
  43:      3060.06 cm**-1
  44:      3088.44 cm**-1
  45:      3089.65 cm**-1
  46:      3103.72 cm**-1
  47:      3122.75 cm**-1
  48:      3145.20 cm**-1
  49:      3161.21 cm**-1
  50:      3188.76 cm**-1
  51:      3190.58 cm**-1
  52:      3482.36 cm**-1
  53:      3863.86 cm**-1

IR SPECTRUM
-----------

 Mode    freq (cm**-1)   T**2         TX         TY         TZ
-------------------------------------------------------------------
   6:       103.93    0.560086  (  0.350873   0.645344  -0.143198)
   7:       118.34    4.027466  (  0.080908  -1.995402  -0.198223)
   8:       198.93    9.809159  ( -1.723769   0.445292   2.576721)
   9:       264.63   17.912656  ( -2.277944  -0.468824   3.536075)
  10:       284.98   28.688281  ( -1.389323  -4.214815  -2.998899)
  11:       331.48   64.676815  ( -1.404503  -7.896417  -0.592266)
  12:       340.22   52.188512  ( -0.189344  -5.485580  -4.696921)
  13:       394.74   10.488029  (  2.265430  -2.301818   0.239768)
  14:       524.23    4.273987  ( -0.472707   0.067550  -2.011460)
  15:       817.55    4.164299  ( -1.634492  -0.440547   1.139584)
  16:       827.94   20.146551  ( -0.818558   2.196713  -3.827658)
  17:       896.44    1.573054  (  1.065094   0.300391   0.590249)
  18:       915.99    2.318067  (  0.185761  -0.274273   1.486046)
  19:       945.74    5.294929  ( -0.558810   0.347180  -2.205023)
  20:      1027.88   16.022364  ( -3.991536  -0.208698  -0.215526)
  21:      1061.09   17.131540  ( -3.966293   0.932801  -0.727968)
  22:      1071.70   18.820355  (  3.688911  -2.271681   0.227501)
  23:      1106.42   49.451470  (  6.670174  -1.386124   1.743245)
  24:      1165.86    8.439370  ( -2.726966   0.998851  -0.072948)
  25:      1187.06    0.380554  ( -0.049255  -0.580546   0.202716)
  26:      1227.52   39.490173  ( -5.612093  -0.202653  -2.820197)
  27:      1274.96    1.988832  ( -1.326463  -0.343504  -0.333666)
  28:      1307.79    8.421219  ( -2.510072  -0.771717  -1.234994)
  29:      1320.11   12.192677  ( -3.213464   1.363580   0.083514)
  30:      1370.80   10.283998  (  2.414227  -0.699396  -1.991570)
  31:      1403.73    8.753194  (  2.578148  -1.444241  -0.143235)
  32:      1416.63    7.040032  ( -0.713799   1.336105  -2.178381)
  33:      1444.58   23.887533  (  4.270759  -1.598273  -1.758885)
  34:      1461.17    3.535376  ( -0.951634  -1.110327   1.181923)
  35:      1468.25    8.370475  (  0.144300  -2.725308   0.960389)
  36:      1476.27   49.613138  (  5.205018  -0.905608  -4.658412)
  37:      1493.37   29.329981  (  2.642565   1.316670  -4.540178)
  38:      1500.04   66.947629  (  7.934176  -1.381484  -1.444987)
  39:      1502.33   27.842397  (  1.129686  -4.187162  -3.005642)
  40:      1520.16   14.314608  ( -2.998007  -1.135169   2.009466)
  41:      1670.37   34.720891  ( -1.647852  -3.283546  -4.606929)
  42:      3041.11   22.170924  ( -4.243603  -1.655174   1.192960)
  43:      3060.06    9.222422  (  2.150477   1.917259  -0.960202)
  44:      3088.44    8.568398  (  0.293962  -1.008226  -2.732300)
  45:      3089.65   10.744660  (  0.978310  -0.746502  -3.038141)
  46:      3103.72   12.237149  ( -1.025133   2.857501   1.738085)
  47:      3122.75    3.635514  ( -0.367017  -1.462375  -1.167164)
  48:      3145.20   95.479111  ( -2.854154  -0.829382   9.308332)
  49:      3161.21  336.531988  (  5.218205  -0.651049 -17.574938)
  50:      3188.76   16.196002  ( -1.103409   0.256214   3.861715)
  51:      3190.58    0.378383  ( -0.306715  -0.045787   0.531237)
  52:      3482.36   58.258935  ( -3.612185  -6.228706   2.532642)
  53:      3863.86  110.679754  ( -1.823607   3.143209  -9.872915)

--------------------------
THERMOCHEMISTRY AT 298.15K
--------------------------

Temperature         ... 298.15 K
Pressure            ... 1.00 atm
Total Mass          ... 90.15 AMU

Throughout the following assumptions are being made:
  (1) The electronic state is orbitally nondegenerate
  (2) There are no thermally accessible electronically excited states
  (3) Hindered rotations indicated by low frequency modes) are not
      treated as such but are treated as vibrations and this may
      case some error
  (4) All equations used are the standard statistical mechanics
      equations for an ideal gas
  (5) All vibrations are strinctly harmonic

------------
INNER ENERGY
------------

The inner energy is: U= E(el) + E(ZPE) + E(vib) + E(rot) + E(trans)
    E(el)   - is the total energy from the electronic structure calculation
              = E(kin-el) + E(nuc-el) + E(el-el) + E(nuc-nuc)
    E(ZPE)  - the the zero temperature vibrational energy from the frequency calculation
    E(vib)  - the the finite temperature correction to E(ZPE) due to population
              of excietd vibrational states
    E(rot)  - is the rotational thermal energy
    E(trans)- is the translational thermal energy

Summary of contributions to the inner energy U:
Electronic energy                ...   -289.16701370 Eh
Zero point energy                ...      0.17081911 Eh     107.19 kcal/mol
Thermal vibrational correction   ...      0.00473349 Eh       2.97 kcal/mol
Thermal rotational correction    ...      0.00141627 Eh       0.89 kcal/mol
Thermal translational correction ...      0.00141627 Eh       0.89 kcal/mol
-----------------------------------------------------------------------
Total thermal energy                   -288.98862856 Eh

Summary of corrections to the electronic energy:
(perhaps to be used in another calculation)
Total thermal correction                  0.00756604 Eh       4.75 kcal/mol
Non-thermal (ZPE) correction              0.17081911 Eh     107.19 kcal/mol
-----------------------------------------------------------------------
Total correction                          0.17838514 Eh     111.94 kcal/mol

--------
ENTHALPY
--------

The enthalpy is H = U + kB*T
                kB is Boltzmann's constant
Total free energy                 ...   -288.98862856 Eh
Thermal Enthalpy correction       ...      0.00094421 Eh       0.59 kcal/mol
-----------------------------------------------------------------------
Total Enthalpy                    ...   -288.98768435 Eh

-------
ENTROPY
-------

The entropy contributions are T*S = T*(S(el)+S(vib)+S(rot)+S(trans)
     S(el)   - electronic entropy
     S(vib)  - vibrational entropy
     S(rot)  - rotational entropy
     S(trans)- translational entropy
The entropies will be listed as mutliplied by the temperature to get
units of energy

Electronic entropy                ...      0.00000000 Eh      0.00 kcal/mol
Vibrational entropy               ...      0.00820012 Eh      5.15 kcal/mol
Rotational entropy                ...      0.01182806 Eh      7.42 kcal/mol
Translational entropy             ...      0.01872432 Eh     11.75 kcal/mol
-----------------------------------------------------------------------
Final entropy term                ...      0.03875250 Eh     24.32 kcal/mol

CAUTION: The rotational entropy is not quite correctly treated here
         because it includes a symmetry number that is not yet correctly
         implemented in ORCA!
For a nonlinear molecule the correct rotational entropy is:
    S(rot) = R*(ln(qrot/sn)+1.5)
    R    = 8.31441 J/mol/K = 1.987191683e-3 kcal/mol/K
    qrot = 184597.3714613
    sn is the rotational symmetry number. We have assumed 3 here
       if it is different for your molecule then you should correct
       the printed rotational entropy by manually evaluating the equation
       as given above

For convenience we print out the resulting values for sn=1 - 12:
 sn= 1  qrot/sn=  184597.3715 T*S(rot)=     8.07 kcal/mol T*S(tot)=    24.97 kcal/mol
 sn= 2  qrot/sn=   92298.6857 T*S(rot)=     7.66 kcal/mol T*S(tot)=    24.56 kcal/mol
 sn= 3  qrot/sn=   61532.4572 T*S(rot)=     7.42 kcal/mol T*S(tot)=    24.32 kcal/mol
 sn= 4  qrot/sn=   46149.3429 T*S(rot)=     7.25 kcal/mol T*S(tot)=    24.15 kcal/mol
 sn= 5  qrot/sn=   36919.4743 T*S(rot)=     7.12 kcal/mol T*S(tot)=    24.01 kcal/mol
 sn= 6  qrot/sn=   30766.2286 T*S(rot)=     7.01 kcal/mol T*S(tot)=    23.91 kcal/mol
 sn= 7  qrot/sn=   26371.0531 T*S(rot)=     6.92 kcal/mol T*S(tot)=    23.82 kcal/mol
 sn= 8  qrot/sn=   23074.6714 T*S(rot)=     6.84 kcal/mol T*S(tot)=    23.74 kcal/mol
 sn= 9  qrot/sn=   20510.8191 T*S(rot)=     6.77 kcal/mol T*S(tot)=    23.67 kcal/mol
 sn=10  qrot/sn=   18459.7371 T*S(rot)=     6.71 kcal/mol T*S(tot)=    23.60 kcal/mol
 sn=11  qrot/sn=   16781.5792 T*S(rot)=     6.65 kcal/mol T*S(tot)=    23.55 kcal/mol
 sn=12  qrot/sn=   15383.1143 T*S(rot)=     6.60 kcal/mol T*S(tot)=    23.50 kcal/mol

-------------------
GIBBS FREE ENTHALPY
-------------------

The Gibbs free enthalpy is G = H - T*S

Total enthalpy                    ...   -288.98768435 Eh
Total entropy correction          ...     -0.03875250 Eh    -24.32 kcal/mol
-----------------------------------------------------------------------
Final Gibbs free enthalpy         ...   -289.02643684 Eh

For completeness - the Gibbs free enthalpy minus the electronic energy
G-E(el)                           ...      0.14057686 Eh     88.21 kcal/mol

                             ****ORCA TERMINATED NORMALLY****
TOTAL RUN TIME: 0 days 0 hours 28 minutes 40 seconds 119 msec
