                         Program Version 3.0.3 - RELEASE   -
|  1> ! NORI PBE0 def2-TZVP UseSym TightOPT Freq TightSCF Grid3 FinalGrid5 XYZFile
|  2> % pal
|  3>     nprocs 8
|  4> end
|  5> %method
|  6>     SymThresh 5.0e-2
|  7> end
|  8> % geom
|  9>     MaxIter 10
| 10> end
| 11> % maxcore 2000
| 12> % output
| 13>     printlevel mini
| 14>     print[ P_Basis ] 0
| 15>     print[ P_SCFInfo ] 1
| 16>     print[ P_SCFIterInfo ] 1
| 17>     print[ P_OrbEn ] 0
| 18>     print[ P_Cartesian ] 0
| 19> end
| 20> % elprop
| 21>     Dipole false
| 22> end
| 23> *xyz 1 1
| 24>  C        1.0715447518    -0.0480787953     0.0845932102
| 25>  N        2.5369019227    -0.2505123520    -0.0985056317
| 26>  C        2.8779664544    -1.6976487899    -0.2130751369
| 27>  C        3.0622039929     0.5272112758    -1.2587040953
| 28>  C        4.5834951517     0.5672009327    -1.2787460278
| 29>  O        5.1944291530     0.5942653406    -2.2977840502
| 30>  H        0.8738936919     1.0120397876     0.2324064547
| 31>  H        0.7422514437    -0.6160209202     0.9531127121
| 32>  H        0.5606696324    -0.4036724744    -0.8087571686
| 33>  H        2.9988759868     0.1051601247     0.7423864821
| 34>  H        2.3752900239    -2.0994210426    -1.0914584492
| 35>  H        2.5378604701    -2.2138078334     0.6827475413
| 36>  H        3.9562354707    -1.8086185611    -0.3205096781
| 37>  H        2.6814351526     0.0853198664    -2.1794439092
| 38>  H        2.6901557114     1.5526213347    -1.1751911634
| 39>  H        5.0851609902     0.6114021063    -0.2854710901
| 40> *
| 41>
| 42>                          ****END OF INPUT****
 Total Charge           Charge          ....    1
 Multiplicity           Mult            ....    1
 Number of Electrons    NEL             ....   48
FINAL SINGLE POINT ENERGY      -287.915705384271

CARTESIAN COORDINATES (ANGSTROEM)
---------------------------------
  C     -0.290879   -0.742654   -2.182894
  N      0.207028    0.000125   -0.990346
  C     -0.198681    1.434477   -1.032116
  C     -0.218456   -0.650377    0.283532
  C      0.517634   -0.084014    1.489177
  O     -0.001271    0.000659    2.555026
  H      0.084228   -1.763980   -2.148846
  H      0.062367   -0.242532   -3.083089
  H     -1.379369   -0.742347   -2.159084
  H      1.229418   -0.028088   -1.021809
  H     -1.286481    1.482942   -1.022226
  H      0.188860    1.885690   -1.943630
  H      0.202744    1.950482   -0.161026
  H     -1.294641   -0.522774    0.400903
  H      0.008046   -1.718367    0.210337
  H      1.579864    0.206288    1.322215

FINAL SINGLE POINT ENERGY      -287.915706002312
                    ***********************HURRAY********************
 Multiplicity           Mult            ....    1
 Number of Electrons    NEL             ....   48
 Basis Dimension        Dim             ....  246
FINAL SINGLE POINT ENERGY      -287.915706344251

VIBRATIONAL FREQUENCIES
-----------------------

   0:         0.00 cm**-1
   1:         0.00 cm**-1
   2:         0.00 cm**-1
   3:         0.00 cm**-1
   4:         0.00 cm**-1
   5:         0.00 cm**-1
   6:        57.76 cm**-1
   7:       100.70 cm**-1
   8:       203.68 cm**-1
   9:       217.71 cm**-1
  10:       261.05 cm**-1
  11:       355.85 cm**-1
  12:       401.48 cm**-1
  13:       455.23 cm**-1
  14:       518.10 cm**-1
  15:       746.38 cm**-1
  16:       871.28 cm**-1
  17:       988.78 cm**-1
  18:      1003.48 cm**-1
  19:      1030.31 cm**-1
  20:      1049.73 cm**-1
  21:      1055.37 cm**-1
  22:      1162.16 cm**-1
  23:      1191.27 cm**-1
  24:      1253.30 cm**-1
  25:      1300.05 cm**-1
  26:      1341.41 cm**-1
  27:      1414.96 cm**-1
  28:      1417.48 cm**-1
  29:      1435.94 cm**-1
  30:      1444.65 cm**-1
  31:      1449.94 cm**-1
  32:      1474.42 cm**-1
  33:      1481.61 cm**-1
  34:      1488.97 cm**-1
  35:      1499.56 cm**-1
  36:      1503.81 cm**-1
  37:      1879.38 cm**-1
  38:      2888.58 cm**-1
  39:      3079.24 cm**-1
  40:      3086.15 cm**-1
  41:      3088.70 cm**-1
  42:      3159.08 cm**-1
  43:      3186.84 cm**-1
  44:      3189.90 cm**-1
  45:      3191.02 cm**-1
  46:      3192.96 cm**-1
  47:      3435.67 cm**-1

IR SPECTRUM
-----------

 Mode    freq (cm**-1)   T**2         TX         TY         TZ
-------------------------------------------------------------------
   6:        57.76    9.663246  (  1.299142  -2.626177   1.038591)
   7:       100.70    4.063897  (  1.403245   1.218340  -0.781312)
   8:       203.68    3.243868  (  1.779599   0.275926  -0.027592)
   9:       217.71    0.915340  ( -0.922382  -0.212793  -0.138819)
  10:       261.05    0.860190  (  0.874232   0.268840  -0.153730)
  11:       355.85    1.146847  ( -0.023167   0.751951   0.762155)
  12:       401.48    1.688525  ( -1.255618  -0.332515  -0.037196)
  13:       455.23    1.121930  (  0.826352  -0.098910  -0.655201)
  14:       518.10   10.946395  ( -1.882708  -1.234777  -2.424279)
  15:       746.38    3.773756  (  0.589057  -1.749647  -0.604569)
  16:       871.28    3.112083  ( -1.430810  -0.336314  -0.975582)
  17:       988.78   43.598333  (  1.466447  -1.130931   6.337891)
  18:      1003.48   20.236652  ( -0.840632  -3.830573  -2.203793)
  19:      1030.31   23.545703  ( -2.539301  -1.192200  -3.959332)
  20:      1049.73    0.883359  ( -0.580450   0.675484   0.300263)
  21:      1055.37    2.924213  ( -0.034948   1.581142   0.650370)
  22:      1162.16    3.468520  ( -1.143939  -1.417676  -0.387452)
  23:      1191.27    2.289337  ( -1.417833   0.393938  -0.351992)
  24:      1253.30    0.060093  ( -0.197512  -0.053805   0.134859)
  25:      1300.05    0.325957  ( -0.320361   0.310681  -0.356095)
  26:      1341.41    2.642724  (  0.603920   0.762484   1.302545)
  27:      1414.96    3.581505  ( -1.722190  -0.728665  -0.290882)
  28:      1417.48   11.846615  ( -0.193402  -2.416071  -2.443730)
  29:      1435.94   14.652100  ( -0.162187   1.660814  -3.444923)
  30:      1444.65    4.602545  (  0.279642  -2.048290  -0.573456)
  31:      1449.94    5.392070  ( -1.242374  -1.803664  -0.771604)
  32:      1474.42    3.757604  ( -1.426976   1.293075  -0.222036)
  33:      1481.61    6.081728  ( -2.354059   0.598981  -0.425858)
  34:      1488.97   32.211492  (  0.948716   4.659027   3.099177)
  35:      1499.56   26.035188  (  2.357704  -2.174966   3.968116)
  36:      1503.81   46.474741  ( -5.569118  -2.237283   3.233301)
  37:      1879.38  142.617447  ( -3.179937   1.238510  11.444280)
  38:      2888.58   55.042232  (  6.832860   1.937732  -2.144634)
  39:      3079.24    2.473361  (  0.822220   1.027784   0.860799)
  40:      3086.15    0.193139  (  0.064127  -0.322295   0.291810)
  41:      3088.70    0.166469  ( -0.276717   0.018268  -0.299271)
  42:      3159.08    1.699698  (  0.949083  -0.623928  -0.640042)
  43:      3186.84    0.078586  ( -0.235381  -0.123869   0.088532)
  44:      3189.90    0.198215  ( -0.028539  -0.352265  -0.270758)
  45:      3191.02    0.113968  (  0.313369  -0.104330   0.069879)
  46:      3192.96    0.199384  ( -0.445237  -0.006020   0.033339)
  47:      3435.67   49.938887  (  7.057766  -0.355861   0.013903)

--------------------------
THERMOCHEMISTRY AT 298.15K
--------------------------

Temperature         ... 298.15 K
Pressure            ... 1.00 atm
Total Mass          ... 88.13 AMU

Throughout the following assumptions are being made:
  (1) The electronic state is orbitally nondegenerate
  (2) There are no thermally accessible electronically excited states
  (3) Hindered rotations indicated by low frequency modes) are not
      treated as such but are treated as vibrations and this may
      case some error
  (4) All equations used are the standard statistical mechanics
      equations for an ideal gas
  (5) All vibrations are strinctly harmonic

------------
INNER ENERGY
------------

The inner energy is: U= E(el) + E(ZPE) + E(vib) + E(rot) + E(trans)
    E(el)   - is the total energy from the electronic structure calculation
              = E(kin-el) + E(nuc-el) + E(el-el) + E(nuc-nuc)
    E(ZPE)  - the the zero temperature vibrational energy from the frequency calculation
    E(vib)  - the the finite temperature correction to E(ZPE) due to population
              of excietd vibrational states
    E(rot)  - is the rotational thermal energy
    E(trans)- is the translational thermal energy

Summary of contributions to the inner energy U:
Electronic energy                ...   -287.91570634 Eh
Zero point energy                ...      0.14478649 Eh      90.85 kcal/mol
Thermal vibrational correction   ...      0.00469851 Eh       2.95 kcal/mol
Thermal rotational correction    ...      0.00141627 Eh       0.89 kcal/mol
Thermal translational correction ...      0.00141627 Eh       0.89 kcal/mol
-----------------------------------------------------------------------
Total thermal energy                   -287.76338880 Eh

Summary of corrections to the electronic energy:
(perhaps to be used in another calculation)
Total thermal correction                  0.00753106 Eh       4.73 kcal/mol
Non-thermal (ZPE) correction              0.14478649 Eh      90.85 kcal/mol
-----------------------------------------------------------------------
Total correction                          0.15231754 Eh      95.58 kcal/mol

--------
ENTHALPY
--------

The enthalpy is H = U + kB*T
                kB is Boltzmann's constant
Total free energy                 ...   -287.76338880 Eh
Thermal Enthalpy correction       ...      0.00094421 Eh       0.59 kcal/mol
-----------------------------------------------------------------------
Total Enthalpy                    ...   -287.76244459 Eh

-------
ENTROPY
-------

The entropy contributions are T*S = T*(S(el)+S(vib)+S(rot)+S(trans)
     S(el)   - electronic entropy
     S(vib)  - vibrational entropy
     S(rot)  - rotational entropy
     S(trans)- translational entropy
The entropies will be listed as mutliplied by the temperature to get
units of energy

Electronic entropy                ...      0.00000000 Eh      0.00 kcal/mol
Vibrational entropy               ...      0.00871914 Eh      5.47 kcal/mol
Rotational entropy                ...      0.01176656 Eh      7.38 kcal/mol
Translational entropy             ...      0.01869229 Eh     11.73 kcal/mol
-----------------------------------------------------------------------
Final entropy term                ...      0.03917799 Eh     24.58 kcal/mol

CAUTION: The rotational entropy is not quite correctly treated here
         because it includes a symmetry number that is not yet correctly
         implemented in ORCA!
For a nonlinear molecule the correct rotational entropy is:
    S(rot) = R*(ln(qrot/sn)+1.5)
    R    = 8.31441 J/mol/K = 1.987191683e-3 kcal/mol/K
    qrot = 172957.6812780
    sn is the rotational symmetry number. We have assumed 3 here
       if it is different for your molecule then you should correct
       the printed rotational entropy by manually evaluating the equation
       as given above

For convenience we print out the resulting values for sn=1 - 12:
 sn= 1  qrot/sn=  172957.6813 T*S(rot)=     8.03 kcal/mol T*S(tot)=    25.24 kcal/mol
 sn= 2  qrot/sn=   86478.8406 T*S(rot)=     7.62 kcal/mol T*S(tot)=    24.82 kcal/mol
 sn= 3  qrot/sn=   57652.5604 T*S(rot)=     7.38 kcal/mol T*S(tot)=    24.58 kcal/mol
 sn= 4  qrot/sn=   43239.4203 T*S(rot)=     7.21 kcal/mol T*S(tot)=    24.41 kcal/mol
 sn= 5  qrot/sn=   34591.5363 T*S(rot)=     7.08 kcal/mol T*S(tot)=    24.28 kcal/mol
 sn= 6  qrot/sn=   28826.2802 T*S(rot)=     6.97 kcal/mol T*S(tot)=    24.17 kcal/mol
 sn= 7  qrot/sn=   24708.2402 T*S(rot)=     6.88 kcal/mol T*S(tot)=    24.08 kcal/mol
 sn= 8  qrot/sn=   21619.7102 T*S(rot)=     6.80 kcal/mol T*S(tot)=    24.00 kcal/mol
 sn= 9  qrot/sn=   19217.5201 T*S(rot)=     6.73 kcal/mol T*S(tot)=    23.93 kcal/mol
 sn=10  qrot/sn=   17295.7681 T*S(rot)=     6.67 kcal/mol T*S(tot)=    23.87 kcal/mol
 sn=11  qrot/sn=   15723.4256 T*S(rot)=     6.61 kcal/mol T*S(tot)=    23.81 kcal/mol
 sn=12  qrot/sn=   14413.1401 T*S(rot)=     6.56 kcal/mol T*S(tot)=    23.76 kcal/mol

-------------------
GIBBS FREE ENTHALPY
-------------------

The Gibbs free enthalpy is G = H - T*S

Total enthalpy                    ...   -287.76244459 Eh
Total entropy correction          ...     -0.03917799 Eh    -24.58 kcal/mol
-----------------------------------------------------------------------
Final Gibbs free enthalpy         ...   -287.80162258 Eh

For completeness - the Gibbs free enthalpy minus the electronic energy
G-E(el)                           ...      0.11408376 Eh     71.59 kcal/mol

                             ****ORCA TERMINATED NORMALLY****
TOTAL RUN TIME: 0 days 0 hours 22 minutes 34 seconds 208 msec
