                         Program Version 3.0.3 - RELEASE   -
|  1> ! NORI PBE0 def2-TZVP UseSym TightOPT Freq TightSCF Grid3 FinalGrid5 XYZFile
|  2> % pal
|  3>     nprocs 8
|  4> end
|  5> %method
|  6>     SymThresh 5.0e-2
|  7> end
|  8> % geom
|  9>     MaxIter 10
| 10> end
| 11> % maxcore 2000
| 12> % output
| 13>     printlevel mini
| 14>     print[ P_Basis ] 0
| 15>     print[ P_SCFInfo ] 1
| 16>     print[ P_SCFIterInfo ] 1
| 17>     print[ P_OrbEn ] 0
| 18>     print[ P_Cartesian ] 0
| 19> end
| 20> % elprop
| 21>     Dipole false
| 22> end
| 23> *xyz 1 1
| 24>  C        1.3665050239    -0.8040806753     0.3954042239
| 25>  N        2.7781487479    -0.6189984751     0.8103705878
| 26>  C        3.1102409775     0.7130073305     1.4392870183
| 27>  C        2.6693356501     0.7745413690     2.8803546742
| 28>  C        4.6042636314     0.9114797535     1.2493201376
| 29>  O        4.8649523493     0.5937162098    -0.0996541982
| 30>  H        1.2498141202    -1.7992360905    -0.0304662026
| 31>  H        1.1247626928    -0.0511934930    -0.3520548510
| 32>  H        0.7171410104    -0.6944297414     1.2605260056
| 33>  H        3.4076610358    -0.6854781451    -0.0033723331
| 34>  H        3.0500601370    -1.3646558851     1.4538661649
| 35>  H        2.5799309833     1.4468556889     0.8271224453
| 36>  H        3.1630092064     0.0083261940     3.4843444076
| 37>  H        1.5889188721     0.6712414973     2.9902713508
| 38>  H        2.9410104546     1.7459145327     3.2969945653
| 39>  H        4.8475151746     1.9519258463     1.4854359263
| 40>  H        5.1691642363     0.2634869291     1.9331882355
| 41>  H        5.7942056963     0.7179371542    -0.3123981583
| 42> *
| 43>
| 44>                          ****END OF INPUT****
 Total Charge           Charge          ....    1
 Multiplicity           Mult            ....    1
 Number of Electrons    NEL             ....   50
FINAL SINGLE POINT ENERGY      -289.162879460427
FINAL SINGLE POINT ENERGY      -289.162881859230
FINAL SINGLE POINT ENERGY      -289.162884060673

CARTESIAN COORDINATES (ANGSTROEM)
---------------------------------
  C      1.596866    0.975625   -1.286549
  N      0.957363    0.003178   -0.367268
  C     -0.543894    0.103090   -0.243371
  C     -1.244730   -0.514875   -1.427803
  C     -0.904095   -0.539184    1.084798
  O     -0.001581   -0.003350    2.026909
  H      2.671634    0.802559   -1.292909
  H      1.386812    1.981055   -0.927661
  H      1.196113    0.844424   -2.288889
  H      1.304464    0.128469    0.595259
  H      1.203159   -0.948624   -0.645604
  H     -0.744146    1.175628   -0.177218
  H     -1.008295   -1.578106   -1.525971
  H     -1.000119   -0.010346   -2.362923
  H     -2.323826   -0.429415   -1.291333
  H     -1.943990   -0.291055    1.318267
  H     -0.818342   -1.632474    1.019607
  H     -0.175088   -0.346242    2.908066

FINAL SINGLE POINT ENERGY      -289.162884762752
                    ***********************HURRAY********************
 Multiplicity           Mult            ....    1
 Number of Electrons    NEL             ....   50
 Basis Dimension        Dim             ....  258
FINAL SINGLE POINT ENERGY      -289.162885442803

VIBRATIONAL FREQUENCIES
-----------------------

   0:         0.00 cm**-1
   1:         0.00 cm**-1
   2:         0.00 cm**-1
   3:         0.00 cm**-1
   4:         0.00 cm**-1
   5:         0.00 cm**-1
   6:        87.42 cm**-1
   7:       156.59 cm**-1
   8:       199.48 cm**-1
   9:       215.41 cm**-1
  10:       269.36 cm**-1
  11:       277.09 cm**-1
  12:       302.63 cm**-1
  13:       392.56 cm**-1
  14:       457.67 cm**-1
  15:       531.60 cm**-1
  16:       786.08 cm**-1
  17:       854.36 cm**-1
  18:       912.25 cm**-1
  19:       950.82 cm**-1
  20:      1037.67 cm**-1
  21:      1059.48 cm**-1
  22:      1079.01 cm**-1
  23:      1109.93 cm**-1
  24:      1119.95 cm**-1
  25:      1190.09 cm**-1
  26:      1222.56 cm**-1
  27:      1244.56 cm**-1
  28:      1278.95 cm**-1
  29:      1325.89 cm**-1
  30:      1369.29 cm**-1
  31:      1407.06 cm**-1
  32:      1426.36 cm**-1
  33:      1434.01 cm**-1
  34:      1449.76 cm**-1
  35:      1460.41 cm**-1
  36:      1485.86 cm**-1
  37:      1490.26 cm**-1
  38:      1496.37 cm**-1
  39:      1500.37 cm**-1
  40:      1516.10 cm**-1
  41:      1655.25 cm**-1
  42:      3020.80 cm**-1
  43:      3060.80 cm**-1
  44:      3087.84 cm**-1
  45:      3095.28 cm**-1
  46:      3101.62 cm**-1
  47:      3141.90 cm**-1
  48:      3154.43 cm**-1
  49:      3190.80 cm**-1
  50:      3200.04 cm**-1
  51:      3326.92 cm**-1
  52:      3470.19 cm**-1
  53:      3868.18 cm**-1

IR SPECTRUM
-----------

 Mode    freq (cm**-1)   T**2         TX         TY         TZ
-------------------------------------------------------------------
   6:        87.42    0.868008  ( -0.474308  -0.799475   0.062284)
   7:       156.59   12.841302  (  2.090929  -2.574582  -1.356777)
   8:       199.48    1.840246  (  0.016728   0.739006  -1.137470)
   9:       215.41    1.460256  ( -0.146506  -0.837263   0.858942)
  10:       269.36   14.775225  (  2.451106  -2.916392  -0.511826)
  11:       277.09   22.351344  (  2.140847  -0.592493  -4.173376)
  12:       302.63  108.705067  (  5.600070  -8.508270  -2.225673)
  13:       392.56    9.899998  ( -1.383923   0.639585  -2.752397)
  14:       457.67    2.807446  (  1.451090   0.615505  -0.568277)
  15:       531.60   13.249687  ( -2.609507  -0.375792  -2.509769)
  16:       786.08    3.613273  (  1.670589   0.902289   0.090994)
  17:       854.36   13.432772  ( -1.046685  -1.863955  -2.977061)
  18:       912.25    8.522579  (  1.157465  -0.375248   2.653685)
  19:       950.82    6.138901  ( -0.844615  -1.931978  -1.301149)
  20:      1037.67    8.855538  ( -1.794869   0.497514  -2.320876)
  21:      1059.48    6.140448  (  2.474661   0.081889  -0.098974)
  22:      1079.01   43.582054  ( -6.159323  -2.343954  -0.388168)
  23:      1109.93   68.401306  (  4.222016   2.948875   6.471478)
  24:      1119.95    5.664289  (  0.201641   0.271159   2.355866)
  25:      1190.09    5.270549  ( -2.170259  -0.542181   0.516298)
  26:      1222.56    7.203235  (  0.906993  -0.217737  -2.516583)
  27:      1244.56   32.336428  (  3.022548   3.191661   3.607482)
  28:      1278.95    5.824094  ( -2.191191  -0.841265  -0.561294)
  29:      1325.89   14.827765  ( -1.890553   0.333079   3.338058)
  30:      1369.29    2.723792  ( -0.768767  -1.395564  -0.430338)
  31:      1407.06   43.171506  (  5.901646   1.745399  -2.301232)
  32:      1426.36   55.128861  (  6.343418   2.340157  -3.068156)
  33:      1434.01   23.434789  (  0.967734  -0.399152  -4.726411)
  34:      1449.76    1.903995  (  1.182342  -0.008745  -0.711328)
  35:      1460.41   14.462296  (  2.513067   1.266391  -2.557938)
  36:      1485.86    1.684869  ( -0.254499  -0.969213  -0.825061)
  37:      1490.26   14.199149  ( -0.282020  -3.737472  -0.388480)
  38:      1496.37   32.812375  ( -5.510093   0.670365  -1.414871)
  39:      1500.37   21.263531  (  2.809062  -2.029329  -3.042125)
  40:      1516.10    8.477686  (  0.009778  -2.154668   1.958314)
  41:      1655.25   45.771399  (  3.741237  -4.294856   3.650857)
  42:      3020.80   21.235349  (  1.532263   4.020191   1.650934)
  43:      3060.80    2.898020  ( -1.018298   1.157948   0.721281)
  44:      3087.84    5.117761  ( -2.135363   0.301009  -0.683651)
  45:      3095.28    0.667085  (  0.243133   0.085090  -0.775068)
  46:      3101.62    3.005270  ( -0.699667   1.542957   0.367452)
  47:      3141.90    4.050365  (  0.174476  -1.957939   0.431740)
  48:      3154.43    2.345730  (  0.351868   0.740349  -1.293755)
  49:      3190.80    0.082461  (  0.049514  -0.210121  -0.189365)
  50:      3200.04    0.674040  (  0.126863   0.209761  -0.783547)
  51:      3326.92  153.820475  ( -0.855547   1.041651 -12.328969)
  52:      3470.19   54.629078  (  1.974669  -5.738550  -4.218864)
  53:      3868.18  134.982071  (  0.264860   2.367792 -11.371257)

--------------------------
THERMOCHEMISTRY AT 298.15K
--------------------------

Temperature         ... 298.15 K
Pressure            ... 1.00 atm
Total Mass          ... 90.15 AMU

Throughout the following assumptions are being made:
  (1) The electronic state is orbitally nondegenerate
  (2) There are no thermally accessible electronically excited states
  (3) Hindered rotations indicated by low frequency modes) are not
      treated as such but are treated as vibrations and this may
      case some error
  (4) All equations used are the standard statistical mechanics
      equations for an ideal gas
  (5) All vibrations are strinctly harmonic

------------
INNER ENERGY
------------

The inner energy is: U= E(el) + E(ZPE) + E(vib) + E(rot) + E(trans)
    E(el)   - is the total energy from the electronic structure calculation
              = E(kin-el) + E(nuc-el) + E(el-el) + E(nuc-nuc)
    E(ZPE)  - the the zero temperature vibrational energy from the frequency calculation
    E(vib)  - the the finite temperature correction to E(ZPE) due to population
              of excietd vibrational states
    E(rot)  - is the rotational thermal energy
    E(trans)- is the translational thermal energy

Summary of contributions to the inner energy U:
Electronic energy                ...   -289.16288544 Eh
Zero point energy                ...      0.16965816 Eh     106.46 kcal/mol
Thermal vibrational correction   ...      0.00510675 Eh       3.20 kcal/mol
Thermal rotational correction    ...      0.00141627 Eh       0.89 kcal/mol
Thermal translational correction ...      0.00141627 Eh       0.89 kcal/mol
-----------------------------------------------------------------------
Total thermal energy                   -288.98528799 Eh

Summary of corrections to the electronic energy:
(perhaps to be used in another calculation)
Total thermal correction                  0.00793930 Eh       4.98 kcal/mol
Non-thermal (ZPE) correction              0.16965816 Eh     106.46 kcal/mol
-----------------------------------------------------------------------
Total correction                          0.17759745 Eh     111.44 kcal/mol

--------
ENTHALPY
--------

The enthalpy is H = U + kB*T
                kB is Boltzmann's constant
Total free energy                 ...   -288.98528799 Eh
Thermal Enthalpy correction       ...      0.00094421 Eh       0.59 kcal/mol
-----------------------------------------------------------------------
Total Enthalpy                    ...   -288.98434378 Eh

-------
ENTROPY
-------

The entropy contributions are T*S = T*(S(el)+S(vib)+S(rot)+S(trans)
     S(el)   - electronic entropy
     S(vib)  - vibrational entropy
     S(rot)  - rotational entropy
     S(trans)- translational entropy
The entropies will be listed as mutliplied by the temperature to get
units of energy

Electronic entropy                ...      0.00000000 Eh      0.00 kcal/mol
Vibrational entropy               ...      0.00886115 Eh      5.56 kcal/mol
Rotational entropy                ...      0.01184230 Eh      7.43 kcal/mol
Translational entropy             ...      0.01872432 Eh     11.75 kcal/mol
-----------------------------------------------------------------------
Final entropy term                ...      0.03942776 Eh     24.74 kcal/mol

CAUTION: The rotational entropy is not quite correctly treated here
         because it includes a symmetry number that is not yet correctly
         implemented in ORCA!
For a nonlinear molecule the correct rotational entropy is:
    S(rot) = R*(ln(qrot/sn)+1.5)
    R    = 8.31441 J/mol/K = 1.987191683e-3 kcal/mol/K
    qrot = 187402.2897422
    sn is the rotational symmetry number. We have assumed 3 here
       if it is different for your molecule then you should correct
       the printed rotational entropy by manually evaluating the equation
       as given above

For convenience we print out the resulting values for sn=1 - 12:
 sn= 1  qrot/sn=  187402.2897 T*S(rot)=     8.08 kcal/mol T*S(tot)=    25.39 kcal/mol
 sn= 2  qrot/sn=   93701.1449 T*S(rot)=     7.67 kcal/mol T*S(tot)=    24.98 kcal/mol
 sn= 3  qrot/sn=   62467.4299 T*S(rot)=     7.43 kcal/mol T*S(tot)=    24.74 kcal/mol
 sn= 4  qrot/sn=   46850.5724 T*S(rot)=     7.26 kcal/mol T*S(tot)=    24.57 kcal/mol
 sn= 5  qrot/sn=   37480.4579 T*S(rot)=     7.13 kcal/mol T*S(tot)=    24.44 kcal/mol
 sn= 6  qrot/sn=   31233.7150 T*S(rot)=     7.02 kcal/mol T*S(tot)=    24.33 kcal/mol
 sn= 7  qrot/sn=   26771.7557 T*S(rot)=     6.93 kcal/mol T*S(tot)=    24.24 kcal/mol
 sn= 8  qrot/sn=   23425.2862 T*S(rot)=     6.85 kcal/mol T*S(tot)=    24.16 kcal/mol
 sn= 9  qrot/sn=   20822.4766 T*S(rot)=     6.78 kcal/mol T*S(tot)=    24.09 kcal/mol
 sn=10  qrot/sn=   18740.2290 T*S(rot)=     6.72 kcal/mol T*S(tot)=    24.03 kcal/mol
 sn=11  qrot/sn=   17036.5718 T*S(rot)=     6.66 kcal/mol T*S(tot)=    23.97 kcal/mol
 sn=12  qrot/sn=   15616.8575 T*S(rot)=     6.61 kcal/mol T*S(tot)=    23.92 kcal/mol

-------------------
GIBBS FREE ENTHALPY
-------------------

The Gibbs free enthalpy is G = H - T*S

Total enthalpy                    ...   -288.98434378 Eh
Total entropy correction          ...     -0.03942776 Eh    -24.74 kcal/mol
-----------------------------------------------------------------------
Final Gibbs free enthalpy         ...   -289.02377155 Eh

For completeness - the Gibbs free enthalpy minus the electronic energy
G-E(el)                           ...      0.13911390 Eh     87.30 kcal/mol

                             ****ORCA TERMINATED NORMALLY****
TOTAL RUN TIME: 0 days 0 hours 29 minutes 28 seconds 684 msec
