                         Program Version 3.0.3 - RELEASE   -
|  1> ! NORI PBE0 def2-TZVP UseSym TightOPT Freq TightSCF Grid3 FinalGrid5 XYZFile
|  2> % pal
|  3>     nprocs 8
|  4> end
|  5> %method
|  6>     SymThresh 5.0e-2
|  7> end
|  8> % geom
|  9>     MaxIter 10
| 10> end
| 11> % maxcore 2000
| 12> % output
| 13>     printlevel mini
| 14>     print[ P_Basis ] 0
| 15>     print[ P_SCFInfo ] 1
| 16>     print[ P_SCFIterInfo ] 1
| 17>     print[ P_OrbEn ] 0
| 18>     print[ P_Cartesian ] 0
| 19> end
| 20> % elprop
| 21>     Dipole false
| 22> end
| 23> *xyz 1 1
| 24>  C        2.6966194341     0.5511970249     1.1212692784
| 25>  N        2.9529820106     0.3228199916    -0.3248953242
| 26>  C        3.2832311595    -1.0875172520    -0.7083450552
| 27>  C        2.4521883926    -1.5725682661    -1.8828722827
| 28>  C        4.7676080321    -1.0750460855    -1.0451897410
| 29>  O        5.3779672191    -0.0425674119    -1.0648270624
| 30>  H        2.5176347998     1.6127745156     1.2835232366
| 31>  H        3.5746330654     0.2371586839     1.6828915172
| 32>  H        1.8258562120    -0.0264268335     1.4261729382
| 33>  H        2.1650470573     0.6599173108    -0.8774148939
| 34>  H        3.7998682473     0.8559838931    -0.6127270439
| 35>  H        3.1194016713    -1.7246168173     0.1653352954
| 36>  H        2.5932902815    -0.9378735017    -2.7612594873
| 37>  H        1.3915348453    -1.6051145567    -1.6255210701
| 38>  H        2.7539733968    -2.5859703816    -2.1515312919
| 39>  H        5.2306741753    -2.0456903137    -1.2840390132
| 40> *
| 41>
| 42>                          ****END OF INPUT****
 Total Charge           Charge          ....    1
 Multiplicity           Mult            ....    1
 Number of Electrons    NEL             ....   48
FINAL SINGLE POINT ENERGY      -287.939085392917
FINAL SINGLE POINT ENERGY      -287.939083802421

CARTESIAN COORDINATES (ANGSTROEM)
---------------------------------
  C      1.508296    1.264090   -1.010998
  N      0.920744    0.000247   -0.493893
  C     -0.574589   -0.027751   -0.401103
  C     -1.166223   -1.274670   -1.034397
  C     -0.885118    0.040752    1.087649
  O      0.000685    0.000697    1.895522
  H      2.593711    1.183274   -0.986349
  H      1.186775    2.083171   -0.370575
  H      1.167575    1.425898   -2.031877
  H      1.251663   -0.790865   -1.045256
  H      1.225994   -0.143250    0.491247
  H     -0.962587    0.870425   -0.889835
  H     -0.777417   -2.183166   -0.567661
  H     -0.964189   -1.302923   -2.106708
  H     -2.249962   -1.271692   -0.906568
  H     -1.947744    0.104685    1.370719

FINAL SINGLE POINT ENERGY      -287.939086206372
                    ***********************HURRAY********************
 Multiplicity           Mult            ....    1
 Number of Electrons    NEL             ....   48
 Basis Dimension        Dim             ....  246
FINAL SINGLE POINT ENERGY      -287.939086326823

VIBRATIONAL FREQUENCIES
-----------------------

   0:         0.00 cm**-1
   1:         0.00 cm**-1
   2:         0.00 cm**-1
   3:         0.00 cm**-1
   4:         0.00 cm**-1
   5:         0.00 cm**-1
   6:        33.67 cm**-1
   7:       154.13 cm**-1
   8:       221.14 cm**-1
   9:       235.91 cm**-1
  10:       294.52 cm**-1
  11:       316.53 cm**-1
  12:       359.60 cm**-1
  13:       466.06 cm**-1
  14:       701.91 cm**-1
  15:       802.82 cm**-1
  16:       863.16 cm**-1
  17:       910.17 cm**-1
  18:       930.38 cm**-1
  19:      1029.75 cm**-1
  20:      1061.38 cm**-1
  21:      1080.97 cm**-1
  22:      1144.83 cm**-1
  23:      1185.19 cm**-1
  24:      1218.51 cm**-1
  25:      1300.66 cm**-1
  26:      1348.06 cm**-1
  27:      1376.36 cm**-1
  28:      1401.77 cm**-1
  29:      1421.77 cm**-1
  30:      1435.30 cm**-1
  31:      1464.59 cm**-1
  32:      1486.56 cm**-1
  33:      1488.91 cm**-1
  34:      1496.43 cm**-1
  35:      1497.88 cm**-1
  36:      1626.80 cm**-1
  37:      1833.14 cm**-1
  38:      3036.16 cm**-1
  39:      3059.78 cm**-1
  40:      3090.13 cm**-1
  41:      3092.73 cm**-1
  42:      3144.28 cm**-1
  43:      3151.06 cm**-1
  44:      3167.76 cm**-1
  45:      3191.38 cm**-1
  46:      3194.74 cm**-1
  47:      3495.56 cm**-1

IR SPECTRUM
-----------

 Mode    freq (cm**-1)   T**2         TX         TY         TZ
-------------------------------------------------------------------
   7:       154.13   10.566828  ( -0.673522  -3.128950   0.568215)
   8:       221.14    2.891115  ( -1.056829   0.065766   1.330377)
   9:       235.91    0.062094  (  0.203446  -0.090907   0.111531)
  10:       294.52    9.564367  ( -2.230201  -0.829857   1.975325)
  11:       316.53   22.572371  (  3.523770  -0.691073  -3.110921)
  12:       359.60   31.020008  ( -2.408755   0.276042   5.014151)
  13:       466.06    3.759192  (  0.621541   1.784880  -0.432531)
  14:       701.91    0.915482  ( -0.374605   0.675383   0.564810)
  15:       802.82   17.270563  (  1.900853   0.595055  -3.647359)
  16:       863.16   29.353061  (  0.911977  -1.356317  -5.165439)
  17:       910.17   16.233943  ( -1.338151  -0.114129   3.798719)
  18:       930.38   15.065392  ( -0.210206   1.356330   3.630644)
  19:      1029.75    6.949900  ( -0.348304  -2.424248   0.975503)
  20:      1061.38   12.432577  (  3.198323   1.468822   0.214171)
  21:      1080.97   12.166011  (  3.375162   0.234009   0.848253)
  22:      1144.83    2.904746  (  0.484900   1.518494   0.603154)
  23:      1185.19   18.214145  (  1.897073   0.223957  -3.816425)
  24:      1218.51    1.150772  ( -0.038504  -0.800376  -0.713224)
  25:      1300.66    4.063833  ( -0.347676   0.594715   1.894537)
  26:      1348.06   12.906797  (  3.434275  -0.469959  -0.944296)
  27:      1376.36    2.898550  ( -1.647399   0.384774   0.191247)
  28:      1401.77   11.179810  (  2.503718   2.192751   0.321017)
  29:      1421.77    7.953666  (  1.964193   1.934681  -0.593822)
  30:      1435.30   90.227417  ( -8.742583  -1.706606   3.298812)
  31:      1464.59   19.803923  (  3.277552   2.350795  -1.880249)
  32:      1486.56   24.632112  (  4.517577  -1.877860   0.835017)
  33:      1488.91    7.688169  (  0.088944  -1.103373   2.542209)
  34:      1496.43   32.743840  (  5.378691   0.607780   1.855835)
  35:      1497.88   18.890967  ( -1.592441   1.589554   3.718658)
  36:      1626.80   48.452199  (  4.948393  -4.856945   0.612933)
  37:      1833.14  106.972842  ( -4.980490  -0.621550  -9.043298)
  38:      3036.16   14.417214  (  3.539966  -0.062434  -1.371844)
  39:      3059.78    0.644665  ( -0.692758   0.405890  -0.002155)
  40:      3090.13    1.255015  (  0.047552  -0.302973   1.077479)
  41:      3092.73    0.288865  (  0.034415   0.111481   0.524645)
  42:      3144.28    0.978824  (  0.069566  -0.639010   0.752098)
  43:      3151.06    0.808484  ( -0.275761  -0.470364   0.714981)
  44:      3167.76  187.502262  (  2.356682   2.395521 -13.274404)
  45:      3191.38    4.667776  (  0.071265   0.777157  -2.014628)
  46:      3194.74    8.666289  (  0.286474   0.291502  -2.915347)
  47:      3495.56   71.430535  (  3.382083  -5.698935  -5.245397)

--------------------------
THERMOCHEMISTRY AT 298.15K
--------------------------

Temperature         ... 298.15 K
Pressure            ... 1.00 atm
Total Mass          ... 88.13 AMU

Throughout the following assumptions are being made:
  (1) The electronic state is orbitally nondegenerate
  (2) There are no thermally accessible electronically excited states
  (3) Hindered rotations indicated by low frequency modes) are not
      treated as such but are treated as vibrations and this may
      case some error
  (4) All equations used are the standard statistical mechanics
      equations for an ideal gas
  (5) All vibrations are strinctly harmonic

------------
INNER ENERGY
------------

The inner energy is: U= E(el) + E(ZPE) + E(vib) + E(rot) + E(trans)
    E(el)   - is the total energy from the electronic structure calculation
              = E(kin-el) + E(nuc-el) + E(el-el) + E(nuc-nuc)
    E(ZPE)  - the the zero temperature vibrational energy from the frequency calculation
    E(vib)  - the the finite temperature correction to E(ZPE) due to population
              of excietd vibrational states
    E(rot)  - is the rotational thermal energy
    E(trans)- is the translational thermal energy

Summary of contributions to the inner energy U:
Electronic energy                ...   -287.93908633 Eh
Zero point energy                ...      0.14529870 Eh      91.18 kcal/mol
Thermal vibrational correction   ...      0.00367327 Eh       2.31 kcal/mol
Thermal rotational correction    ...      0.00141627 Eh       0.89 kcal/mol
Thermal translational correction ...      0.00141627 Eh       0.89 kcal/mol
-----------------------------------------------------------------------
Total thermal energy                   -287.78728181 Eh

Summary of corrections to the electronic energy:
(perhaps to be used in another calculation)
Total thermal correction                  0.00650581 Eh       4.08 kcal/mol
Non-thermal (ZPE) correction              0.14529870 Eh      91.18 kcal/mol
-----------------------------------------------------------------------
Total correction                          0.15180451 Eh      95.26 kcal/mol

--------
ENTHALPY
--------

The enthalpy is H = U + kB*T
                kB is Boltzmann's constant
Total free energy                 ...   -287.78728181 Eh
Thermal Enthalpy correction       ...      0.00094421 Eh       0.59 kcal/mol
-----------------------------------------------------------------------
Total Enthalpy                    ...   -287.78633761 Eh

-------
ENTROPY
-------

The entropy contributions are T*S = T*(S(el)+S(vib)+S(rot)+S(trans)
     S(el)   - electronic entropy
     S(vib)  - vibrational entropy
     S(rot)  - rotational entropy
     S(trans)- translational entropy
The entropies will be listed as mutliplied by the temperature to get
units of energy

Electronic entropy                ...      0.00000000 Eh      0.00 kcal/mol
Vibrational entropy               ...      0.00595310 Eh      3.74 kcal/mol
Rotational entropy                ...      0.01174855 Eh      7.37 kcal/mol
Translational entropy             ...      0.01869229 Eh     11.73 kcal/mol
-----------------------------------------------------------------------
Final entropy term                ...      0.03639394 Eh     22.84 kcal/mol

CAUTION: The rotational entropy is not quite correctly treated here
         because it includes a symmetry number that is not yet correctly
         implemented in ORCA!
For a nonlinear molecule the correct rotational entropy is:
    S(rot) = R*(ln(qrot/sn)+1.5)
    R    = 8.31441 J/mol/K = 1.987191683e-3 kcal/mol/K
    qrot = 169689.7090669
    sn is the rotational symmetry number. We have assumed 3 here
       if it is different for your molecule then you should correct
       the printed rotational entropy by manually evaluating the equation
       as given above

For convenience we print out the resulting values for sn=1 - 12:
 sn= 1  qrot/sn=  169689.7091 T*S(rot)=     8.02 kcal/mol T*S(tot)=    23.49 kcal/mol
 sn= 2  qrot/sn=   84844.8545 T*S(rot)=     7.61 kcal/mol T*S(tot)=    23.08 kcal/mol
 sn= 3  qrot/sn=   56563.2364 T*S(rot)=     7.37 kcal/mol T*S(tot)=    22.84 kcal/mol
 sn= 4  qrot/sn=   42422.4273 T*S(rot)=     7.20 kcal/mol T*S(tot)=    22.67 kcal/mol
 sn= 5  qrot/sn=   33937.9418 T*S(rot)=     7.07 kcal/mol T*S(tot)=    22.53 kcal/mol
 sn= 6  qrot/sn=   28281.6182 T*S(rot)=     6.96 kcal/mol T*S(tot)=    22.43 kcal/mol
 sn= 7  qrot/sn=   24241.3870 T*S(rot)=     6.87 kcal/mol T*S(tot)=    22.34 kcal/mol
 sn= 8  qrot/sn=   21211.2136 T*S(rot)=     6.79 kcal/mol T*S(tot)=    22.26 kcal/mol
 sn= 9  qrot/sn=   18854.4121 T*S(rot)=     6.72 kcal/mol T*S(tot)=    22.19 kcal/mol
 sn=10  qrot/sn=   16968.9709 T*S(rot)=     6.66 kcal/mol T*S(tot)=    22.12 kcal/mol
 sn=11  qrot/sn=   15426.3372 T*S(rot)=     6.60 kcal/mol T*S(tot)=    22.07 kcal/mol
 sn=12  qrot/sn=   14140.8091 T*S(rot)=     6.55 kcal/mol T*S(tot)=    22.02 kcal/mol

-------------------
GIBBS FREE ENTHALPY
-------------------

The Gibbs free enthalpy is G = H - T*S

Total enthalpy                    ...   -287.78633761 Eh
Total entropy correction          ...     -0.03639394 Eh    -22.84 kcal/mol
-----------------------------------------------------------------------
Final Gibbs free enthalpy         ...   -287.82273155 Eh

For completeness - the Gibbs free enthalpy minus the electronic energy
G-E(el)                           ...      0.11635478 Eh     73.01 kcal/mol

                             ****ORCA TERMINATED NORMALLY****
TOTAL RUN TIME: 0 days 0 hours 24 minutes 1 seconds 255 msec
