                         Program Version 3.0.3 - RELEASE   -
|  1> ! NORI PBE0 def2-TZVP UseSym TightOPT Freq TightSCF Grid3 FinalGrid5 XYZFile
|  2> % pal
|  3>     nprocs 8
|  4> end
|  5> %method
|  6>     SymThresh 5.0e-2
|  7> end
|  8> % geom
|  9>     MaxIter 10
| 10> end
| 11> % maxcore 2000
| 12> % output
| 13>     printlevel mini
| 14>     print[ P_Basis ] 0
| 15>     print[ P_SCFInfo ] 1
| 16>     print[ P_SCFIterInfo ] 1
| 17>     print[ P_OrbEn ] 0
| 18>     print[ P_Cartesian ] 0
| 19> end
| 20> % elprop
| 21>     Dipole false
| 22> end
| 23> *xyz 1 1
| 24>  C        1.2922038905    -0.3625919033     0.4092109047
| 25>  N        2.7543942424    -0.2540199179     0.1835148172
| 26>  C        3.1558555170     0.6491566804    -0.9370411926
| 27>  C        4.6080841728     0.3664389386    -1.2955226770
| 28>  C        5.6122590927     0.9148003831    -0.3022546601
| 29>  O        4.6471841803    -1.0481659359    -1.3880461082
| 30>  H        1.1098688807    -1.0383955468     1.2430350006
| 31>  H        0.8295047907    -0.7537260939    -0.4945178289
| 32>  H        0.8932638573     0.6247547454     0.6341312431
| 33>  H        3.2140857400     0.0468859067     1.0434884000
| 34>  H        3.1673594650    -1.1667424795    -0.0553844910
| 35>  H        2.5041378578     0.4032944961    -1.7756328579
| 36>  H        2.9874444225     1.6827555864    -0.6362563005
| 37>  H        4.7809323866     0.8215089001    -2.2780448583
| 38>  H        5.4863019894     0.4884969641     0.6974345431
| 39>  H        5.5395464596     2.0025053569    -0.2341376805
| 40>  H        6.6281984394     0.6768586291    -0.6237166932
| 41>  H        5.5149046154    -1.3499547096    -1.6716795603
| 42> *
| 43>
| 44>                          ****END OF INPUT****
 Total Charge           Charge          ....    1
 Multiplicity           Mult            ....    1
 Number of Electrons    NEL             ....   50
FINAL SINGLE POINT ENERGY      -289.162321526361
FINAL SINGLE POINT ENERGY      -289.162323189232
FINAL SINGLE POINT ENERGY      -289.162325050684
FINAL SINGLE POINT ENERGY      -289.162325694339

CARTESIAN COORDINATES (ANGSTROEM)
---------------------------------
  C      1.889866    0.733592   -1.631795
  N      0.956920   -0.001116   -0.742391
  C     -0.362176    0.665681   -0.519557
  C     -1.034208    0.025008    0.686730
  C     -1.606954   -1.352905    0.420773
  O     -0.001961    0.009232    1.659462
  H      2.811600    0.162907   -1.730493
  H      2.099856    1.704705   -1.188189
  H      1.423707    0.862749   -2.606827
  H      0.805281   -0.943095   -1.104392
  H      1.351033   -0.119284    0.201860
  H     -0.143275    1.714397   -0.317550
  H     -0.957779    0.586635   -1.428310
  H     -1.840284    0.702412    0.992266
  H     -0.841209   -2.070207    0.110047
  H     -2.382544   -1.311487   -0.347008
  H     -2.068056   -1.750763    1.326802
  H     -0.321971   -0.348825    2.492582

FINAL SINGLE POINT ENERGY      -289.162326217178
                    ***********************HURRAY********************
 Multiplicity           Mult            ....    1
 Number of Electrons    NEL             ....   50
 Basis Dimension        Dim             ....  258
FINAL SINGLE POINT ENERGY      -289.162326315974

VIBRATIONAL FREQUENCIES
-----------------------

   0:         0.00 cm**-1
   1:         0.00 cm**-1
   2:         0.00 cm**-1
   3:         0.00 cm**-1
   4:         0.00 cm**-1
   5:         0.00 cm**-1
   6:        81.99 cm**-1
   7:       120.92 cm**-1
   8:       203.16 cm**-1
   9:       233.65 cm**-1
  10:       269.36 cm**-1
  11:       290.80 cm**-1
  12:       322.23 cm**-1
  13:       396.59 cm**-1
  14:       435.90 cm**-1
  15:       627.22 cm**-1
  16:       814.32 cm**-1
  17:       837.92 cm**-1
  18:       913.22 cm**-1
  19:       932.34 cm**-1
  20:       968.78 cm**-1
  21:      1053.75 cm**-1
  22:      1060.48 cm**-1
  23:      1077.74 cm**-1
  24:      1122.84 cm**-1
  25:      1170.95 cm**-1
  26:      1196.96 cm**-1
  27:      1250.13 cm**-1
  28:      1312.69 cm**-1
  29:      1355.10 cm**-1
  30:      1375.48 cm**-1
  31:      1406.79 cm**-1
  32:      1407.19 cm**-1
  33:      1422.19 cm**-1
  34:      1430.06 cm**-1
  35:      1461.19 cm**-1
  36:      1483.18 cm**-1
  37:      1489.26 cm**-1
  38:      1492.31 cm**-1
  39:      1494.60 cm**-1
  40:      1500.64 cm**-1
  41:      1663.38 cm**-1
  42:      3047.53 cm**-1
  43:      3054.48 cm**-1
  44:      3091.58 cm**-1
  45:      3108.52 cm**-1
  46:      3126.20 cm**-1
  47:      3142.08 cm**-1
  48:      3172.57 cm**-1
  49:      3190.66 cm**-1
  50:      3194.12 cm**-1
  51:      3348.92 cm**-1
  52:      3487.34 cm**-1
  53:      3862.52 cm**-1

IR SPECTRUM
-----------

 Mode    freq (cm**-1)   T**2         TX         TY         TZ
-------------------------------------------------------------------
   6:        81.99    1.650092  (  0.748777   1.024449   0.199823)
   7:       120.92    8.786335  ( -1.073580  -2.184181  -1.692074)
   8:       203.16    9.796813  ( -2.079014  -0.873503   2.170600)
   9:       233.65    5.572417  ( -0.255357   1.510069   1.796358)
  10:       269.36   19.186353  ( -1.389107   1.584367   3.840119)
  11:       290.80   95.221325  ( -2.010869   8.657701   4.027648)
  12:       322.23   25.624839  (  0.140199   5.026556   0.582165)
  13:       396.59    6.388135  ( -0.454581  -0.738200   2.374142)
  14:       435.90    7.211563  ( -0.686385   2.492485  -0.726607)
  15:       627.22   12.725005  (  2.885119  -0.058147   2.097072)
  16:       814.32   10.874306  ( -1.258647  -1.687955  -2.537897)
  17:       837.92    3.226330  ( -1.663271   0.591997  -0.330757)
  18:       913.22    8.626262  ( -1.351971   1.104167   2.362044)
  19:       932.34   11.178969  ( -2.900139   0.504212  -1.585539)
  20:       968.78   19.807757  (  3.184438   0.294395   3.095229)
  21:      1053.75    6.311284  (  1.663158   1.353480  -1.308924)
  22:      1060.48    6.858742  ( -2.342350   0.550392  -1.034024)
  23:      1077.74   19.893317  (  2.805095   0.408432   3.443536)
  24:      1122.84   55.008758  (  2.017683  -0.771563   7.095238)
  25:      1170.95   16.675124  (  4.043753  -0.487590   0.292306)
  26:      1196.96    3.567352  (  0.099717  -0.689959  -1.755382)
  27:      1250.13   37.091620  ( -4.520991  -1.548593  -3.775462)
  28:      1312.69   14.152295  (  3.511223   1.055194   0.842716)
  29:      1355.10   19.988010  (  4.017523   0.221618  -1.948949)
  30:      1375.48   17.256785  (  3.360685   0.722694  -2.332444)
  31:      1406.79   43.645368  ( -6.010339  -0.512481   2.694170)
  32:      1407.19    9.679251  (  0.222037   0.747594   3.011819)
  33:      1422.19   24.189947  (  2.666634   3.827332   1.559018)
  34:      1430.06   48.005241  (  6.075162   0.127869  -3.328858)
  35:      1461.19    1.850363  (  1.131771   0.702721  -0.275026)
  36:      1483.18   17.703109  (  1.705313   0.433053  -3.821974)
  37:      1489.26   16.296172  ( -3.011853  -0.620624   2.615290)
  38:      1492.31    8.579526  ( -2.464289  -0.272540  -1.559657)
  39:      1494.60   21.264339  ( -3.928455  -0.672899  -2.319222)
  40:      1500.64   36.222020  ( -3.251459   5.014723   0.708937)
  41:      1663.38   39.198055  ( -0.766055   5.284715  -3.268487)
  42:      3047.53    2.162286  (  0.185002  -0.651157  -1.305395)
  43:      3054.48   13.034466  ( -2.595830   2.503389   0.170817)
  44:      3091.58    0.470510  (  0.268422   0.204290  -0.597265)
  45:      3108.52    1.303731  (  0.232216   0.668578  -0.895996)
  46:      3126.20   13.589617  (  3.205148  -1.446209  -1.106852)
  47:      3142.08    3.425311  (  0.611452  -0.637661   1.626292)
  48:      3172.57    0.464487  ( -0.466683  -0.255750  -0.425777)
  49:      3190.66    0.065172  ( -0.006000  -0.190142  -0.170242)
  50:      3194.12    0.163136  (  0.149161   0.267873  -0.262927)
  51:      3348.92  128.576402  ( -0.564837   2.823072 -10.967572)
  52:      3487.34   58.014691  (  1.042444   6.092616   4.450622)
  53:      3862.52  104.657046  ( -0.927691  -2.615547   9.846591)

--------------------------
THERMOCHEMISTRY AT 298.15K
--------------------------

Temperature         ... 298.15 K
Pressure            ... 1.00 atm
Total Mass          ... 90.15 AMU

Throughout the following assumptions are being made:
  (1) The electronic state is orbitally nondegenerate
  (2) There are no thermally accessible electronically excited states
  (3) Hindered rotations indicated by low frequency modes) are not
      treated as such but are treated as vibrations and this may
      case some error
  (4) All equations used are the standard statistical mechanics
      equations for an ideal gas
  (5) All vibrations are strinctly harmonic

------------
INNER ENERGY
------------

The inner energy is: U= E(el) + E(ZPE) + E(vib) + E(rot) + E(trans)
    E(el)   - is the total energy from the electronic structure calculation
              = E(kin-el) + E(nuc-el) + E(el-el) + E(nuc-nuc)
    E(ZPE)  - the the zero temperature vibrational energy from the frequency calculation
    E(vib)  - the the finite temperature correction to E(ZPE) due to population
              of excietd vibrational states
    E(rot)  - is the rotational thermal energy
    E(trans)- is the translational thermal energy

Summary of contributions to the inner energy U:
Electronic energy                ...   -289.16232632 Eh
Zero point energy                ...      0.16972765 Eh     106.51 kcal/mol
Thermal vibrational correction   ...      0.00508098 Eh       3.19 kcal/mol
Thermal rotational correction    ...      0.00141627 Eh       0.89 kcal/mol
Thermal translational correction ...      0.00141627 Eh       0.89 kcal/mol
-----------------------------------------------------------------------
Total thermal energy                   -288.98468514 Eh

Summary of corrections to the electronic energy:
(perhaps to be used in another calculation)
Total thermal correction                  0.00791353 Eh       4.97 kcal/mol
Non-thermal (ZPE) correction              0.16972765 Eh     106.51 kcal/mol
-----------------------------------------------------------------------
Total correction                          0.17764118 Eh     111.47 kcal/mol

--------
ENTHALPY
--------

The enthalpy is H = U + kB*T
                kB is Boltzmann's constant
Total free energy                 ...   -288.98468514 Eh
Thermal Enthalpy correction       ...      0.00094421 Eh       0.59 kcal/mol
-----------------------------------------------------------------------
Total Enthalpy                    ...   -288.98374093 Eh

-------
ENTROPY
-------

The entropy contributions are T*S = T*(S(el)+S(vib)+S(rot)+S(trans)
     S(el)   - electronic entropy
     S(vib)  - vibrational entropy
     S(rot)  - rotational entropy
     S(trans)- translational entropy
The entropies will be listed as mutliplied by the temperature to get
units of energy

Electronic entropy                ...      0.00000000 Eh      0.00 kcal/mol
Vibrational entropy               ...      0.00894146 Eh      5.61 kcal/mol
Rotational entropy                ...      0.01180443 Eh      7.41 kcal/mol
Translational entropy             ...      0.01872432 Eh     11.75 kcal/mol
-----------------------------------------------------------------------
Final entropy term                ...      0.03947021 Eh     24.77 kcal/mol

CAUTION: The rotational entropy is not quite correctly treated here
         because it includes a symmetry number that is not yet correctly
         implemented in ORCA!
For a nonlinear molecule the correct rotational entropy is:
    S(rot) = R*(ln(qrot/sn)+1.5)
    R    = 8.31441 J/mol/K = 1.987191683e-3 kcal/mol/K
    qrot = 180035.5364400
    sn is the rotational symmetry number. We have assumed 3 here
       if it is different for your molecule then you should correct
       the printed rotational entropy by manually evaluating the equation
       as given above

For convenience we print out the resulting values for sn=1 - 12:
 sn= 1  qrot/sn=  180035.5364 T*S(rot)=     8.06 kcal/mol T*S(tot)=    25.42 kcal/mol
 sn= 2  qrot/sn=   90017.7682 T*S(rot)=     7.65 kcal/mol T*S(tot)=    25.01 kcal/mol
 sn= 3  qrot/sn=   60011.8455 T*S(rot)=     7.41 kcal/mol T*S(tot)=    24.77 kcal/mol
 sn= 4  qrot/sn=   45008.8841 T*S(rot)=     7.24 kcal/mol T*S(tot)=    24.60 kcal/mol
 sn= 5  qrot/sn=   36007.1073 T*S(rot)=     7.10 kcal/mol T*S(tot)=    24.47 kcal/mol
 sn= 6  qrot/sn=   30005.9227 T*S(rot)=     7.00 kcal/mol T*S(tot)=    24.36 kcal/mol
 sn= 7  qrot/sn=   25719.3623 T*S(rot)=     6.91 kcal/mol T*S(tot)=    24.27 kcal/mol
 sn= 8  qrot/sn=   22504.4421 T*S(rot)=     6.83 kcal/mol T*S(tot)=    24.19 kcal/mol
 sn= 9  qrot/sn=   20003.9485 T*S(rot)=     6.76 kcal/mol T*S(tot)=    24.12 kcal/mol
 sn=10  qrot/sn=   18003.5536 T*S(rot)=     6.69 kcal/mol T*S(tot)=    24.05 kcal/mol
 sn=11  qrot/sn=   16366.8669 T*S(rot)=     6.64 kcal/mol T*S(tot)=    24.00 kcal/mol
 sn=12  qrot/sn=   15002.9614 T*S(rot)=     6.59 kcal/mol T*S(tot)=    23.95 kcal/mol

-------------------
GIBBS FREE ENTHALPY
-------------------

The Gibbs free enthalpy is G = H - T*S

Total enthalpy                    ...   -288.98374093 Eh
Total entropy correction          ...     -0.03947021 Eh    -24.77 kcal/mol
-----------------------------------------------------------------------
Final Gibbs free enthalpy         ...   -289.02321114 Eh

For completeness - the Gibbs free enthalpy minus the electronic energy
G-E(el)                           ...      0.13911517 Eh     87.30 kcal/mol

                             ****ORCA TERMINATED NORMALLY****
TOTAL RUN TIME: 0 days 0 hours 29 minutes 40 seconds 698 msec
