                         Program Version 3.0.3 - RELEASE   -
|  1> ! NORI PBE0 def2-TZVP UseSym TightOPT Freq TightSCF Grid3 FinalGrid5 XYZFile
|  2> % pal
|  3>     nprocs 8
|  4> end
|  5> %method
|  6>     SymThresh 5.0e-2
|  7> end
|  8> % geom
|  9>     MaxIter 10
| 10> end
| 11> % maxcore 2000
| 12> % output
| 13>     printlevel mini
| 14>     print[ P_Basis ] 0
| 15>     print[ P_SCFInfo ] 1
| 16>     print[ P_SCFIterInfo ] 1
| 17>     print[ P_OrbEn ] 0
| 18>     print[ P_Cartesian ] 0
| 19> end
| 20> % elprop
| 21>     Dipole false
| 22> end
| 23> *xyz 1 1
| 24>  C        1.1918791405    -0.2733101429     0.2780440474
| 25>  N        2.6733836974    -0.1897339366     0.4362292220
| 26>  C        3.2058215315     1.2074721433     0.4210042072
| 27>  C        4.7168205191     1.3236484619     0.6755202567
| 28>  C        5.3700611437     0.3381516547     1.5968812518
| 29>  O        5.2808348817     2.2410758989     0.1574063247
| 30>  H        0.8929805969    -1.3198030300     0.2842036236
| 31>  H        0.9177972518     0.1915548329    -0.6668619158
| 32>  H        0.7251035529     0.2578317580     1.1050080506
| 33>  H        3.1180706508    -0.7247717566    -0.3127232448
| 34>  H        2.9476075613    -0.6476907689     1.3081009004
| 35>  H        2.6771750973     1.7626240895     1.2006009003
| 36>  H        2.9713779203     1.6518953700    -0.5454787465
| 37>  H        6.3988205884     0.6443353525     1.7759627601
| 38>  H        5.3872383748    -0.6678034979     1.1617071110
| 39>  H        4.8425274917     0.2845335713     2.5559252513
| 40> *
| 41>
| 42>                          ****END OF INPUT****
 Total Charge           Charge          ....    1
 Multiplicity           Mult            ....    1
 Number of Electrons    NEL             ....   48
FINAL SINGLE POINT ENERGY      -287.932543536181
FINAL SINGLE POINT ENERGY      -287.932544308574
FINAL SINGLE POINT ENERGY      -287.932544741943

CARTESIAN COORDINATES (ANGSTROEM)
---------------------------------
  C      0.890320    0.926257   -2.416722
  N      0.427606    0.001452   -1.340587
  C      0.234793    0.664745   -0.013823
  C     -0.326356   -0.248443    1.087873
  C     -1.283544   -1.337100    0.705807
  O     -0.000571    0.001451    2.210147
  H      1.020705    0.361184   -3.338116
  H      1.835175    1.369580   -2.109163
  H      0.139689    1.702252   -2.552585
  H      1.105847   -0.756748   -1.239774
  H     -0.447498   -0.441982   -1.628111
  H     -0.459683    1.495179   -0.166790
  H      1.194544    1.065324    0.309851
  H     -1.689984   -1.787581    1.609475
  H     -0.784731   -2.126252    0.130884
  H     -2.108682   -0.945304    0.100319

FINAL SINGLE POINT ENERGY      -287.932545057171
                    ***********************HURRAY********************
 Multiplicity           Mult            ....    1
 Number of Electrons    NEL             ....   48
 Basis Dimension        Dim             ....  246
FINAL SINGLE POINT ENERGY      -287.932545195826

VIBRATIONAL FREQUENCIES
-----------------------

   0:         0.00 cm**-1
   1:         0.00 cm**-1
   2:         0.00 cm**-1
   3:         0.00 cm**-1
   4:         0.00 cm**-1
   5:         0.00 cm**-1
   6:        50.93 cm**-1
   7:        82.81 cm**-1
   8:       144.88 cm**-1
   9:       174.11 cm**-1
  10:       233.94 cm**-1
  11:       321.77 cm**-1
  12:       416.84 cm**-1
  13:       503.60 cm**-1
  14:       534.86 cm**-1
  15:       783.25 cm**-1
  16:       786.50 cm**-1
  17:       881.54 cm**-1
  18:       932.34 cm**-1
  19:       995.53 cm**-1
  20:      1026.56 cm**-1
  21:      1038.43 cm**-1
  22:      1141.70 cm**-1
  23:      1160.57 cm**-1
  24:      1232.88 cm**-1
  25:      1308.19 cm**-1
  26:      1343.83 cm**-1
  27:      1385.73 cm**-1
  28:      1395.62 cm**-1
  29:      1421.25 cm**-1
  30:      1449.80 cm**-1
  31:      1453.61 cm**-1
  32:      1466.60 cm**-1
  33:      1471.34 cm**-1
  34:      1492.08 cm**-1
  35:      1494.66 cm**-1
  36:      1657.43 cm**-1
  37:      1861.66 cm**-1
  38:      3034.05 cm**-1
  39:      3090.20 cm**-1
  40:      3092.47 cm**-1
  41:      3098.61 cm**-1
  42:      3168.72 cm**-1
  43:      3174.80 cm**-1
  44:      3194.47 cm**-1
  45:      3198.07 cm**-1
  46:      3438.74 cm**-1
  47:      3487.14 cm**-1

IR SPECTRUM
-----------

 Mode    freq (cm**-1)   T**2         TX         TY         TZ
-------------------------------------------------------------------
   6:        50.93    1.402875  ( -0.064514   0.729275   0.931059)
   7:        82.81    5.381877  ( -2.245390   0.469167  -0.346384)
   8:       144.88    0.366811  ( -0.520669   0.111618   0.288543)
   9:       174.11    3.371408  (  0.672687  -1.119299  -1.290763)
  10:       233.94    1.296235  (  1.087284  -0.283403   0.183659)
  11:       321.77    2.984351  ( -0.969787  -1.359638   0.441871)
  12:       416.84    6.249720  ( -0.067912   0.081306   2.497698)
  13:       503.60    6.239500  (  1.167901   1.322032  -1.768541)
  14:       534.86   12.476300  ( -2.000830  -2.831194   0.676252)
  15:       783.25    8.693225  (  2.569459  -0.206538  -1.431240)
  16:       786.50   11.297766  (  2.069651  -0.552944   2.590090)
  17:       881.54    5.729907  ( -2.386959  -0.006394  -0.179700)
  18:       932.34    6.109862  ( -0.122717  -2.032747  -1.400980)
  19:       995.53   15.085816  ( -1.282005  -1.249410   3.446920)
  20:      1026.56   15.535123  ( -1.333000  -1.338082   3.459447)
  21:      1038.43    3.121563  ( -0.903088  -0.778382   1.303886)
  22:      1141.70    9.233449  (  0.599016   2.297443  -1.896414)
  23:      1160.57   25.635035  ( -2.521263  -2.144146   3.831567)
  24:      1232.88   65.117362  (  4.074883   5.361498  -4.446012)
  25:      1308.19    2.845033  (  1.371281  -0.632563   0.751323)
  26:      1343.83   27.582297  ( -2.539555  -2.697077   3.722732)
  27:      1385.73   45.545036  ( -4.362952  -5.064314   0.928661)
  28:      1395.62    7.432258  ( -0.640709   1.115654   2.403553)
  29:      1421.25   36.772639  (  0.328113  -0.726736  -6.011392)
  30:      1449.80    4.836549  ( -0.700580   0.116110  -2.081407)
  31:      1453.61    4.415504  ( -0.940795  -0.727447   1.732406)
  32:      1466.60   16.783866  (  3.254077  -1.266994  -2.142329)
  33:      1471.34   29.902858  (  0.288915  -4.341080   3.312765)
  34:      1492.08   22.909172  ( -4.188524  -0.319926  -2.294142)
  35:      1494.66   28.765194  ( -2.176253   3.799898   3.096755)
  36:      1657.43   42.368474  ( -2.031883  -6.178323  -0.261236)
  37:      1861.66  160.435657  ( -3.465073  -2.461752 -11.931836)
  38:      3034.05   11.607713  ( -1.688776  -1.344043   2.636152)
  39:      3090.20    2.135916  (  0.271546   1.418942  -0.220868)
  40:      3092.47    0.230432  (  0.161176   0.422518  -0.161037)
  41:      3098.61    1.311490  (  0.916735  -0.676558   0.115565)
  42:      3168.72    1.790522  ( -1.112962   0.142893  -0.728985)
  43:      3174.80    1.571325  ( -0.355633  -0.488026   1.098490)
  44:      3194.47    0.589731  (  0.210114   0.734850   0.074690)
  45:      3198.07    0.327881  ( -0.533022  -0.012343  -0.208845)
  46:      3438.74   46.049206  ( -0.773260  -6.665404  -1.011766)
  47:      3487.14   78.335580  (  8.580667  -1.692174   1.358044)

--------------------------
THERMOCHEMISTRY AT 298.15K
--------------------------

Temperature         ... 298.15 K
Pressure            ... 1.00 atm
Total Mass          ... 88.13 AMU

Throughout the following assumptions are being made:
  (1) The electronic state is orbitally nondegenerate
  (2) There are no thermally accessible electronically excited states
  (3) Hindered rotations indicated by low frequency modes) are not
      treated as such but are treated as vibrations and this may
      case some error
  (4) All equations used are the standard statistical mechanics
      equations for an ideal gas
  (5) All vibrations are strinctly harmonic

------------
INNER ENERGY
------------

The inner energy is: U= E(el) + E(ZPE) + E(vib) + E(rot) + E(trans)
    E(el)   - is the total energy from the electronic structure calculation
              = E(kin-el) + E(nuc-el) + E(el-el) + E(nuc-nuc)
    E(ZPE)  - the the zero temperature vibrational energy from the frequency calculation
    E(vib)  - the the finite temperature correction to E(ZPE) due to population
              of excietd vibrational states
    E(rot)  - is the rotational thermal energy
    E(trans)- is the translational thermal energy

Summary of contributions to the inner energy U:
Electronic energy                ...   -287.93254520 Eh
Zero point energy                ...      0.14494191 Eh      90.95 kcal/mol
Thermal vibrational correction   ...      0.00498202 Eh       3.13 kcal/mol
Thermal rotational correction    ...      0.00141627 Eh       0.89 kcal/mol
Thermal translational correction ...      0.00141627 Eh       0.89 kcal/mol
-----------------------------------------------------------------------
Total thermal energy                   -287.77978873 Eh

Summary of corrections to the electronic energy:
(perhaps to be used in another calculation)
Total thermal correction                  0.00781456 Eh       4.90 kcal/mol
Non-thermal (ZPE) correction              0.14494191 Eh      90.95 kcal/mol
-----------------------------------------------------------------------
Total correction                          0.15275647 Eh      95.86 kcal/mol

--------
ENTHALPY
--------

The enthalpy is H = U + kB*T
                kB is Boltzmann's constant
Total free energy                 ...   -287.77978873 Eh
Thermal Enthalpy correction       ...      0.00094421 Eh       0.59 kcal/mol
-----------------------------------------------------------------------
Total Enthalpy                    ...   -287.77884452 Eh

-------
ENTROPY
-------

The entropy contributions are T*S = T*(S(el)+S(vib)+S(rot)+S(trans)
     S(el)   - electronic entropy
     S(vib)  - vibrational entropy
     S(rot)  - rotational entropy
     S(trans)- translational entropy
The entropies will be listed as mutliplied by the temperature to get
units of energy

Electronic entropy                ...      0.00000000 Eh      0.00 kcal/mol
Vibrational entropy               ...      0.00965104 Eh      6.06 kcal/mol
Rotational entropy                ...      0.01182272 Eh      7.42 kcal/mol
Translational entropy             ...      0.01869229 Eh     11.73 kcal/mol
-----------------------------------------------------------------------
Final entropy term                ...      0.04016605 Eh     25.20 kcal/mol

CAUTION: The rotational entropy is not quite correctly treated here
         because it includes a symmetry number that is not yet correctly
         implemented in ORCA!
For a nonlinear molecule the correct rotational entropy is:
    S(rot) = R*(ln(qrot/sn)+1.5)
    R    = 8.31441 J/mol/K = 1.987191683e-3 kcal/mol/K
    qrot = 183557.2458219
    sn is the rotational symmetry number. We have assumed 3 here
       if it is different for your molecule then you should correct
       the printed rotational entropy by manually evaluating the equation
       as given above

For convenience we print out the resulting values for sn=1 - 12:
 sn= 1  qrot/sn=  183557.2458 T*S(rot)=     8.07 kcal/mol T*S(tot)=    25.86 kcal/mol
 sn= 2  qrot/sn=   91778.6229 T*S(rot)=     7.66 kcal/mol T*S(tot)=    25.44 kcal/mol
 sn= 3  qrot/sn=   61185.7486 T*S(rot)=     7.42 kcal/mol T*S(tot)=    25.20 kcal/mol
 sn= 4  qrot/sn=   45889.3115 T*S(rot)=     7.25 kcal/mol T*S(tot)=    25.03 kcal/mol
 sn= 5  qrot/sn=   36711.4492 T*S(rot)=     7.12 kcal/mol T*S(tot)=    24.90 kcal/mol
 sn= 6  qrot/sn=   30592.8743 T*S(rot)=     7.01 kcal/mol T*S(tot)=    24.79 kcal/mol
 sn= 7  qrot/sn=   26222.4637 T*S(rot)=     6.92 kcal/mol T*S(tot)=    24.70 kcal/mol
 sn= 8  qrot/sn=   22944.6557 T*S(rot)=     6.84 kcal/mol T*S(tot)=    24.62 kcal/mol
 sn= 9  qrot/sn=   20395.2495 T*S(rot)=     6.77 kcal/mol T*S(tot)=    24.55 kcal/mol
 sn=10  qrot/sn=   18355.7246 T*S(rot)=     6.71 kcal/mol T*S(tot)=    24.49 kcal/mol
 sn=11  qrot/sn=   16687.0223 T*S(rot)=     6.65 kcal/mol T*S(tot)=    24.43 kcal/mol
 sn=12  qrot/sn=   15296.4372 T*S(rot)=     6.60 kcal/mol T*S(tot)=    24.38 kcal/mol

-------------------
GIBBS FREE ENTHALPY
-------------------

The Gibbs free enthalpy is G = H - T*S

Total enthalpy                    ...   -287.77884452 Eh
Total entropy correction          ...     -0.04016605 Eh    -25.20 kcal/mol
-----------------------------------------------------------------------
Final Gibbs free enthalpy         ...   -287.81901057 Eh

For completeness - the Gibbs free enthalpy minus the electronic energy
G-E(el)                           ...      0.11353462 Eh     71.24 kcal/mol

                             ****ORCA TERMINATED NORMALLY****
TOTAL RUN TIME: 0 days 0 hours 23 minutes 9 seconds 270 msec
