                         Program Version 3.0.3 - RELEASE   -
|  1> ! NORI PBE0 def2-TZVP UseSym TightOPT Freq TightSCF Grid3 FinalGrid5 XYZFile
|  2> % pal
|  3>     nprocs 8
|  4> end
|  5> %method
|  6>     SymThresh 5.0e-2
|  7> end
|  8> % geom
|  9>     MaxIter 10
| 10> end
| 11> % maxcore 2000
| 12> % output
| 13>     printlevel mini
| 14>     print[ P_Basis ] 0
| 15>     print[ P_SCFInfo ] 1
| 16>     print[ P_SCFIterInfo ] 1
| 17>     print[ P_OrbEn ] 0
| 18>     print[ P_Cartesian ] 0
| 19> end
| 20> % elprop
| 21>     Dipole false
| 22> end
| 23> *xyz 1 1
| 24>  C        1.3173879059    -0.0195403962    -0.3911363066
| 25>  N        2.7946039885     0.0803374222    -0.2234611044
| 26>  C        3.2228559737     0.5129162534     1.1455112910
| 27>  C        4.7267609855     0.5988518663     1.2651272022
| 28>  C        5.1031751964     1.0277652564     2.6697470140
| 29>  O        4.2786268674     1.2490219124     3.5078028483
| 30>  H        1.0943959946    -0.3376582624    -1.4078845853
| 31>  H        0.8798166505     0.9578617979    -0.1980338255
| 32>  H        0.9356979738    -0.7459980925     0.3233045579
| 33>  H        3.1688361296     0.7341531737    -0.9140547665
| 34>  H        3.2204789021    -0.8238579428    -0.4377235754
| 35>  H        2.8066435888    -0.2042723220     1.8529843503
| 36>  H        2.7511691329     1.4765425179     1.3393474293
| 37>  H        5.1613478285     1.3226941148     0.5643414816
| 38>  H        5.2178736485    -0.3619271231     1.0649717845
| 39>  H        6.1867492334     1.1213198239     2.8670062044
| 40> *
| 41>
| 42>                          ****END OF INPUT****
 Total Charge           Charge          ....    1
 Multiplicity           Mult            ....    1
 Number of Electrons    NEL             ....   48
FINAL SINGLE POINT ENERGY      -287.933842198315

CARTESIAN COORDINATES (ANGSTROEM)
---------------------------------
  C     -2.377940   -1.572994    0.000000
  N     -1.747819   -0.222558    0.000000
  C     -0.249872   -0.251269    0.000000
  C      0.341557    1.139526   -0.000000
  C      1.855059    1.049380   -0.000000
  O      2.427878   -0.000902   -0.000000
  H     -3.460704   -1.461376   -0.000000
  H     -2.054190   -2.106488    0.891310
  H     -2.054190   -2.106488   -0.891310
  H     -2.073120    0.301349    0.815045
  H     -2.073120    0.301349   -0.815045
  H      0.059591   -0.816565   -0.879236
  H      0.059591   -0.816565    0.879236
  H      0.039652    1.722436    0.879167
  H      0.039652    1.722436   -0.879167
  H      2.391638    2.015594    0.000000

FINAL SINGLE POINT ENERGY      -287.933842553865
                    ***********************HURRAY********************
 Multiplicity           Mult            ....    1
 Number of Electrons    NEL             ....   48
 Basis Dimension        Dim             ....  246
FINAL SINGLE POINT ENERGY      -287.933842662721

VIBRATIONAL FREQUENCIES
-----------------------

   0:         0.00 cm**-1
   1:         0.00 cm**-1
   2:         0.00 cm**-1
   3:         0.00 cm**-1
   4:         0.00 cm**-1
   5:         0.00 cm**-1
   6:        64.99 cm**-1
   7:       100.60 cm**-1
   8:       144.34 cm**-1
   9:       193.44 cm**-1
  10:       233.62 cm**-1
  11:       297.42 cm**-1
  12:       405.72 cm**-1
  13:       682.55 cm**-1
  14:       690.08 cm**-1
  15:       799.67 cm**-1
  16:       899.43 cm**-1
  17:       901.11 cm**-1
  18:       945.17 cm**-1
  19:      1028.38 cm**-1
  20:      1040.42 cm**-1
  21:      1082.42 cm**-1
  22:      1160.13 cm**-1
  23:      1173.78 cm**-1
  24:      1278.93 cm**-1
  25:      1310.29 cm**-1
  26:      1330.94 cm**-1
  27:      1390.63 cm**-1
  28:      1396.60 cm**-1
  29:      1403.54 cm**-1
  30:      1426.52 cm**-1
  31:      1456.30 cm**-1
  32:      1467.34 cm**-1
  33:      1484.25 cm**-1
  34:      1492.77 cm**-1
  35:      1498.96 cm**-1
  36:      1657.90 cm**-1
  37:      1844.97 cm**-1
  38:      2984.93 cm**-1
  39:      3039.37 cm**-1
  40:      3080.97 cm**-1
  41:      3093.41 cm**-1
  42:      3111.30 cm**-1
  43:      3167.27 cm**-1
  44:      3195.19 cm**-1
  45:      3198.02 cm**-1
  46:      3441.49 cm**-1
  47:      3490.09 cm**-1

IR SPECTRUM
-----------

 Mode    freq (cm**-1)   T**2         TX         TY         TZ
-------------------------------------------------------------------
   6:        64.99    0.005337  ( -0.000015  -0.000203   0.073055)
   7:       100.60    0.010249  (  0.000010  -0.000040   0.101236)
   8:       144.34    6.087186  ( -2.109783  -1.279063  -0.000039)
   9:       193.44    4.342552  (  0.000114  -0.000197  -2.083879)
  10:       233.62    2.732352  ( -0.000120   0.000026   1.652983)
  11:       297.42   18.665933  (  4.212921   0.957720   0.000023)
  12:       405.72    0.599152  ( -0.360593   0.684927   0.000004)
  13:       682.55    9.236972  ( -2.951263  -0.725959  -0.000094)
  14:       690.08    7.902691  ( -0.000022  -0.000138   2.811173)
  15:       799.67   10.367202  (  0.000037  -0.000075  -3.219814)
  16:       899.43    2.819778  ( -0.000040  -0.000252   1.679219)
  17:       901.11   42.930059  ( -6.481179  -0.961444  -0.000048)
  18:       945.17    7.117224  (  2.667651   0.029400  -0.000021)
  19:      1028.38   12.612391  ( -1.926890  -2.983201  -0.000024)
  20:      1040.42    0.324906  ( -0.000179   0.000176   0.570005)
  21:      1082.42    2.737554  ( -1.538568  -0.608574  -0.000006)
  22:      1160.13    0.181129  ( -0.000210   0.000342  -0.425593)
  23:      1173.78   26.850565  ( -4.839130  -1.852939   0.000012)
  24:      1278.93    0.257929  (  0.000048  -0.000068   0.507867)
  25:      1310.29   47.773433  ( -6.787290  -1.306188  -0.000012)
  26:      1330.94    2.024018  ( -0.000045   0.000015   1.422680)
  27:      1390.63   13.364969  (  3.576683  -0.756510  -0.000031)
  28:      1396.60    0.253283  (  0.000186  -0.000044   0.503272)
  29:      1403.54   22.118617  (  2.496692   3.985618  -0.000003)
  30:      1426.52   44.570631  ( -6.484188  -1.589320  -0.000004)
  31:      1456.30    4.320064  (  2.036527  -0.415480   0.000008)
  32:      1467.34    5.688998  ( -0.010669   2.385138   0.000034)
  33:      1484.25   11.377852  (  1.936960   2.761528  -0.000084)
  34:      1492.77   24.339411  ( -0.000225   0.000147   4.933499)
  35:      1498.96   29.732479  ( -4.978187   2.224889  -0.000239)
  36:      1657.90   46.452618  (  3.444690  -5.881049   0.000015)
  37:      1844.97  137.051582  (  8.420224  -8.133352  -0.000000)
  38:      2984.93   44.865924  ( -3.648587  -5.617271  -0.000001)
  39:      3039.37    2.976199  (  0.521206   1.644550  -0.000001)
  40:      3080.97    0.699560  ( -0.000031   0.000055  -0.836397)
  41:      3093.41    0.008869  (  0.084692   0.041180   0.000002)
  42:      3111.30    1.488385  (  1.109524   0.507288  -0.000001)
  43:      3167.27    0.040579  ( -0.000002   0.000004   0.201443)
  44:      3195.19    0.360364  ( -0.316198   0.510277   0.000015)
  45:      3198.02    0.192729  ( -0.000006   0.000015  -0.439009)
  46:      3441.49   43.005203  (  4.084414  -5.130572  -0.000117)
  47:      3490.09   71.935936  (  0.000055  -0.000071   8.481506)

--------------------------
THERMOCHEMISTRY AT 298.15K
--------------------------

Temperature         ... 298.15 K
Pressure            ... 1.00 atm
Total Mass          ... 88.13 AMU

Throughout the following assumptions are being made:
  (1) The electronic state is orbitally nondegenerate
  (2) There are no thermally accessible electronically excited states
  (3) Hindered rotations indicated by low frequency modes) are not
      treated as such but are treated as vibrations and this may
      case some error
  (4) All equations used are the standard statistical mechanics
      equations for an ideal gas
  (5) All vibrations are strinctly harmonic

------------
INNER ENERGY
------------

The inner energy is: U= E(el) + E(ZPE) + E(vib) + E(rot) + E(trans)
    E(el)   - is the total energy from the electronic structure calculation
              = E(kin-el) + E(nuc-el) + E(el-el) + E(nuc-nuc)
    E(ZPE)  - the the zero temperature vibrational energy from the frequency calculation
    E(vib)  - the the finite temperature correction to E(ZPE) due to population
              of excietd vibrational states
    E(rot)  - is the rotational thermal energy
    E(trans)- is the translational thermal energy

Summary of contributions to the inner energy U:
Electronic energy                ...   -287.93384266 Eh
Zero point energy                ...      0.14599691 Eh      91.61 kcal/mol
Thermal vibrational correction   ...      0.00468944 Eh       2.94 kcal/mol
Thermal rotational correction    ...      0.00141627 Eh       0.89 kcal/mol
Thermal translational correction ...      0.00141627 Eh       0.89 kcal/mol
-----------------------------------------------------------------------
Total thermal energy                   -287.78032377 Eh

Summary of corrections to the electronic energy:
(perhaps to be used in another calculation)
Total thermal correction                  0.00752198 Eh       4.72 kcal/mol
Non-thermal (ZPE) correction              0.14599691 Eh      91.61 kcal/mol
-----------------------------------------------------------------------
Total correction                          0.15351889 Eh      96.33 kcal/mol

--------
ENTHALPY
--------

The enthalpy is H = U + kB*T
                kB is Boltzmann's constant
Total free energy                 ...   -287.78032377 Eh
Thermal Enthalpy correction       ...      0.00094421 Eh       0.59 kcal/mol
-----------------------------------------------------------------------
Total Enthalpy                    ...   -287.77937956 Eh

-------
ENTROPY
-------

The entropy contributions are T*S = T*(S(el)+S(vib)+S(rot)+S(trans)
     S(el)   - electronic entropy
     S(vib)  - vibrational entropy
     S(rot)  - rotational entropy
     S(trans)- translational entropy
The entropies will be listed as mutliplied by the temperature to get
units of energy

Electronic entropy                ...      0.00000000 Eh      0.00 kcal/mol
Vibrational entropy               ...      0.00888689 Eh      5.58 kcal/mol
Rotational entropy                ...      0.01184052 Eh      7.43 kcal/mol
Translational entropy             ...      0.01869229 Eh     11.73 kcal/mol
-----------------------------------------------------------------------
Final entropy term                ...      0.03941970 Eh     24.74 kcal/mol

CAUTION: The rotational entropy is not quite correctly treated here
         because it includes a symmetry number that is not yet correctly
         implemented in ORCA!
For a nonlinear molecule the correct rotational entropy is:
    S(rot) = R*(ln(qrot/sn)+1.5)
    R    = 8.31441 J/mol/K = 1.987191683e-3 kcal/mol/K
    qrot = 187050.8782965
    sn is the rotational symmetry number. We have assumed 3 here
       if it is different for your molecule then you should correct
       the printed rotational entropy by manually evaluating the equation
       as given above

For convenience we print out the resulting values for sn=1 - 12:
 sn= 1  qrot/sn=  187050.8783 T*S(rot)=     8.08 kcal/mol T*S(tot)=    25.39 kcal/mol
 sn= 2  qrot/sn=   93525.4391 T*S(rot)=     7.67 kcal/mol T*S(tot)=    24.98 kcal/mol
 sn= 3  qrot/sn=   62350.2928 T*S(rot)=     7.43 kcal/mol T*S(tot)=    24.74 kcal/mol
 sn= 4  qrot/sn=   46762.7196 T*S(rot)=     7.26 kcal/mol T*S(tot)=    24.57 kcal/mol
 sn= 5  qrot/sn=   37410.1757 T*S(rot)=     7.13 kcal/mol T*S(tot)=    24.43 kcal/mol
 sn= 6  qrot/sn=   31175.1464 T*S(rot)=     7.02 kcal/mol T*S(tot)=    24.33 kcal/mol
 sn= 7  qrot/sn=   26721.5540 T*S(rot)=     6.93 kcal/mol T*S(tot)=    24.23 kcal/mol
 sn= 8  qrot/sn=   23381.3598 T*S(rot)=     6.85 kcal/mol T*S(tot)=    24.16 kcal/mol
 sn= 9  qrot/sn=   20783.4309 T*S(rot)=     6.78 kcal/mol T*S(tot)=    24.09 kcal/mol
 sn=10  qrot/sn=   18705.0878 T*S(rot)=     6.72 kcal/mol T*S(tot)=    24.02 kcal/mol
 sn=11  qrot/sn=   17004.6253 T*S(rot)=     6.66 kcal/mol T*S(tot)=    23.97 kcal/mol
 sn=12  qrot/sn=   15587.5732 T*S(rot)=     6.61 kcal/mol T*S(tot)=    23.91 kcal/mol

-------------------
GIBBS FREE ENTHALPY
-------------------

The Gibbs free enthalpy is G = H - T*S

Total enthalpy                    ...   -287.77937956 Eh
Total entropy correction          ...     -0.03941970 Eh    -24.74 kcal/mol
-----------------------------------------------------------------------
Final Gibbs free enthalpy         ...   -287.81879926 Eh

For completeness - the Gibbs free enthalpy minus the electronic energy
G-E(el)                           ...      0.11504340 Eh     72.19 kcal/mol

                             ****ORCA TERMINATED NORMALLY****
TOTAL RUN TIME: 0 days 0 hours 19 minutes 33 seconds 912 msec
