                         Program Version 3.0.3 - RELEASE   -
|  1> ! NORI PBE0 def2-TZVP UseSym TightOPT Freq TightSCF Grid3 FinalGrid5 XYZFile
|  2> % pal
|  3>     nprocs 8
|  4> end
|  5> %method
|  6>     SymThresh 5.0e-2
|  7> end
|  8> % geom
|  9>     MaxIter 10
| 10> end
| 11> % maxcore 2000
| 12> % output
| 13>     printlevel mini
| 14>     print[ P_Basis ] 0
| 15>     print[ P_SCFInfo ] 1
| 16>     print[ P_SCFIterInfo ] 1
| 17>     print[ P_OrbEn ] 0
| 18>     print[ P_Cartesian ] 0
| 19> end
| 20> % elprop
| 21>     Dipole false
| 22> end
| 23> *xyz 1 1
| 24>  C        0.8936056123     0.0059225261    -0.4180153769
| 25>  N        2.3445539033     0.1687344613    -0.1551702995
| 26>  C        2.9843239378    -0.9489240639     0.6045133475
| 27>  C        4.3236733561    -0.4607907951     1.1102778556
| 28>  O        4.0696206589     0.7838494810     1.6992534429
| 29>  C        5.2073346352     1.3775556093     2.3092820697
| 30>  H        0.5337548881     0.8680849989    -0.9771722712
| 31>  H        0.3734881010    -0.0614223894     0.5351391619
| 32>  H        0.7371142358    -0.9048112089    -0.9935585364
| 33>  H        2.5337260895     1.0071228297     0.4124528607
| 34>  H        2.8419025911     0.3073706941    -1.0364010139
| 35>  H        3.0664694585    -1.8208383877    -0.0438988385
| 36>  H        2.3179284285    -1.1756115429     1.4371161426
| 37>  H        5.0540674105    -0.3703301202     0.2916518737
| 38>  H        4.7196066308    -1.1872946811     1.8306028985
| 39>  H        4.8880705148     2.3360284806     2.7120851367
| 40>  H        6.0047166733     1.5357556124     1.5759528698
| 41>  H        5.5784428744     0.7471184957     3.1225986768
| 42> *
| 43>
| 44>                          ****END OF INPUT****
 Total Charge           Charge          ....    1
 Multiplicity           Mult            ....    1
 Number of Electrons    NEL             ....   50
FINAL SINGLE POINT ENERGY      -289.143594012329

CARTESIAN COORDINATES (ANGSTROEM)
---------------------------------
  C      1.102171    0.876737   -2.343315
  N      0.651943    0.000427   -1.233922
  C     -0.798246    0.106932   -0.885283
  C     -0.999715   -0.535820    0.469180
  O     -0.000938    0.001470    1.290353
  C     -0.070390   -0.430209    2.642106
  H      2.164909    0.715841   -2.515595
  H      0.924384    1.912480   -2.061544
  H      0.536731    0.632248   -3.240641
  H      1.144482    0.218982   -0.356052
  H      0.877808   -0.972282   -1.448468
  H     -1.389841   -0.362076   -1.670944
  H     -1.027086    1.172238   -0.843669
  H     -0.917473   -1.631949    0.410320
  H     -2.007184   -0.297162    0.831345
  H      0.758155    0.038536    3.168546
  H      0.022349   -1.519077    2.708651
  H     -1.014275   -0.115526    3.096645

FINAL SINGLE POINT ENERGY      -289.143594702196
                    ***********************HURRAY********************
 Multiplicity           Mult            ....    1
 Number of Electrons    NEL             ....   50
 Basis Dimension        Dim             ....  258
FINAL SINGLE POINT ENERGY      -289.143595013480

VIBRATIONAL FREQUENCIES
-----------------------

   0:         0.00 cm**-1
   1:         0.00 cm**-1
   2:         0.00 cm**-1
   3:         0.00 cm**-1
   4:         0.00 cm**-1
   5:         0.00 cm**-1
   6:        82.55 cm**-1
   7:        92.56 cm**-1
   8:       148.25 cm**-1
   9:       203.57 cm**-1
  10:       241.26 cm**-1
  11:       248.13 cm**-1
  12:       331.44 cm**-1
  13:       364.11 cm**-1
  14:       558.85 cm**-1
  15:       796.59 cm**-1
  16:       859.20 cm**-1
  17:       887.00 cm**-1
  18:      1008.74 cm**-1
  19:      1033.47 cm**-1
  20:      1050.22 cm**-1
  21:      1060.62 cm**-1
  22:      1162.12 cm**-1
  23:      1169.93 cm**-1
  24:      1174.50 cm**-1
  25:      1196.24 cm**-1
  26:      1242.05 cm**-1
  27:      1271.66 cm**-1
  28:      1309.80 cm**-1
  29:      1364.88 cm**-1
  30:      1395.59 cm**-1
  31:      1414.89 cm**-1
  32:      1435.50 cm**-1
  33:      1461.22 cm**-1
  34:      1477.93 cm**-1
  35:      1484.90 cm**-1
  36:      1487.21 cm**-1
  37:      1493.98 cm**-1
  38:      1496.57 cm**-1
  39:      1498.99 cm**-1
  40:      1518.73 cm**-1
  41:      1662.79 cm**-1
  42:      2998.61 cm**-1
  43:      3035.49 cm**-1
  44:      3061.69 cm**-1
  45:      3092.52 cm**-1
  46:      3107.51 cm**-1
  47:      3108.39 cm**-1
  48:      3171.53 cm**-1
  49:      3174.35 cm**-1
  50:      3192.08 cm**-1
  51:      3194.91 cm**-1
  52:      3347.75 cm**-1
  53:      3476.59 cm**-1

IR SPECTRUM
-----------

 Mode    freq (cm**-1)   T**2         TX         TY         TZ
-------------------------------------------------------------------
   6:        82.55    3.246608  ( -1.084491  -0.955567   1.075816)
   7:        92.56    5.844988  (  0.988387  -2.122793   0.601520)
   8:       148.25    8.841412  ( -0.442138   1.140508   2.710197)
   9:       203.57    8.179867  (  1.490086  -1.479837  -1.941544)
  10:       241.26    7.463406  ( -0.168698  -1.175265  -2.460426)
  11:       248.13    1.358327  (  0.226864  -1.111145  -0.268730)
  12:       331.44    6.201655  ( -2.296655  -0.524222   0.807604)
  13:       364.11    8.285181  ( -1.312934  -1.218073   2.253372)
  14:       558.85    2.610095  ( -1.391476  -0.659221   0.489199)
  15:       796.59   10.920229  (  0.356249  -0.965731  -3.140172)
  16:       859.20    5.614020  (  0.367527  -1.830474  -1.458872)
  17:       887.00   24.671939  (  3.886398   2.767567  -1.381456)
  18:      1008.74    3.681702  (  1.612288  -0.498344  -0.913172)
  19:      1033.47   13.369784  (  1.841760   1.978954  -2.462000)
  20:      1050.22    7.068561  (  2.186321   0.498286  -1.428381)
  21:      1060.62   21.347248  (  1.504368   2.325207  -3.698316)
  22:      1162.12    5.657507  (  2.188399   0.867621   0.340076)
  23:      1169.93   27.750462  (  0.015631  -1.233570   5.121379)
  24:      1174.50  153.123110  ( -2.301821   1.196983 -12.099255)
  25:      1196.24    6.437049  ( -1.787578   1.352027   1.188964)
  26:      1242.05   31.183966  ( -2.835000  -1.934724  -4.404950)
  27:      1271.66    4.671630  ( -1.867166   0.481772   0.976328)
  28:      1309.80   17.119535  ( -3.214558  -2.154277   1.464665)
  29:      1364.88   17.248679  (  2.715797   0.547948  -3.094007)
  30:      1395.59   24.648641  ( -1.326222   0.166778   4.781418)
  31:      1414.89   43.404407  ( -3.004295  -1.508439   5.665971)
  32:      1435.50   32.321983  ( -4.560357  -1.180493   3.183012)
  33:      1461.22    2.429740  ( -0.963849  -0.788323   0.937700)
  34:      1477.93    1.882130  ( -0.748986   0.076470  -1.146866)
  35:      1484.90   13.154320  ( -1.806093   3.130142  -0.307498)
  36:      1487.21   28.817644  ( -2.017237  -0.294905   4.966028)
  37:      1493.98   12.735071  (  2.709696   2.030238   1.127277)
  38:      1496.57   18.761947  (  2.817505   2.774413   1.768119)
  39:      1498.99   26.461656  ( -4.248827   2.846949   0.551371)
  40:      1518.73    8.182491  (  1.445772   2.077245  -1.333150)
  41:      1662.79   40.731301  ( -3.806050   3.579301  -3.665227)
  42:      2998.61   25.893439  ( -1.442060  -4.374501  -2.162785)
  43:      3035.49   29.464545  (  0.709723   2.839545  -4.571414)
  44:      3061.69   10.718747  (  2.846174  -1.596875  -0.260832)
  45:      3092.52    0.390843  ( -0.046013  -0.118858   0.612045)
  46:      3107.51    9.295646  (  1.692519  -2.534724  -0.078743)
  47:      3108.39   10.327098  (  1.654413  -2.274644  -1.554352)
  48:      3171.53    0.493004  (  0.240241   0.385980   0.535077)
  49:      3174.35    4.411079  (  1.640537   0.937277   0.917184)
  50:      3192.08    0.065551  ( -0.137398   0.139866   0.164652)
  51:      3194.91    0.167861  (  0.013217  -0.244856   0.328225)
  52:      3347.75  145.088210  (  2.522500  -0.643582  11.760570)
  53:      3476.59   66.700307  ( -1.582414   6.773861   4.279145)

--------------------------
THERMOCHEMISTRY AT 298.15K
--------------------------

Temperature         ... 298.15 K
Pressure            ... 1.00 atm
Total Mass          ... 90.15 AMU

Throughout the following assumptions are being made:
  (1) The electronic state is orbitally nondegenerate
  (2) There are no thermally accessible electronically excited states
  (3) Hindered rotations indicated by low frequency modes) are not
      treated as such but are treated as vibrations and this may
      case some error
  (4) All equations used are the standard statistical mechanics
      equations for an ideal gas
  (5) All vibrations are strinctly harmonic

------------
INNER ENERGY
------------

The inner energy is: U= E(el) + E(ZPE) + E(vib) + E(rot) + E(trans)
    E(el)   - is the total energy from the electronic structure calculation
              = E(kin-el) + E(nuc-el) + E(el-el) + E(nuc-nuc)
    E(ZPE)  - the the zero temperature vibrational energy from the frequency calculation
    E(vib)  - the the finite temperature correction to E(ZPE) due to population
              of excietd vibrational states
    E(rot)  - is the rotational thermal energy
    E(trans)- is the translational thermal energy

Summary of contributions to the inner energy U:
Electronic energy                ...   -289.14359501 Eh
Zero point energy                ...      0.17005948 Eh     106.71 kcal/mol
Thermal vibrational correction   ...      0.00513065 Eh       3.22 kcal/mol
Thermal rotational correction    ...      0.00141627 Eh       0.89 kcal/mol
Thermal translational correction ...      0.00141627 Eh       0.89 kcal/mol
-----------------------------------------------------------------------
Total thermal energy                   -288.96557234 Eh

Summary of corrections to the electronic energy:
(perhaps to be used in another calculation)
Total thermal correction                  0.00796319 Eh       5.00 kcal/mol
Non-thermal (ZPE) correction              0.17005948 Eh     106.71 kcal/mol
-----------------------------------------------------------------------
Total correction                          0.17802267 Eh     111.71 kcal/mol

--------
ENTHALPY
--------

The enthalpy is H = U + kB*T
                kB is Boltzmann's constant
Total free energy                 ...   -288.96557234 Eh
Thermal Enthalpy correction       ...      0.00094421 Eh       0.59 kcal/mol
-----------------------------------------------------------------------
Total Enthalpy                    ...   -288.96462814 Eh

-------
ENTROPY
-------

The entropy contributions are T*S = T*(S(el)+S(vib)+S(rot)+S(trans)
     S(el)   - electronic entropy
     S(vib)  - vibrational entropy
     S(rot)  - rotational entropy
     S(trans)- translational entropy
The entropies will be listed as mutliplied by the temperature to get
units of energy

Electronic entropy                ...      0.00000000 Eh      0.00 kcal/mol
Vibrational entropy               ...      0.00947635 Eh      5.95 kcal/mol
Rotational entropy                ...      0.01184892 Eh      7.44 kcal/mol
Translational entropy             ...      0.01872432 Eh     11.75 kcal/mol
-----------------------------------------------------------------------
Final entropy term                ...      0.04004959 Eh     25.13 kcal/mol

CAUTION: The rotational entropy is not quite correctly treated here
         because it includes a symmetry number that is not yet correctly
         implemented in ORCA!
For a nonlinear molecule the correct rotational entropy is:
    S(rot) = R*(ln(qrot/sn)+1.5)
    R    = 8.31441 J/mol/K = 1.987191683e-3 kcal/mol/K
    qrot = 188722.2585767
    sn is the rotational symmetry number. We have assumed 3 here
       if it is different for your molecule then you should correct
       the printed rotational entropy by manually evaluating the equation
       as given above

For convenience we print out the resulting values for sn=1 - 12:
 sn= 1  qrot/sn=  188722.2586 T*S(rot)=     8.09 kcal/mol T*S(tot)=    25.78 kcal/mol
 sn= 2  qrot/sn=   94361.1293 T*S(rot)=     7.68 kcal/mol T*S(tot)=    25.37 kcal/mol
 sn= 3  qrot/sn=   62907.4195 T*S(rot)=     7.44 kcal/mol T*S(tot)=    25.13 kcal/mol
 sn= 4  qrot/sn=   47180.5646 T*S(rot)=     7.26 kcal/mol T*S(tot)=    24.96 kcal/mol
 sn= 5  qrot/sn=   37744.4517 T*S(rot)=     7.13 kcal/mol T*S(tot)=    24.83 kcal/mol
 sn= 6  qrot/sn=   31453.7098 T*S(rot)=     7.02 kcal/mol T*S(tot)=    24.72 kcal/mol
 sn= 7  qrot/sn=   26960.3227 T*S(rot)=     6.93 kcal/mol T*S(tot)=    24.63 kcal/mol
 sn= 8  qrot/sn=   23590.2823 T*S(rot)=     6.85 kcal/mol T*S(tot)=    24.55 kcal/mol
 sn= 9  qrot/sn=   20969.1398 T*S(rot)=     6.78 kcal/mol T*S(tot)=    24.48 kcal/mol
 sn=10  qrot/sn=   18872.2259 T*S(rot)=     6.72 kcal/mol T*S(tot)=    24.42 kcal/mol
 sn=11  qrot/sn=   17156.5690 T*S(rot)=     6.67 kcal/mol T*S(tot)=    24.36 kcal/mol
 sn=12  qrot/sn=   15726.8549 T*S(rot)=     6.61 kcal/mol T*S(tot)=    24.31 kcal/mol

-------------------
GIBBS FREE ENTHALPY
-------------------

The Gibbs free enthalpy is G = H - T*S

Total enthalpy                    ...   -288.96462814 Eh
Total entropy correction          ...     -0.04004959 Eh    -25.13 kcal/mol
-----------------------------------------------------------------------
Final Gibbs free enthalpy         ...   -289.00467773 Eh

For completeness - the Gibbs free enthalpy minus the electronic energy
G-E(el)                           ...      0.13891728 Eh     87.17 kcal/mol

                             ****ORCA TERMINATED NORMALLY****
TOTAL RUN TIME: 0 days 0 hours 25 minutes 10 seconds 638 msec
