                         Program Version 3.0.3 - RELEASE   -
|  1> ! NORI PBE0 def2-TZVP UseSym TightOPT Freq TightSCF Grid3 FinalGrid5 XYZFile
|  2> % pal
|  3>     nprocs 8
|  4> end
|  5> %method
|  6>     SymThresh 5.0e-2
|  7> end
|  8> % geom
|  9>     MaxIter 10
| 10> end
| 11> % maxcore 2000
| 12> % output
| 13>     printlevel mini
| 14>     print[ P_Basis ] 0
| 15>     print[ P_SCFInfo ] 1
| 16>     print[ P_SCFIterInfo ] 1
| 17>     print[ P_OrbEn ] 0
| 18>     print[ P_Cartesian ] 0
| 19> end
| 20> % elprop
| 21>     Dipole false
| 22> end
| 23> *xyz 1 1
| 24>  C        2.9102226241     0.0512812920     0.9404426156
| 25>  O        2.0728945413     0.2122849390    -0.1934457837
| 26>  C        2.7304800285     0.6029508555    -1.3173621517
| 27>  C        1.9152193731     1.1986968856    -2.4094262119
| 28>  C        2.8181999412     2.0805266380    -1.6079890842
| 29>  N        4.0284892913     2.6346152180    -2.2626332111
| 30>  H        2.2760182780    -0.3060683830     1.7484387437
| 31>  H        3.3643889571     1.0044262210     1.2356999534
| 32>  H        3.6965851060    -0.6853971124     0.7448831307
| 33>  H        3.5853126096    -0.0116085797    -1.6135046795
| 34>  H        2.1827669489     0.9510034984    -3.4307855900
| 35>  H        0.8536694160     1.3235922172    -2.2344113757
| 36>  H        2.3905751822     2.7802909491    -0.9020219585
| 37>  H        4.4669989445     1.9399910099    -2.8721947490
| 38>  H        4.7287325994     2.9226972256    -1.5742084594
| 39>  H        3.8030661590     3.4473571256    -2.8440611887
| 40> *
| 41>
| 42>                          ****END OF INPUT****
 Total Charge           Charge          ....    1
 Multiplicity           Mult            ....    1
 Number of Electrons    NEL             ....   48
FINAL SINGLE POINT ENERGY      -287.896271080232
FINAL SINGLE POINT ENERGY      -287.896272427658
FINAL SINGLE POINT ENERGY      -287.896273833273

CARTESIAN COORDINATES (ANGSTROEM)
---------------------------------
  C      1.275019   -0.472600    1.911991
  O      0.003206    0.003761    1.500956
  C     -0.354186   -0.379691    0.246558
  C     -1.443999    0.388380   -0.413556
  C     -0.038461    0.554565   -0.894922
  N      0.323456    0.002943   -2.223248
  H      1.420598   -0.130232    2.933885
  H      2.073297   -0.066983    1.279482
  H      1.309388   -1.566956    1.889633
  H     -0.304015   -1.451830    0.037269
  H     -2.152417   -0.163408   -1.021535
  H     -1.864042    1.228989    0.124090
  H      0.490383    1.475439   -0.687540
  H     -0.119532   -0.905998   -2.376201
  H      1.334208   -0.130820   -2.311513
  H      0.019157    0.619701   -2.982467

FINAL SINGLE POINT ENERGY      -287.896274119875
                    ***********************HURRAY********************
 Multiplicity           Mult            ....    1
 Number of Electrons    NEL             ....   48
 Basis Dimension        Dim             ....  246
FINAL SINGLE POINT ENERGY      -287.896274325021

VIBRATIONAL FREQUENCIES
-----------------------

   0:         0.00 cm**-1
   1:         0.00 cm**-1
   2:         0.00 cm**-1
   3:         0.00 cm**-1
   4:         0.00 cm**-1
   5:         0.00 cm**-1
   6:       101.65 cm**-1
   7:       168.05 cm**-1
   8:       175.60 cm**-1
   9:       195.63 cm**-1
  10:       285.55 cm**-1
  11:       369.69 cm**-1
  12:       425.13 cm**-1
  13:       487.90 cm**-1
  14:       798.35 cm**-1
  15:       817.44 cm**-1
  16:       897.34 cm**-1
  17:       905.11 cm**-1
  18:       993.60 cm**-1
  19:      1029.73 cm**-1
  20:      1071.48 cm**-1
  21:      1098.80 cm**-1
  22:      1126.57 cm**-1
  23:      1160.88 cm**-1
  24:      1171.20 cm**-1
  25:      1176.24 cm**-1
  26:      1192.75 cm**-1
  27:      1250.82 cm**-1
  28:      1284.15 cm**-1
  29:      1365.43 cm**-1
  30:      1424.40 cm**-1
  31:      1466.48 cm**-1
  32:      1487.32 cm**-1
  33:      1489.53 cm**-1
  34:      1505.02 cm**-1
  35:      1518.61 cm**-1
  36:      1652.26 cm**-1
  37:      1660.59 cm**-1
  38:      3020.36 cm**-1
  39:      3078.62 cm**-1
  40:      3089.91 cm**-1
  41:      3156.52 cm**-1
  42:      3177.30 cm**-1
  43:      3221.51 cm**-1
  44:      3250.65 cm**-1
  45:      3403.78 cm**-1
  46:      3476.62 cm**-1
  47:      3493.35 cm**-1

IR SPECTRUM
-----------

 Mode    freq (cm**-1)   T**2         TX         TY         TZ
-------------------------------------------------------------------
   6:       101.65    2.907387  ( -1.422680  -0.939537  -0.025270)
   7:       168.05    0.654086  (  0.743911   0.315276   0.035820)
   8:       175.60    3.525825  ( -1.402790   0.857423  -0.907101)
   9:       195.63    3.308283  (  0.649048  -1.622796   0.503540)
  10:       285.55    2.546355  ( -0.378055  -0.239911  -1.531624)
  11:       369.69    2.890184  ( -1.651656  -0.399112   0.054077)
  12:       425.13   13.938524  ( -0.081563  -1.734894   3.304847)
  13:       487.90    2.855126  ( -0.646761   0.218928   1.545605)
  14:       798.35   21.175557  (  0.856264   3.241610  -3.151877)
  15:       817.44    6.874192  ( -1.923263   1.587258   0.809854)
  16:       897.34    2.084380  ( -0.022769   0.622615  -1.302387)
  17:       905.11   29.781322  ( -4.464767  -1.345541   2.834907)
  18:       993.60   21.201641  ( -1.803765   4.225983  -0.298560)
  19:      1029.73   11.926486  ( -2.915678   1.756374  -0.583491)
  20:      1071.48    0.201442  ( -0.204031  -0.342234   0.206615)
  21:      1098.80   16.327403  (  3.838902   0.652135  -1.079332)
  22:      1126.57   57.856225  (  5.410723  -1.591587   5.103641)
  23:      1160.88   22.219117  (  3.788630  -1.628321   2.283411)
  24:      1171.20    2.214108  ( -0.876289  -1.133703  -0.401177)
  25:      1176.24    3.934509  (  0.101124  -1.301544   1.493408)
  26:      1192.75    6.995986  ( -2.107295   0.890302  -1.327651)
  27:      1250.82    1.595792  ( -0.014859  -0.482306   1.167455)
  28:      1284.15  106.024547  ( -4.873405   0.200473  -9.068312)
  29:      1365.43   40.897734  (  1.108805  -2.071645   5.947821)
  30:      1424.40    7.424691  ( -0.376076  -0.428849  -2.664460)
  31:      1466.48    6.576703  (  2.290637  -1.146425  -0.124073)
  32:      1487.32   17.949571  ( -0.039708   3.235654  -2.734692)
  33:      1489.53   23.304819  (  3.379469   0.780619   3.357774)
  34:      1505.02   47.030756  ( -4.865018   3.505593   3.327638)
  35:      1518.61  114.292649  (  1.123490   3.190189  10.141652)
  36:      1652.26   35.083023  ( -3.546389   4.130531  -2.333423)
  37:      1660.59   49.318473  (  4.940362   4.973441  -0.419737)
  38:      3020.36   32.117489  ( -5.474345   1.465727   0.026167)
  39:      3078.62   21.982429  ( -1.016515  -3.740951  -2.637122)
  40:      3089.91   26.718851  ( -2.014053  -4.046491   2.507659)
  41:      3156.52    4.440300  ( -1.257106   1.156603   1.233797)
  42:      3177.30    3.209089  ( -0.145034  -0.570765  -1.691828)
  43:      3221.51    2.664690  (  0.522850   1.529488  -0.227999)
  44:      3250.65    3.998864  (  0.598510  -1.712038  -0.842363)
  45:      3403.78   36.774717  (  1.594797  -0.047789  -5.850560)
  46:      3476.62   91.625096  (  5.813667  -6.933290   3.123439)
  47:      3493.35   87.214527  ( -7.353624  -5.748172  -0.311850)

--------------------------
THERMOCHEMISTRY AT 298.15K
--------------------------

Temperature         ... 298.15 K
Pressure            ... 1.00 atm
Total Mass          ... 88.13 AMU

Throughout the following assumptions are being made:
  (1) The electronic state is orbitally nondegenerate
  (2) There are no thermally accessible electronically excited states
  (3) Hindered rotations indicated by low frequency modes) are not
      treated as such but are treated as vibrations and this may
      case some error
  (4) All equations used are the standard statistical mechanics
      equations for an ideal gas
  (5) All vibrations are strinctly harmonic

------------
INNER ENERGY
------------

The inner energy is: U= E(el) + E(ZPE) + E(vib) + E(rot) + E(trans)
    E(el)   - is the total energy from the electronic structure calculation
              = E(kin-el) + E(nuc-el) + E(el-el) + E(nuc-nuc)
    E(ZPE)  - the the zero temperature vibrational energy from the frequency calculation
    E(vib)  - the the finite temperature correction to E(ZPE) due to population
              of excietd vibrational states
    E(rot)  - is the rotational thermal energy
    E(trans)- is the translational thermal energy

Summary of contributions to the inner energy U:
Electronic energy                ...   -287.89627433 Eh
Zero point energy                ...      0.14608045 Eh      91.67 kcal/mol
Thermal vibrational correction   ...      0.00436060 Eh       2.74 kcal/mol
Thermal rotational correction    ...      0.00141627 Eh       0.89 kcal/mol
Thermal translational correction ...      0.00141627 Eh       0.89 kcal/mol
-----------------------------------------------------------------------
Total thermal energy                   -287.74300073 Eh

Summary of corrections to the electronic energy:
(perhaps to be used in another calculation)
Total thermal correction                  0.00719314 Eh       4.51 kcal/mol
Non-thermal (ZPE) correction              0.14608045 Eh      91.67 kcal/mol
-----------------------------------------------------------------------
Total correction                          0.15327359 Eh      96.18 kcal/mol

--------
ENTHALPY
--------

The enthalpy is H = U + kB*T
                kB is Boltzmann's constant
Total free energy                 ...   -287.74300073 Eh
Thermal Enthalpy correction       ...      0.00094421 Eh       0.59 kcal/mol
-----------------------------------------------------------------------
Total Enthalpy                    ...   -287.74205653 Eh

-------
ENTROPY
-------

The entropy contributions are T*S = T*(S(el)+S(vib)+S(rot)+S(trans)
     S(el)   - electronic entropy
     S(vib)  - vibrational entropy
     S(rot)  - rotational entropy
     S(trans)- translational entropy
The entropies will be listed as mutliplied by the temperature to get
units of energy

Electronic entropy                ...      0.00000000 Eh      0.00 kcal/mol
Vibrational entropy               ...      0.00759126 Eh      4.76 kcal/mol
Rotational entropy                ...      0.01169474 Eh      7.34 kcal/mol
Translational entropy             ...      0.01869229 Eh     11.73 kcal/mol
-----------------------------------------------------------------------
Final entropy term                ...      0.03797829 Eh     23.83 kcal/mol

CAUTION: The rotational entropy is not quite correctly treated here
         because it includes a symmetry number that is not yet correctly
         implemented in ORCA!
For a nonlinear molecule the correct rotational entropy is:
    S(rot) = R*(ln(qrot/sn)+1.5)
    R    = 8.31441 J/mol/K = 1.987191683e-3 kcal/mol/K
    qrot = 160288.6273021
    sn is the rotational symmetry number. We have assumed 3 here
       if it is different for your molecule then you should correct
       the printed rotational entropy by manually evaluating the equation
       as given above

For convenience we print out the resulting values for sn=1 - 12:
 sn= 1  qrot/sn=  160288.6273 T*S(rot)=     7.99 kcal/mol T*S(tot)=    24.48 kcal/mol
 sn= 2  qrot/sn=   80144.3137 T*S(rot)=     7.58 kcal/mol T*S(tot)=    24.07 kcal/mol
 sn= 3  qrot/sn=   53429.5424 T*S(rot)=     7.34 kcal/mol T*S(tot)=    23.83 kcal/mol
 sn= 4  qrot/sn=   40072.1568 T*S(rot)=     7.17 kcal/mol T*S(tot)=    23.66 kcal/mol
 sn= 5  qrot/sn=   32057.7255 T*S(rot)=     7.04 kcal/mol T*S(tot)=    23.53 kcal/mol
 sn= 6  qrot/sn=   26714.7712 T*S(rot)=     6.93 kcal/mol T*S(tot)=    23.42 kcal/mol
 sn= 7  qrot/sn=   22898.3753 T*S(rot)=     6.84 kcal/mol T*S(tot)=    23.33 kcal/mol
 sn= 8  qrot/sn=   20036.0784 T*S(rot)=     6.76 kcal/mol T*S(tot)=    23.25 kcal/mol
 sn= 9  qrot/sn=   17809.8475 T*S(rot)=     6.69 kcal/mol T*S(tot)=    23.18 kcal/mol
 sn=10  qrot/sn=   16028.8627 T*S(rot)=     6.63 kcal/mol T*S(tot)=    23.12 kcal/mol
 sn=11  qrot/sn=   14571.6934 T*S(rot)=     6.57 kcal/mol T*S(tot)=    23.06 kcal/mol
 sn=12  qrot/sn=   13357.3856 T*S(rot)=     6.52 kcal/mol T*S(tot)=    23.01 kcal/mol

-------------------
GIBBS FREE ENTHALPY
-------------------

The Gibbs free enthalpy is G = H - T*S

Total enthalpy                    ...   -287.74205653 Eh
Total entropy correction          ...     -0.03797829 Eh    -23.83 kcal/mol
-----------------------------------------------------------------------
Final Gibbs free enthalpy         ...   -287.78003481 Eh

For completeness - the Gibbs free enthalpy minus the electronic energy
G-E(el)                           ...      0.11623951 Eh     72.94 kcal/mol

                             ****ORCA TERMINATED NORMALLY****
TOTAL RUN TIME: 0 days 0 hours 22 minutes 28 seconds 798 msec
