                         Program Version 3.0.3 - RELEASE   -
|  1> ! NORI PBE0 def2-TZVP UseSym TightOPT Freq TightSCF Grid3 FinalGrid5 XYZFile
|  2> % pal
|  3>     nprocs 8
|  4> end
|  5> %method
|  6>     SymThresh 5.0e-2
|  7> end
|  8> % geom
|  9>     MaxIter 10
| 10> end
| 11> % maxcore 2000
| 12> % output
| 13>     printlevel mini
| 14>     print[ P_Basis ] 0
| 15>     print[ P_SCFInfo ] 1
| 16>     print[ P_SCFIterInfo ] 1
| 17>     print[ P_OrbEn ] 0
| 18>     print[ P_Cartesian ] 0
| 19> end
| 20> % elprop
| 21>     Dipole false
| 22> end
| 23> *xyz 1 1
| 24>  C        2.6339903532    -1.2786784183     0.1547186094
| 25>  O        2.5265108795     0.1383717158     0.1851874449
| 26>  C        2.9480802319     0.7660583010    -0.9561583802
| 27>  C        2.6053980357     2.2603437286    -0.9393228359
| 28>  N        4.0378206417     2.6008486171    -1.3076517568
| 29>  C        4.4475311268     1.1657547942    -1.0334955138
| 30>  H        2.2182721486    -1.6414793331     1.0917435010
| 31>  H        3.6787780982    -1.5982262662     0.0789781653
| 32>  H        2.0622138933    -1.6933567553    -0.6817649378
| 33>  H        2.6096214650     0.2534413995    -1.8652528086
| 34>  H        1.8815234563     2.6532682675    -1.6487761532
| 35>  H        2.3960807315     2.6109612775     0.0695636451
| 36>  H        4.1456373291     2.8645073743    -2.2854409941
| 37>  H        4.4896032656     3.3151281128    -0.7389592209
| 38>  H        4.9402396754     1.1097646736    -0.0641296046
| 39>  H        5.0795186683     0.7587525109    -1.8197191599
| 40> *
| 41>
| 42>                          ****END OF INPUT****
 Total Charge           Charge          ....    1
 Multiplicity           Mult            ....    1
 Number of Electrons    NEL             ....   48
FINAL SINGLE POINT ENERGY      -287.906960947579

CARTESIAN COORDINATES (ANGSTROEM)
---------------------------------
  C     -1.120121   -0.412787    2.106038
  O      0.000122   -0.000405    1.334111
  C     -0.291651    0.326133    0.036924
  C      0.910303    0.964134   -0.669856
  N      0.748572    0.000315   -1.831208
  C     -0.233644   -0.817706   -1.013210
  H     -0.754638   -0.584809    3.115548
  H     -1.552080   -1.341673    1.718395
  H     -1.886981    0.368238    2.124738
  H     -1.210493    0.919360   -0.048812
  H      0.862432    2.006392   -0.975461
  H      1.840833    0.750895   -0.146786
  H      0.321941    0.430889   -2.649754
  H      1.593232   -0.481517   -2.135095
  H      0.266951   -1.705127   -0.629640
  H     -1.123764   -1.082369   -1.579566

FINAL SINGLE POINT ENERGY      -287.906961369831
                    ***********************HURRAY********************
 Multiplicity           Mult            ....    1
 Number of Electrons    NEL             ....   48
 Basis Dimension        Dim             ....  246
FINAL SINGLE POINT ENERGY      -287.906961580488

VIBRATIONAL FREQUENCIES
-----------------------

   0:         0.00 cm**-1
   1:         0.00 cm**-1
   2:         0.00 cm**-1
   3:         0.00 cm**-1
   4:         0.00 cm**-1
   5:         0.00 cm**-1
   6:        69.92 cm**-1
   7:        97.46 cm**-1
   8:       173.59 cm**-1
   9:       270.13 cm**-1
  10:       420.06 cm**-1
  11:       440.56 cm**-1
  12:       681.87 cm**-1
  13:       806.20 cm**-1
  14:       823.24 cm**-1
  15:       871.95 cm**-1
  16:       906.02 cm**-1
  17:       959.83 cm**-1
  18:       992.25 cm**-1
  19:      1040.73 cm**-1
  20:      1078.20 cm**-1
  21:      1139.22 cm**-1
  22:      1177.04 cm**-1
  23:      1187.81 cm**-1
  24:      1251.07 cm**-1
  25:      1261.84 cm**-1
  26:      1284.33 cm**-1
  27:      1294.22 cm**-1
  28:      1311.36 cm**-1
  29:      1319.26 cm**-1
  30:      1329.93 cm**-1
  31:      1418.36 cm**-1
  32:      1470.19 cm**-1
  33:      1479.25 cm**-1
  34:      1486.75 cm**-1
  35:      1491.41 cm**-1
  36:      1497.24 cm**-1
  37:      1652.25 cm**-1
  38:      3028.53 cm**-1
  39:      3046.22 cm**-1
  40:      3099.24 cm**-1
  41:      3121.57 cm**-1
  42:      3127.61 cm**-1
  43:      3180.28 cm**-1
  44:      3199.78 cm**-1
  45:      3204.26 cm**-1
  46:      3476.78 cm**-1
  47:      3541.15 cm**-1

IR SPECTRUM
-----------

 Mode    freq (cm**-1)   T**2         TX         TY         TZ
-------------------------------------------------------------------
   6:        69.92    5.804245  ( -1.118858   2.056497  -0.568526)
   7:        97.46    4.161488  (  0.765262   1.624037   0.968694)
   8:       173.59    0.681826  (  0.278705   0.711994   0.311792)
   9:       270.13    4.553032  ( -1.251726   1.363544  -1.061584)
  10:       420.06    5.114490  (  0.315208   1.714828   1.440312)
  11:       440.56    4.409886  (  0.808889  -0.676802  -1.815908)
  12:       681.87    2.880772  (  0.180876  -1.062160  -1.311438)
  13:       806.20    1.847093  (  0.786003   1.108720   0.005578)
  14:       823.24   10.873285  ( -2.712694   1.298765  -1.351956)
  15:       871.95    2.867615  ( -1.274707   0.975158  -0.540189)
  16:       906.02    2.448681  (  0.906879   1.272221   0.087775)
  17:       959.83   14.163689  ( -2.702320   0.586252   2.552933)
  18:       992.25   10.260656  ( -1.750902  -2.437776  -1.119038)
  19:      1040.73   27.840197  ( -4.977158  -1.432549   1.007917)
  20:      1078.20    6.150486  (  0.793611  -1.055013  -2.099432)
  21:      1139.22   12.034827  ( -2.263072  -0.844770   2.489919)
  22:      1177.04    3.189720  (  0.845283  -1.507294  -0.450867)
  23:      1187.81   68.874192  (  3.969073   2.151169  -6.963700)
  24:      1251.07   38.318638  ( -3.063281  -5.179584  -1.451502)
  25:      1261.84   77.266548  (  1.790763   1.252848  -8.514111)
  26:      1284.33    8.342342  (  1.367462   2.532715  -0.240297)
  27:      1294.22   29.572441  ( -0.614832   1.881915  -5.064861)
  28:      1311.36    1.680775  (  0.208350   0.408437  -1.212660)
  29:      1319.26   22.607237  (  2.938512   3.657336  -0.772190)
  30:      1329.93    9.177473  (  1.374310   2.527294   0.949490)
  31:      1418.36   48.428462  ( -2.466148   0.130566   6.506115)
  32:      1470.19   18.640994  (  2.324880   3.581005   0.642129)
  33:      1479.25   15.213727  (  0.817548  -0.366807  -3.796155)
  34:      1486.75   13.625890  ( -2.066415   2.019637   2.297147)
  35:      1491.41    9.943756  ( -0.000980   2.949234  -1.116143)
  36:      1497.24    6.508268  (  2.180413  -0.521376   1.217470)
  37:      1652.25   63.859208  ( -2.777312   0.305165   7.486830)
  38:      3028.53   25.702536  ( -4.290152  -2.136567   1.652941)
  39:      3046.22   16.126278  (  2.793751  -2.404538   1.593558)
  40:      3099.24   22.417671  ( -0.884605   4.438625   1.390593)
  41:      3121.57    0.041837  (  0.189340   0.072503  -0.027038)
  42:      3127.61    0.300286  (  0.484224  -0.081167   0.243363)
  43:      3180.28    2.929084  ( -0.602340   0.312053  -1.571271)
  44:      3199.78    0.730538  (  0.229903  -0.821435  -0.054103)
  45:      3204.26    1.617878  (  1.166649  -0.084841   0.499609)
  46:      3476.78   79.730646  ( -3.688493   0.658352   8.105075)
  47:      3541.15   95.475483  (  7.303659  -5.398040   3.604610)

--------------------------
THERMOCHEMISTRY AT 298.15K
--------------------------

Temperature         ... 298.15 K
Pressure            ... 1.00 atm
Total Mass          ... 88.13 AMU

Throughout the following assumptions are being made:
  (1) The electronic state is orbitally nondegenerate
  (2) There are no thermally accessible electronically excited states
  (3) Hindered rotations indicated by low frequency modes) are not
      treated as such but are treated as vibrations and this may
      case some error
  (4) All equations used are the standard statistical mechanics
      equations for an ideal gas
  (5) All vibrations are strinctly harmonic

------------
INNER ENERGY
------------

The inner energy is: U= E(el) + E(ZPE) + E(vib) + E(rot) + E(trans)
    E(el)   - is the total energy from the electronic structure calculation
              = E(kin-el) + E(nuc-el) + E(el-el) + E(nuc-nuc)
    E(ZPE)  - the the zero temperature vibrational energy from the frequency calculation
    E(vib)  - the the finite temperature correction to E(ZPE) due to population
              of excietd vibrational states
    E(rot)  - is the rotational thermal energy
    E(trans)- is the translational thermal energy

Summary of contributions to the inner energy U:
Electronic energy                ...   -287.90696158 Eh
Zero point energy                ...      0.14741793 Eh      92.51 kcal/mol
Thermal vibrational correction   ...      0.00385314 Eh       2.42 kcal/mol
Thermal rotational correction    ...      0.00141627 Eh       0.89 kcal/mol
Thermal translational correction ...      0.00141627 Eh       0.89 kcal/mol
-----------------------------------------------------------------------
Total thermal energy                   -287.75285797 Eh

Summary of corrections to the electronic energy:
(perhaps to be used in another calculation)
Total thermal correction                  0.00668568 Eh       4.20 kcal/mol
Non-thermal (ZPE) correction              0.14741793 Eh      92.51 kcal/mol
-----------------------------------------------------------------------
Total correction                          0.15410361 Eh      96.70 kcal/mol

--------
ENTHALPY
--------

The enthalpy is H = U + kB*T
                kB is Boltzmann's constant
Total free energy                 ...   -287.75285797 Eh
Thermal Enthalpy correction       ...      0.00094421 Eh       0.59 kcal/mol
-----------------------------------------------------------------------
Total Enthalpy                    ...   -287.75191376 Eh

-------
ENTROPY
-------

The entropy contributions are T*S = T*(S(el)+S(vib)+S(rot)+S(trans)
     S(el)   - electronic entropy
     S(vib)  - vibrational entropy
     S(rot)  - rotational entropy
     S(trans)- translational entropy
The entropies will be listed as mutliplied by the temperature to get
units of energy

Electronic entropy                ...      0.00000000 Eh      0.00 kcal/mol
Vibrational entropy               ...      0.00720322 Eh      4.52 kcal/mol
Rotational entropy                ...      0.01153740 Eh      7.24 kcal/mol
Translational entropy             ...      0.01869229 Eh     11.73 kcal/mol
-----------------------------------------------------------------------
Final entropy term                ...      0.03743291 Eh     23.49 kcal/mol

CAUTION: The rotational entropy is not quite correctly treated here
         because it includes a symmetry number that is not yet correctly
         implemented in ORCA!
For a nonlinear molecule the correct rotational entropy is:
    S(rot) = R*(ln(qrot/sn)+1.5)
    R    = 8.31441 J/mol/K = 1.987191683e-3 kcal/mol/K
    qrot = 135685.4256412
    sn is the rotational symmetry number. We have assumed 3 here
       if it is different for your molecule then you should correct
       the printed rotational entropy by manually evaluating the equation
       as given above

For convenience we print out the resulting values for sn=1 - 12:
 sn= 1  qrot/sn=  135685.4256 T*S(rot)=     7.89 kcal/mol T*S(tot)=    24.14 kcal/mol
 sn= 2  qrot/sn=   67842.7128 T*S(rot)=     7.48 kcal/mol T*S(tot)=    23.73 kcal/mol
 sn= 3  qrot/sn=   45228.4752 T*S(rot)=     7.24 kcal/mol T*S(tot)=    23.49 kcal/mol
 sn= 4  qrot/sn=   33921.3564 T*S(rot)=     7.07 kcal/mol T*S(tot)=    23.32 kcal/mol
 sn= 5  qrot/sn=   27137.0851 T*S(rot)=     6.94 kcal/mol T*S(tot)=    23.19 kcal/mol
 sn= 6  qrot/sn=   22614.2376 T*S(rot)=     6.83 kcal/mol T*S(tot)=    23.08 kcal/mol
 sn= 7  qrot/sn=   19383.6322 T*S(rot)=     6.74 kcal/mol T*S(tot)=    22.99 kcal/mol
 sn= 8  qrot/sn=   16960.6782 T*S(rot)=     6.66 kcal/mol T*S(tot)=    22.91 kcal/mol
 sn= 9  qrot/sn=   15076.1584 T*S(rot)=     6.59 kcal/mol T*S(tot)=    22.84 kcal/mol
 sn=10  qrot/sn=   13568.5426 T*S(rot)=     6.53 kcal/mol T*S(tot)=    22.78 kcal/mol
 sn=11  qrot/sn=   12335.0387 T*S(rot)=     6.47 kcal/mol T*S(tot)=    22.72 kcal/mol
 sn=12  qrot/sn=   11307.1188 T*S(rot)=     6.42 kcal/mol T*S(tot)=    22.67 kcal/mol

-------------------
GIBBS FREE ENTHALPY
-------------------

The Gibbs free enthalpy is G = H - T*S

Total enthalpy                    ...   -287.75191376 Eh
Total entropy correction          ...     -0.03743291 Eh    -23.49 kcal/mol
-----------------------------------------------------------------------
Final Gibbs free enthalpy         ...   -287.78934667 Eh

For completeness - the Gibbs free enthalpy minus the electronic energy
G-E(el)                           ...      0.11761491 Eh     73.80 kcal/mol

                             ****ORCA TERMINATED NORMALLY****
TOTAL RUN TIME: 0 days 0 hours 21 minutes 27 seconds 319 msec
