                         Program Version 3.0.3 - RELEASE   -
|  1> ! NORI PBE0 def2-TZVP UseSym TightOPT Freq TightSCF Grid3 FinalGrid5 XYZFile
|  2> % pal
|  3>     nprocs 8
|  4> end
|  5> %method
|  6>     SymThresh 5.0e-2
|  7> end
|  8> % geom
|  9>     MaxIter 10
| 10> end
| 11> % maxcore 2000
| 12> % output
| 13>     printlevel mini
| 14>     print[ P_Basis ] 0
| 15>     print[ P_SCFInfo ] 1
| 16>     print[ P_SCFIterInfo ] 1
| 17>     print[ P_OrbEn ] 0
| 18>     print[ P_Cartesian ] 0
| 19> end
| 20> % elprop
| 21>     Dipole false
| 22> end
| 23> *xyz 1 1
| 24>  C        1.9508820681     0.8250594537     0.1046219122
| 25>  O        3.1582661311     0.2544196382    -0.3851369828
| 26>  C        3.2473608166    -1.1245151305    -0.1898252033
| 27>  C        4.5621957993    -1.5604208375    -0.7765451871
| 28>  C        5.0767437145    -0.9489266501    -2.0106265058
| 29>  N        5.6153272167    -0.5137762360    -0.7010578361
| 30>  H        2.0016544639     1.8930993460    -0.0963403726
| 31>  H        1.8539588840     0.6584148266     1.1820799841
| 32>  H        1.0870571243     0.3973905884    -0.4118189844
| 33>  H        3.2105691629    -1.3848942959     0.8769780080
| 34>  H        2.4417364799    -1.6699972437    -0.6996251590
| 35>  H        4.9143307166    -2.5511215298    -0.5154161944
| 36>  H        4.4869515973    -0.1851340775    -2.5000962481
| 37>  H        5.7824382161    -1.4960099808    -2.6217400304
| 38>  H        5.2628521489     0.3817771111    -0.3629715192
| 39>  H        6.5633654599    -0.7590949822    -0.4415196810
| 40> *
| 41>
| 42>                          ****END OF INPUT****
 Total Charge           Charge          ....    1
 Multiplicity           Mult            ....    1
 Number of Electrons    NEL             ....   48
FINAL SINGLE POINT ENERGY      -287.906681843272

CARTESIAN COORDINATES (ANGSTROEM)
---------------------------------
  C     -0.378550   -0.260347    2.427331
  O     -0.000014   -0.000211    1.081140
  C     -0.832026   -0.603407    0.136999
  C     -0.305422   -0.211816   -1.216703
  C      0.237627    1.133613   -1.453768
  N      1.166211   -0.000183   -1.236724
  H      0.342171    0.249723    3.062459
  H     -0.354942   -1.334498    2.634909
  H     -1.380802    0.129855    2.626478
  H     -0.829281   -1.697709    0.235749
  H     -1.872158   -0.258767    0.218016
  H     -0.676457   -0.767641   -2.069722
  H      0.242366    1.845914   -0.639342
  H      0.251327    1.532447   -2.459359
  H      1.587388   -0.044704   -0.308532
  H      1.723319   -0.347647   -2.008287

FINAL SINGLE POINT ENERGY      -287.906682801624
                    ***********************HURRAY********************
 Multiplicity           Mult            ....    1
 Number of Electrons    NEL             ....   48
 Basis Dimension        Dim             ....  246
FINAL SINGLE POINT ENERGY      -287.906683199322

VIBRATIONAL FREQUENCIES
-----------------------

   0:         0.00 cm**-1
   1:         0.00 cm**-1
   2:         0.00 cm**-1
   3:         0.00 cm**-1
   4:         0.00 cm**-1
   5:         0.00 cm**-1
   6:        90.58 cm**-1
   7:       136.69 cm**-1
   8:       200.45 cm**-1
   9:       215.35 cm**-1
  10:       354.25 cm**-1
  11:       369.20 cm**-1
  12:       580.27 cm**-1
  13:       791.51 cm**-1
  14:       845.18 cm**-1
  15:       860.91 cm**-1
  16:       898.21 cm**-1
  17:       978.21 cm**-1
  18:       993.58 cm**-1
  19:      1046.43 cm**-1
  20:      1085.50 cm**-1
  21:      1123.38 cm**-1
  22:      1162.81 cm**-1
  23:      1175.76 cm**-1
  24:      1180.57 cm**-1
  25:      1185.97 cm**-1
  26:      1240.11 cm**-1
  27:      1248.38 cm**-1
  28:      1261.66 cm**-1
  29:      1288.51 cm**-1
  30:      1407.74 cm**-1
  31:      1435.73 cm**-1
  32:      1476.04 cm**-1
  33:      1483.76 cm**-1
  34:      1485.43 cm**-1
  35:      1494.48 cm**-1
  36:      1513.92 cm**-1
  37:      1590.66 cm**-1
  38:      3013.06 cm**-1
  39:      3039.32 cm**-1
  40:      3053.05 cm**-1
  41:      3112.49 cm**-1
  42:      3178.23 cm**-1
  43:      3178.96 cm**-1
  44:      3212.46 cm**-1
  45:      3284.50 cm**-1
  46:      3455.78 cm**-1
  47:      3605.30 cm**-1

IR SPECTRUM
-----------

 Mode    freq (cm**-1)   T**2         TX         TY         TZ
-------------------------------------------------------------------
   6:        90.58    7.343308  ( -1.404880   2.291007  -0.347716)
   7:       136.69    4.161949  ( -0.640093   1.000226   1.658848)
   8:       200.45   13.126033  (  0.600478  -0.467671  -3.542138)
   9:       215.35    4.907397  ( -1.350438   1.708559  -0.405634)
  10:       354.25    2.863033  ( -1.484444  -0.639092   0.501019)
  11:       369.20   10.000595  ( -1.983853  -1.462657   1.981302)
  12:       580.27    3.027218  (  1.325483   0.770719  -0.822377)
  13:       791.51    2.097375  (  0.126930   0.199710  -1.428769)
  14:       845.18   12.474467  ( -3.068327   1.591923   0.724993)
  15:       860.91    9.733583  (  2.226876  -1.277788   1.772531)
  16:       898.21   23.727646  ( -3.566278  -1.100331   3.130268)
  17:       978.21   22.039450  (  4.420629   1.476402  -0.563671)
  18:       993.58   20.472281  (  1.506871   3.952550  -1.605917)
  19:      1046.43   64.651204  ( -4.102333  -6.873256   0.761848)
  20:      1085.50    8.198875  (  0.618757   2.725365  -0.623217)
  21:      1123.38   76.509078  ( -3.059969  -2.432240   7.824952)
  22:      1162.81   38.793297  (  1.215412   0.422110   6.094087)
  23:      1175.76   25.387571  (  0.595270   0.456254   4.982475)
  24:      1180.57   48.317883  (  1.519654  -0.208878  -6.779742)
  25:      1185.97    4.299665  ( -0.670837  -1.636640   1.082152)
  26:      1240.11   49.720708  ( -3.496704  -1.650165  -5.896671)
  27:      1248.38    4.280730  ( -0.815392   1.896837  -0.133697)
  28:      1261.66    2.322651  ( -1.004884   1.110853  -0.280829)
  29:      1288.51   10.445245  (  0.062437  -0.421080  -3.203754)
  30:      1407.74    6.519828  ( -0.382524  -0.135845   2.520922)
  31:      1435.73    4.561138  ( -0.666687  -1.740793   1.042261)
  32:      1476.04    1.795261  (  0.607187   1.181371  -0.175919)
  33:      1483.76    9.126847  ( -0.872747   2.652826  -1.152247)
  34:      1485.43   18.528553  (  2.361379  -3.584043   0.327224)
  35:      1494.48   12.954628  (  1.185813   1.754276   2.910497)
  36:      1513.92    5.679489  ( -1.684201  -1.530647   0.707161)
  37:      1590.66   83.352300  (  8.840986  -1.224626  -1.920824)
  38:      3013.06   16.637186  ( -2.210697  -2.533948  -2.308487)
  39:      3039.32   25.978084  ( -2.031540  -1.813742   4.308279)
  40:      3053.05   10.167643  (  1.568606  -2.756987   0.325798)
  41:      3112.49   16.379976  ( -2.301774   3.327708   0.090406)
  42:      3178.23    2.877480  (  1.297261   0.516621   0.963171)
  43:      3178.96    3.831596  (  0.272197   1.893307   0.415806)
  44:      3212.46    1.926024  (  0.687900   0.723566   0.963987)
  45:      3284.50    8.342386  ( -0.011694   0.653871   2.813308)
  46:      3455.78  105.534468  ( -6.949291   2.951649  -6.966318)
  47:      3605.30  177.983160  ( -5.199937   2.714211  11.982357)

--------------------------
THERMOCHEMISTRY AT 298.15K
--------------------------

Temperature         ... 298.15 K
Pressure            ... 1.00 atm
Total Mass          ... 88.13 AMU

Throughout the following assumptions are being made:
  (1) The electronic state is orbitally nondegenerate
  (2) There are no thermally accessible electronically excited states
  (3) Hindered rotations indicated by low frequency modes) are not
      treated as such but are treated as vibrations and this may
      case some error
  (4) All equations used are the standard statistical mechanics
      equations for an ideal gas
  (5) All vibrations are strinctly harmonic

------------
INNER ENERGY
------------

The inner energy is: U= E(el) + E(ZPE) + E(vib) + E(rot) + E(trans)
    E(el)   - is the total energy from the electronic structure calculation
              = E(kin-el) + E(nuc-el) + E(el-el) + E(nuc-nuc)
    E(ZPE)  - the the zero temperature vibrational energy from the frequency calculation
    E(vib)  - the the finite temperature correction to E(ZPE) due to population
              of excietd vibrational states
    E(rot)  - is the rotational thermal energy
    E(trans)- is the translational thermal energy

Summary of contributions to the inner energy U:
Electronic energy                ...   -287.90668320 Eh
Zero point energy                ...      0.14656450 Eh      91.97 kcal/mol
Thermal vibrational correction   ...      0.00397622 Eh       2.50 kcal/mol
Thermal rotational correction    ...      0.00141627 Eh       0.89 kcal/mol
Thermal translational correction ...      0.00141627 Eh       0.89 kcal/mol
-----------------------------------------------------------------------
Total thermal energy                   -287.75330994 Eh

Summary of corrections to the electronic energy:
(perhaps to be used in another calculation)
Total thermal correction                  0.00680876 Eh       4.27 kcal/mol
Non-thermal (ZPE) correction              0.14656450 Eh      91.97 kcal/mol
-----------------------------------------------------------------------
Total correction                          0.15337326 Eh      96.24 kcal/mol

--------
ENTHALPY
--------

The enthalpy is H = U + kB*T
                kB is Boltzmann's constant
Total free energy                 ...   -287.75330994 Eh
Thermal Enthalpy correction       ...      0.00094421 Eh       0.59 kcal/mol
-----------------------------------------------------------------------
Total Enthalpy                    ...   -287.75236573 Eh

-------
ENTROPY
-------

The entropy contributions are T*S = T*(S(el)+S(vib)+S(rot)+S(trans)
     S(el)   - electronic entropy
     S(vib)  - vibrational entropy
     S(rot)  - rotational entropy
     S(trans)- translational entropy
The entropies will be listed as mutliplied by the temperature to get
units of energy

Electronic entropy                ...      0.00000000 Eh      0.00 kcal/mol
Vibrational entropy               ...      0.00705275 Eh      4.43 kcal/mol
Rotational entropy                ...      0.01157302 Eh      7.26 kcal/mol
Translational entropy             ...      0.01869229 Eh     11.73 kcal/mol
-----------------------------------------------------------------------
Final entropy term                ...      0.03731806 Eh     23.42 kcal/mol

CAUTION: The rotational entropy is not quite correctly treated here
         because it includes a symmetry number that is not yet correctly
         implemented in ORCA!
For a nonlinear molecule the correct rotational entropy is:
    S(rot) = R*(ln(qrot/sn)+1.5)
    R    = 8.31441 J/mol/K = 1.987191683e-3 kcal/mol/K
    qrot = 140902.4157647
    sn is the rotational symmetry number. We have assumed 3 here
       if it is different for your molecule then you should correct
       the printed rotational entropy by manually evaluating the equation
       as given above

For convenience we print out the resulting values for sn=1 - 12:
 sn= 1  qrot/sn=  140902.4158 T*S(rot)=     7.91 kcal/mol T*S(tot)=    24.07 kcal/mol
 sn= 2  qrot/sn=   70451.2079 T*S(rot)=     7.50 kcal/mol T*S(tot)=    23.66 kcal/mol
 sn= 3  qrot/sn=   46967.4719 T*S(rot)=     7.26 kcal/mol T*S(tot)=    23.42 kcal/mol
 sn= 4  qrot/sn=   35225.6039 T*S(rot)=     7.09 kcal/mol T*S(tot)=    23.25 kcal/mol
 sn= 5  qrot/sn=   28180.4832 T*S(rot)=     6.96 kcal/mol T*S(tot)=    23.11 kcal/mol
 sn= 6  qrot/sn=   23483.7360 T*S(rot)=     6.85 kcal/mol T*S(tot)=    23.01 kcal/mol
 sn= 7  qrot/sn=   20128.9165 T*S(rot)=     6.76 kcal/mol T*S(tot)=    22.92 kcal/mol
 sn= 8  qrot/sn=   17612.8020 T*S(rot)=     6.68 kcal/mol T*S(tot)=    22.84 kcal/mol
 sn= 9  qrot/sn=   15655.8240 T*S(rot)=     6.61 kcal/mol T*S(tot)=    22.77 kcal/mol
 sn=10  qrot/sn=   14090.2416 T*S(rot)=     6.55 kcal/mol T*S(tot)=    22.70 kcal/mol
 sn=11  qrot/sn=   12809.3105 T*S(rot)=     6.49 kcal/mol T*S(tot)=    22.65 kcal/mol
 sn=12  qrot/sn=   11741.8680 T*S(rot)=     6.44 kcal/mol T*S(tot)=    22.60 kcal/mol

-------------------
GIBBS FREE ENTHALPY
-------------------

The Gibbs free enthalpy is G = H - T*S

Total enthalpy                    ...   -287.75236573 Eh
Total entropy correction          ...     -0.03731806 Eh    -23.42 kcal/mol
-----------------------------------------------------------------------
Final Gibbs free enthalpy         ...   -287.78968379 Eh

For completeness - the Gibbs free enthalpy minus the electronic energy
G-E(el)                           ...      0.11699941 Eh     73.42 kcal/mol

                             ****ORCA TERMINATED NORMALLY****
TOTAL RUN TIME: 0 days 0 hours 21 minutes 3 seconds 663 msec
