                         Program Version 3.0.3 - RELEASE   -
|  1> ! NORI PBE0 def2-TZVP UseSym TightOPT Freq TightSCF Grid3 FinalGrid5 XYZFile
|  2> % pal
|  3>     nprocs 8
|  4> end
|  5> %method
|  6>     SymThresh 5.0e-2
|  7> end
|  8> % geom
|  9>     MaxIter 10
| 10> end
| 11> % maxcore 2000
| 12> % output
| 13>     printlevel mini
| 14>     print[ P_Basis ] 0
| 15>     print[ P_SCFInfo ] 1
| 16>     print[ P_SCFIterInfo ] 1
| 17>     print[ P_OrbEn ] 0
| 18>     print[ P_Cartesian ] 0
| 19> end
| 20> % elprop
| 21>     Dipole false
| 22> end
| 23> *xyz 1 1
| 24>  C        0.9426666125     0.4362201711     1.9429182064
| 25>  O        2.3418775661     0.6332508054     1.9769694287
| 26>  C        2.8769718255     0.9711663505     0.7314831490
| 27>  C        4.3839054953     1.0644332183     0.8952648325
| 28>  C        4.7259617217     2.0603642299     1.9792703575
| 29>  N        6.2049777533     2.0467836026     2.2701041188
| 30>  H        0.6289296398     0.1756995378     2.9519529092
| 31>  H        0.6780969681    -0.3796284664     1.2608345283
| 32>  H        0.4224209441     1.3481573339     1.6269197927
| 33>  H        2.6423473355     0.2114110279    -0.0258505823
| 34>  H        2.4673234489     1.9284141512     0.3719487048
| 35>  H        4.8346641078     1.3499412307    -0.0604930946
| 36>  H        4.7621685581     0.0727370795     1.1678669719
| 37>  H        4.2185473093     1.8114378370     2.9108098844
| 38>  H        4.4738081526     3.0844351067     1.6997195094
| 39>  H        6.5034647004     1.1162621231     2.5704817739
| 40>  H        6.4513504712     2.7076302099     3.0095816239
| 41>  H        6.7492673899     2.2886944509     1.4393178856
| 42> *
| 43>
| 44>                          ****END OF INPUT****
 Total Charge           Charge          ....    1
 Multiplicity           Mult            ....    1
 Number of Electrons    NEL             ....   50
FINAL SINGLE POINT ENERGY      -289.140688799108

CARTESIAN COORDINATES (ANGSTROEM)
---------------------------------
  C     -0.431444    0.302262    2.736223
  O     -0.000126    0.000239    1.424488
  C     -1.057601   -0.190963    0.531837
  C     -0.456751   -0.592352   -0.804035
  C      0.528606    0.457107   -1.265120
  N      1.255567   -0.000205   -2.504065
  H      0.460106    0.427875    3.347775
  H     -1.038539   -0.512424    3.146768
  H     -1.017015    1.228827    2.756612
  H     -1.735266   -0.983722    0.875696
  H     -1.656335    0.727623    0.426034
  H     -1.259625   -0.729420   -1.535248
  H      0.055240   -1.552630   -0.675617
  H      1.286156    0.640860   -0.503957
  H      0.044327    1.400924   -1.519797
  H      1.761079   -0.870433   -2.323480
  H      1.933782    0.694419   -2.823177
  H      0.604809   -0.178862   -3.271955

FINAL SINGLE POINT ENERGY      -289.140689200991
                    ***********************HURRAY********************
 Multiplicity           Mult            ....    1
 Number of Electrons    NEL             ....   50
 Basis Dimension        Dim             ....  258
FINAL SINGLE POINT ENERGY      -289.140689371826

VIBRATIONAL FREQUENCIES
-----------------------

   0:         0.00 cm**-1
   1:         0.00 cm**-1
   2:         0.00 cm**-1
   3:         0.00 cm**-1
   4:         0.00 cm**-1
   5:         0.00 cm**-1
   6:        72.27 cm**-1
   7:        93.92 cm**-1
   8:       124.77 cm**-1
   9:       208.27 cm**-1
  10:       227.68 cm**-1
  11:       253.34 cm**-1
  12:       311.34 cm**-1
  13:       347.38 cm**-1
  14:       554.25 cm**-1
  15:       766.63 cm**-1
  16:       861.10 cm**-1
  17:       879.94 cm**-1
  18:       964.63 cm**-1
  19:       976.58 cm**-1
  20:       998.45 cm**-1
  21:      1057.72 cm**-1
  22:      1145.31 cm**-1
  23:      1165.11 cm**-1
  24:      1179.64 cm**-1
  25:      1189.16 cm**-1
  26:      1238.57 cm**-1
  27:      1268.64 cm**-1
  28:      1315.62 cm**-1
  29:      1342.34 cm**-1
  30:      1352.80 cm**-1
  31:      1407.37 cm**-1
  32:      1418.95 cm**-1
  33:      1474.18 cm**-1
  34:      1477.12 cm**-1
  35:      1484.52 cm**-1
  36:      1497.17 cm**-1
  37:      1503.23 cm**-1
  38:      1508.64 cm**-1
  39:      1520.81 cm**-1
  40:      1659.29 cm**-1
  41:      1664.59 cm**-1
  42:      2985.53 cm**-1
  43:      3020.03 cm**-1
  44:      3035.48 cm**-1
  45:      3050.56 cm**-1
  46:      3083.99 cm**-1
  47:      3099.43 cm**-1
  48:      3106.39 cm**-1
  49:      3163.71 cm**-1
  50:      3171.29 cm**-1
  51:      3422.08 cm**-1
  52:      3502.86 cm**-1
  53:      3509.35 cm**-1

IR SPECTRUM
-----------

 Mode    freq (cm**-1)   T**2         TX         TY         TZ
-------------------------------------------------------------------
   6:        72.27    8.802932  ( -1.478698   1.321048  -2.207083)
   7:        93.92    9.645297  ( -0.472212  -2.989774  -0.695389)
   8:       124.77    7.869611  ( -0.526313   0.380892  -2.729016)
   9:       208.27    2.547747  (  0.360698  -0.804248   1.330725)
  10:       227.68    0.596950  (  0.218126   0.593033   0.444616)
  11:       253.34    5.464207  ( -0.860762  -2.153608   0.292005)
  12:       311.34    0.941288  ( -0.282502   0.518577  -0.769778)
  13:       347.38   12.738655  ( -2.774119  -0.621074   2.158051)
  14:       554.25    2.219337  (  1.286672   0.469092  -0.586316)
  15:       766.63    5.146224  ( -0.458437   0.948169  -2.009237)
  16:       861.10    8.355545  (  0.640576   1.693794  -2.253058)
  17:       879.94   23.340441  (  4.791407  -0.119846  -0.607040)
  18:       964.63    1.171420  ( -0.714112  -0.125804   0.803515)
  19:       976.58   17.032404  ( -2.398450  -0.357892   3.339424)
  20:       998.45    7.886691  ( -0.004724  -2.803324  -0.167456)
  21:      1057.72    8.424146  ( -2.544521   0.275093   1.368899)
  22:      1145.31   11.591873  ( -3.080173  -0.749501   1.242037)
  23:      1165.11    5.000702  (  0.603980   1.327819  -1.694936)
  24:      1179.64  147.159278  (  0.302397  -1.968915 -11.966253)
  25:      1189.16   16.162001  (  0.415057   3.798169   1.250455)
  26:      1238.57   60.123478  ( -3.763637  -1.168204  -6.677860)
  27:      1268.64    0.724290  ( -0.359960  -0.435312   0.636571)
  28:      1315.62    2.887131  (  1.595465   0.456359  -0.365183)
  29:      1342.34    7.622902  (  1.499691  -0.569729   2.247051)
  30:      1352.80    3.503519  ( -0.713944   1.236792  -1.210021)
  31:      1407.37   24.960015  ( -1.909925   0.770674   4.551732)
  32:      1418.95   11.808205  (  0.179039   0.553893   3.386643)
  33:      1474.18    0.420126  (  0.136504   0.613635   0.157939)
  34:      1477.12    1.060917  (  0.593169   0.315648   0.780663)
  35:      1484.52   12.184570  (  0.020803  -3.418517   0.705605)
  36:      1497.17   11.143403  (  1.967167   0.342913   2.675083)
  37:      1503.23   16.895909  (  3.046965   2.375444  -1.403274)
  38:      1508.64  142.200693  ( -5.531407   4.156849   9.712097)
  39:      1520.81    5.187515  ( -2.028337   0.234206   1.009214)
  40:      1659.29   51.498047  (  5.359312  -2.744716   3.904147)
  41:      1664.59   37.461497  (  3.036406   5.257866  -0.772384)
  42:      2985.53   33.177092  ( -4.602899   2.510945  -2.384443)
  43:      3020.03   39.199951  (  3.159775  -1.988153  -5.026233)
  44:      3035.48   17.695886  ( -2.505250  -2.799000   1.893465)
  45:      3050.56   19.935179  (  0.319818   4.190681   1.507012)
  46:      3083.99   27.228012  ( -0.086491   5.029697  -1.386609)
  47:      3099.43    6.279164  (  2.185407  -0.499321   1.119750)
  48:      3106.39    4.905502  (  0.458630  -1.652643   1.401404)
  49:      3163.71    9.008567  ( -2.488942  -0.305930  -1.649286)
  50:      3171.29    1.311722  (  0.401809  -0.488082  -0.955012)
  51:      3422.08   44.192551  (  3.490001  -1.479634  -5.461055)
  52:      3502.86   91.214426  ( -6.202057   4.714831  -5.524426)
  53:      3509.35   99.305700  ( -5.959739  -7.986504   0.054443)

--------------------------
THERMOCHEMISTRY AT 298.15K
--------------------------

Temperature         ... 298.15 K
Pressure            ... 1.00 atm
Total Mass          ... 90.15 AMU

Throughout the following assumptions are being made:
  (1) The electronic state is orbitally nondegenerate
  (2) There are no thermally accessible electronically excited states
  (3) Hindered rotations indicated by low frequency modes) are not
      treated as such but are treated as vibrations and this may
      case some error
  (4) All equations used are the standard statistical mechanics
      equations for an ideal gas
  (5) All vibrations are strinctly harmonic

------------
INNER ENERGY
------------

The inner energy is: U= E(el) + E(ZPE) + E(vib) + E(rot) + E(trans)
    E(el)   - is the total energy from the electronic structure calculation
              = E(kin-el) + E(nuc-el) + E(el-el) + E(nuc-nuc)
    E(ZPE)  - the the zero temperature vibrational energy from the frequency calculation
    E(vib)  - the the finite temperature correction to E(ZPE) due to population
              of excietd vibrational states
    E(rot)  - is the rotational thermal energy
    E(trans)- is the translational thermal energy

Summary of contributions to the inner energy U:
Electronic energy                ...   -289.14068937 Eh
Zero point energy                ...      0.17009263 Eh     106.73 kcal/mol
Thermal vibrational correction   ...      0.00527405 Eh       3.31 kcal/mol
Thermal rotational correction    ...      0.00141627 Eh       0.89 kcal/mol
Thermal translational correction ...      0.00141627 Eh       0.89 kcal/mol
-----------------------------------------------------------------------
Total thermal energy                   -288.96249015 Eh

Summary of corrections to the electronic energy:
(perhaps to be used in another calculation)
Total thermal correction                  0.00810659 Eh       5.09 kcal/mol
Non-thermal (ZPE) correction              0.17009263 Eh     106.73 kcal/mol
-----------------------------------------------------------------------
Total correction                          0.17819922 Eh     111.82 kcal/mol

--------
ENTHALPY
--------

The enthalpy is H = U + kB*T
                kB is Boltzmann's constant
Total free energy                 ...   -288.96249015 Eh
Thermal Enthalpy correction       ...      0.00094421 Eh       0.59 kcal/mol
-----------------------------------------------------------------------
Total Enthalpy                    ...   -288.96154594 Eh

-------
ENTROPY
-------

The entropy contributions are T*S = T*(S(el)+S(vib)+S(rot)+S(trans)
     S(el)   - electronic entropy
     S(vib)  - vibrational entropy
     S(rot)  - rotational entropy
     S(trans)- translational entropy
The entropies will be listed as mutliplied by the temperature to get
units of energy

Electronic entropy                ...      0.00000000 Eh      0.00 kcal/mol
Vibrational entropy               ...      0.00988686 Eh      6.20 kcal/mol
Rotational entropy                ...      0.01188728 Eh      7.46 kcal/mol
Translational entropy             ...      0.01872432 Eh     11.75 kcal/mol
-----------------------------------------------------------------------
Final entropy term                ...      0.04049845 Eh     25.41 kcal/mol

CAUTION: The rotational entropy is not quite correctly treated here
         because it includes a symmetry number that is not yet correctly
         implemented in ORCA!
For a nonlinear molecule the correct rotational entropy is:
    S(rot) = R*(ln(qrot/sn)+1.5)
    R    = 8.31441 J/mol/K = 1.987191683e-3 kcal/mol/K
    qrot = 196546.2961691
    sn is the rotational symmetry number. We have assumed 3 here
       if it is different for your molecule then you should correct
       the printed rotational entropy by manually evaluating the equation
       as given above

For convenience we print out the resulting values for sn=1 - 12:
 sn= 1  qrot/sn=  196546.2962 T*S(rot)=     8.11 kcal/mol T*S(tot)=    26.06 kcal/mol
 sn= 2  qrot/sn=   98273.1481 T*S(rot)=     7.70 kcal/mol T*S(tot)=    25.65 kcal/mol
 sn= 3  qrot/sn=   65515.4321 T*S(rot)=     7.46 kcal/mol T*S(tot)=    25.41 kcal/mol
 sn= 4  qrot/sn=   49136.5740 T*S(rot)=     7.29 kcal/mol T*S(tot)=    25.24 kcal/mol
 sn= 5  qrot/sn=   39309.2592 T*S(rot)=     7.16 kcal/mol T*S(tot)=    25.11 kcal/mol
 sn= 6  qrot/sn=   32757.7160 T*S(rot)=     7.05 kcal/mol T*S(tot)=    25.00 kcal/mol
 sn= 7  qrot/sn=   28078.0423 T*S(rot)=     6.96 kcal/mol T*S(tot)=    24.91 kcal/mol
 sn= 8  qrot/sn=   24568.2870 T*S(rot)=     6.88 kcal/mol T*S(tot)=    24.83 kcal/mol
 sn= 9  qrot/sn=   21838.4774 T*S(rot)=     6.81 kcal/mol T*S(tot)=    24.76 kcal/mol
 sn=10  qrot/sn=   19654.6296 T*S(rot)=     6.75 kcal/mol T*S(tot)=    24.70 kcal/mol
 sn=11  qrot/sn=   17867.8451 T*S(rot)=     6.69 kcal/mol T*S(tot)=    24.64 kcal/mol
 sn=12  qrot/sn=   16378.8580 T*S(rot)=     6.64 kcal/mol T*S(tot)=    24.59 kcal/mol

-------------------
GIBBS FREE ENTHALPY
-------------------

The Gibbs free enthalpy is G = H - T*S

Total enthalpy                    ...   -288.96154594 Eh
Total entropy correction          ...     -0.04049845 Eh    -25.41 kcal/mol
-----------------------------------------------------------------------
Final Gibbs free enthalpy         ...   -289.00204439 Eh

For completeness - the Gibbs free enthalpy minus the electronic energy
G-E(el)                           ...      0.13864498 Eh     87.00 kcal/mol

                             ****ORCA TERMINATED NORMALLY****
TOTAL RUN TIME: 0 days 0 hours 24 minutes 9 seconds 389 msec
