                         Program Version 3.0.3 - RELEASE   -
|  1> ! NORI PBE0 def2-TZVP UseSym TightOPT Freq TightSCF Grid3 FinalGrid5 XYZFile
|  2> % pal
|  3>     nprocs 8
|  4> end
|  5> %method
|  6>     SymThresh 5.0e-2
|  7> end
|  8> % geom
|  9>     MaxIter 10
| 10> end
| 11> % maxcore 2000
| 12> % output
| 13>     printlevel mini
| 14>     print[ P_Basis ] 0
| 15>     print[ P_SCFInfo ] 1
| 16>     print[ P_SCFIterInfo ] 1
| 17>     print[ P_OrbEn ] 0
| 18>     print[ P_Cartesian ] 0
| 19> end
| 20> % elprop
| 21>     Dipole false
| 22> end
| 23> *xyz 1 1
| 24>  C        3.9968708656     1.2028083096     0.4233952232
| 25>  O        2.9881958574     0.6950404079    -0.4423430456
| 26>  C        3.3225947140    -0.2115659147    -1.3290880779
| 27>  C        4.5330489263    -0.7569401623    -1.5502209631
| 28>  C        4.6892362550    -1.8075049045    -2.5713816570
| 29>  N        5.4263907913    -1.2675505963    -3.8069356091
| 30>  H        3.5031911618     1.9243451844     1.0685203072
| 31>  H        4.7820236311     1.6983561267    -0.1537634836
| 32>  H        4.4229229421     0.3967690931     1.0263198335
| 33>  H        2.4559688876    -0.5218488209    -1.9099067093
| 34>  H        5.3925651163    -0.4956070207    -0.9442904773
| 35>  H        5.2894866978    -2.6566912175    -2.2393895668
| 36>  H        3.7333707942    -2.1771631871    -2.9430968540
| 37>  H        6.3522227890    -0.9249072055    -3.5452662184
| 38>  H        4.9109064991    -0.4761156006    -4.1966320972
| 39>  H        5.5425540714    -1.9768444916    -4.5347206045
| 40> *
| 41>
| 42>                          ****END OF INPUT****
 Total Charge           Charge          ....    1
 Multiplicity           Mult            ....    1
 Number of Electrons    NEL             ....   48
FINAL SINGLE POINT ENERGY      -287.921096570076
FINAL SINGLE POINT ENERGY      -287.921097456959

CARTESIAN COORDINATES (ANGSTROEM)
---------------------------------
  C     -0.814498   -1.156902    2.113748
  O      0.001461   -0.001364    1.957424
  C      0.169575    0.487989    0.752298
  C     -0.337043    0.037263   -0.410500
  C     -0.068522    0.768786   -1.660951
  N      0.926389    0.002052   -2.545484
  H     -0.817459   -1.380341    3.176869
  H     -0.393879   -1.999959    1.559179
  H     -1.833312   -0.952556    1.774873
  H      0.796298    1.377574    0.780794
  H     -1.004513   -0.815518   -0.446325
  H     -0.951467    0.902686   -2.288586
  H      0.389478    1.743072   -1.487474
  H      0.555483   -0.920824   -2.778292
  H      1.799738   -0.143846   -2.035463
  H      1.132486    0.492772   -3.418898

FINAL SINGLE POINT ENERGY      -287.921097740121
                    ***********************HURRAY********************
 Multiplicity           Mult            ....    1
 Number of Electrons    NEL             ....   48
 Basis Dimension        Dim             ....  246
FINAL SINGLE POINT ENERGY      -287.921097835072

VIBRATIONAL FREQUENCIES
-----------------------

   0:         0.00 cm**-1
   1:         0.00 cm**-1
   2:         0.00 cm**-1
   3:         0.00 cm**-1
   4:         0.00 cm**-1
   5:         0.00 cm**-1
   6:       107.15 cm**-1
   7:       120.73 cm**-1
   8:       186.38 cm**-1
   9:       220.73 cm**-1
  10:       244.26 cm**-1
  11:       351.73 cm**-1
  12:       367.99 cm**-1
  13:       444.76 cm**-1
  14:       635.34 cm**-1
  15:       799.24 cm**-1
  16:       826.93 cm**-1
  17:       830.49 cm**-1
  18:       966.44 cm**-1
  19:       996.50 cm**-1
  20:      1007.26 cm**-1
  21:      1075.57 cm**-1
  22:      1171.55 cm**-1
  23:      1173.06 cm**-1
  24:      1213.60 cm**-1
  25:      1304.13 cm**-1
  26:      1318.26 cm**-1
  27:      1341.22 cm**-1
  28:      1389.42 cm**-1
  29:      1404.48 cm**-1
  30:      1472.90 cm**-1
  31:      1483.12 cm**-1
  32:      1485.36 cm**-1
  33:      1489.02 cm**-1
  34:      1491.85 cm**-1
  35:      1647.09 cm**-1
  36:      1659.68 cm**-1
  37:      1707.06 cm**-1
  38:      3047.50 cm**-1
  39:      3092.91 cm**-1
  40:      3125.28 cm**-1
  41:      3153.24 cm**-1
  42:      3167.39 cm**-1
  43:      3192.60 cm**-1
  44:      3210.20 cm**-1
  45:      3413.39 cm**-1
  46:      3508.14 cm**-1
  47:      3514.25 cm**-1

IR SPECTRUM
-----------

 Mode    freq (cm**-1)   T**2         TX         TY         TZ
-------------------------------------------------------------------
   6:       107.15    6.709840  ( -0.376306  -1.939268  -1.675551)
   7:       120.73   11.295333  (  1.336417  -2.099664   2.258480)
   8:       186.38    0.498361  (  0.489923   0.020336   0.507861)
   9:       220.73    0.565255  ( -0.183140  -0.246858   0.686131)
  10:       244.26    2.152366  (  0.841604  -0.793770   0.902218)
  11:       351.73    1.242966  (  1.107883   0.005567  -0.124618)
  12:       367.99    3.280595  ( -1.307093   0.369147   1.198263)
  13:       444.76    7.709789  ( -1.191840  -0.306185   2.489087)
  14:       635.34   11.902695  ( -0.380267  -0.621482  -3.372218)
  15:       799.24   35.959843  (  0.779812  -2.004091   5.597799)
  16:       826.93  106.049159  ( -6.434673   2.547171   7.626012)
  17:       830.49    6.756680  (  1.303758   1.928737   1.156230)
  18:       966.44   31.276369  (  2.730643   4.846619   0.574666)
  19:       996.50   28.440517  ( -5.258406  -0.158314   0.874425)
  20:      1007.26    9.922669  ( -1.347800   2.829202   0.318931)
  21:      1075.57   21.604136  (  1.069919  -3.821394   2.419991)
  22:      1171.55    7.544487  ( -0.454679   1.847964  -1.980602)
  23:      1173.06   19.506900  (  1.469015   1.733008  -3.787556)
  24:      1213.60   12.222394  (  1.323741   2.056384  -2.498277)
  25:      1304.13    9.111081  (  1.061447   2.133217   1.853051)
  26:      1318.26   63.209251  ( -2.739016  -4.319132   6.087047)
  27:      1341.22  206.966131  (  1.517384   3.733871 -13.810209)
  28:      1389.42   22.991716  (  0.768290   1.068090  -4.610925)
  29:      1404.48   20.427146  ( -0.547548   0.198645   4.481950)
  30:      1472.90   13.445517  (  0.453050  -1.780963  -3.173080)
  31:      1483.12  130.472298  ( -7.502202   4.425807   7.389282)
  32:      1485.36   17.498871  (  1.887914  -3.294850  -1.754598)
  33:      1489.02   22.251014  (  3.526897  -3.115845  -0.321753)
  34:      1491.85   25.096281  (  1.105553   2.684240  -4.082755)
  35:      1647.09   49.751003  ( -5.469483  -4.103989  -1.730040)
  36:      1659.68   53.038437  ( -0.850843   3.514828  -6.321431)
  37:      1707.06  339.659420  ( -1.258139  -2.778219  18.175753)
  38:      3047.50   14.518291  (  1.877009   3.265735  -0.574544)
  39:      3092.91    6.914778  ( -0.121542  -1.270470   2.299111)
  40:      3125.28   14.107085  (  2.920807  -2.306698  -0.505091)
  41:      3153.24    0.580486  (  0.224830   0.186557   0.703658)
  42:      3167.39    4.558923  ( -0.825930  -1.540133   1.226684)
  43:      3192.60    2.013407  ( -0.121118  -0.335307   1.373429)
  44:      3210.20    2.368667  ( -0.179583   0.306263  -1.497538)
  45:      3413.39   29.287267  (  3.390518  -1.770149  -3.828606)
  46:      3508.14   72.180130  ( -2.722031   5.644260  -5.736985)
  47:      3514.25   89.244037  ( -6.338749  -6.179235  -3.298689)

--------------------------
THERMOCHEMISTRY AT 298.15K
--------------------------

Temperature         ... 298.15 K
Pressure            ... 1.00 atm
Total Mass          ... 88.13 AMU

Throughout the following assumptions are being made:
  (1) The electronic state is orbitally nondegenerate
  (2) There are no thermally accessible electronically excited states
  (3) Hindered rotations indicated by low frequency modes) are not
      treated as such but are treated as vibrations and this may
      case some error
  (4) All equations used are the standard statistical mechanics
      equations for an ideal gas
  (5) All vibrations are strinctly harmonic

------------
INNER ENERGY
------------

The inner energy is: U= E(el) + E(ZPE) + E(vib) + E(rot) + E(trans)
    E(el)   - is the total energy from the electronic structure calculation
              = E(kin-el) + E(nuc-el) + E(el-el) + E(nuc-nuc)
    E(ZPE)  - the the zero temperature vibrational energy from the frequency calculation
    E(vib)  - the the finite temperature correction to E(ZPE) due to population
              of excietd vibrational states
    E(rot)  - is the rotational thermal energy
    E(trans)- is the translational thermal energy

Summary of contributions to the inner energy U:
Electronic energy                ...   -287.92109784 Eh
Zero point energy                ...      0.14661884 Eh      92.00 kcal/mol
Thermal vibrational correction   ...      0.00462881 Eh       2.90 kcal/mol
Thermal rotational correction    ...      0.00141627 Eh       0.89 kcal/mol
Thermal translational correction ...      0.00141627 Eh       0.89 kcal/mol
-----------------------------------------------------------------------
Total thermal energy                   -287.76701765 Eh

Summary of corrections to the electronic energy:
(perhaps to be used in another calculation)
Total thermal correction                  0.00746135 Eh       4.68 kcal/mol
Non-thermal (ZPE) correction              0.14661884 Eh      92.00 kcal/mol
-----------------------------------------------------------------------
Total correction                          0.15408019 Eh      96.69 kcal/mol

--------
ENTHALPY
--------

The enthalpy is H = U + kB*T
                kB is Boltzmann's constant
Total free energy                 ...   -287.76701765 Eh
Thermal Enthalpy correction       ...      0.00094421 Eh       0.59 kcal/mol
-----------------------------------------------------------------------
Total Enthalpy                    ...   -287.76607344 Eh

-------
ENTROPY
-------

The entropy contributions are T*S = T*(S(el)+S(vib)+S(rot)+S(trans)
     S(el)   - electronic entropy
     S(vib)  - vibrational entropy
     S(rot)  - rotational entropy
     S(trans)- translational entropy
The entropies will be listed as mutliplied by the temperature to get
units of energy

Electronic entropy                ...      0.00000000 Eh      0.00 kcal/mol
Vibrational entropy               ...      0.00813028 Eh      5.10 kcal/mol
Rotational entropy                ...      0.01183193 Eh      7.42 kcal/mol
Translational entropy             ...      0.01869229 Eh     11.73 kcal/mol
-----------------------------------------------------------------------
Final entropy term                ...      0.03865449 Eh     24.26 kcal/mol

CAUTION: The rotational entropy is not quite correctly treated here
         because it includes a symmetry number that is not yet correctly
         implemented in ORCA!
For a nonlinear molecule the correct rotational entropy is:
    S(rot) = R*(ln(qrot/sn)+1.5)
    R    = 8.31441 J/mol/K = 1.987191683e-3 kcal/mol/K
    qrot = 185355.9033058
    sn is the rotational symmetry number. We have assumed 3 here
       if it is different for your molecule then you should correct
       the printed rotational entropy by manually evaluating the equation
       as given above

For convenience we print out the resulting values for sn=1 - 12:
 sn= 1  qrot/sn=  185355.9033 T*S(rot)=     8.08 kcal/mol T*S(tot)=    24.91 kcal/mol
 sn= 2  qrot/sn=   92677.9517 T*S(rot)=     7.66 kcal/mol T*S(tot)=    24.50 kcal/mol
 sn= 3  qrot/sn=   61785.3011 T*S(rot)=     7.42 kcal/mol T*S(tot)=    24.26 kcal/mol
 sn= 4  qrot/sn=   46338.9758 T*S(rot)=     7.25 kcal/mol T*S(tot)=    24.09 kcal/mol
 sn= 5  qrot/sn=   37071.1807 T*S(rot)=     7.12 kcal/mol T*S(tot)=    23.95 kcal/mol
 sn= 6  qrot/sn=   30892.6506 T*S(rot)=     7.01 kcal/mol T*S(tot)=    23.85 kcal/mol
 sn= 7  qrot/sn=   26479.4148 T*S(rot)=     6.92 kcal/mol T*S(tot)=    23.75 kcal/mol
 sn= 8  qrot/sn=   23169.4879 T*S(rot)=     6.84 kcal/mol T*S(tot)=    23.67 kcal/mol
 sn= 9  qrot/sn=   20595.1004 T*S(rot)=     6.77 kcal/mol T*S(tot)=    23.61 kcal/mol
 sn=10  qrot/sn=   18535.5903 T*S(rot)=     6.71 kcal/mol T*S(tot)=    23.54 kcal/mol
 sn=11  qrot/sn=   16850.5367 T*S(rot)=     6.65 kcal/mol T*S(tot)=    23.49 kcal/mol
 sn=12  qrot/sn=   15446.3253 T*S(rot)=     6.60 kcal/mol T*S(tot)=    23.43 kcal/mol

-------------------
GIBBS FREE ENTHALPY
-------------------

The Gibbs free enthalpy is G = H - T*S

Total enthalpy                    ...   -287.76607344 Eh
Total entropy correction          ...     -0.03865449 Eh    -24.26 kcal/mol
-----------------------------------------------------------------------
Final Gibbs free enthalpy         ...   -287.80472793 Eh

For completeness - the Gibbs free enthalpy minus the electronic energy
G-E(el)                           ...      0.11636990 Eh     73.02 kcal/mol

                             ****ORCA TERMINATED NORMALLY****
TOTAL RUN TIME: 0 days 0 hours 21 minutes 1 seconds 917 msec
