                         Program Version 3.0.3 - RELEASE   -
|  1> ! NORI PBE0 def2-TZVP UseSym TightOPT Freq TightSCF Grid3 FinalGrid5 XYZFile
|  2> % pal
|  3>     nprocs 8
|  4> end
|  5> %method
|  6>     SymThresh 5.0e-2
|  7> end
|  8> % geom
|  9>     MaxIter 10
| 10> end
| 11> % maxcore 2000
| 12> % output
| 13>     printlevel mini
| 14>     print[ P_Basis ] 0
| 15>     print[ P_SCFInfo ] 1
| 16>     print[ P_SCFIterInfo ] 1
| 17>     print[ P_OrbEn ] 0
| 18>     print[ P_Cartesian ] 0
| 19> end
| 20> % elprop
| 21>     Dipole false
| 22> end
| 23> *xyz 1 1
| 24>  C        1.6346761854    -0.7355685146    -0.7136458659
| 25>  O        2.9804438316    -0.2985969365    -0.8855435551
| 26>  C        3.1937438995     0.7738865435    -1.6798226045
| 27>  C        2.3054476662     1.4727108488    -2.3750558688
| 28>  C        4.6515321527     1.0974656684    -1.6471126864
| 29>  N        5.4165193792    -0.1777629768    -1.8922036984
| 30>  H        1.6760144371    -1.5913913486    -0.0447544842
| 31>  H        1.2027766391    -1.0317798218    -1.6725951057
| 32>  H        1.0363508623     0.0594135786    -0.2627945040
| 33>  H        2.6321620616     2.3064580458    -2.9812535168
| 34>  H        1.2456823728     1.2624299230    -2.3456454035
| 35>  H        4.9362517823     1.8272124800    -2.4009399977
| 36>  H        4.9564444417     1.4460504519    -0.6580829793
| 37>  H        5.3217665937    -0.4838052210    -2.8627375312
| 38>  H        4.9973856396    -0.9014848291    -1.2961714880
| 39>  H        6.4097120551    -0.0896378916    -1.6738707103
| 40> *
| 41>
| 42>                          ****END OF INPUT****
 Total Charge           Charge          ....    1
 Multiplicity           Mult            ....    1
 Number of Electrons    NEL             ....   48
FINAL SINGLE POINT ENERGY      -287.922736028673

CARTESIAN COORDINATES (ANGSTROEM)
---------------------------------
  C     -0.914822   -0.510030    1.938935
  O     -0.000184    0.001361    0.972773
  C     -0.430621    0.102494   -0.304380
  C     -1.605479   -0.254327   -0.807659
  C      0.655631    0.728787   -1.115937
  N      1.940117   -0.000087   -0.815018
  H     -0.387348   -0.505443    2.889218
  H     -1.212744   -1.529428    1.681928
  H     -1.795133    0.133216    2.000081
  H     -1.800349   -0.123958   -1.863135
  H     -2.403747   -0.654361   -0.198784
  H      0.464504    0.675550   -2.184857
  H      0.821735    1.766567   -0.818996
  H      1.934054   -0.939496   -1.217315
  H      1.999530   -0.099780    0.205415
  H      2.763896    0.495597   -1.157478

FINAL SINGLE POINT ENERGY      -287.922736798940
                    ***********************HURRAY********************
 Multiplicity           Mult            ....    1
 Number of Electrons    NEL             ....   48
 Basis Dimension        Dim             ....  246
FINAL SINGLE POINT ENERGY      -287.922737050080

VIBRATIONAL FREQUENCIES
-----------------------

   0:         0.00 cm**-1
   1:         0.00 cm**-1
   2:         0.00 cm**-1
   3:         0.00 cm**-1
   4:         0.00 cm**-1
   5:         0.00 cm**-1
   6:       106.37 cm**-1
   7:       136.75 cm**-1
   8:       211.31 cm**-1
   9:       230.62 cm**-1
  10:       255.27 cm**-1
  11:       323.99 cm**-1
  12:       415.38 cm**-1
  13:       521.13 cm**-1
  14:       635.37 cm**-1
  15:       744.71 cm**-1
  16:       820.67 cm**-1
  17:       866.02 cm**-1
  18:       905.46 cm**-1
  19:       924.09 cm**-1
  20:       960.98 cm**-1
  21:      1053.06 cm**-1
  22:      1111.02 cm**-1
  23:      1132.90 cm**-1
  24:      1175.97 cm**-1
  25:      1218.50 cm**-1
  26:      1322.76 cm**-1
  27:      1330.60 cm**-1
  28:      1396.64 cm**-1
  29:      1440.87 cm**-1
  30:      1475.45 cm**-1
  31:      1479.45 cm**-1
  32:      1485.14 cm**-1
  33:      1492.49 cm**-1
  34:      1499.79 cm**-1
  35:      1639.83 cm**-1
  36:      1668.37 cm**-1
  37:      1743.95 cm**-1
  38:      3054.99 cm**-1
  39:      3098.76 cm**-1
  40:      3135.65 cm**-1
  41:      3186.14 cm**-1
  42:      3188.79 cm**-1
  43:      3199.66 cm**-1
  44:      3290.96 cm**-1
  45:      3389.24 cm**-1
  46:      3478.68 cm**-1
  47:      3523.28 cm**-1

IR SPECTRUM
-----------

 Mode    freq (cm**-1)   T**2         TX         TY         TZ
-------------------------------------------------------------------
   6:       106.37   11.780543  ( -0.002689   2.128191   2.692831)
   7:       136.75   12.303250  (  0.020910   3.391322  -0.895404)
   8:       211.31   12.319380  ( -2.670489  -0.528485   2.215529)
   9:       230.62    0.399559  ( -0.291265  -0.560926   0.009264)
  10:       255.27    9.810974  (  1.931024   0.055857  -2.465563)
  11:       323.99    7.053472  (  2.629168   0.147653   0.345178)
  12:       415.38   11.734772  (  3.345523   0.635068  -0.372741)
  13:       521.13    6.327168  (  2.457281  -0.535849  -0.042481)
  14:       635.37   11.649075  ( -3.001942   1.068927   1.222626)
  15:       744.71    0.225615  ( -0.346678   0.324573  -0.009032)
  16:       820.67   25.416155  (  4.914895   1.002090  -0.505750)
  17:       866.02    5.116206  (  0.934874   0.299035   2.037841)
  18:       905.46   62.026606  (  2.427869  -7.137974  -2.276265)
  19:       924.09    9.761660  (  0.766597   0.300857   3.013880)
  20:       960.98   28.479228  (  5.295464   0.332258   0.571746)
  21:      1053.06    0.283755  (  0.156307   0.088439   0.501500)
  22:      1111.02   35.661339  ( -2.224201  -3.875363   3.961797)
  23:      1132.90  122.158059  ( -4.448034  -2.901911   9.692883)
  24:      1175.97    1.826387  ( -0.547157   0.684749   1.028652)
  25:      1218.50    9.516089  ( -1.692504  -0.135748  -2.575479)
  26:      1322.76   75.302770  ( -1.270462   0.113255  -8.583465)
  27:      1330.60   38.999113  (  0.612767  -2.020867   5.877051)
  28:      1396.64   36.250083  (  3.924125   0.432794   4.545769)
  29:      1440.87   21.189337  (  4.320959   0.748308   1.399531)
  30:      1475.45   45.651322  ( -4.304148   4.246903  -3.014871)
  31:      1479.45   23.694185  ( -4.509648  -0.846478   1.625034)
  32:      1485.14   12.982044  (  0.677818  -3.480052  -0.641753)
  33:      1492.49  124.307022  ( 10.606163  -3.435718   0.110354)
  34:      1499.79   20.505582  (  2.434415  -0.518712   3.782875)
  35:      1639.83   52.996284  (  1.234269   4.612097   5.495582)
  36:      1668.37   41.416579  ( -3.672764  -3.459705   3.994725)
  37:      1743.95   80.317392  ( -4.852469  -0.873912  -7.483796)
  38:      3054.99   13.873793  (  1.981767   1.691793  -2.661621)
  39:      3098.76    0.787241  (  0.853388   0.199101  -0.139027)
  40:      3135.65    9.516732  ( -0.948947   2.837995   0.749679)
  41:      3186.14    0.244124  ( -0.372633   0.310407   0.094423)
  42:      3188.79    2.727395  (  0.748211  -0.007164   1.472252)
  43:      3199.66    6.263889  ( -2.113148  -0.590715  -1.203973)
  44:      3290.96    0.626591  (  0.637519   0.316229  -0.346642)
  45:      3389.24   54.096330  ( -2.031222   2.218340  -6.711888)
  46:      3478.68  119.649072  (  5.220383  -3.245707  -9.047765)
  47:      3523.28  108.476813  (  6.419945   8.058961  -1.521272)

--------------------------
THERMOCHEMISTRY AT 298.15K
--------------------------

Temperature         ... 298.15 K
Pressure            ... 1.00 atm
Total Mass          ... 88.13 AMU

Throughout the following assumptions are being made:
  (1) The electronic state is orbitally nondegenerate
  (2) There are no thermally accessible electronically excited states
  (3) Hindered rotations indicated by low frequency modes) are not
      treated as such but are treated as vibrations and this may
      case some error
  (4) All equations used are the standard statistical mechanics
      equations for an ideal gas
  (5) All vibrations are strinctly harmonic

------------
INNER ENERGY
------------

The inner energy is: U= E(el) + E(ZPE) + E(vib) + E(rot) + E(trans)
    E(el)   - is the total energy from the electronic structure calculation
              = E(kin-el) + E(nuc-el) + E(el-el) + E(nuc-nuc)
    E(ZPE)  - the the zero temperature vibrational energy from the frequency calculation
    E(vib)  - the the finite temperature correction to E(ZPE) due to population
              of excietd vibrational states
    E(rot)  - is the rotational thermal energy
    E(trans)- is the translational thermal energy

Summary of contributions to the inner energy U:
Electronic energy                ...   -287.92273705 Eh
Zero point energy                ...      0.14642018 Eh      91.88 kcal/mol
Thermal vibrational correction   ...      0.00451371 Eh       2.83 kcal/mol
Thermal rotational correction    ...      0.00141627 Eh       0.89 kcal/mol
Thermal translational correction ...      0.00141627 Eh       0.89 kcal/mol
-----------------------------------------------------------------------
Total thermal energy                   -287.76897062 Eh

Summary of corrections to the electronic energy:
(perhaps to be used in another calculation)
Total thermal correction                  0.00734625 Eh       4.61 kcal/mol
Non-thermal (ZPE) correction              0.14642018 Eh      91.88 kcal/mol
-----------------------------------------------------------------------
Total correction                          0.15376643 Eh      96.49 kcal/mol

--------
ENTHALPY
--------

The enthalpy is H = U + kB*T
                kB is Boltzmann's constant
Total free energy                 ...   -287.76897062 Eh
Thermal Enthalpy correction       ...      0.00094421 Eh       0.59 kcal/mol
-----------------------------------------------------------------------
Total Enthalpy                    ...   -287.76802641 Eh

-------
ENTROPY
-------

The entropy contributions are T*S = T*(S(el)+S(vib)+S(rot)+S(trans)
     S(el)   - electronic entropy
     S(vib)  - vibrational entropy
     S(rot)  - rotational entropy
     S(trans)- translational entropy
The entropies will be listed as mutliplied by the temperature to get
units of energy

Electronic entropy                ...      0.00000000 Eh      0.00 kcal/mol
Vibrational entropy               ...      0.00779080 Eh      4.89 kcal/mol
Rotational entropy                ...      0.01170926 Eh      7.35 kcal/mol
Translational entropy             ...      0.01869229 Eh     11.73 kcal/mol
-----------------------------------------------------------------------
Final entropy term                ...      0.03819235 Eh     23.97 kcal/mol

CAUTION: The rotational entropy is not quite correctly treated here
         because it includes a symmetry number that is not yet correctly
         implemented in ORCA!
For a nonlinear molecule the correct rotational entropy is:
    S(rot) = R*(ln(qrot/sn)+1.5)
    R    = 8.31441 J/mol/K = 1.987191683e-3 kcal/mol/K
    qrot = 162773.8805158
    sn is the rotational symmetry number. We have assumed 3 here
       if it is different for your molecule then you should correct
       the printed rotational entropy by manually evaluating the equation
       as given above

For convenience we print out the resulting values for sn=1 - 12:
 sn= 1  qrot/sn=  162773.8805 T*S(rot)=     8.00 kcal/mol T*S(tot)=    24.62 kcal/mol
 sn= 2  qrot/sn=   81386.9403 T*S(rot)=     7.59 kcal/mol T*S(tot)=    24.21 kcal/mol
 sn= 3  qrot/sn=   54257.9602 T*S(rot)=     7.35 kcal/mol T*S(tot)=    23.97 kcal/mol
 sn= 4  qrot/sn=   40693.4701 T*S(rot)=     7.18 kcal/mol T*S(tot)=    23.80 kcal/mol
 sn= 5  qrot/sn=   32554.7761 T*S(rot)=     7.05 kcal/mol T*S(tot)=    23.66 kcal/mol
 sn= 6  qrot/sn=   27128.9801 T*S(rot)=     6.94 kcal/mol T*S(tot)=    23.56 kcal/mol
 sn= 7  qrot/sn=   23253.4115 T*S(rot)=     6.85 kcal/mol T*S(tot)=    23.46 kcal/mol
 sn= 8  qrot/sn=   20346.7351 T*S(rot)=     6.77 kcal/mol T*S(tot)=    23.38 kcal/mol
 sn= 9  qrot/sn=   18085.9867 T*S(rot)=     6.70 kcal/mol T*S(tot)=    23.32 kcal/mol
 sn=10  qrot/sn=   16277.3881 T*S(rot)=     6.63 kcal/mol T*S(tot)=    23.25 kcal/mol
 sn=11  qrot/sn=   14797.6255 T*S(rot)=     6.58 kcal/mol T*S(tot)=    23.20 kcal/mol
 sn=12  qrot/sn=   13564.4900 T*S(rot)=     6.53 kcal/mol T*S(tot)=    23.14 kcal/mol

-------------------
GIBBS FREE ENTHALPY
-------------------

The Gibbs free enthalpy is G = H - T*S

Total enthalpy                    ...   -287.76802641 Eh
Total entropy correction          ...     -0.03819235 Eh    -23.97 kcal/mol
-----------------------------------------------------------------------
Final Gibbs free enthalpy         ...   -287.80621875 Eh

For completeness - the Gibbs free enthalpy minus the electronic energy
G-E(el)                           ...      0.11651830 Eh     73.12 kcal/mol

                             ****ORCA TERMINATED NORMALLY****
TOTAL RUN TIME: 0 days 0 hours 20 minutes 54 seconds 935 msec
