                         Program Version 3.0.3 - RELEASE   -
|  1> ! NORI PBE0 def2-TZVP UseSym TightOPT Freq TightSCF Grid3 FinalGrid5 XYZFile
|  2> % pal
|  3>     nprocs 8
|  4> end
|  5> %method
|  6>     SymThresh 5.0e-2
|  7> end
|  8> % geom
|  9>     MaxIter 10
| 10> end
| 11> % maxcore 2000
| 12> % output
| 13>     printlevel mini
| 14>     print[ P_Basis ] 0
| 15>     print[ P_SCFInfo ] 1
| 16>     print[ P_SCFIterInfo ] 1
| 17>     print[ P_OrbEn ] 0
| 18>     print[ P_Cartesian ] 0
| 19> end
| 20> % elprop
| 21>     Dipole false
| 22> end
| 23> *xyz 1 1
| 24>  C        2.4251656934     1.6309236741     1.8298055631
| 25>  O        3.5146598076     1.8211071245     0.9372821660
| 26>  C        3.1678323776     2.0012385395    -0.4216471359
| 27>  C        2.4129338073     3.2802587637    -0.7101361410
| 28>  C        4.5122216263     2.0012181876    -1.1344730814
| 29>  N        5.3201992928     0.8730124179    -0.5695592949
| 30>  H        2.8527060881     1.3622332011     2.7935195727
| 31>  H        1.7723526849     0.8225885650     1.4824760177
| 32>  H        1.8439134494     2.5483233603     1.9425773387
| 33>  H        2.5725382773     1.1364661845    -0.7591898767
| 34>  H        2.9512132365     4.1425888637    -0.3111889486
| 35>  H        1.4178782430     3.2551264428    -0.2676830736
| 36>  H        2.2847305903     3.4123440507    -1.7868963883
| 37>  H        4.4215322981     1.8797533105    -2.2122428176
| 38>  H        5.0583023762     2.9188172595    -0.9118559759
| 39>  H        5.0571245136    -0.0285571033    -0.9686596068
| 40>  H        5.0732190272     0.8670100966     0.4373550837
| 41>  H        6.3246066103     0.9982470611    -0.6918334012
| 42> *
| 43>
| 44>                          ****END OF INPUT****
 Total Charge           Charge          ....    1
 Multiplicity           Mult            ....    1
 Number of Electrons    NEL             ....   50
FINAL SINGLE POINT ENERGY      -289.150421509708
FINAL SINGLE POINT ENERGY      -289.150422744723

CARTESIAN COORDINATES (ANGSTROEM)
---------------------------------
  C     -0.802160   -0.639848    1.921287
  O      0.000295    0.000622    0.938421
  C     -0.405771   -0.194297   -0.402008
  C     -1.736275    0.435872   -0.749503
  C      0.715567    0.443092   -1.209565
  N      2.012667    0.000567   -0.604028
  H     -0.286149   -0.522973    2.872156
  H     -0.916597   -1.705538    1.696491
  H     -1.786146   -0.172292    1.990956
  H     -0.442720   -1.275913   -0.612860
  H     -1.744827    1.492796   -0.474828
  H     -2.553641   -0.066021   -0.232117
  H     -1.930431    0.349020   -1.820999
  H      0.691830    0.165823   -2.261814
  H      0.679903    1.528700   -1.113840
  H      2.273686   -0.941724   -0.896080
  H      1.821259   -0.016495    0.414569
  H      2.787858    0.628443   -0.812752

FINAL SINGLE POINT ENERGY      -289.150423057520
                    ***********************HURRAY********************
 Multiplicity           Mult            ....    1
 Number of Electrons    NEL             ....   50
 Basis Dimension        Dim             ....  258
FINAL SINGLE POINT ENERGY      -289.150423225172

VIBRATIONAL FREQUENCIES
-----------------------

   0:         0.00 cm**-1
   1:         0.00 cm**-1
   2:         0.00 cm**-1
   3:         0.00 cm**-1
   4:         0.00 cm**-1
   5:         0.00 cm**-1
   6:        99.08 cm**-1
   7:       141.86 cm**-1
   8:       180.57 cm**-1
   9:       228.23 cm**-1
  10:       236.93 cm**-1
  11:       279.99 cm**-1
  12:       289.28 cm**-1
  13:       420.43 cm**-1
  14:       478.16 cm**-1
  15:       518.57 cm**-1
  16:       795.98 cm**-1
  17:       870.30 cm**-1
  18:       907.41 cm**-1
  19:       978.04 cm**-1
  20:      1004.14 cm**-1
  21:      1040.68 cm**-1
  22:      1115.90 cm**-1
  23:      1132.32 cm**-1
  24:      1160.46 cm**-1
  25:      1180.84 cm**-1
  26:      1210.95 cm**-1
  27:      1238.20 cm**-1
  28:      1338.83 cm**-1
  29:      1351.87 cm**-1
  30:      1375.53 cm**-1
  31:      1412.90 cm**-1
  32:      1415.34 cm**-1
  33:      1454.30 cm**-1
  34:      1474.11 cm**-1
  35:      1477.00 cm**-1
  36:      1482.75 cm**-1
  37:      1489.72 cm**-1
  38:      1501.86 cm**-1
  39:      1506.08 cm**-1
  40:      1637.63 cm**-1
  41:      1669.90 cm**-1
  42:      2981.35 cm**-1
  43:      3039.87 cm**-1
  44:      3064.14 cm**-1
  45:      3111.21 cm**-1
  46:      3123.00 cm**-1
  47:      3141.71 cm**-1
  48:      3158.62 cm**-1
  49:      3172.33 cm**-1
  50:      3180.73 cm**-1
  51:      3251.41 cm**-1
  52:      3480.10 cm**-1
  53:      3538.19 cm**-1

IR SPECTRUM
-----------

 Mode    freq (cm**-1)   T**2         TX         TY         TZ
-------------------------------------------------------------------
   6:        99.08    6.214484  (  0.277853  -2.347605   0.791222)
   7:       141.86    9.740089  (  1.353437  -1.727112  -2.219320)
   8:       180.57    2.354241  (  0.067079  -1.445872   0.509112)
   9:       228.23   24.412690  (  3.720986   0.276240  -3.238926)
  10:       236.93    1.679039  (  0.016677  -1.223901   0.425237)
  11:       279.99    7.556956  (  1.496416  -0.605751  -2.225031)
  12:       289.28    2.235931  (  1.114292   0.933011  -0.351817)
  13:       420.43   38.294264  ( -6.165062  -0.173168   0.506248)
  14:       478.16    1.188763  (  0.024149  -0.731027   0.808567)
  15:       518.57    2.663222  (  0.976305   1.124429  -0.667615)
  16:       795.98   22.651047  ( -4.615103  -0.741199   0.895821)
  17:       870.30    5.205918  (  0.603017  -1.090370  -1.911382)
  18:       907.41   11.125807  ( -0.552344   0.701014   3.213923)
  19:       978.04   16.502688  (  3.813797  -0.799479  -1.148250)
  20:      1004.14   19.295010  (  2.938209   3.236792   0.430253)
  21:      1040.68   15.349296  (  0.992903  -0.197969  -3.784739)
  22:      1115.90  145.067116  ( -6.764520  -4.546676   8.867701)
  23:      1132.32    5.134772  ( -1.792698   0.806613  -1.127113)
  24:      1160.46   39.475873  (  1.919909   1.678700  -5.742107)
  25:      1180.84   17.472997  (  1.624774  -0.535140  -3.814018)
  26:      1210.95   53.152257  ( -0.108262  -0.314208   7.282981)
  27:      1238.20    8.405964  (  1.768021   0.415989   2.259872)
  28:      1338.83   14.099104  (  0.650762  -1.398005  -3.423623)
  29:      1351.87    4.648274  ( -0.843568  -1.551336   1.236941)
  30:      1375.53   17.562631  ( -1.384712   1.547945  -3.639927)
  31:      1412.90   21.109534  (  3.416290  -1.812043   2.480926)
  32:      1415.34    7.174934  ( -2.560497  -0.720638   0.315392)
  33:      1454.30  137.619260  (-11.220372   1.585969  -3.034338)
  34:      1474.11   11.120875  ( -2.908832   1.299893   0.984810)
  35:      1477.00    8.205189  ( -2.574224  -1.249322  -0.133241)
  36:      1482.75   21.379971  (  2.698798  -3.754201   0.049345)
  37:      1489.72   20.925242  ( -3.779934  -2.362861   1.026757)
  38:      1501.86   23.060192  ( -4.628449  -0.214363  -1.261624)
  39:      1506.08   17.969520  ( -1.673733  -0.897674  -3.789765)
  40:      1637.63   32.410392  ( -1.406391   4.837789   2.651086)
  41:      1669.90   35.043677  ( -3.662464  -3.595461   2.950034)
  42:      2981.35   26.221230  (  0.895862  -4.552525  -2.166374)
  43:      3039.87   25.695981  (  2.507751   3.505613  -2.667929)
  44:      3064.14    0.934808  ( -0.490815   0.702965  -0.446932)
  45:      3111.21    0.928520  (  0.152951   0.709958  -0.633313)
  46:      3123.00   15.906808  (  2.158295  -3.012939  -1.473353)
  47:      3141.71    4.561391  ( -0.159896   1.274432   1.706355)
  48:      3158.62    3.332420  (  0.858228   1.225531  -1.045915)
  49:      3172.33    4.407076  (  1.421432   0.199276   1.531958)
  50:      3180.73    0.986554  ( -0.316139   0.176289   0.924950)
  51:      3251.41  188.437446  (  6.586980   0.927453 -12.007871)
  52:      3480.10  111.238875  (  8.743981  -2.554349  -5.315728)
  53:      3538.19  102.326846  (  4.673852   8.965198  -0.327388)

--------------------------
THERMOCHEMISTRY AT 298.15K
--------------------------

Temperature         ... 298.15 K
Pressure            ... 1.00 atm
Total Mass          ... 90.15 AMU

Throughout the following assumptions are being made:
  (1) The electronic state is orbitally nondegenerate
  (2) There are no thermally accessible electronically excited states
  (3) Hindered rotations indicated by low frequency modes) are not
      treated as such but are treated as vibrations and this may
      case some error
  (4) All equations used are the standard statistical mechanics
      equations for an ideal gas
  (5) All vibrations are strinctly harmonic

------------
INNER ENERGY
------------

The inner energy is: U= E(el) + E(ZPE) + E(vib) + E(rot) + E(trans)
    E(el)   - is the total energy from the electronic structure calculation
              = E(kin-el) + E(nuc-el) + E(el-el) + E(nuc-nuc)
    E(ZPE)  - the the zero temperature vibrational energy from the frequency calculation
    E(vib)  - the the finite temperature correction to E(ZPE) due to population
              of excietd vibrational states
    E(rot)  - is the rotational thermal energy
    E(trans)- is the translational thermal energy

Summary of contributions to the inner energy U:
Electronic energy                ...   -289.15042323 Eh
Zero point energy                ...      0.16935619 Eh     106.27 kcal/mol
Thermal vibrational correction   ...      0.00512670 Eh       3.22 kcal/mol
Thermal rotational correction    ...      0.00141627 Eh       0.89 kcal/mol
Thermal translational correction ...      0.00141627 Eh       0.89 kcal/mol
-----------------------------------------------------------------------
Total thermal energy                   -288.97310778 Eh

Summary of corrections to the electronic energy:
(perhaps to be used in another calculation)
Total thermal correction                  0.00795925 Eh       4.99 kcal/mol
Non-thermal (ZPE) correction              0.16935619 Eh     106.27 kcal/mol
-----------------------------------------------------------------------
Total correction                          0.17731544 Eh     111.27 kcal/mol

--------
ENTHALPY
--------

The enthalpy is H = U + kB*T
                kB is Boltzmann's constant
Total free energy                 ...   -288.97310778 Eh
Thermal Enthalpy correction       ...      0.00094421 Eh       0.59 kcal/mol
-----------------------------------------------------------------------
Total Enthalpy                    ...   -288.97216358 Eh

-------
ENTROPY
-------

The entropy contributions are T*S = T*(S(el)+S(vib)+S(rot)+S(trans)
     S(el)   - electronic entropy
     S(vib)  - vibrational entropy
     S(rot)  - rotational entropy
     S(trans)- translational entropy
The entropies will be listed as mutliplied by the temperature to get
units of energy

Electronic entropy                ...      0.00000000 Eh      0.00 kcal/mol
Vibrational entropy               ...      0.00892363 Eh      5.60 kcal/mol
Rotational entropy                ...      0.01179784 Eh      7.40 kcal/mol
Translational entropy             ...      0.01872432 Eh     11.75 kcal/mol
-----------------------------------------------------------------------
Final entropy term                ...      0.03944579 Eh     24.75 kcal/mol

CAUTION: The rotational entropy is not quite correctly treated here
         because it includes a symmetry number that is not yet correctly
         implemented in ORCA!
For a nonlinear molecule the correct rotational entropy is:
    S(rot) = R*(ln(qrot/sn)+1.5)
    R    = 8.31441 J/mol/K = 1.987191683e-3 kcal/mol/K
    qrot = 178783.7200912
    sn is the rotational symmetry number. We have assumed 3 here
       if it is different for your molecule then you should correct
       the printed rotational entropy by manually evaluating the equation
       as given above

For convenience we print out the resulting values for sn=1 - 12:
 sn= 1  qrot/sn=  178783.7201 T*S(rot)=     8.05 kcal/mol T*S(tot)=    25.40 kcal/mol
 sn= 2  qrot/sn=   89391.8600 T*S(rot)=     7.64 kcal/mol T*S(tot)=    24.99 kcal/mol
 sn= 3  qrot/sn=   59594.5734 T*S(rot)=     7.40 kcal/mol T*S(tot)=    24.75 kcal/mol
 sn= 4  qrot/sn=   44695.9300 T*S(rot)=     7.23 kcal/mol T*S(tot)=    24.58 kcal/mol
 sn= 5  qrot/sn=   35756.7440 T*S(rot)=     7.10 kcal/mol T*S(tot)=    24.45 kcal/mol
 sn= 6  qrot/sn=   29797.2867 T*S(rot)=     6.99 kcal/mol T*S(tot)=    24.34 kcal/mol
 sn= 7  qrot/sn=   25540.5314 T*S(rot)=     6.90 kcal/mol T*S(tot)=    24.25 kcal/mol
 sn= 8  qrot/sn=   22347.9650 T*S(rot)=     6.82 kcal/mol T*S(tot)=    24.17 kcal/mol
 sn= 9  qrot/sn=   19864.8578 T*S(rot)=     6.75 kcal/mol T*S(tot)=    24.10 kcal/mol
 sn=10  qrot/sn=   17878.3720 T*S(rot)=     6.69 kcal/mol T*S(tot)=    24.04 kcal/mol
 sn=11  qrot/sn=   16253.0655 T*S(rot)=     6.63 kcal/mol T*S(tot)=    23.98 kcal/mol
 sn=12  qrot/sn=   14898.6433 T*S(rot)=     6.58 kcal/mol T*S(tot)=    23.93 kcal/mol

-------------------
GIBBS FREE ENTHALPY
-------------------

The Gibbs free enthalpy is G = H - T*S

Total enthalpy                    ...   -288.97216358 Eh
Total entropy correction          ...     -0.03944579 Eh    -24.75 kcal/mol
-----------------------------------------------------------------------
Final Gibbs free enthalpy         ...   -289.01160936 Eh

For completeness - the Gibbs free enthalpy minus the electronic energy
G-E(el)                           ...      0.13881386 Eh     87.11 kcal/mol

                             ****ORCA TERMINATED NORMALLY****
TOTAL RUN TIME: 0 days 0 hours 28 minutes 20 seconds 823 msec
