                         Program Version 3.0.3 - RELEASE   -
|  1> ! NORI PBE0 def2-TZVP UseSym TightOPT Freq TightSCF Grid3 FinalGrid5 XYZFile
|  2> % pal
|  3>     nprocs 8
|  4> end
|  5> %method
|  6>     SymThresh 5.0e-2
|  7> end
|  8> % geom
|  9>     MaxIter 10
| 10> end
| 11> % maxcore 2000
| 12> % output
| 13>     printlevel mini
| 14>     print[ P_Basis ] 0
| 15>     print[ P_SCFInfo ] 1
| 16>     print[ P_SCFIterInfo ] 1
| 17>     print[ P_OrbEn ] 0
| 18>     print[ P_Cartesian ] 0
| 19> end
| 20> % elprop
| 21>     Dipole false
| 22> end
| 23> *xyz 1 1
| 24>  C        1.5247908146     1.0738490967     2.4345667786
| 25>  O        2.8917327652     0.6953915159     2.3532763194
| 26>  C        3.1759897101    -0.1971030373     1.3123949691
| 27>  C        4.6822210810    -0.4164063488     1.3454155402
| 28>  C        5.4864399842     0.7811613898     0.8925621689
| 29>  N        5.0062666829    -0.6986422603     2.7964733496
| 30>  H        1.4307094670     1.7465399763     3.2845295780
| 31>  H        0.8867204664     0.1976577024     2.5876636985
| 32>  H        1.2166396756     1.5943710486     1.5229988836
| 33>  H        2.6326654799    -1.1448756834     1.4463427968
| 34>  H        2.8972288650     0.2099997616     0.3331455977
| 35>  H        4.9512951498    -1.3089345014     0.7781798632
| 36>  H        5.2192445957     1.6762905089     1.4572251124
| 37>  H        5.2767894779     0.9729737334    -0.1601727152
| 38>  H        6.5610919855     0.6036201971     0.9816993313
| 39>  H        4.4553529801    -0.0164251772     3.3399860462
| 40>  H        5.9997375392    -0.5877251572     2.9984218372
| 41>  H        4.7174332799    -1.6347927650     3.0830608443
| 42> *
| 43>
| 44>                          ****END OF INPUT****
 Total Charge           Charge          ....    1
 Multiplicity           Mult            ....    1
 Number of Electrons    NEL             ....   50
FINAL SINGLE POINT ENERGY      -289.150515337970

CARTESIAN COORDINATES (ANGSTROEM)
---------------------------------
  C     -0.441845   -0.391087    2.414560
  O      0.000450   -0.000435    1.122014
  C     -0.569544   -0.737555    0.076682
  C     -0.034794   -0.125718   -1.210784
  C     -0.598177    1.243126   -1.519143
  N      1.458036    0.000467   -0.995828
  H      0.081587    0.235983    3.133033
  H     -0.206016   -1.442962    2.605245
  H     -1.519919   -0.235367    2.513595
  H     -0.300140   -1.801943    0.153049
  H     -1.664059   -0.670846    0.074457
  H     -0.180494   -0.809633   -2.048484
  H     -0.455390    1.929785   -0.682552
  H     -1.669535    1.154001   -1.701610
  H     -0.150892    1.671008   -2.419547
  H      1.569375    0.357066   -0.034099
  H      1.890349    0.642317   -1.660032
  H      1.935481   -0.899870   -1.054076

FINAL SINGLE POINT ENERGY      -289.150515975175
                    ***********************HURRAY********************
 Multiplicity           Mult            ....    1
 Number of Electrons    NEL             ....   50
 Basis Dimension        Dim             ....  258
FINAL SINGLE POINT ENERGY      -289.150516132859

VIBRATIONAL FREQUENCIES
-----------------------

   0:         0.00 cm**-1
   1:         0.00 cm**-1
   2:         0.00 cm**-1
   3:         0.00 cm**-1
   4:         0.00 cm**-1
   5:         0.00 cm**-1
   6:        86.98 cm**-1
   7:       125.20 cm**-1
   8:       198.92 cm**-1
   9:       213.90 cm**-1
  10:       227.71 cm**-1
  11:       264.43 cm**-1
  12:       339.12 cm**-1
  13:       380.12 cm**-1
  14:       411.78 cm**-1
  15:       606.45 cm**-1
  16:       807.00 cm**-1
  17:       917.68 cm**-1
  18:       958.18 cm**-1
  19:       962.85 cm**-1
  20:       975.92 cm**-1
  21:       996.49 cm**-1
  22:      1119.30 cm**-1
  23:      1139.64 cm**-1
  24:      1167.25 cm**-1
  25:      1183.41 cm**-1
  26:      1219.22 cm**-1
  27:      1237.32 cm**-1
  28:      1271.90 cm**-1
  29:      1376.57 cm**-1
  30:      1385.49 cm**-1
  31:      1405.79 cm**-1
  32:      1424.58 cm**-1
  33:      1463.58 cm**-1
  34:      1482.05 cm**-1
  35:      1482.51 cm**-1
  36:      1485.77 cm**-1
  37:      1491.77 cm**-1
  38:      1498.34 cm**-1
  39:      1518.39 cm**-1
  40:      1634.91 cm**-1
  41:      1665.61 cm**-1
  42:      2999.87 cm**-1
  43:      3037.02 cm**-1
  44:      3062.93 cm**-1
  45:      3065.49 cm**-1
  46:      3110.10 cm**-1
  47:      3118.43 cm**-1
  48:      3143.55 cm**-1
  49:      3158.26 cm**-1
  50:      3175.43 cm**-1
  51:      3322.75 cm**-1
  52:      3478.07 cm**-1
  53:      3532.74 cm**-1

IR SPECTRUM
-----------

 Mode    freq (cm**-1)   T**2         TX         TY         TZ
-------------------------------------------------------------------
   6:        86.98    4.924982  ( -0.904652   1.581350  -1.267249)
   7:       125.20    8.500644  (  1.749996  -1.566509  -1.727486)
   8:       198.92   17.279445  ( -1.629499   0.038842   3.823960)
   9:       213.90    5.369334  ( -1.699392   1.465177  -0.578496)
  10:       227.71    0.602529  ( -0.662506   0.105560   0.390477)
  11:       264.43    6.468520  ( -0.360306   1.335900   2.134027)
  12:       339.12    5.759533  (  0.669760   1.710347  -1.544561)
  13:       380.12   11.072159  ( -2.091063  -1.899875   1.757865)
  14:       411.78   11.902395  ( -3.068985   0.447448   1.511131)
  15:       606.45   12.733808  (  2.222152   0.991023  -2.610311)
  16:       807.00    2.576873  ( -1.151280   0.300475   1.077563)
  17:       917.68    2.291272  ( -0.340743  -1.162809   0.907216)
  18:       958.18   16.292862  (  3.420705   0.513967  -2.080259)
  19:       962.85   10.171095  ( -2.307692   2.156176   0.443347)
  20:       975.92   16.986439  (  2.420971   3.335278   0.035512)
  21:       996.49    6.841444  (  0.406825   0.567757   2.520633)
  22:      1119.30  102.626985  ( -2.537947  -2.878553   9.375486)
  23:      1139.64    7.241464  ( -2.178823  -0.845099   1.334168)
  24:      1167.25   99.107284  (  0.483246   0.962910  -9.896796)
  25:      1183.41   24.463376  ( -0.433231   1.397315   4.724743)
  26:      1219.22   17.462648  ( -1.556389  -1.751183  -3.460298)
  27:      1237.32   19.880385  ( -1.665391  -2.200476  -3.502109)
  28:      1271.90    9.997664  ( -1.211886   2.645576   1.236901)
  29:      1376.57   16.386823  ( -0.513608   1.064151   3.871771)
  30:      1385.49    1.074119  (  0.308678  -0.918500  -0.367689)
  31:      1405.79    1.559148  (  0.164656   1.060855   0.637669)
  32:      1424.58   36.751466  (  5.091696  -3.045437   1.245559)
  33:      1463.58  119.948482  ( 10.583448   2.642503  -0.977903)
  34:      1482.05    5.006837  ( -0.113224  -0.052344   2.234117)
  35:      1482.51   24.099782  ( -4.436877  -2.095853  -0.145960)
  36:      1485.77   31.606529  ( -5.263749   1.954796   0.279735)
  37:      1491.77   13.969541  (  1.730484  -0.508190  -3.273639)
  38:      1498.34   21.673003  ( -3.846249  -2.104784  -1.565010)
  39:      1518.39   18.603549  ( -3.603906  -2.176083   0.938122)
  40:      1634.91   33.473473  (  1.752788  -5.406651  -1.081358)
  41:      1665.61   43.809061  (  1.464167   2.450587  -5.971591)
  42:      2999.87   25.691974  (  0.010346   4.755451   1.754296)
  43:      3037.02   29.131021  ( -1.555188  -2.718262   4.395846)
  44:      3062.93    4.571397  ( -2.075426  -0.319563   0.402348)
  45:      3065.49   10.279298  (  2.368984  -1.660145   1.382436)
  46:      3110.10   16.795432  (  3.003255  -2.784009  -0.158696)
  47:      3118.43    1.597610  ( -0.074187  -1.172775  -0.465516)
  48:      3143.55    3.985581  (  0.636678   0.170679  -1.884434)
  49:      3158.26    0.872623  (  0.159549   0.840383   0.375398)
  50:      3175.43    4.201380  ( -1.093536  -1.180755  -1.269400)
  51:      3322.75  117.220118  ( -0.029444   1.391929  10.736936)
  52:      3478.07  104.875490  (  6.581408  -2.609441  -7.399417)
  53:      3532.74   84.142500  ( -0.418243  -8.288924   3.906573)

--------------------------
THERMOCHEMISTRY AT 298.15K
--------------------------

Temperature         ... 298.15 K
Pressure            ... 1.00 atm
Total Mass          ... 90.15 AMU

Throughout the following assumptions are being made:
  (1) The electronic state is orbitally nondegenerate
  (2) There are no thermally accessible electronically excited states
  (3) Hindered rotations indicated by low frequency modes) are not
      treated as such but are treated as vibrations and this may
      case some error
  (4) All equations used are the standard statistical mechanics
      equations for an ideal gas
  (5) All vibrations are strinctly harmonic

------------
INNER ENERGY
------------

The inner energy is: U= E(el) + E(ZPE) + E(vib) + E(rot) + E(trans)
    E(el)   - is the total energy from the electronic structure calculation
              = E(kin-el) + E(nuc-el) + E(el-el) + E(nuc-nuc)
    E(ZPE)  - the the zero temperature vibrational energy from the frequency calculation
    E(vib)  - the the finite temperature correction to E(ZPE) due to population
              of excietd vibrational states
    E(rot)  - is the rotational thermal energy
    E(trans)- is the translational thermal energy

Summary of contributions to the inner energy U:
Electronic energy                ...   -289.15051613 Eh
Zero point energy                ...      0.16933796 Eh     106.26 kcal/mol
Thermal vibrational correction   ...      0.00517742 Eh       3.25 kcal/mol
Thermal rotational correction    ...      0.00141627 Eh       0.89 kcal/mol
Thermal translational correction ...      0.00141627 Eh       0.89 kcal/mol
-----------------------------------------------------------------------
Total thermal energy                   -288.97316821 Eh

Summary of corrections to the electronic energy:
(perhaps to be used in another calculation)
Total thermal correction                  0.00800996 Eh       5.03 kcal/mol
Non-thermal (ZPE) correction              0.16933796 Eh     106.26 kcal/mol
-----------------------------------------------------------------------
Total correction                          0.17734793 Eh     111.29 kcal/mol

--------
ENTHALPY
--------

The enthalpy is H = U + kB*T
                kB is Boltzmann's constant
Total free energy                 ...   -288.97316821 Eh
Thermal Enthalpy correction       ...      0.00094421 Eh       0.59 kcal/mol
-----------------------------------------------------------------------
Total Enthalpy                    ...   -288.97222400 Eh

-------
ENTROPY
-------

The entropy contributions are T*S = T*(S(el)+S(vib)+S(rot)+S(trans)
     S(el)   - electronic entropy
     S(vib)  - vibrational entropy
     S(rot)  - rotational entropy
     S(trans)- translational entropy
The entropies will be listed as mutliplied by the temperature to get
units of energy

Electronic entropy                ...      0.00000000 Eh      0.00 kcal/mol
Vibrational entropy               ...      0.00915557 Eh      5.75 kcal/mol
Rotational entropy                ...      0.01177927 Eh      7.39 kcal/mol
Translational entropy             ...      0.01872432 Eh     11.75 kcal/mol
-----------------------------------------------------------------------
Final entropy term                ...      0.03965916 Eh     24.89 kcal/mol

CAUTION: The rotational entropy is not quite correctly treated here
         because it includes a symmetry number that is not yet correctly
         implemented in ORCA!
For a nonlinear molecule the correct rotational entropy is:
    S(rot) = R*(ln(qrot/sn)+1.5)
    R    = 8.31441 J/mol/K = 1.987191683e-3 kcal/mol/K
    qrot = 175302.0931828
    sn is the rotational symmetry number. We have assumed 3 here
       if it is different for your molecule then you should correct
       the printed rotational entropy by manually evaluating the equation
       as given above

For convenience we print out the resulting values for sn=1 - 12:
 sn= 1  qrot/sn=  175302.0932 T*S(rot)=     8.04 kcal/mol T*S(tot)=    25.54 kcal/mol
 sn= 2  qrot/sn=   87651.0466 T*S(rot)=     7.63 kcal/mol T*S(tot)=    25.13 kcal/mol
 sn= 3  qrot/sn=   58434.0311 T*S(rot)=     7.39 kcal/mol T*S(tot)=    24.89 kcal/mol
 sn= 4  qrot/sn=   43825.5233 T*S(rot)=     7.22 kcal/mol T*S(tot)=    24.72 kcal/mol
 sn= 5  qrot/sn=   35060.4186 T*S(rot)=     7.09 kcal/mol T*S(tot)=    24.58 kcal/mol
 sn= 6  qrot/sn=   29217.0155 T*S(rot)=     6.98 kcal/mol T*S(tot)=    24.48 kcal/mol
 sn= 7  qrot/sn=   25043.1562 T*S(rot)=     6.89 kcal/mol T*S(tot)=    24.38 kcal/mol
 sn= 8  qrot/sn=   21912.7616 T*S(rot)=     6.81 kcal/mol T*S(tot)=    24.31 kcal/mol
 sn= 9  qrot/sn=   19478.0104 T*S(rot)=     6.74 kcal/mol T*S(tot)=    24.24 kcal/mol
 sn=10  qrot/sn=   17530.2093 T*S(rot)=     6.68 kcal/mol T*S(tot)=    24.17 kcal/mol
 sn=11  qrot/sn=   15936.5539 T*S(rot)=     6.62 kcal/mol T*S(tot)=    24.12 kcal/mol
 sn=12  qrot/sn=   14608.5078 T*S(rot)=     6.57 kcal/mol T*S(tot)=    24.07 kcal/mol

-------------------
GIBBS FREE ENTHALPY
-------------------

The Gibbs free enthalpy is G = H - T*S

Total enthalpy                    ...   -288.97222400 Eh
Total entropy correction          ...     -0.03965916 Eh    -24.89 kcal/mol
-----------------------------------------------------------------------
Final Gibbs free enthalpy         ...   -289.01188316 Eh

For completeness - the Gibbs free enthalpy minus the electronic energy
G-E(el)                           ...      0.13863298 Eh     86.99 kcal/mol

                             ****ORCA TERMINATED NORMALLY****
TOTAL RUN TIME: 0 days 0 hours 27 minutes 3 seconds 460 msec
