                         Program Version 3.0.3 - RELEASE   -
|  1> ! NORI PBE0 def2-TZVP UseSym TightOPT Freq TightSCF Grid3 FinalGrid5 XYZFile
|  2> % pal
|  3>     nprocs 8
|  4> end
|  5> %method
|  6>     SymThresh 5.0e-2
|  7> end
|  8> % geom
|  9>     MaxIter 10
| 10> end
| 11> % maxcore 2000
| 12> % output
| 13>     printlevel mini
| 14>     print[ P_Basis ] 0
| 15>     print[ P_SCFInfo ] 1
| 16>     print[ P_SCFIterInfo ] 1
| 17>     print[ P_OrbEn ] 0
| 18>     print[ P_Cartesian ] 0
| 19> end
| 20> % elprop
| 21>     Dipole false
| 22> end
| 23> *xyz 1 1
| 24>  N        0.9654364777     0.1186747335    -0.0736396526
| 25>  C        2.4424385810     0.1049005896     0.0368468284
| 26>  C        3.2277246756    -0.8653742368    -0.7747171780
| 27>  C        3.2360934320     0.5945137995    -1.1211169817
| 28>  C        4.3993758337     1.4938973443    -0.8275502453
| 29>  O        3.8511077503     2.7351281785    -0.4558621165
| 30>  H        0.5969571294     1.0493503829     0.1431252359
| 31>  H        0.5294980618    -0.5541722807     0.5624506168
| 32>  H        0.6657285986    -0.1157243129    -1.0224937365
| 33>  H        2.7525879647     0.3598973473     1.0419011950
| 34>  H        4.0950418159    -1.3023652682    -0.2960630739
| 35>  H        2.7056138033    -1.5382752006    -1.4458173488
| 36>  H        2.6703932484     0.8747318834    -2.0066563880
| 37>  H        5.0323374749     1.5721077075    -1.7189200209
| 38>  H        5.0095067856     1.0603193654    -0.0218989704
| 39>  H        4.5490783672     3.3933499674    -0.3953581637
| 40> *
| 41>
| 42>                          ****END OF INPUT****
 Total Charge           Charge          ....    1
 Multiplicity           Mult            ....    1
 Number of Electrons    NEL             ....   48
FINAL SINGLE POINT ENERGY      -287.917238277531

CARTESIAN COORDINATES (ANGSTROEM)
---------------------------------
  N      1.681961   -0.000317   -1.371825
  C      0.406128    0.483678   -0.795174
  C     -0.882217    0.043472   -1.397666
  C     -0.446461   -0.491342   -0.065114
  C     -1.053072   -0.041523    1.230385
  O      0.000023    0.001383    2.162440
  H      2.415821   -0.017645   -0.657680
  H      2.000233    0.591773   -2.143616
  H      1.584296   -0.951702   -1.733403
  H      0.518303    1.488428   -0.408757
  H     -1.671426    0.783721   -1.440763
  H     -0.866015   -0.636646   -2.241940
  H     -0.099038   -1.521823   -0.058950
  H     -1.839111   -0.745190    1.527180
  H     -1.520657    0.944678    1.098559
  H     -0.353296    0.142178    3.045275

FINAL SINGLE POINT ENERGY      -287.917239084405
                    ***********************HURRAY********************
 Multiplicity           Mult            ....    1
 Number of Electrons    NEL             ....   48
 Basis Dimension        Dim             ....  246
FINAL SINGLE POINT ENERGY      -287.917239815775

VIBRATIONAL FREQUENCIES
-----------------------

   0:         0.00 cm**-1
   1:         0.00 cm**-1
   2:         0.00 cm**-1
   3:         0.00 cm**-1
   4:         0.00 cm**-1
   5:         0.00 cm**-1
   6:        93.34 cm**-1
   7:       150.12 cm**-1
   8:       201.71 cm**-1
   9:       265.08 cm**-1
  10:       300.18 cm**-1
  11:       378.42 cm**-1
  12:       407.04 cm**-1
  13:       498.37 cm**-1
  14:       805.23 cm**-1
  15:       808.56 cm**-1
  16:       898.45 cm**-1
  17:       905.13 cm**-1
  18:       975.22 cm**-1
  19:      1000.88 cm**-1
  20:      1053.62 cm**-1
  21:      1096.27 cm**-1
  22:      1105.71 cm**-1
  23:      1114.23 cm**-1
  24:      1171.09 cm**-1
  25:      1186.28 cm**-1
  26:      1191.17 cm**-1
  27:      1238.28 cm**-1
  28:      1263.97 cm**-1
  29:      1287.19 cm**-1
  30:      1365.19 cm**-1
  31:      1432.36 cm**-1
  32:      1464.93 cm**-1
  33:      1503.86 cm**-1
  34:      1515.51 cm**-1
  35:      1523.30 cm**-1
  36:      1652.64 cm**-1
  37:      1659.33 cm**-1
  38:      3009.34 cm**-1
  39:      3066.50 cm**-1
  40:      3151.28 cm**-1
  41:      3157.09 cm**-1
  42:      3215.00 cm**-1
  43:      3244.25 cm**-1
  44:      3406.67 cm**-1
  45:      3482.07 cm**-1
  46:      3496.07 cm**-1
  47:      3864.43 cm**-1

IR SPECTRUM
-----------

 Mode    freq (cm**-1)   T**2         TX         TY         TZ
-------------------------------------------------------------------
   6:        93.34   11.309122  ( -0.135964   1.695781  -2.900856)
   7:       150.12   15.013917  ( -0.641558  -1.530248  -3.501523)
   8:       201.71    1.941505  (  0.046401   1.171070  -0.753623)
   9:       265.08   45.788035  (  1.125071   6.535684  -1.344279)
  10:       300.18   88.262746  (  0.243882   9.309801  -1.237288)
  11:       378.42    6.907971  ( -2.087520  -0.593656   1.482499)
  12:       407.04    4.980739  ( -0.642250  -1.678256   1.323522)
  13:       498.37    8.578355  (  2.005318  -0.279229   2.116385)
  14:       805.23    6.117033  ( -1.089950  -1.650204  -1.485217)
  15:       808.56   10.176651  ( -1.449321  -2.533100   1.288225)
  16:       898.45    8.759628  ( -1.820548  -1.525605  -1.765719)
  17:       905.13   17.422405  (  2.401991   0.227663   3.406026)
  18:       975.22    8.163501  ( -2.066685  -1.491805  -1.291059)
  19:      1000.88   26.623450  ( -0.193211  -3.006806   4.188703)
  20:      1053.62    1.973431  ( -0.194178   1.049123  -0.913820)
  21:      1096.27   16.066959  (  3.434763   1.427005   1.494329)
  22:      1105.71    5.824320  (  0.318125  -0.756093   2.269678)
  23:      1114.23   61.827492  ( -4.571295   0.187407  -6.394969)
  24:      1171.09   15.114185  ( -0.406302   1.676392  -3.484080)
  25:      1186.28    2.752046  ( -1.459686   0.701561  -0.359409)
  26:      1191.17   23.724254  ( -2.501657  -1.455885  -3.917444)
  27:      1238.28   34.653397  ( -4.877181   0.040904  -3.296184)
  28:      1263.97    7.559863  (  2.308571   0.033481   1.493065)
  29:      1287.19   14.311126  ( -3.113967   0.989112  -1.906828)
  30:      1365.19   10.218624  (  3.143441   0.318080   0.486031)
  31:      1432.36    1.403689  (  0.608253  -0.868782   0.528143)
  32:      1464.93   12.229313  ( -0.145769   1.155233  -3.297499)
  33:      1503.86   81.899292  ( -8.414388   1.734684   2.843984)
  34:      1515.51   44.527097  ( -4.850337   3.329309   3.149132)
  35:      1523.30   24.182303  ( -3.021693   2.907710   2.568443)
  36:      1652.64   32.908759  ( -1.693977   1.128401  -5.363386)
  37:      1659.33   48.223671  (  2.369679   6.403503   1.266273)
  38:      3009.34   32.344735  ( -4.520313   2.915678  -1.846705)
  39:      3066.50   17.509383  ( -2.421671  -3.272459   0.967421)
  40:      3151.28    2.010576  (  0.861496  -1.011518  -0.495211)
  41:      3157.09    3.477363  (  1.580884  -0.628816  -0.763387)
  42:      3215.00    1.257975  ( -0.196517  -1.010209  -0.445907)
  43:      3244.25    0.584220  ( -0.265996   0.715575   0.037669)
  44:      3406.67   41.239018  (  6.182348  -0.285301  -1.713533)
  45:      3482.07  100.242869  ( -2.926079   2.715945  -9.181752)
  46:      3496.07   86.252873  ( -3.054869  -8.625147  -1.589805)
  47:      3864.43   85.139994  ( -1.005755   1.034142   9.113671)

--------------------------
THERMOCHEMISTRY AT 298.15K
--------------------------

Temperature         ... 298.15 K
Pressure            ... 1.00 atm
Total Mass          ... 88.13 AMU

Throughout the following assumptions are being made:
  (1) The electronic state is orbitally nondegenerate
  (2) There are no thermally accessible electronically excited states
  (3) Hindered rotations indicated by low frequency modes) are not
      treated as such but are treated as vibrations and this may
      case some error
  (4) All equations used are the standard statistical mechanics
      equations for an ideal gas
  (5) All vibrations are strinctly harmonic

------------
INNER ENERGY
------------

The inner energy is: U= E(el) + E(ZPE) + E(vib) + E(rot) + E(trans)
    E(el)   - is the total energy from the electronic structure calculation
              = E(kin-el) + E(nuc-el) + E(el-el) + E(nuc-nuc)
    E(ZPE)  - the the zero temperature vibrational energy from the frequency calculation
    E(vib)  - the the finite temperature correction to E(ZPE) due to population
              of excietd vibrational states
    E(rot)  - is the rotational thermal energy
    E(trans)- is the translational thermal energy

Summary of contributions to the inner energy U:
Electronic energy                ...   -287.91723982 Eh
Zero point energy                ...      0.14718195 Eh      92.36 kcal/mol
Thermal vibrational correction   ...      0.00426662 Eh       2.68 kcal/mol
Thermal rotational correction    ...      0.00141627 Eh       0.89 kcal/mol
Thermal translational correction ...      0.00141627 Eh       0.89 kcal/mol
-----------------------------------------------------------------------
Total thermal energy                   -287.76295870 Eh

Summary of corrections to the electronic energy:
(perhaps to be used in another calculation)
Total thermal correction                  0.00709916 Eh       4.45 kcal/mol
Non-thermal (ZPE) correction              0.14718195 Eh      92.36 kcal/mol
-----------------------------------------------------------------------
Total correction                          0.15428111 Eh      96.81 kcal/mol

--------
ENTHALPY
--------

The enthalpy is H = U + kB*T
                kB is Boltzmann's constant
Total free energy                 ...   -287.76295870 Eh
Thermal Enthalpy correction       ...      0.00094421 Eh       0.59 kcal/mol
-----------------------------------------------------------------------
Total Enthalpy                    ...   -287.76201449 Eh

-------
ENTROPY
-------

The entropy contributions are T*S = T*(S(el)+S(vib)+S(rot)+S(trans)
     S(el)   - electronic entropy
     S(vib)  - vibrational entropy
     S(rot)  - rotational entropy
     S(trans)- translational entropy
The entropies will be listed as mutliplied by the temperature to get
units of energy

Electronic entropy                ...      0.00000000 Eh      0.00 kcal/mol
Vibrational entropy               ...      0.00737710 Eh      4.63 kcal/mol
Rotational entropy                ...      0.01172766 Eh      7.36 kcal/mol
Translational entropy             ...      0.01869229 Eh     11.73 kcal/mol
-----------------------------------------------------------------------
Final entropy term                ...      0.03779705 Eh     23.72 kcal/mol

CAUTION: The rotational entropy is not quite correctly treated here
         because it includes a symmetry number that is not yet correctly
         implemented in ORCA!
For a nonlinear molecule the correct rotational entropy is:
    S(rot) = R*(ln(qrot/sn)+1.5)
    R    = 8.31441 J/mol/K = 1.987191683e-3 kcal/mol/K
    qrot = 165976.2312934
    sn is the rotational symmetry number. We have assumed 3 here
       if it is different for your molecule then you should correct
       the printed rotational entropy by manually evaluating the equation
       as given above

For convenience we print out the resulting values for sn=1 - 12:
 sn= 1  qrot/sn=  165976.2313 T*S(rot)=     8.01 kcal/mol T*S(tot)=    24.37 kcal/mol
 sn= 2  qrot/sn=   82988.1156 T*S(rot)=     7.60 kcal/mol T*S(tot)=    23.96 kcal/mol
 sn= 3  qrot/sn=   55325.4104 T*S(rot)=     7.36 kcal/mol T*S(tot)=    23.72 kcal/mol
 sn= 4  qrot/sn=   41494.0578 T*S(rot)=     7.19 kcal/mol T*S(tot)=    23.55 kcal/mol
 sn= 5  qrot/sn=   33195.2463 T*S(rot)=     7.06 kcal/mol T*S(tot)=    23.42 kcal/mol
 sn= 6  qrot/sn=   27662.7052 T*S(rot)=     6.95 kcal/mol T*S(tot)=    23.31 kcal/mol
 sn= 7  qrot/sn=   23710.8902 T*S(rot)=     6.86 kcal/mol T*S(tot)=    23.22 kcal/mol
 sn= 8  qrot/sn=   20747.0289 T*S(rot)=     6.78 kcal/mol T*S(tot)=    23.14 kcal/mol
 sn= 9  qrot/sn=   18441.8035 T*S(rot)=     6.71 kcal/mol T*S(tot)=    23.07 kcal/mol
 sn=10  qrot/sn=   16597.6231 T*S(rot)=     6.65 kcal/mol T*S(tot)=    23.00 kcal/mol
 sn=11  qrot/sn=   15088.7483 T*S(rot)=     6.59 kcal/mol T*S(tot)=    22.95 kcal/mol
 sn=12  qrot/sn=   13831.3526 T*S(rot)=     6.54 kcal/mol T*S(tot)=    22.90 kcal/mol

-------------------
GIBBS FREE ENTHALPY
-------------------

The Gibbs free enthalpy is G = H - T*S

Total enthalpy                    ...   -287.76201449 Eh
Total entropy correction          ...     -0.03779705 Eh    -23.72 kcal/mol
-----------------------------------------------------------------------
Final Gibbs free enthalpy         ...   -287.79981154 Eh

For completeness - the Gibbs free enthalpy minus the electronic energy
G-E(el)                           ...      0.11742828 Eh     73.69 kcal/mol

                             ****ORCA TERMINATED NORMALLY****
TOTAL RUN TIME: 0 days 0 hours 20 minutes 51 seconds 619 msec
