                         Program Version 3.0.3 - RELEASE   -
|  1> ! NORI PBE0 def2-TZVP UseSym TightOPT Freq TightSCF Grid3 FinalGrid5 XYZFile
|  2> % pal
|  3>     nprocs 8
|  4> end
|  5> %method
|  6>     SymThresh 5.0e-2
|  7> end
|  8> % geom
|  9>     MaxIter 10
| 10> end
| 11> % maxcore 2000
| 12> % output
| 13>     printlevel mini
| 14>     print[ P_Basis ] 0
| 15>     print[ P_SCFInfo ] 1
| 16>     print[ P_SCFIterInfo ] 1
| 17>     print[ P_OrbEn ] 0
| 18>     print[ P_Cartesian ] 0
| 19> end
| 20> % elprop
| 21>     Dipole false
| 22> end
| 23> *xyz 1 1
| 24>  N        1.1095328049     0.2155394392    -0.2509406802
| 25>  C        2.5840757200     0.4073236893    -0.0283884766
| 26>  C        3.0597777182     1.2790072885     1.1323069750
| 27>  C        4.2305467166     0.2802621175     1.2854643529
| 28>  C        3.3519798731    -0.7723527455     0.5844144893
| 29>  O        3.8457753327    -1.7642111717    -0.2360160332
| 30>  H        0.9459243652    -0.5309259949    -0.9326457040
| 31>  H        0.6560560178     1.0643255766    -0.5970563072
| 32>  H        0.6450747563    -0.0526354691     0.6195853568
| 33>  H        3.0062983376     0.7106882932    -0.9873979579
| 34>  H        2.3852497744     1.2274274751     1.9911984690
| 35>  H        3.2890340194     2.3203640890     0.9178406430
| 36>  H        5.0781866654     0.5720169636     0.6605384900
| 37>  H        4.5836364110     0.0531339928     2.2881104852
| 38>  H        2.7175834271    -1.2616781427     1.3355780649
| 39>  H        4.6873180605    -1.5004354008    -0.6206521671
| 40> *
| 41>
| 42>                          ****END OF INPUT****
 Total Charge           Charge          ....    1
 Multiplicity           Mult            ....    1
 Number of Electrons    NEL             ....   48
FINAL SINGLE POINT ENERGY      -287.927263543061
FINAL SINGLE POINT ENERGY      -287.927264581365
FINAL SINGLE POINT ENERGY      -287.927265324152

CARTESIAN COORDINATES (ANGSTROEM)
---------------------------------
  N      1.810762    0.000780   -0.878505
  C      0.423901    0.419239   -0.477283
  C     -0.759837    0.056867   -1.372026
  C     -1.571367   -0.133221   -0.068526
  C     -0.235940   -0.368683    0.662544
  O      0.000978   -0.001763    1.970466
  H      2.463565    0.143054   -0.102611
  H      2.157500    0.527504   -1.683493
  H      1.831820   -0.991779   -1.122866
  H      0.474489    1.486050   -0.254342
  H     -0.612949   -0.896299   -1.885835
  H     -1.095381    0.803338   -2.088184
  H     -2.036188    0.805142    0.243525
  H     -2.310446   -0.929997   -0.035305
  H      0.035917   -1.428377    0.571604
  H     -0.565192    0.733190    2.225904

FINAL SINGLE POINT ENERGY      -287.927265673915
                    ***********************HURRAY********************
 Multiplicity           Mult            ....    1
 Number of Electrons    NEL             ....   48
 Basis Dimension        Dim             ....  246
FINAL SINGLE POINT ENERGY      -287.927265953815

VIBRATIONAL FREQUENCIES
-----------------------

   0:         0.00 cm**-1
   1:         0.00 cm**-1
   2:         0.00 cm**-1
   3:         0.00 cm**-1
   4:         0.00 cm**-1
   5:         0.00 cm**-1
   6:       163.90 cm**-1
   7:       192.51 cm**-1
   8:       235.89 cm**-1
   9:       276.21 cm**-1
  10:       325.10 cm**-1
  11:       411.57 cm**-1
  12:       514.16 cm**-1
  13:       594.74 cm**-1
  14:       786.18 cm**-1
  15:       799.68 cm**-1
  16:       901.20 cm**-1
  17:       929.53 cm**-1
  18:       957.28 cm**-1
  19:       968.74 cm**-1
  20:      1035.08 cm**-1
  21:      1051.80 cm**-1
  22:      1118.72 cm**-1
  23:      1187.39 cm**-1
  24:      1196.11 cm**-1
  25:      1214.51 cm**-1
  26:      1244.32 cm**-1
  27:      1266.14 cm**-1
  28:      1270.74 cm**-1
  29:      1308.15 cm**-1
  30:      1349.52 cm**-1
  31:      1407.69 cm**-1
  32:      1429.28 cm**-1
  33:      1477.32 cm**-1
  34:      1492.83 cm**-1
  35:      1503.79 cm**-1
  36:      1654.60 cm**-1
  37:      1656.54 cm**-1
  38:      3039.21 cm**-1
  39:      3084.70 cm**-1
  40:      3091.18 cm**-1
  41:      3124.35 cm**-1
  42:      3168.29 cm**-1
  43:      3175.98 cm**-1
  44:      3410.04 cm**-1
  45:      3491.56 cm**-1
  46:      3501.02 cm**-1
  47:      3847.40 cm**-1

IR SPECTRUM
-----------

 Mode    freq (cm**-1)   T**2         TX         TY         TZ
-------------------------------------------------------------------
   6:       163.90   11.204821  (  0.568607   2.337075   2.328000)
   7:       192.51    0.616906  (  0.134566  -0.306438   0.710559)
   8:       235.89   25.291260  ( -2.519118  -2.028002   3.851300)
   9:       276.21   98.229354  ( -7.680572  -5.758026   2.466436)
  10:       325.10    3.700352  ( -1.552304  -0.360101   1.077511)
  11:       411.57    6.853245  ( -2.615228  -0.114329   0.027499)
  12:       514.16    0.640121  (  0.212938   0.464879   0.615359)
  13:       594.74    3.286718  (  1.065796  -1.219104   0.815220)
  14:       786.18    7.088853  ( -1.686255  -2.060220   0.029806)
  15:       799.68    0.762965  (  0.754253  -0.409834   0.161565)
  16:       901.20   14.209825  ( -1.563063  -0.360124  -3.411300)
  17:       929.53   16.834124  ( -2.709783  -1.652620   2.600009)
  18:       957.28   12.733724  ( -1.941714  -2.949191   0.515503)
  19:       968.74    9.853337  (  0.388724   0.371345   3.092626)
  20:      1035.08   19.389394  (  0.573744  -0.874365  -4.277347)
  21:      1051.80   19.672861  ( -2.617121   1.820880   3.083494)
  22:      1118.72   53.606942  (  2.627398  -0.236190   6.829929)
  23:      1187.39   39.806762  (  1.290254   0.969656   6.099326)
  24:      1196.11   32.912415  ( -0.083992   1.248333   5.598842)
  25:      1214.51   44.224502  ( -1.226090  -0.960480  -6.465190)
  26:      1244.32    6.325196  (  1.924278   0.375792   1.575160)
  27:      1266.14    2.606232  ( -0.494367  -0.347905   1.496929)
  28:      1270.74    1.453738  ( -1.057483  -0.405019  -0.414036)
  29:      1308.15   15.796562  ( -0.119417   0.138813   3.970269)
  30:      1349.52    5.488070  (  1.568433   1.262058  -1.198039)
  31:      1407.69   21.681556  ( -1.918614  -0.102727   4.241453)
  32:      1429.28   38.807725  (  3.067938   1.616792   5.175081)
  33:      1477.32    5.512392  (  0.900694   0.766699   2.028131)
  34:      1492.83  121.108231  (-10.582335   2.825963   1.065999)
  35:      1503.79   51.314569  (  4.474082  -2.771826  -4.859438)
  36:      1654.60   42.086117  ( -0.043784  -4.792988   4.371666)
  37:      1656.54   47.218509  ( -2.114432  -4.767410  -4.474314)
  38:      3039.21   14.037604  ( -1.533468   2.856100   1.878503)
  39:      3084.70    1.515550  (  0.544835  -0.557739  -0.952698)
  40:      3091.18   11.873349  ( -1.720878   1.962981   2.249141)
  41:      3124.35    2.974517  (  0.155334  -1.044252  -1.363791)
  42:      3168.29    1.904451  ( -0.916941   0.525446  -0.887456)
  43:      3175.98    1.928107  ( -0.327683  -1.349166   0.021957)
  44:      3410.04   46.585532  ( -6.776465   0.516782   0.630870)
  45:      3491.56   97.849002  (  2.679254   2.010064   9.307537)
  46:      3501.02   88.109173  (  2.004905   8.609413  -3.157142)
  47:      3847.40   72.786300  (  3.750287  -5.154095  -5.670710)

--------------------------
THERMOCHEMISTRY AT 298.15K
--------------------------

Temperature         ... 298.15 K
Pressure            ... 1.00 atm
Total Mass          ... 88.13 AMU

Throughout the following assumptions are being made:
  (1) The electronic state is orbitally nondegenerate
  (2) There are no thermally accessible electronically excited states
  (3) Hindered rotations indicated by low frequency modes) are not
      treated as such but are treated as vibrations and this may
      case some error
  (4) All equations used are the standard statistical mechanics
      equations for an ideal gas
  (5) All vibrations are strinctly harmonic

------------
INNER ENERGY
------------

The inner energy is: U= E(el) + E(ZPE) + E(vib) + E(rot) + E(trans)
    E(el)   - is the total energy from the electronic structure calculation
              = E(kin-el) + E(nuc-el) + E(el-el) + E(nuc-nuc)
    E(ZPE)  - the the zero temperature vibrational energy from the frequency calculation
    E(vib)  - the the finite temperature correction to E(ZPE) due to population
              of excietd vibrational states
    E(rot)  - is the rotational thermal energy
    E(trans)- is the translational thermal energy

Summary of contributions to the inner energy U:
Electronic energy                ...   -287.92726595 Eh
Zero point energy                ...      0.14775050 Eh      92.71 kcal/mol
Thermal vibrational correction   ...      0.00379188 Eh       2.38 kcal/mol
Thermal rotational correction    ...      0.00141627 Eh       0.89 kcal/mol
Thermal translational correction ...      0.00141627 Eh       0.89 kcal/mol
-----------------------------------------------------------------------
Total thermal energy                   -287.77289103 Eh

Summary of corrections to the electronic energy:
(perhaps to be used in another calculation)
Total thermal correction                  0.00662443 Eh       4.16 kcal/mol
Non-thermal (ZPE) correction              0.14775050 Eh      92.71 kcal/mol
-----------------------------------------------------------------------
Total correction                          0.15437492 Eh      96.87 kcal/mol

--------
ENTHALPY
--------

The enthalpy is H = U + kB*T
                kB is Boltzmann's constant
Total free energy                 ...   -287.77289103 Eh
Thermal Enthalpy correction       ...      0.00094421 Eh       0.59 kcal/mol
-----------------------------------------------------------------------
Total Enthalpy                    ...   -287.77194682 Eh

-------
ENTROPY
-------

The entropy contributions are T*S = T*(S(el)+S(vib)+S(rot)+S(trans)
     S(el)   - electronic entropy
     S(vib)  - vibrational entropy
     S(rot)  - rotational entropy
     S(trans)- translational entropy
The entropies will be listed as mutliplied by the temperature to get
units of energy

Electronic entropy                ...      0.00000000 Eh      0.00 kcal/mol
Vibrational entropy               ...      0.00611026 Eh      3.83 kcal/mol
Rotational entropy                ...      0.01162582 Eh      7.30 kcal/mol
Translational entropy             ...      0.01869229 Eh     11.73 kcal/mol
-----------------------------------------------------------------------
Final entropy term                ...      0.03642837 Eh     22.86 kcal/mol

CAUTION: The rotational entropy is not quite correctly treated here
         because it includes a symmetry number that is not yet correctly
         implemented in ORCA!
For a nonlinear molecule the correct rotational entropy is:
    S(rot) = R*(ln(qrot/sn)+1.5)
    R    = 8.31441 J/mol/K = 1.987191683e-3 kcal/mol/K
    qrot = 149005.0302448
    sn is the rotational symmetry number. We have assumed 3 here
       if it is different for your molecule then you should correct
       the printed rotational entropy by manually evaluating the equation
       as given above

For convenience we print out the resulting values for sn=1 - 12:
 sn= 1  qrot/sn=  149005.0302 T*S(rot)=     7.95 kcal/mol T*S(tot)=    23.51 kcal/mol
 sn= 2  qrot/sn=   74502.5151 T*S(rot)=     7.54 kcal/mol T*S(tot)=    23.10 kcal/mol
 sn= 3  qrot/sn=   49668.3434 T*S(rot)=     7.30 kcal/mol T*S(tot)=    22.86 kcal/mol
 sn= 4  qrot/sn=   37251.2576 T*S(rot)=     7.12 kcal/mol T*S(tot)=    22.69 kcal/mol
 sn= 5  qrot/sn=   29801.0060 T*S(rot)=     6.99 kcal/mol T*S(tot)=    22.56 kcal/mol
 sn= 6  qrot/sn=   24834.1717 T*S(rot)=     6.88 kcal/mol T*S(tot)=    22.45 kcal/mol
 sn= 7  qrot/sn=   21286.4329 T*S(rot)=     6.79 kcal/mol T*S(tot)=    22.36 kcal/mol
 sn= 8  qrot/sn=   18625.6288 T*S(rot)=     6.71 kcal/mol T*S(tot)=    22.28 kcal/mol
 sn= 9  qrot/sn=   16556.1145 T*S(rot)=     6.64 kcal/mol T*S(tot)=    22.21 kcal/mol
 sn=10  qrot/sn=   14900.5030 T*S(rot)=     6.58 kcal/mol T*S(tot)=    22.15 kcal/mol
 sn=11  qrot/sn=   13545.9118 T*S(rot)=     6.53 kcal/mol T*S(tot)=    22.09 kcal/mol
 sn=12  qrot/sn=   12417.0859 T*S(rot)=     6.47 kcal/mol T*S(tot)=    22.04 kcal/mol

-------------------
GIBBS FREE ENTHALPY
-------------------

The Gibbs free enthalpy is G = H - T*S

Total enthalpy                    ...   -287.77194682 Eh
Total entropy correction          ...     -0.03642837 Eh    -22.86 kcal/mol
-----------------------------------------------------------------------
Final Gibbs free enthalpy         ...   -287.80837519 Eh

For completeness - the Gibbs free enthalpy minus the electronic energy
G-E(el)                           ...      0.11889077 Eh     74.60 kcal/mol

                             ****ORCA TERMINATED NORMALLY****
TOTAL RUN TIME: 0 days 0 hours 24 minutes 10 seconds 975 msec
