                         Program Version 3.0.3 - RELEASE   -
|  1> ! NORI PBE0 def2-TZVP UseSym TightOPT Freq TightSCF Grid3 FinalGrid5 XYZFile
|  2> % pal
|  3>     nprocs 8
|  4> end
|  5> %method
|  6>     SymThresh 5.0e-2
|  7> end
|  8> % geom
|  9>     MaxIter 10
| 10> end
| 11> % maxcore 2000
| 12> % output
| 13>     printlevel mini
| 14>     print[ P_Basis ] 0
| 15>     print[ P_SCFInfo ] 1
| 16>     print[ P_SCFIterInfo ] 1
| 17>     print[ P_OrbEn ] 0
| 18>     print[ P_Cartesian ] 0
| 19> end
| 20> % elprop
| 21>     Dipole false
| 22> end
| 23> *xyz 1 1
| 24>  N        0.8860407420     0.0460858581     0.1689879707
| 25>  C        2.3679303990     0.1279815173    -0.0846964846
| 26>  C        3.1347418949     1.1696068491     0.7358030007
| 27>  C        4.2108437631     0.0839806964     1.0290416747
| 28>  O        5.4128710156     0.1975032350     0.3501028180
| 29>  C        3.2153704791    -0.9969239514     0.5166158547
| 30>  H        0.4672077754    -0.7535693747    -0.3120324398
| 31>  H        0.4038156899     0.8905244965    -0.1485020858
| 32>  H        0.6980360195    -0.0608945486     1.1685703060
| 33>  H        2.4718712302     0.2414076422    -1.1642627751
| 34>  H        2.6083100646     1.4763227123     1.6438423665
| 35>  H        3.4701317799     2.0628495435     0.2093574453
| 36>  H        4.4750371093    -0.0129298002     2.0806723691
| 37>  H        5.2818210392     0.2981108515    -0.5974704142
| 38>  H        3.6107284300    -1.7417668051    -0.1739267652
| 39>  H        2.7189425685    -1.5144189221     1.3423871590
| 40> *
| 41>
| 42>                          ****END OF INPUT****
 Total Charge           Charge          ....    1
 Multiplicity           Mult            ....    1
 Number of Electrons    NEL             ....   48
FINAL SINGLE POINT ENERGY      -287.918046004373

CARTESIAN COORDINATES (ANGSTROEM)
---------------------------------
  N     -2.287497    0.357367   -0.000000
  C     -0.794806    0.554977    0.000000
  C     -0.018412   -0.190538    1.089464
  C      1.000297   -0.635047    0.000000
  O      2.231354    0.000159   -0.000000
  C     -0.018412   -0.190538   -1.089464
  H     -2.721133    0.775473   -0.826708
  H     -2.721133    0.775473    0.826708
  H     -2.517899   -0.639080   -0.000000
  H     -0.644658    1.634965    0.000000
  H     -0.567150   -1.041292    1.503522
  H      0.372510    0.406044    1.913392
  H      1.219513   -1.701214   -0.000000
  H      2.141539    0.957809   -0.000000
  H      0.372510    0.406044   -1.913392
  H     -0.567150   -1.041292   -1.503522

FINAL SINGLE POINT ENERGY      -287.918046257014
                    ***********************HURRAY********************
 Multiplicity           Mult            ....    1
 Number of Electrons    NEL             ....   48
 Basis Dimension        Dim             ....  246
FINAL SINGLE POINT ENERGY      -287.918046300453

VIBRATIONAL FREQUENCIES
-----------------------

   0:         0.00 cm**-1
   1:         0.00 cm**-1
   2:         0.00 cm**-1
   3:         0.00 cm**-1
   4:         0.00 cm**-1
   5:         0.00 cm**-1
   6:        60.76 cm**-1
   7:       225.60 cm**-1
   8:       240.30 cm**-1
   9:       279.76 cm**-1
  10:       338.36 cm**-1
  11:       422.26 cm**-1
  12:       437.87 cm**-1
  13:       640.41 cm**-1
  14:       773.34 cm**-1
  15:       831.21 cm**-1
  16:       887.40 cm**-1
  17:       925.42 cm**-1
  18:       937.95 cm**-1
  19:       947.09 cm**-1
  20:      1016.41 cm**-1
  21:      1036.09 cm**-1
  22:      1075.79 cm**-1
  23:      1161.38 cm**-1
  24:      1174.03 cm**-1
  25:      1221.69 cm**-1
  26:      1244.47 cm**-1
  27:      1267.32 cm**-1
  28:      1277.29 cm**-1
  29:      1314.33 cm**-1
  30:      1333.74 cm**-1
  31:      1413.80 cm**-1
  32:      1434.73 cm**-1
  33:      1451.17 cm**-1
  34:      1474.92 cm**-1
  35:      1504.95 cm**-1
  36:      1655.01 cm**-1
  37:      1657.88 cm**-1
  38:      3072.44 cm**-1
  39:      3076.22 cm**-1
  40:      3121.29 cm**-1
  41:      3139.52 cm**-1
  42:      3151.17 cm**-1
  43:      3153.71 cm**-1
  44:      3412.04 cm**-1
  45:      3497.32 cm**-1
  46:      3498.23 cm**-1
  47:      3844.83 cm**-1

IR SPECTRUM
-----------

 Mode    freq (cm**-1)   T**2         TX         TY         TZ
-------------------------------------------------------------------
   6:        60.76    0.892962  ( -0.170274   0.929499   0.000001)
   7:       225.60    6.614785  (  0.000026  -0.000024   2.571922)
   8:       240.30  106.940490  ( -0.000009   0.000006  10.341204)
   9:       279.76    0.456467  (  0.000006   0.000001   0.675624)
  10:       338.36    7.420539  ( -1.633728   2.179787   0.000003)
  11:       422.26   11.656473  (  0.000004   0.000001  -3.414158)
  12:       437.87    4.484906  ( -2.078458   0.406099  -0.000010)
  13:       640.41   15.496665  ( -3.399313  -1.985279   0.000003)
  14:       773.34    1.305506  ( -0.000008   0.000002   1.142587)
  15:       831.21   13.317497  (  3.633100   0.343627   0.000007)
  16:       887.40   14.013299  ( -3.257150   1.845067  -0.000016)
  17:       925.42    4.149098  (  0.000012  -0.000008  -2.036933)
  18:       937.95    1.238233  ( -0.205357  -1.093646  -0.000042)
  19:       947.09   23.037800  ( -0.000009  -0.000004   4.799771)
  20:      1016.41   13.391165  ( -2.624698   2.549927  -0.000004)
  21:      1036.09    0.023960  ( -0.000020  -0.000031  -0.154791)
  22:      1075.79   28.577553  (  4.849355   2.249735  -0.000018)
  23:      1161.38    7.402375  ( -0.000014  -0.000011  -2.720731)
  24:      1174.03  142.570930  ( 11.030999   4.570339  -0.000000)
  25:      1221.69    5.960033  ( -0.000014  -0.000000   2.441318)
  26:      1244.47    2.546659  ( -1.567061   0.301626   0.000011)
  27:      1267.32    0.000879  (  0.000008  -0.000002   0.029651)
  28:      1277.29   42.677436  (  6.384289  -1.385023   0.000005)
  29:      1314.33    2.331718  (  0.000003   0.000002  -1.526996)
  30:      1333.74    2.525621  (  1.582811  -0.142579  -0.000001)
  31:      1413.80   27.775441  ( -4.713348   2.357920  -0.000008)
  32:      1434.73   47.030451  (  6.763023   1.136648  -0.000004)
  33:      1451.17   18.697673  (  0.000009  -0.000005  -4.324081)
  34:      1474.92    3.483556  (  1.304329  -1.335022  -0.000004)
  35:      1504.95  132.583462  (-11.270903  -2.355888  -0.000007)
  36:      1655.01   34.125765  (  0.000004   0.000029  -5.841726)
  37:      1657.88   47.649306  (  0.604039  -6.876368  -0.000022)
  38:      3072.44    2.743037  ( -0.000014   0.000001   1.656212)
  39:      3076.22    6.443203  (  2.367341   0.915914  -0.000000)
  40:      3121.29    1.676799  (  0.696223  -1.091821  -0.000000)
  41:      3139.52    4.284622  (  0.259087  -2.053654  -0.000000)
  42:      3151.17    0.642304  (  0.000006  -0.000001   0.801438)
  43:      3153.71    4.355213  (  1.205013   1.703865  -0.000001)
  44:      3412.04   43.133242  (  6.560595  -0.303037  -0.000003)
  45:      3497.32   85.049694  (  1.630038  -9.077041  -0.000064)
  46:      3498.23   95.454235  (  0.000021  -0.000059   9.770068)
  47:      3844.83   38.247876  (  3.074280   5.366254   0.000000)

--------------------------
THERMOCHEMISTRY AT 298.15K
--------------------------

Temperature         ... 298.15 K
Pressure            ... 1.00 atm
Total Mass          ... 88.13 AMU

Throughout the following assumptions are being made:
  (1) The electronic state is orbitally nondegenerate
  (2) There are no thermally accessible electronically excited states
  (3) Hindered rotations indicated by low frequency modes) are not
      treated as such but are treated as vibrations and this may
      case some error
  (4) All equations used are the standard statistical mechanics
      equations for an ideal gas
  (5) All vibrations are strinctly harmonic

------------
INNER ENERGY
------------

The inner energy is: U= E(el) + E(ZPE) + E(vib) + E(rot) + E(trans)
    E(el)   - is the total energy from the electronic structure calculation
              = E(kin-el) + E(nuc-el) + E(el-el) + E(nuc-nuc)
    E(ZPE)  - the the zero temperature vibrational energy from the frequency calculation
    E(vib)  - the the finite temperature correction to E(ZPE) due to population
              of excietd vibrational states
    E(rot)  - is the rotational thermal energy
    E(trans)- is the translational thermal energy

Summary of contributions to the inner energy U:
Electronic energy                ...   -287.91804630 Eh
Zero point energy                ...      0.14723681 Eh      92.39 kcal/mol
Thermal vibrational correction   ...      0.00395244 Eh       2.48 kcal/mol
Thermal rotational correction    ...      0.00141627 Eh       0.89 kcal/mol
Thermal translational correction ...      0.00141627 Eh       0.89 kcal/mol
-----------------------------------------------------------------------
Total thermal energy                   -287.76402451 Eh

Summary of corrections to the electronic energy:
(perhaps to be used in another calculation)
Total thermal correction                  0.00678499 Eh       4.26 kcal/mol
Non-thermal (ZPE) correction              0.14723681 Eh      92.39 kcal/mol
-----------------------------------------------------------------------
Total correction                          0.15402179 Eh      96.65 kcal/mol

--------
ENTHALPY
--------

The enthalpy is H = U + kB*T
                kB is Boltzmann's constant
Total free energy                 ...   -287.76402451 Eh
Thermal Enthalpy correction       ...      0.00094421 Eh       0.59 kcal/mol
-----------------------------------------------------------------------
Total Enthalpy                    ...   -287.76308030 Eh

-------
ENTROPY
-------

The entropy contributions are T*S = T*(S(el)+S(vib)+S(rot)+S(trans)
     S(el)   - electronic entropy
     S(vib)  - vibrational entropy
     S(rot)  - rotational entropy
     S(trans)- translational entropy
The entropies will be listed as mutliplied by the temperature to get
units of energy

Electronic entropy                ...      0.00000000 Eh      0.00 kcal/mol
Vibrational entropy               ...      0.00690153 Eh      4.33 kcal/mol
Rotational entropy                ...      0.01155887 Eh      7.25 kcal/mol
Translational entropy             ...      0.01869229 Eh     11.73 kcal/mol
-----------------------------------------------------------------------
Final entropy term                ...      0.03715268 Eh     23.31 kcal/mol

CAUTION: The rotational entropy is not quite correctly treated here
         because it includes a symmetry number that is not yet correctly
         implemented in ORCA!
For a nonlinear molecule the correct rotational entropy is:
    S(rot) = R*(ln(qrot/sn)+1.5)
    R    = 8.31441 J/mol/K = 1.987191683e-3 kcal/mol/K
    qrot = 138805.2330251
    sn is the rotational symmetry number. We have assumed 3 here
       if it is different for your molecule then you should correct
       the printed rotational entropy by manually evaluating the equation
       as given above

For convenience we print out the resulting values for sn=1 - 12:
 sn= 1  qrot/sn=  138805.2330 T*S(rot)=     7.90 kcal/mol T*S(tot)=    23.96 kcal/mol
 sn= 2  qrot/sn=   69402.6165 T*S(rot)=     7.49 kcal/mol T*S(tot)=    23.55 kcal/mol
 sn= 3  qrot/sn=   46268.4110 T*S(rot)=     7.25 kcal/mol T*S(tot)=    23.31 kcal/mol
 sn= 4  qrot/sn=   34701.3083 T*S(rot)=     7.08 kcal/mol T*S(tot)=    23.14 kcal/mol
 sn= 5  qrot/sn=   27761.0466 T*S(rot)=     6.95 kcal/mol T*S(tot)=    23.01 kcal/mol
 sn= 6  qrot/sn=   23134.2055 T*S(rot)=     6.84 kcal/mol T*S(tot)=    22.90 kcal/mol
 sn= 7  qrot/sn=   19829.3190 T*S(rot)=     6.75 kcal/mol T*S(tot)=    22.81 kcal/mol
 sn= 8  qrot/sn=   17350.6541 T*S(rot)=     6.67 kcal/mol T*S(tot)=    22.73 kcal/mol
 sn= 9  qrot/sn=   15422.8037 T*S(rot)=     6.60 kcal/mol T*S(tot)=    22.66 kcal/mol
 sn=10  qrot/sn=   13880.5233 T*S(rot)=     6.54 kcal/mol T*S(tot)=    22.60 kcal/mol
 sn=11  qrot/sn=   12618.6575 T*S(rot)=     6.48 kcal/mol T*S(tot)=    22.54 kcal/mol
 sn=12  qrot/sn=   11567.1028 T*S(rot)=     6.43 kcal/mol T*S(tot)=    22.49 kcal/mol

-------------------
GIBBS FREE ENTHALPY
-------------------

The Gibbs free enthalpy is G = H - T*S

Total enthalpy                    ...   -287.76308030 Eh
Total entropy correction          ...     -0.03715268 Eh    -23.31 kcal/mol
-----------------------------------------------------------------------
Final Gibbs free enthalpy         ...   -287.80023298 Eh

For completeness - the Gibbs free enthalpy minus the electronic energy
G-E(el)                           ...      0.11781332 Eh     73.93 kcal/mol

                             ****ORCA TERMINATED NORMALLY****
TOTAL RUN TIME: 0 days 0 hours 22 minutes 37 seconds 80 msec
