                         Program Version 3.0.3 - RELEASE   -
|  1> ! NORI PBE0 def2-TZVP UseSym TightOPT Freq TightSCF Grid3 FinalGrid5 XYZFile
|  2> % pal
|  3>     nprocs 8
|  4> end
|  5> %method
|  6>     SymThresh 5.0e-2
|  7> end
|  8> % geom
|  9>     MaxIter 10
| 10> end
| 11> % maxcore 2000
| 12> % output
| 13>     printlevel mini
| 14>     print[ P_Basis ] 0
| 15>     print[ P_SCFInfo ] 1
| 16>     print[ P_SCFIterInfo ] 1
| 17>     print[ P_OrbEn ] 0
| 18>     print[ P_Cartesian ] 0
| 19> end
| 20> % elprop
| 21>     Dipole false
| 22> end
| 23> *xyz 1 1
| 24>  N        0.9420729474    -0.0324775095    -0.1447800993
| 25>  C        2.4267068214    -0.0107566798    -0.0744883906
| 26>  C        2.8915477391     0.0104642957     1.3624964616
| 27>  O        4.2829309202     0.0225133271     1.3304589079
| 28>  C        3.1452033563    -0.7634906338    -1.1380776989
| 29>  C        3.1245031578     0.7393661692    -1.1536605630
| 30>  H        0.6258485534    -0.0390220536    -1.1164416349
| 31>  H        0.5344568004     0.7915738077     0.3074236350
| 32>  H        0.5585544647    -0.8658944438     0.3112727688
| 33>  H        2.4993620837    -0.8777979144     1.8848288343
| 34>  H        2.4832555624     0.9038369187     1.8632749315
| 35>  H        4.6348696230     0.0437898936     2.2246110229
| 36>  H        4.0597164943    -1.2548864414    -0.8339806790
| 37>  H        2.5690153541    -1.2910678788    -1.8906551663
| 38>  H        2.5341790451     1.2353532103    -1.9166880279
| 39>  H        4.0252470766     1.2620159329    -0.8605943019
| 40> *
| 41>
| 42>                          ****END OF INPUT****
 Total Charge           Charge          ....    1
 Multiplicity           Mult            ....    1
 Number of Electrons    NEL             ....   48
FINAL SINGLE POINT ENERGY      -287.914890877658

CARTESIAN COORDINATES (ANGSTROEM)
---------------------------------
  N     -1.561465    1.008639    0.000000
  C     -0.376369    0.111068   -0.000000
  C      0.901780    0.916544   -0.000000
  O      1.949804    0.000441    0.000000
  C     -0.519967   -1.165201    0.751529
  C     -0.519967   -1.165201   -0.751529
  H     -2.427026    0.465321    0.000000
  H     -1.574169    1.610643   -0.828776
  H     -1.574169    1.610643    0.828776
  H      0.922463    1.565560    0.890918
  H      0.922463    1.565560   -0.890918
  H      2.793028    0.461723    0.000000
  H      0.368015   -1.518058    1.258913
  H     -1.453433   -1.372107    1.263622
  H     -1.453433   -1.372107   -1.263622
  H      0.368015   -1.518058   -1.258913

FINAL SINGLE POINT ENERGY      -287.914891625546
                    ***********************HURRAY********************
 Multiplicity           Mult            ....    1
 Number of Electrons    NEL             ....   48
 Basis Dimension        Dim             ....  246
FINAL SINGLE POINT ENERGY      -287.914892024553

VIBRATIONAL FREQUENCIES
-----------------------

   0:         0.00 cm**-1
   1:         0.00 cm**-1
   2:         0.00 cm**-1
   3:         0.00 cm**-1
   4:         0.00 cm**-1
   5:         0.00 cm**-1
   6:        87.78 cm**-1
   7:       194.22 cm**-1
   8:       232.16 cm**-1
   9:       239.08 cm**-1
  10:       318.56 cm**-1
  11:       341.81 cm**-1
  12:       389.83 cm**-1
  13:       502.65 cm**-1
  14:       683.66 cm**-1
  15:       770.86 cm**-1
  16:       900.33 cm**-1
  17:       903.55 cm**-1
  18:       916.02 cm**-1
  19:       956.91 cm**-1
  20:      1046.35 cm**-1
  21:      1071.59 cm**-1
  22:      1074.71 cm**-1
  23:      1111.71 cm**-1
  24:      1160.56 cm**-1
  25:      1180.31 cm**-1
  26:      1193.75 cm**-1
  27:      1217.07 cm**-1
  28:      1274.52 cm**-1
  29:      1289.55 cm**-1
  30:      1405.50 cm**-1
  31:      1450.28 cm**-1
  32:      1479.94 cm**-1
  33:      1498.05 cm**-1
  34:      1511.24 cm**-1
  35:      1527.16 cm**-1
  36:      1646.43 cm**-1
  37:      1657.41 cm**-1
  38:      2966.70 cm**-1
  39:      2998.69 cm**-1
  40:      3154.44 cm**-1
  41:      3156.76 cm**-1
  42:      3249.20 cm**-1
  43:      3258.67 cm**-1
  44:      3399.75 cm**-1
  45:      3470.73 cm**-1
  46:      3499.45 cm**-1
  47:      3870.76 cm**-1

IR SPECTRUM
-----------

 Mode    freq (cm**-1)   T**2         TX         TY         TZ
-------------------------------------------------------------------
   6:        87.78   17.734930  ( -0.000001  -0.000004   4.211286)
   7:       194.22    2.118828  (  0.000011  -0.000020   1.455619)
   8:       232.16  112.504283  (  0.000000  -0.000003 -10.606804)
   9:       239.08    0.012105  ( -0.012885   0.109266   0.000331)
  10:       318.56    5.213973  ( -0.000011  -0.000029   2.283413)
  11:       341.81    6.672560  ( -1.256428  -2.256978  -0.000019)
  12:       389.83    4.489330  ( -0.000015   0.000008   2.118804)
  13:       502.65   33.278682  (  5.198558  -2.500735   0.000007)
  14:       683.66    3.987035  (  0.992339  -1.732714  -0.000000)
  15:       770.86    1.500648  (  0.073981   1.222773  -0.000011)
  16:       900.33    3.613590  (  0.000014   0.000039   1.900945)
  17:       903.55    1.602553  ( -0.000017  -0.000037   1.265920)
  18:       916.02    1.317944  ( -1.048568   0.467387  -0.000007)
  19:       956.91   27.412664  (  3.737120   3.666960   0.000006)
  20:      1046.35   11.162169  (  2.141950  -2.564024  -0.000036)
  21:      1071.59    8.484803  (  0.000016  -0.000059   2.912869)
  22:      1074.71   27.983451  ( -1.067455   5.181119   0.000012)
  23:      1111.71    1.621455  ( -0.000004   0.000002  -1.273364)
  24:      1160.56   59.770731  (  6.898294  -3.490597   0.000007)
  25:      1180.31    7.507118  (  0.000051  -0.000005  -2.739912)
  26:      1193.75    1.039373  (  0.000006   0.000003   1.019496)
  27:      1217.07   47.371524  (  5.188605  -4.522156  -0.000007)
  28:      1274.52   11.184627  (  0.430456  -3.316524   0.000010)
  29:      1289.55    0.827768  ( -0.000006  -0.000007   0.909817)
  30:      1405.50    2.678893  ( -1.508606   0.634823   0.000002)
  31:      1450.28   17.122841  ( -0.000010   0.000002  -4.137975)
  32:      1479.94   24.617063  (  2.806455  -4.091561   0.000002)
  33:      1498.05   66.825743  ( -6.003015   5.548834  -0.000027)
  34:      1511.24   21.636562  (  4.640809  -0.315366   0.000017)
  35:      1527.16   50.668459  (  6.867543  -1.872248   0.000003)
  36:      1646.43   38.652918  (  0.000101   0.000158   6.217147)
  37:      1657.41   41.505062  ( -4.625375  -4.484525   0.000172)
  38:      2966.70   50.932119  ( -2.309144   6.752775  -0.000012)
  39:      2998.69   28.194977  ( -0.000003   0.000003   5.309894)
  40:      3154.44    0.011566  ( -0.000021   0.000011  -0.107544)
  41:      3156.76    8.123302  ( -2.457409   1.443760  -0.000002)
  42:      3249.20    1.196112  (  0.000013  -0.000007  -1.093669)
  43:      3258.67    4.018601  (  1.903269  -0.629418   0.000002)
  44:      3399.75   28.572078  (  3.400906  -4.123823  -0.000001)
  45:      3470.73   77.750024  ( -0.000001  -0.000001   8.817597)
  46:      3499.45   80.319929  ( -6.771428  -5.870920   0.000001)
  47:      3870.76  120.718223  (-10.739427  -2.320114   0.000000)

--------------------------
THERMOCHEMISTRY AT 298.15K
--------------------------

Temperature         ... 298.15 K
Pressure            ... 1.00 atm
Total Mass          ... 88.13 AMU

Throughout the following assumptions are being made:
  (1) The electronic state is orbitally nondegenerate
  (2) There are no thermally accessible electronically excited states
  (3) Hindered rotations indicated by low frequency modes) are not
      treated as such but are treated as vibrations and this may
      case some error
  (4) All equations used are the standard statistical mechanics
      equations for an ideal gas
  (5) All vibrations are strinctly harmonic

------------
INNER ENERGY
------------

The inner energy is: U= E(el) + E(ZPE) + E(vib) + E(rot) + E(trans)
    E(el)   - is the total energy from the electronic structure calculation
              = E(kin-el) + E(nuc-el) + E(el-el) + E(nuc-nuc)
    E(ZPE)  - the the zero temperature vibrational energy from the frequency calculation
    E(vib)  - the the finite temperature correction to E(ZPE) due to population
              of excietd vibrational states
    E(rot)  - is the rotational thermal energy
    E(trans)- is the translational thermal energy

Summary of contributions to the inner energy U:
Electronic energy                ...   -287.91489202 Eh
Zero point energy                ...      0.14639213 Eh      91.86 kcal/mol
Thermal vibrational correction   ...      0.00430255 Eh       2.70 kcal/mol
Thermal rotational correction    ...      0.00141627 Eh       0.89 kcal/mol
Thermal translational correction ...      0.00141627 Eh       0.89 kcal/mol
-----------------------------------------------------------------------
Total thermal energy                   -287.76136480 Eh

Summary of corrections to the electronic energy:
(perhaps to be used in another calculation)
Total thermal correction                  0.00713510 Eh       4.48 kcal/mol
Non-thermal (ZPE) correction              0.14639213 Eh      91.86 kcal/mol
-----------------------------------------------------------------------
Total correction                          0.15352723 Eh      96.34 kcal/mol

--------
ENTHALPY
--------

The enthalpy is H = U + kB*T
                kB is Boltzmann's constant
Total free energy                 ...   -287.76136480 Eh
Thermal Enthalpy correction       ...      0.00094421 Eh       0.59 kcal/mol
-----------------------------------------------------------------------
Total Enthalpy                    ...   -287.76042059 Eh

-------
ENTROPY
-------

The entropy contributions are T*S = T*(S(el)+S(vib)+S(rot)+S(trans)
     S(el)   - electronic entropy
     S(vib)  - vibrational entropy
     S(rot)  - rotational entropy
     S(trans)- translational entropy
The entropies will be listed as mutliplied by the temperature to get
units of energy

Electronic entropy                ...      0.00000000 Eh      0.00 kcal/mol
Vibrational entropy               ...      0.00732655 Eh      4.60 kcal/mol
Rotational entropy                ...      0.01157496 Eh      7.26 kcal/mol
Translational entropy             ...      0.01869229 Eh     11.73 kcal/mol
-----------------------------------------------------------------------
Final entropy term                ...      0.03759380 Eh     23.59 kcal/mol

CAUTION: The rotational entropy is not quite correctly treated here
         because it includes a symmetry number that is not yet correctly
         implemented in ORCA!
For a nonlinear molecule the correct rotational entropy is:
    S(rot) = R*(ln(qrot/sn)+1.5)
    R    = 8.31441 J/mol/K = 1.987191683e-3 kcal/mol/K
    qrot = 141191.9888348
    sn is the rotational symmetry number. We have assumed 3 here
       if it is different for your molecule then you should correct
       the printed rotational entropy by manually evaluating the equation
       as given above

For convenience we print out the resulting values for sn=1 - 12:
 sn= 1  qrot/sn=  141191.9888 T*S(rot)=     7.91 kcal/mol T*S(tot)=    24.24 kcal/mol
 sn= 2  qrot/sn=   70595.9944 T*S(rot)=     7.50 kcal/mol T*S(tot)=    23.83 kcal/mol
 sn= 3  qrot/sn=   47063.9963 T*S(rot)=     7.26 kcal/mol T*S(tot)=    23.59 kcal/mol
 sn= 4  qrot/sn=   35297.9972 T*S(rot)=     7.09 kcal/mol T*S(tot)=    23.42 kcal/mol
 sn= 5  qrot/sn=   28238.3978 T*S(rot)=     6.96 kcal/mol T*S(tot)=    23.29 kcal/mol
 sn= 6  qrot/sn=   23531.9981 T*S(rot)=     6.85 kcal/mol T*S(tot)=    23.18 kcal/mol
 sn= 7  qrot/sn=   20170.2841 T*S(rot)=     6.76 kcal/mol T*S(tot)=    23.09 kcal/mol
 sn= 8  qrot/sn=   17648.9986 T*S(rot)=     6.68 kcal/mol T*S(tot)=    23.01 kcal/mol
 sn= 9  qrot/sn=   15687.9988 T*S(rot)=     6.61 kcal/mol T*S(tot)=    22.94 kcal/mol
 sn=10  qrot/sn=   14119.1989 T*S(rot)=     6.55 kcal/mol T*S(tot)=    22.88 kcal/mol
 sn=11  qrot/sn=   12835.6353 T*S(rot)=     6.49 kcal/mol T*S(tot)=    22.82 kcal/mol
 sn=12  qrot/sn=   11765.9991 T*S(rot)=     6.44 kcal/mol T*S(tot)=    22.77 kcal/mol

-------------------
GIBBS FREE ENTHALPY
-------------------

The Gibbs free enthalpy is G = H - T*S

Total enthalpy                    ...   -287.76042059 Eh
Total entropy correction          ...     -0.03759380 Eh    -23.59 kcal/mol
-----------------------------------------------------------------------
Final Gibbs free enthalpy         ...   -287.79801439 Eh

For completeness - the Gibbs free enthalpy minus the electronic energy
G-E(el)                           ...      0.11687763 Eh     73.34 kcal/mol

                             ****ORCA TERMINATED NORMALLY****
TOTAL RUN TIME: 0 days 0 hours 23 minutes 3 seconds 945 msec
