                         Program Version 3.0.3 - RELEASE   -
|  1> ! NORI PBE0 def2-TZVP UseSym TightOPT Freq TightSCF Grid3 FinalGrid5 XYZFile
|  2> % pal
|  3>     nprocs 8
|  4> end
|  5> %method
|  6>     SymThresh 5.0e-2
|  7> end
|  8> % geom
|  9>     MaxIter 10
| 10> end
| 11> % maxcore 2000
| 12> % output
| 13>     printlevel mini
| 14>     print[ P_Basis ] 0
| 15>     print[ P_SCFInfo ] 1
| 16>     print[ P_SCFIterInfo ] 1
| 17>     print[ P_OrbEn ] 0
| 18>     print[ P_Cartesian ] 0
| 19> end
| 20> % elprop
| 21>     Dipole false
| 22> end
| 23> *xyz 1 1
| 24>  N        1.1146964135    -0.2001979720    -0.2698523492
| 25>  C        2.6562569255    -0.1789932951    -0.1337133609
| 26>  C        3.1433924603    -1.3235805033     0.7483778311
| 27>  O        3.3510275396    -0.7579698261     2.0438112033
| 28>  C        3.3984105634     0.5713962316     1.8789336409
| 29>  C        3.0630645204     1.0089582141     0.6596142037
| 30>  H        0.7936844024     0.6260391056    -0.7788771593
| 31>  H        0.6868055789    -0.1699676410     0.6585027538
| 32>  H        0.7743698565    -1.0299069517    -0.7620431434
| 33>  H        3.0195382308    -0.2360448310    -1.1600312046
| 34>  H        4.1037247819    -1.6857991809     0.3750850315
| 35>  H        2.4591241187    -2.1697891179     0.8395818087
| 36>  H        3.7030103573     1.1346890558     2.7510022405
| 37>  H        3.0733142508     2.0314067118     0.3153085038
| 38> *
| 39>
| 40>                          ****END OF INPUT****
 Total Charge           Charge          ....    1
 Multiplicity           Mult            ....    1
 Number of Electrons    NEL             ....   46
FINAL SINGLE POINT ENERGY      -286.718077523308
FINAL SINGLE POINT ENERGY      -286.718078149859

CARTESIAN COORDINATES (ANGSTROEM)
---------------------------------
  N      1.176021    0.000237   -1.544719
  C     -0.099269    0.472712   -0.804242
  C      0.244404    1.048765    0.565319
  O     -0.000494   -0.000101    1.503718
  C     -0.763260   -0.906115    0.875887
  C     -0.921752   -0.708641   -0.438069
  H      0.924178   -0.474142   -2.414209
  H      1.679725   -0.675083   -0.965193
  H      1.806520    0.772288   -1.774021
  H     -0.551369    1.198877   -1.479952
  H     -0.433277    1.875306    0.791502
  H      1.273214    1.394246    0.684290
  H     -1.161534   -1.690887    1.505408
  H     -1.523503   -1.298883   -1.111467

FINAL SINGLE POINT ENERGY      -286.718078278265
                    ***********************HURRAY********************
 Multiplicity           Mult            ....    1
 Number of Electrons    NEL             ....   46
 Basis Dimension        Dim             ....  234
FINAL SINGLE POINT ENERGY      -286.718078301655

VIBRATIONAL FREQUENCIES
-----------------------

   0:         0.00 cm**-1
   1:         0.00 cm**-1
   2:         0.00 cm**-1
   3:         0.00 cm**-1
   4:         0.00 cm**-1
   5:         0.00 cm**-1
   6:       134.70 cm**-1
   7:       210.97 cm**-1
   8:       324.70 cm**-1
   9:       363.72 cm**-1
  10:       529.71 cm**-1
  11:       717.38 cm**-1
  12:       748.62 cm**-1
  13:       756.87 cm**-1
  14:       847.82 cm**-1
  15:       924.78 cm**-1
  16:       945.30 cm**-1
  17:       980.50 cm**-1
  18:       985.72 cm**-1
  19:      1007.67 cm**-1
  20:      1085.28 cm**-1
  21:      1100.13 cm**-1
  22:      1143.72 cm**-1
  23:      1211.14 cm**-1
  24:      1249.83 cm**-1
  25:      1306.04 cm**-1
  26:      1337.17 cm**-1
  27:      1386.25 cm**-1
  28:      1422.22 cm**-1
  29:      1475.74 cm**-1
  30:      1488.06 cm**-1
  31:      1643.00 cm**-1
  32:      1653.13 cm**-1
  33:      1659.71 cm**-1
  34:      3084.90 cm**-1
  35:      3130.23 cm**-1
  36:      3139.43 cm**-1
  37:      3251.29 cm**-1
  38:      3275.84 cm**-1
  39:      3408.15 cm**-1
  40:      3505.41 cm**-1
  41:      3510.14 cm**-1

IR SPECTRUM
-----------

 Mode    freq (cm**-1)   T**2         TX         TY         TZ
-------------------------------------------------------------------
   6:       134.70    6.547589  (  0.889220   0.895402  -2.226013)
   7:       210.97    0.122672  (  0.163337   0.309589   0.012158)
   8:       324.70    7.856757  (  0.110285  -2.668259  -0.851461)
   9:       363.72    6.257283  (  1.141377  -0.618768   2.138146)
  10:       529.71   11.615504  (  3.082159  -1.276626   0.697157)
  11:       717.38   16.857027  (  1.819734   1.089681  -3.515422)
  12:       748.62   77.398545  (  7.182890  -3.594170  -3.589788)
  13:       756.87    4.503397  ( -0.787730   1.268073  -1.508268)
  14:       847.82    5.208091  (  1.392482  -1.016696   1.495130)
  15:       924.78   16.283370  (  3.403101   0.446823   2.121939)
  16:       945.30   20.693784  (  1.579392   2.353733  -3.557983)
  17:       980.50   24.722259  (  3.494685  -0.599024  -3.485772)
  18:       985.72    9.437969  (  0.351708  -0.898341   2.916720)
  19:      1007.67   12.667970  ( -0.973566   0.788815  -3.331352)
  20:      1085.28   26.539980  (  0.337285  -5.044231  -0.990936)
  21:      1100.13   14.501277  (  0.077011  -0.344592   3.791649)
  22:      1143.72    1.635835  ( -0.742610  -0.821244  -0.640253)
  23:      1211.14  132.029202  (  4.905246   7.776657   6.891399)
  24:      1249.83    5.794565  ( -2.166976   0.297575  -1.005102)
  25:      1306.04   17.612611  (  0.780587   0.996780  -4.001215)
  26:      1337.17    9.066840  ( -1.729717  -1.035312   2.236750)
  27:      1386.25   14.822869  ( -1.342528  -1.044940   3.453779)
  28:      1422.22   37.769097  (  4.055759   2.500772  -3.881502)
  29:      1475.74  133.723191  ( -8.594076   5.165163   5.760741)
  30:      1488.06   19.839652  (  4.173177   1.510336  -0.378330)
  31:      1643.00   21.999488  ( -3.277326  -1.159729  -3.148595)
  32:      1653.13   85.155116  ( -0.571304   3.795566  -8.391806)
  33:      1659.71   74.117646  (  1.524070   4.305445   7.297808)
  34:      3084.90    4.622031  (  1.341036   1.516459  -0.723883)
  35:      3130.23    3.887537  (  1.284697   0.997488  -1.114499)
  36:      3139.43    0.789071  (  0.869730   0.156292   0.090633)
  37:      3251.29    5.694736  (  0.292109  -0.437961   2.327573)
  38:      3275.84    7.145223  (  1.804226   1.701843   0.996857)
  39:      3408.15   36.119797  ( -4.804757   1.329467   3.356579)
  40:      3505.41   76.850771  (  0.021748   8.138445  -3.258221)
  41:      3510.14   91.993334  ( -4.583004  -2.925701  -7.901246)

--------------------------
THERMOCHEMISTRY AT 298.15K
--------------------------

Temperature         ... 298.15 K
Pressure            ... 1.00 atm
Total Mass          ... 86.11 AMU

Throughout the following assumptions are being made:
  (1) The electronic state is orbitally nondegenerate
  (2) There are no thermally accessible electronically excited states
  (3) Hindered rotations indicated by low frequency modes) are not
      treated as such but are treated as vibrations and this may
      case some error
  (4) All equations used are the standard statistical mechanics
      equations for an ideal gas
  (5) All vibrations are strinctly harmonic

------------
INNER ENERGY
------------

The inner energy is: U= E(el) + E(ZPE) + E(vib) + E(rot) + E(trans)
    E(el)   - is the total energy from the electronic structure calculation
              = E(kin-el) + E(nuc-el) + E(el-el) + E(nuc-nuc)
    E(ZPE)  - the the zero temperature vibrational energy from the frequency calculation
    E(vib)  - the the finite temperature correction to E(ZPE) due to population
              of excietd vibrational states
    E(rot)  - is the rotational thermal energy
    E(trans)- is the translational thermal energy

Summary of contributions to the inner energy U:
Electronic energy                ...   -286.71807830 Eh
Zero point energy                ...      0.12517449 Eh      78.55 kcal/mol
Thermal vibrational correction   ...      0.00287645 Eh       1.80 kcal/mol
Thermal rotational correction    ...      0.00141627 Eh       0.89 kcal/mol
Thermal translational correction ...      0.00141627 Eh       0.89 kcal/mol
-----------------------------------------------------------------------
Total thermal energy                   -286.58719482 Eh

Summary of corrections to the electronic energy:
(perhaps to be used in another calculation)
Total thermal correction                  0.00570899 Eh       3.58 kcal/mol
Non-thermal (ZPE) correction              0.12517449 Eh      78.55 kcal/mol
-----------------------------------------------------------------------
Total correction                          0.13088348 Eh      82.13 kcal/mol

--------
ENTHALPY
--------

The enthalpy is H = U + kB*T
                kB is Boltzmann's constant
Total free energy                 ...   -286.58719482 Eh
Thermal Enthalpy correction       ...      0.00094421 Eh       0.59 kcal/mol
-----------------------------------------------------------------------
Total Enthalpy                    ...   -286.58625061 Eh

-------
ENTROPY
-------

The entropy contributions are T*S = T*(S(el)+S(vib)+S(rot)+S(trans)
     S(el)   - electronic entropy
     S(vib)  - vibrational entropy
     S(rot)  - rotational entropy
     S(trans)- translational entropy
The entropies will be listed as mutliplied by the temperature to get
units of energy

Electronic entropy                ...      0.00000000 Eh      0.00 kcal/mol
Vibrational entropy               ...      0.00464093 Eh      2.91 kcal/mol
Rotational entropy                ...      0.01134955 Eh      7.12 kcal/mol
Translational entropy             ...      0.01865951 Eh     11.71 kcal/mol
-----------------------------------------------------------------------
Final entropy term                ...      0.03464999 Eh     21.74 kcal/mol

CAUTION: The rotational entropy is not quite correctly treated here
         because it includes a symmetry number that is not yet correctly
         implemented in ORCA!
For a nonlinear molecule the correct rotational entropy is:
    S(rot) = R*(ln(qrot/sn)+1.5)
    R    = 8.31441 J/mol/K = 1.987191683e-3 kcal/mol/K
    qrot = 111205.9074974
    sn is the rotational symmetry number. We have assumed 3 here
       if it is different for your molecule then you should correct
       the printed rotational entropy by manually evaluating the equation
       as given above

For convenience we print out the resulting values for sn=1 - 12:
 sn= 1  qrot/sn=  111205.9075 T*S(rot)=     7.77 kcal/mol T*S(tot)=    22.39 kcal/mol
 sn= 2  qrot/sn=   55602.9537 T*S(rot)=     7.36 kcal/mol T*S(tot)=    21.98 kcal/mol
 sn= 3  qrot/sn=   37068.6358 T*S(rot)=     7.12 kcal/mol T*S(tot)=    21.74 kcal/mol
 sn= 4  qrot/sn=   27801.4769 T*S(rot)=     6.95 kcal/mol T*S(tot)=    21.57 kcal/mol
 sn= 5  qrot/sn=   22241.1815 T*S(rot)=     6.82 kcal/mol T*S(tot)=    21.44 kcal/mol
 sn= 6  qrot/sn=   18534.3179 T*S(rot)=     6.71 kcal/mol T*S(tot)=    21.33 kcal/mol
 sn= 7  qrot/sn=   15886.5582 T*S(rot)=     6.62 kcal/mol T*S(tot)=    21.24 kcal/mol
 sn= 8  qrot/sn=   13900.7384 T*S(rot)=     6.54 kcal/mol T*S(tot)=    21.16 kcal/mol
 sn= 9  qrot/sn=   12356.2119 T*S(rot)=     6.47 kcal/mol T*S(tot)=    21.09 kcal/mol
 sn=10  qrot/sn=   11120.5907 T*S(rot)=     6.41 kcal/mol T*S(tot)=    21.03 kcal/mol
 sn=11  qrot/sn=   10109.6280 T*S(rot)=     6.35 kcal/mol T*S(tot)=    20.97 kcal/mol
 sn=12  qrot/sn=    9267.1590 T*S(rot)=     6.30 kcal/mol T*S(tot)=    20.92 kcal/mol

-------------------
GIBBS FREE ENTHALPY
-------------------

The Gibbs free enthalpy is G = H - T*S

Total enthalpy                    ...   -286.58625061 Eh
Total entropy correction          ...     -0.03464999 Eh    -21.74 kcal/mol
-----------------------------------------------------------------------
Final Gibbs free enthalpy         ...   -286.62090061 Eh

For completeness - the Gibbs free enthalpy minus the electronic energy
G-E(el)                           ...      0.09717770 Eh     60.98 kcal/mol

                             ****ORCA TERMINATED NORMALLY****
TOTAL RUN TIME: 0 days 0 hours 21 minutes 57 seconds 577 msec
