                         Program Version 3.0.3 - RELEASE   -
|  1> ! NORI PBE0 def2-TZVP UseSym TightOPT Freq TightSCF Grid3 FinalGrid5 XYZFile
|  2> % pal
|  3>     nprocs 8
|  4> end
|  5> %method
|  6>     SymThresh 5.0e-2
|  7> end
|  8> % geom
|  9>     MaxIter 10
| 10> end
| 11> % maxcore 2000
| 12> % output
| 13>     printlevel mini
| 14>     print[ P_Basis ] 0
| 15>     print[ P_SCFInfo ] 1
| 16>     print[ P_SCFIterInfo ] 1
| 17>     print[ P_OrbEn ] 0
| 18>     print[ P_Cartesian ] 0
| 19> end
| 20> % elprop
| 21>     Dipole false
| 22> end
| 23> *xyz 1 1
| 24>  N        3.5194139114    -0.0765109647     0.9083553053
| 25>  C        2.3332741155    -0.1246256811    -0.0344866978
| 26>  C        2.7893481710     0.2156589222    -1.4085311504
| 27>  C        1.8718987711     0.9212753500    -2.3732231095
| 28>  C        3.0383753132     1.6456230747    -1.7925586071
| 29>  O        4.1866649526     1.8574738262    -2.5264212580
| 30>  H        3.2549595461    -0.2433553293     1.8811533507
| 31>  H        3.9734094794     0.8382674357     0.8447464344
| 32>  H        4.2169436126    -0.7758521469     0.6452848514
| 33>  H        1.9149220554    -1.1292612642     0.0469538059
| 34>  H        1.6060290384     0.5903238762     0.3527797573
| 35>  H        3.4659646622    -0.4978439622    -1.8700402810
| 36>  H        1.9396060392     0.6020618925    -3.4050023157
| 37>  H        0.8789799865     1.1985739453    -2.0404713377
| 38>  H        2.8061676192     2.4103774320    -1.0486934868
| 39>  H        4.0370427262     2.5604635936    -3.1670652609
| 40> *
| 41>
| 42>                          ****END OF INPUT****
 Total Charge           Charge          ....    1
 Multiplicity           Mult            ....    1
 Number of Electrons    NEL             ....   48
FINAL SINGLE POINT ENERGY      -287.920138925980

CARTESIAN COORDINATES (ANGSTROEM)
---------------------------------
  N      1.747294   -0.000289   -1.483829
  C      0.234540    0.057693   -1.564612
  C     -0.307083    0.486603   -0.247564
  C     -1.649545   -0.002935    0.231368
  C     -0.403094   -0.490686    0.887980
  O     -0.000239    0.000525    2.111928
  H      2.173728   -0.347402   -2.345110
  H      2.028178   -0.609032   -0.710955
  H      2.133159    0.926252   -1.290365
  H     -0.004924    0.746148   -2.376731
  H     -0.095219   -0.943324   -1.845333
  H     -0.063997    1.501749    0.053188
  H     -2.250635    0.720950    0.765931
  H     -2.205143   -0.693960   -0.391226
  H     -0.125092   -1.525994    0.680774
  H     -0.546049   -0.377992    2.808956

FINAL SINGLE POINT ENERGY      -287.920139572718
                    ***********************HURRAY********************
 Multiplicity           Mult            ....    1
 Number of Electrons    NEL             ....   48
 Basis Dimension        Dim             ....  246
FINAL SINGLE POINT ENERGY      -287.920139858461

VIBRATIONAL FREQUENCIES
-----------------------

   0:         0.00 cm**-1
   1:         0.00 cm**-1
   2:         0.00 cm**-1
   3:         0.00 cm**-1
   4:         0.00 cm**-1
   5:         0.00 cm**-1
   6:       104.07 cm**-1
   7:       150.09 cm**-1
   8:       198.91 cm**-1
   9:       302.69 cm**-1
  10:       328.76 cm**-1
  11:       400.39 cm**-1
  12:       435.78 cm**-1
  13:       472.38 cm**-1
  14:       789.99 cm**-1
  15:       843.31 cm**-1
  16:       854.66 cm**-1
  17:       904.29 cm**-1
  18:       924.41 cm**-1
  19:       950.06 cm**-1
  20:      1020.30 cm**-1
  21:      1069.82 cm**-1
  22:      1077.50 cm**-1
  23:      1116.40 cm**-1
  24:      1140.13 cm**-1
  25:      1216.26 cm**-1
  26:      1221.37 cm**-1
  27:      1243.97 cm**-1
  28:      1289.60 cm**-1
  29:      1336.01 cm**-1
  30:      1362.11 cm**-1
  31:      1403.53 cm**-1
  32:      1445.57 cm**-1
  33:      1492.67 cm**-1
  34:      1495.75 cm**-1
  35:      1513.95 cm**-1
  36:      1650.31 cm**-1
  37:      1662.79 cm**-1
  38:      3087.66 cm**-1
  39:      3097.48 cm**-1
  40:      3151.22 cm**-1
  41:      3161.11 cm**-1
  42:      3170.04 cm**-1
  43:      3255.92 cm**-1
  44:      3418.32 cm**-1
  45:      3499.52 cm**-1
  46:      3512.54 cm**-1
  47:      3838.19 cm**-1

IR SPECTRUM
-----------

 Mode    freq (cm**-1)   T**2         TX         TY         TZ
-------------------------------------------------------------------
   6:       104.07   14.351018  (  0.638325   2.031904  -3.132878)
   7:       150.09   11.965087  (  0.272231  -1.677579  -3.012757)
   8:       198.91    1.469264  (  0.411680   0.707423   0.894056)
   9:       302.69    1.853756  ( -1.063013  -0.071351  -0.847743)
  10:       328.76  129.208642  (  7.726469  -8.226389   1.355297)
  11:       400.39    7.644619  (  0.365419  -1.809617   2.058246)
  12:       435.78    9.844577  (  1.417061  -2.373982  -1.483484)
  13:       472.38    3.428556  ( -1.700096   0.719016  -0.145765)
  14:       789.99   27.219737  (  1.680878   2.639096  -4.174872)
  15:       843.31    2.679756  ( -0.349400   1.111011   1.150361)
  16:       854.66    6.775327  ( -0.425333   2.413249  -0.877865)
  17:       904.29   21.356930  (  3.739830  -0.863190  -2.574006)
  18:       924.41   41.481040  (  3.157893  -2.471604  -5.039834)
  19:       950.06    2.146144  ( -1.327213  -0.596139   0.171077)
  20:      1020.30    2.996454  (  0.667391   0.525852  -1.508152)
  21:      1069.82   10.819103  ( -1.273325  -2.898837  -0.891341)
  22:      1077.50   16.178584  (  1.324126  -0.732217   3.726813)
  23:      1116.40   21.046530  ( -3.249900  -0.981844  -3.085557)
  24:      1140.13    6.694901  ( -1.441679  -0.984683   1.909676)
  25:      1216.26   17.828977  ( -1.874668  -1.806061  -3.324567)
  26:      1221.37    5.648760  (  2.299373  -0.563566  -0.209851)
  27:      1243.97   58.471302  (  1.963850   0.688941   7.357986)
  28:      1289.60   67.570425  (  4.258945   3.609251   6.033666)
  29:      1336.01    7.137682  ( -0.658072   0.717756  -2.487860)
  30:      1362.11    8.221536  ( -0.770290  -1.604877   2.247790)
  31:      1403.53    5.294478  (  1.686827  -0.129545  -1.559587)
  32:      1445.57   25.002571  ( -3.840678  -0.306746   3.187111)
  33:      1492.67   11.561446  (  1.682922   1.515958   2.535960)
  34:      1495.75  116.706387  ( 10.388511  -0.751708  -2.867080)
  35:      1513.95   68.755193  (  6.550937  -0.829316   5.015242)
  36:      1650.31   49.302129  (  0.275888   6.922960  -1.139577)
  37:      1662.79   34.564372  ( -0.608434   0.399702   5.833902)
  38:      3087.66   23.700890  ( -1.217977   3.925727   2.608848)
  39:      3097.48    5.810233  (  0.589055  -0.900234  -2.157041)
  40:      3151.22    0.247436  ( -0.099351   0.263406  -0.410101)
  41:      3161.11    1.060689  (  0.013242  -0.940050  -0.420500)
  42:      3170.04    0.857353  ( -0.765540  -0.191466   0.484399)
  43:      3255.92    0.700133  ( -0.734320   0.399219   0.039124)
  44:      3418.32   37.246447  ( -6.082211   0.500735  -0.049247)
  45:      3499.52   96.715188  ( -1.997485  -7.640362   5.860896)
  46:      3512.54   96.598920  (  0.358385  -5.861388  -7.881283)
  47:      3838.19   87.644722  (  3.278981   2.362808  -8.444533)

--------------------------
THERMOCHEMISTRY AT 298.15K
--------------------------

Temperature         ... 298.15 K
Pressure            ... 1.00 atm
Total Mass          ... 88.13 AMU

Throughout the following assumptions are being made:
  (1) The electronic state is orbitally nondegenerate
  (2) There are no thermally accessible electronically excited states
  (3) Hindered rotations indicated by low frequency modes) are not
      treated as such but are treated as vibrations and this may
      case some error
  (4) All equations used are the standard statistical mechanics
      equations for an ideal gas
  (5) All vibrations are strinctly harmonic

------------
INNER ENERGY
------------

The inner energy is: U= E(el) + E(ZPE) + E(vib) + E(rot) + E(trans)
    E(el)   - is the total energy from the electronic structure calculation
              = E(kin-el) + E(nuc-el) + E(el-el) + E(nuc-nuc)
    E(ZPE)  - the the zero temperature vibrational energy from the frequency calculation
    E(vib)  - the the finite temperature correction to E(ZPE) due to population
              of excietd vibrational states
    E(rot)  - is the rotational thermal energy
    E(trans)- is the translational thermal energy

Summary of contributions to the inner energy U:
Electronic energy                ...   -287.92013986 Eh
Zero point energy                ...      0.14719200 Eh      92.36 kcal/mol
Thermal vibrational correction   ...      0.00416703 Eh       2.61 kcal/mol
Thermal rotational correction    ...      0.00141627 Eh       0.89 kcal/mol
Thermal translational correction ...      0.00141627 Eh       0.89 kcal/mol
-----------------------------------------------------------------------
Total thermal energy                   -287.76594828 Eh

Summary of corrections to the electronic energy:
(perhaps to be used in another calculation)
Total thermal correction                  0.00699957 Eh       4.39 kcal/mol
Non-thermal (ZPE) correction              0.14719200 Eh      92.36 kcal/mol
-----------------------------------------------------------------------
Total correction                          0.15419158 Eh      96.76 kcal/mol

--------
ENTHALPY
--------

The enthalpy is H = U + kB*T
                kB is Boltzmann's constant
Total free energy                 ...   -287.76594828 Eh
Thermal Enthalpy correction       ...      0.00094421 Eh       0.59 kcal/mol
-----------------------------------------------------------------------
Total Enthalpy                    ...   -287.76500407 Eh

-------
ENTROPY
-------

The entropy contributions are T*S = T*(S(el)+S(vib)+S(rot)+S(trans)
     S(el)   - electronic entropy
     S(vib)  - vibrational entropy
     S(rot)  - rotational entropy
     S(trans)- translational entropy
The entropies will be listed as mutliplied by the temperature to get
units of energy

Electronic entropy                ...      0.00000000 Eh      0.00 kcal/mol
Vibrational entropy               ...      0.00709262 Eh      4.45 kcal/mol
Rotational entropy                ...      0.01173766 Eh      7.37 kcal/mol
Translational entropy             ...      0.01869229 Eh     11.73 kcal/mol
-----------------------------------------------------------------------
Final entropy term                ...      0.03752257 Eh     23.55 kcal/mol

CAUTION: The rotational entropy is not quite correctly treated here
         because it includes a symmetry number that is not yet correctly
         implemented in ORCA!
For a nonlinear molecule the correct rotational entropy is:
    S(rot) = R*(ln(qrot/sn)+1.5)
    R    = 8.31441 J/mol/K = 1.987191683e-3 kcal/mol/K
    qrot = 167743.6857356
    sn is the rotational symmetry number. We have assumed 3 here
       if it is different for your molecule then you should correct
       the printed rotational entropy by manually evaluating the equation
       as given above

For convenience we print out the resulting values for sn=1 - 12:
 sn= 1  qrot/sn=  167743.6857 T*S(rot)=     8.02 kcal/mol T*S(tot)=    24.20 kcal/mol
 sn= 2  qrot/sn=   83871.8429 T*S(rot)=     7.61 kcal/mol T*S(tot)=    23.79 kcal/mol
 sn= 3  qrot/sn=   55914.5619 T*S(rot)=     7.37 kcal/mol T*S(tot)=    23.55 kcal/mol
 sn= 4  qrot/sn=   41935.9214 T*S(rot)=     7.20 kcal/mol T*S(tot)=    23.38 kcal/mol
 sn= 5  qrot/sn=   33548.7371 T*S(rot)=     7.06 kcal/mol T*S(tot)=    23.24 kcal/mol
 sn= 6  qrot/sn=   27957.2810 T*S(rot)=     6.95 kcal/mol T*S(tot)=    23.14 kcal/mol
 sn= 7  qrot/sn=   23963.3837 T*S(rot)=     6.86 kcal/mol T*S(tot)=    23.04 kcal/mol
 sn= 8  qrot/sn=   20967.9607 T*S(rot)=     6.78 kcal/mol T*S(tot)=    22.96 kcal/mol
 sn= 9  qrot/sn=   18638.1873 T*S(rot)=     6.71 kcal/mol T*S(tot)=    22.89 kcal/mol
 sn=10  qrot/sn=   16774.3686 T*S(rot)=     6.65 kcal/mol T*S(tot)=    22.83 kcal/mol
 sn=11  qrot/sn=   15249.4260 T*S(rot)=     6.60 kcal/mol T*S(tot)=    22.78 kcal/mol
 sn=12  qrot/sn=   13978.6405 T*S(rot)=     6.54 kcal/mol T*S(tot)=    22.72 kcal/mol

-------------------
GIBBS FREE ENTHALPY
-------------------

The Gibbs free enthalpy is G = H - T*S

Total enthalpy                    ...   -287.76500407 Eh
Total entropy correction          ...     -0.03752257 Eh    -23.55 kcal/mol
-----------------------------------------------------------------------
Final Gibbs free enthalpy         ...   -287.80252664 Eh

For completeness - the Gibbs free enthalpy minus the electronic energy
G-E(el)                           ...      0.11761321 Eh     73.80 kcal/mol

                             ****ORCA TERMINATED NORMALLY****
TOTAL RUN TIME: 0 days 0 hours 20 minutes 52 seconds 970 msec
