                         Program Version 3.0.3 - RELEASE   -
|  1> ! NORI PBE0 def2-TZVP UseSym TightOPT Freq TightSCF Grid3 FinalGrid5 XYZFile
|  2> % pal
|  3>     nprocs 8
|  4> end
|  5> %method
|  6>     SymThresh 5.0e-2
|  7> end
|  8> % geom
|  9>     MaxIter 10
| 10> end
| 11> % maxcore 2000
| 12> % output
| 13>     printlevel mini
| 14>     print[ P_Basis ] 0
| 15>     print[ P_SCFInfo ] 1
| 16>     print[ P_SCFIterInfo ] 1
| 17>     print[ P_OrbEn ] 0
| 18>     print[ P_Cartesian ] 0
| 19> end
| 20> % elprop
| 21>     Dipole false
| 22> end
| 23> *xyz 1 1
| 24>  N        1.1929677727    -0.5227004339    -0.0082759666
| 25>  C        2.5164757716     0.1809330962    -0.0639739244
| 26>  C        2.9718177494     0.0801991017    -1.5088401062
| 27>  C        4.4720254241    -0.0508550236    -1.7790851828
| 28>  C        4.1221575159    -1.4567524307    -2.2819383323
| 29>  O        2.7150945234    -1.2574907801    -1.9537747241
| 30>  H        0.9162543974    -0.7807209792     0.9385198397
| 31>  H        1.3168976889    -1.3732067217    -0.5857139575
| 32>  H        0.4424598278     0.0336428336    -0.4213272518
| 33>  H        2.4002488159     1.2029645124     0.2953089474
| 34>  H        3.1855690816    -0.3694780699     0.5979502539
| 35>  H        2.4463546364     0.8135007051    -2.1320138980
| 36>  H        4.8609815162     0.6317407837    -2.5304909273
| 37>  H        5.1082794124    -0.0142092993    -0.8955645675
| 38>  H        4.2429040120    -1.6194925624    -3.3527295639
| 39>  H        4.5438418543    -2.2955947321    -1.7282106384
| 40> *
| 41>
| 42>                          ****END OF INPUT****
 Total Charge           Charge          ....    1
 Multiplicity           Mult            ....    1
 Number of Electrons    NEL             ....   48
FINAL SINGLE POINT ENERGY      -287.920212413387
FINAL SINGLE POINT ENERGY      -287.920212912216

CARTESIAN COORDINATES (ANGSTROEM)
---------------------------------
  N      2.082961    0.000799   -0.469324
  C      0.775103   -0.020423   -1.203051
  C     -0.242405    0.567935   -0.241727
  C     -1.669712    0.018561   -0.286128
  C     -1.360255   -0.525492    1.113708
  O     -0.000767   -0.001084    1.050708
  H      2.781249   -0.619787   -0.878140
  H      1.855775   -0.306720    0.493164
  H      2.480440    0.940215   -0.415959
  H      0.874031    0.530521   -2.137919
  H      0.556905   -1.068076   -1.412915
  H     -0.162070    1.661340   -0.215468
  H     -2.448161    0.775769   -0.332269
  H     -1.853974   -0.734477   -1.051255
  H     -1.908782   -0.061557    1.933320
  H     -1.362344   -1.609511    1.231163

FINAL SINGLE POINT ENERGY      -287.920213032460
                    ***********************HURRAY********************
 Multiplicity           Mult            ....    1
 Number of Electrons    NEL             ....   48
 Basis Dimension        Dim             ....  246
FINAL SINGLE POINT ENERGY      -287.920213091790

VIBRATIONAL FREQUENCIES
-----------------------

   0:         0.00 cm**-1
   1:         0.00 cm**-1
   2:         0.00 cm**-1
   3:         0.00 cm**-1
   4:         0.00 cm**-1
   5:         0.00 cm**-1
   6:        83.10 cm**-1
   7:       131.64 cm**-1
   8:       247.74 cm**-1
   9:       297.42 cm**-1
  10:       397.92 cm**-1
  11:       501.78 cm**-1
  12:       741.46 cm**-1
  13:       797.39 cm**-1
  14:       858.68 cm**-1
  15:       882.70 cm**-1
  16:       953.65 cm**-1
  17:       971.05 cm**-1
  18:       997.94 cm**-1
  19:      1013.70 cm**-1
  20:      1038.27 cm**-1
  21:      1098.07 cm**-1
  22:      1126.59 cm**-1
  23:      1164.81 cm**-1
  24:      1198.70 cm**-1
  25:      1233.11 cm**-1
  26:      1272.86 cm**-1
  27:      1293.87 cm**-1
  28:      1332.90 cm**-1
  29:      1361.25 cm**-1
  30:      1366.98 cm**-1
  31:      1416.83 cm**-1
  32:      1477.04 cm**-1
  33:      1489.28 cm**-1
  34:      1491.13 cm**-1
  35:      1527.37 cm**-1
  36:      1645.56 cm**-1
  37:      1670.28 cm**-1
  38:      3045.95 cm**-1
  39:      3094.13 cm**-1
  40:      3104.46 cm**-1
  41:      3116.14 cm**-1
  42:      3152.14 cm**-1
  43:      3171.72 cm**-1
  44:      3182.47 cm**-1
  45:      3270.72 cm**-1
  46:      3472.17 cm**-1
  47:      3530.36 cm**-1

IR SPECTRUM
-----------

 Mode    freq (cm**-1)   T**2         TX         TY         TZ
-------------------------------------------------------------------
   6:        83.10    7.007697  (  0.633035   2.568285   0.104286)
   7:       131.64   13.755967  ( -2.283131  -2.235317   1.883252)
   8:       247.74   32.264798  (  3.907747  -1.427160  -3.867496)
   9:       297.42    2.039147  (  1.190070  -0.619602  -0.488850)
  10:       397.92   19.687999  ( -4.167379   1.141383   1.009058)
  11:       501.78    7.758347  ( -2.250712   0.284501  -1.616076)
  12:       741.46    1.500982  ( -0.171697  -0.334659   1.165978)
  13:       797.39    1.924746  ( -1.027882   0.243713   0.899338)
  14:       858.68   28.518164  ( -5.070570  -1.491156  -0.764160)
  15:       882.70    6.428772  ( -1.525278   1.963126  -0.498433)
  16:       953.65   15.491200  (  1.962467   0.949440  -3.276963)
  17:       971.05   34.518966  ( -5.813451  -0.275038  -0.804432)
  18:       997.94   11.405394  ( -2.818089   0.260396   1.842814)
  19:      1013.70   58.309957  (  5.367555   4.395277  -3.190745)
  20:      1038.27  105.705014  (  6.547204   1.730318  -7.735963)
  21:      1098.07    5.869152  ( -0.363469  -1.332342  -1.990454)
  22:      1126.59   12.560566  ( -2.073233   2.475324  -1.461178)
  23:      1164.81    2.063262  ( -0.736313   0.633230   1.058359)
  24:      1198.70    0.463210  ( -0.026223  -0.624991   0.268158)
  25:      1233.11    0.622869  ( -0.208023  -0.743883  -0.161968)
  26:      1272.86    7.577124  ( -1.174570  -1.725396   1.794580)
  27:      1293.87    4.253523  (  1.451623   1.142803  -0.916687)
  28:      1332.90   11.138543  (  1.227866   1.862314  -2.482473)
  29:      1361.25    1.811831  (  1.137534  -0.631612   0.344838)
  30:      1366.98    9.598207  ( -0.102258  -1.053654   2.911626)
  31:      1416.83    1.572957  ( -0.257159   0.262385   1.199158)
  32:      1477.04  175.407959  ( 12.277675  -0.535399   4.937611)
  33:      1489.28   25.164527  ( -4.739288   1.275045  -1.038237)
  34:      1491.13   13.066433  ( -0.277703   1.832907   3.103186)
  35:      1527.37    3.788750  ( -1.703890  -0.917070  -0.210927)
  36:      1645.56   31.595071  ( -2.432188  -4.424782   2.469988)
  37:      1670.28   38.540615  ( -3.170409   3.967503   3.570440)
  38:      3045.95   21.776288  (  1.346100   4.227001  -1.448020)
  39:      3094.13   24.468793  ( -2.724371  -2.516226   3.273409)
  40:      3104.46    0.892606  ( -0.174956   0.725686   0.579117)
  41:      3116.14    4.896769  ( -1.280555  -0.754746  -1.639301)
  42:      3152.14    4.516498  ( -0.589805   1.869564   0.820584)
  43:      3171.72    0.804631  (  0.519496   0.436888  -0.586416)
  44:      3182.47    2.469152  (  0.521524  -1.389200  -0.516999)
  45:      3270.72  139.398105  ( -5.558372  -2.348542  10.148249)
  46:      3472.17  110.272356  (  9.058284   3.785786  -3.726615)
  47:      3530.36  108.099795  ( -4.050073   8.845923   3.666927)

--------------------------
THERMOCHEMISTRY AT 298.15K
--------------------------

Temperature         ... 298.15 K
Pressure            ... 1.00 atm
Total Mass          ... 88.13 AMU

Throughout the following assumptions are being made:
  (1) The electronic state is orbitally nondegenerate
  (2) There are no thermally accessible electronically excited states
  (3) Hindered rotations indicated by low frequency modes) are not
      treated as such but are treated as vibrations and this may
      case some error
  (4) All equations used are the standard statistical mechanics
      equations for an ideal gas
  (5) All vibrations are strinctly harmonic

------------
INNER ENERGY
------------

The inner energy is: U= E(el) + E(ZPE) + E(vib) + E(rot) + E(trans)
    E(el)   - is the total energy from the electronic structure calculation
              = E(kin-el) + E(nuc-el) + E(el-el) + E(nuc-nuc)
    E(ZPE)  - the the zero temperature vibrational energy from the frequency calculation
    E(vib)  - the the finite temperature correction to E(ZPE) due to population
              of excietd vibrational states
    E(rot)  - is the rotational thermal energy
    E(trans)- is the translational thermal energy

Summary of contributions to the inner energy U:
Electronic energy                ...   -287.92021309 Eh
Zero point energy                ...      0.14858514 Eh      93.24 kcal/mol
Thermal vibrational correction   ...      0.00355815 Eh       2.23 kcal/mol
Thermal rotational correction    ...      0.00141627 Eh       0.89 kcal/mol
Thermal translational correction ...      0.00141627 Eh       0.89 kcal/mol
-----------------------------------------------------------------------
Total thermal energy                   -287.76523726 Eh

Summary of corrections to the electronic energy:
(perhaps to be used in another calculation)
Total thermal correction                  0.00639069 Eh       4.01 kcal/mol
Non-thermal (ZPE) correction              0.14858514 Eh      93.24 kcal/mol
-----------------------------------------------------------------------
Total correction                          0.15497584 Eh      97.25 kcal/mol

--------
ENTHALPY
--------

The enthalpy is H = U + kB*T
                kB is Boltzmann's constant
Total free energy                 ...   -287.76523726 Eh
Thermal Enthalpy correction       ...      0.00094421 Eh       0.59 kcal/mol
-----------------------------------------------------------------------
Total Enthalpy                    ...   -287.76429305 Eh

-------
ENTROPY
-------

The entropy contributions are T*S = T*(S(el)+S(vib)+S(rot)+S(trans)
     S(el)   - electronic entropy
     S(vib)  - vibrational entropy
     S(rot)  - rotational entropy
     S(trans)- translational entropy
The entropies will be listed as mutliplied by the temperature to get
units of energy

Electronic entropy                ...      0.00000000 Eh      0.00 kcal/mol
Vibrational entropy               ...      0.00629582 Eh      3.95 kcal/mol
Rotational entropy                ...      0.01150092 Eh      7.22 kcal/mol
Translational entropy             ...      0.01869229 Eh     11.73 kcal/mol
-----------------------------------------------------------------------
Final entropy term                ...      0.03648903 Eh     22.90 kcal/mol

CAUTION: The rotational entropy is not quite correctly treated here
         because it includes a symmetry number that is not yet correctly
         implemented in ORCA!
For a nonlinear molecule the correct rotational entropy is:
    S(rot) = R*(ln(qrot/sn)+1.5)
    R    = 8.31441 J/mol/K = 1.987191683e-3 kcal/mol/K
    qrot = 130542.2898781
    sn is the rotational symmetry number. We have assumed 3 here
       if it is different for your molecule then you should correct
       the printed rotational entropy by manually evaluating the equation
       as given above

For convenience we print out the resulting values for sn=1 - 12:
 sn= 1  qrot/sn=  130542.2899 T*S(rot)=     7.87 kcal/mol T*S(tot)=    23.55 kcal/mol
 sn= 2  qrot/sn=   65271.1449 T*S(rot)=     7.46 kcal/mol T*S(tot)=    23.14 kcal/mol
 sn= 3  qrot/sn=   43514.0966 T*S(rot)=     7.22 kcal/mol T*S(tot)=    22.90 kcal/mol
 sn= 4  qrot/sn=   32635.5725 T*S(rot)=     7.05 kcal/mol T*S(tot)=    22.73 kcal/mol
 sn= 5  qrot/sn=   26108.4580 T*S(rot)=     6.91 kcal/mol T*S(tot)=    22.59 kcal/mol
 sn= 6  qrot/sn=   21757.0483 T*S(rot)=     6.81 kcal/mol T*S(tot)=    22.49 kcal/mol
 sn= 7  qrot/sn=   18648.8986 T*S(rot)=     6.71 kcal/mol T*S(tot)=    22.40 kcal/mol
 sn= 8  qrot/sn=   16317.7862 T*S(rot)=     6.64 kcal/mol T*S(tot)=    22.32 kcal/mol
 sn= 9  qrot/sn=   14504.6989 T*S(rot)=     6.57 kcal/mol T*S(tot)=    22.25 kcal/mol
 sn=10  qrot/sn=   13054.2290 T*S(rot)=     6.50 kcal/mol T*S(tot)=    22.18 kcal/mol
 sn=11  qrot/sn=   11867.4809 T*S(rot)=     6.45 kcal/mol T*S(tot)=    22.13 kcal/mol
 sn=12  qrot/sn=   10878.5242 T*S(rot)=     6.40 kcal/mol T*S(tot)=    22.08 kcal/mol

-------------------
GIBBS FREE ENTHALPY
-------------------

The Gibbs free enthalpy is G = H - T*S

Total enthalpy                    ...   -287.76429305 Eh
Total entropy correction          ...     -0.03648903 Eh    -22.90 kcal/mol
-----------------------------------------------------------------------
Final Gibbs free enthalpy         ...   -287.80078207 Eh

For completeness - the Gibbs free enthalpy minus the electronic energy
G-E(el)                           ...      0.11943102 Eh     74.94 kcal/mol

                             ****ORCA TERMINATED NORMALLY****
TOTAL RUN TIME: 0 days 0 hours 22 minutes 53 seconds 899 msec
