                         Program Version 3.0.3 - RELEASE   -
|  1> ! NORI PBE0 def2-TZVP UseSym TightOPT Freq TightSCF Grid3 FinalGrid5 XYZFile
|  2> % pal
|  3>     nprocs 8
|  4> end
|  5> %method
|  6>     SymThresh 5.0e-2
|  7> end
|  8> % geom
|  9>     MaxIter 10
| 10> end
| 11> % maxcore 2000
| 12> % output
| 13>     printlevel mini
| 14>     print[ P_Basis ] 0
| 15>     print[ P_SCFInfo ] 1
| 16>     print[ P_SCFIterInfo ] 1
| 17>     print[ P_OrbEn ] 0
| 18>     print[ P_Cartesian ] 0
| 19> end
| 20> % elprop
| 21>     Dipole false
| 22> end
| 23> *xyz 1 1
| 24>  N        3.0912864717    -1.2542913090    -0.1433442104
| 25>  C        2.4230486609     0.0633445470     0.1669765418
| 26>  C        2.9384598893     1.1515751607    -0.7377163604
| 27>  C        2.5523435994     2.5458226196    -0.2122553063
| 28>  O        3.8576379117     2.7211362887     0.3496215990
| 29>  C        4.3643691014     1.6278190181    -0.4086932804
| 30>  H        2.7861836524    -1.9955758475     0.4908689329
| 31>  H        4.1071962783    -1.1672120961    -0.0579850379
| 32>  H        2.8868645899    -1.5555728670    -1.0987818629
| 33>  H        1.3497468208    -0.0994771302     0.0564919024
| 34>  H        2.6457489478     0.2824462105     1.2133030342
| 35>  H        2.7093961272     0.9488116055    -1.7867101319
| 36>  H        1.7620180299     2.6001182137     0.5413953543
| 37>  H        2.3472765450     3.2655306110    -1.0099098435
| 38>  H        4.9267192733     1.9571781337    -1.2886094201
| 39>  H        5.0078541010     0.9736168413     0.1960480893
| 40> *
| 41>
| 42>                          ****END OF INPUT****
 Total Charge           Charge          ....    1
 Multiplicity           Mult            ....    1
 Number of Electrons    NEL             ....   48
FINAL SINGLE POINT ENERGY      -287.902782624991

CARTESIAN COORDINATES (ANGSTROEM)
---------------------------------
  N      0.970324    0.000128   -2.136452
  C      0.140892   -0.729917   -1.107547
  C     -0.567211    0.243054   -0.201716
  C     -1.115831   -0.458318    1.053651
  O     -0.000386   -0.000200    1.825600
  C      0.349102    0.942682    0.817542
  H      1.493660   -0.644906   -2.732151
  H      1.643488    0.618728   -1.677237
  H      0.382698    0.578497   -2.741127
  H     -0.551250   -1.365911   -1.661562
  H      0.832897   -1.359684   -0.545009
  H     -1.271719    0.870520   -0.752793
  H     -1.189171   -1.548895    1.031328
  H     -2.061274   -0.035268    1.405015
  H      0.025281    1.958303    1.067918
  H      1.430922    0.955078    0.626012

FINAL SINGLE POINT ENERGY      -287.902782951386
                    ***********************HURRAY********************
 Multiplicity           Mult            ....    1
 Number of Electrons    NEL             ....   48
 Basis Dimension        Dim             ....  246
FINAL SINGLE POINT ENERGY      -287.902783001362

VIBRATIONAL FREQUENCIES
-----------------------

   0:         0.00 cm**-1
   1:         0.00 cm**-1
   2:         0.00 cm**-1
   3:         0.00 cm**-1
   4:         0.00 cm**-1
   5:         0.00 cm**-1
   6:       100.16 cm**-1
   7:       135.38 cm**-1
   8:       204.87 cm**-1
   9:       240.58 cm**-1
  10:       366.57 cm**-1
  11:       435.21 cm**-1
  12:       778.49 cm**-1
  13:       827.58 cm**-1
  14:       866.88 cm**-1
  15:       875.46 cm**-1
  16:       934.49 cm**-1
  17:       968.30 cm**-1
  18:       994.68 cm**-1
  19:      1025.35 cm**-1
  20:      1078.04 cm**-1
  21:      1095.26 cm**-1
  22:      1131.96 cm**-1
  23:      1166.13 cm**-1
  24:      1176.31 cm**-1
  25:      1237.36 cm**-1
  26:      1247.05 cm**-1
  27:      1315.83 cm**-1
  28:      1342.91 cm**-1
  29:      1359.39 cm**-1
  30:      1393.64 cm**-1
  31:      1420.15 cm**-1
  32:      1489.40 cm**-1
  33:      1498.95 cm**-1
  34:      1508.35 cm**-1
  35:      1529.32 cm**-1
  36:      1657.49 cm**-1
  37:      1662.67 cm**-1
  38:      3011.24 cm**-1
  39:      3059.19 cm**-1
  40:      3075.25 cm**-1
  41:      3091.52 cm**-1
  42:      3097.07 cm**-1
  43:      3114.44 cm**-1
  44:      3155.93 cm**-1
  45:      3417.44 cm**-1
  46:      3496.37 cm**-1
  47:      3506.75 cm**-1

IR SPECTRUM
-----------

 Mode    freq (cm**-1)   T**2         TX         TY         TZ
-------------------------------------------------------------------
   6:       100.16   14.598483  ( -0.679145   0.760066   3.682329)
   7:       135.38    1.943396  (  0.887915  -0.566450   0.913312)
   8:       204.87    4.638898  (  0.908504  -1.260182  -1.491798)
   9:       240.58    4.948412  (  1.103333  -1.523521  -1.187414)
  10:       366.57    3.442996  ( -0.526517  -0.303761   1.753141)
  11:       435.21    5.033428  ( -1.286705   0.721821   1.690205)
  12:       778.49    4.347272  ( -0.706556  -1.181009  -1.566291)
  13:       827.58   13.129841  ( -0.253895   0.809854   3.522714)
  14:       866.88   16.991709  ( -3.152176   0.609022  -2.585457)
  15:       875.46    3.032948  (  0.106949  -0.960683   1.448654)
  16:       934.49    5.357547  (  1.892124  -0.757003  -1.097433)
  17:       968.30    8.601667  ( -0.731642   0.470887  -2.800827)
  18:       994.68   24.233234  (  0.539965  -0.786915  -4.829331)
  19:      1025.35   14.570920  ( -2.701188   1.902809  -1.911497)
  20:      1078.04   83.065836  ( -6.312287  -6.434598   1.347895)
  21:      1095.26    2.416862  ( -0.131966  -0.488627   1.469929)
  22:      1131.96    6.615618  (  1.810172  -0.847011  -1.619095)
  23:      1166.13    1.015844  (  0.319217  -0.948652   0.118341)
  24:      1176.31    5.570795  ( -1.828330   1.477832   0.209803)
  25:      1237.36    9.926586  (  2.665588   1.333358  -1.021461)
  26:      1247.05   12.919889  (  1.552548   3.174385   0.657849)
  27:      1315.83    0.042956  ( -0.206206   0.020708   0.002522)
  28:      1342.91    2.870326  (  0.810125   0.426380   1.425561)
  29:      1359.39   11.102324  (  0.161329   0.231814   3.320024)
  30:      1393.64    1.125196  (  1.026330   0.110598  -0.244155)
  31:      1420.15    9.518644  (  1.668112   0.457367  -2.554772)
  32:      1489.40   18.670184  ( -2.330506   2.359310   2.769942)
  33:      1498.95   92.946583  ( -4.828335  -5.108480   6.598272)
  34:      1508.35   67.024695  (  5.125914   2.899655  -5.686977)
  35:      1529.32    0.113150  (  0.321851   0.062437   0.075257)
  36:      1657.49   49.213462  ( -5.079595  -1.163400  -4.696560)
  37:      1662.67   33.614961  ( -3.005387   4.741137   1.450594)
  38:      3011.24   62.477193  (  6.568194   3.367973  -2.827150)
  39:      3059.19   21.357234  (  3.692843   2.767985  -0.241679)
  40:      3075.25   17.030374  ( -2.053345   3.095604   1.797604)
  41:      3091.52    5.185635  (  1.131690  -0.367812   1.941553)
  42:      3097.07    5.449428  ( -1.286959   1.239734  -1.502073)
  43:      3114.44   14.321812  (  1.704692  -3.362680  -0.328969)
  44:      3155.93    0.284220  (  0.195331   0.103827   0.485063)
  45:      3417.44   37.540446  ( -3.523316  -2.603082   4.283767)
  46:      3496.37   99.851241  ( -4.737388  -2.890780  -8.309740)
  47:      3506.75  106.522064  (  6.150903  -8.083691  -1.828223)

--------------------------
THERMOCHEMISTRY AT 298.15K
--------------------------

Temperature         ... 298.15 K
Pressure            ... 1.00 atm
Total Mass          ... 88.13 AMU

Throughout the following assumptions are being made:
  (1) The electronic state is orbitally nondegenerate
  (2) There are no thermally accessible electronically excited states
  (3) Hindered rotations indicated by low frequency modes) are not
      treated as such but are treated as vibrations and this may
      case some error
  (4) All equations used are the standard statistical mechanics
      equations for an ideal gas
  (5) All vibrations are strinctly harmonic

------------
INNER ENERGY
------------

The inner energy is: U= E(el) + E(ZPE) + E(vib) + E(rot) + E(trans)
    E(el)   - is the total energy from the electronic structure calculation
              = E(kin-el) + E(nuc-el) + E(el-el) + E(nuc-nuc)
    E(ZPE)  - the the zero temperature vibrational energy from the frequency calculation
    E(vib)  - the the finite temperature correction to E(ZPE) due to population
              of excietd vibrational states
    E(rot)  - is the rotational thermal energy
    E(trans)- is the translational thermal energy

Summary of contributions to the inner energy U:
Electronic energy                ...   -287.90278300 Eh
Zero point energy                ...      0.14828456 Eh      93.05 kcal/mol
Thermal vibrational correction   ...      0.00372045 Eh       2.33 kcal/mol
Thermal rotational correction    ...      0.00141627 Eh       0.89 kcal/mol
Thermal translational correction ...      0.00141627 Eh       0.89 kcal/mol
-----------------------------------------------------------------------
Total thermal energy                   -287.74794545 Eh

Summary of corrections to the electronic energy:
(perhaps to be used in another calculation)
Total thermal correction                  0.00655300 Eh       4.11 kcal/mol
Non-thermal (ZPE) correction              0.14828456 Eh      93.05 kcal/mol
-----------------------------------------------------------------------
Total correction                          0.15483755 Eh      97.16 kcal/mol

--------
ENTHALPY
--------

The enthalpy is H = U + kB*T
                kB is Boltzmann's constant
Total free energy                 ...   -287.74794545 Eh
Thermal Enthalpy correction       ...      0.00094421 Eh       0.59 kcal/mol
-----------------------------------------------------------------------
Total Enthalpy                    ...   -287.74700124 Eh

-------
ENTROPY
-------

The entropy contributions are T*S = T*(S(el)+S(vib)+S(rot)+S(trans)
     S(el)   - electronic entropy
     S(vib)  - vibrational entropy
     S(rot)  - rotational entropy
     S(trans)- translational entropy
The entropies will be listed as mutliplied by the temperature to get
units of energy

Electronic entropy                ...      0.00000000 Eh      0.00 kcal/mol
Vibrational entropy               ...      0.00655076 Eh      4.11 kcal/mol
Rotational entropy                ...      0.01157460 Eh      7.26 kcal/mol
Translational entropy             ...      0.01869229 Eh     11.73 kcal/mol
-----------------------------------------------------------------------
Final entropy term                ...      0.03681765 Eh     23.10 kcal/mol

CAUTION: The rotational entropy is not quite correctly treated here
         because it includes a symmetry number that is not yet correctly
         implemented in ORCA!
For a nonlinear molecule the correct rotational entropy is:
    S(rot) = R*(ln(qrot/sn)+1.5)
    R    = 8.31441 J/mol/K = 1.987191683e-3 kcal/mol/K
    qrot = 141137.9302776
    sn is the rotational symmetry number. We have assumed 3 here
       if it is different for your molecule then you should correct
       the printed rotational entropy by manually evaluating the equation
       as given above

For convenience we print out the resulting values for sn=1 - 12:
 sn= 1  qrot/sn=  141137.9303 T*S(rot)=     7.91 kcal/mol T*S(tot)=    23.75 kcal/mol
 sn= 2  qrot/sn=   70568.9651 T*S(rot)=     7.50 kcal/mol T*S(tot)=    23.34 kcal/mol
 sn= 3  qrot/sn=   47045.9768 T*S(rot)=     7.26 kcal/mol T*S(tot)=    23.10 kcal/mol
 sn= 4  qrot/sn=   35284.4826 T*S(rot)=     7.09 kcal/mol T*S(tot)=    22.93 kcal/mol
 sn= 5  qrot/sn=   28227.5861 T*S(rot)=     6.96 kcal/mol T*S(tot)=    22.80 kcal/mol
 sn= 6  qrot/sn=   23522.9884 T*S(rot)=     6.85 kcal/mol T*S(tot)=    22.69 kcal/mol
 sn= 7  qrot/sn=   20162.5615 T*S(rot)=     6.76 kcal/mol T*S(tot)=    22.60 kcal/mol
 sn= 8  qrot/sn=   17642.2413 T*S(rot)=     6.68 kcal/mol T*S(tot)=    22.52 kcal/mol
 sn= 9  qrot/sn=   15681.9923 T*S(rot)=     6.61 kcal/mol T*S(tot)=    22.45 kcal/mol
 sn=10  qrot/sn=   14113.7930 T*S(rot)=     6.55 kcal/mol T*S(tot)=    22.39 kcal/mol
 sn=11  qrot/sn=   12830.7209 T*S(rot)=     6.49 kcal/mol T*S(tot)=    22.33 kcal/mol
 sn=12  qrot/sn=   11761.4942 T*S(rot)=     6.44 kcal/mol T*S(tot)=    22.28 kcal/mol

-------------------
GIBBS FREE ENTHALPY
-------------------

The Gibbs free enthalpy is G = H - T*S

Total enthalpy                    ...   -287.74700124 Eh
Total entropy correction          ...     -0.03681765 Eh    -23.10 kcal/mol
-----------------------------------------------------------------------
Final Gibbs free enthalpy         ...   -287.78381889 Eh

For completeness - the Gibbs free enthalpy minus the electronic energy
G-E(el)                           ...      0.11896411 Eh     74.65 kcal/mol

                             ****ORCA TERMINATED NORMALLY****
TOTAL RUN TIME: 0 days 0 hours 21 minutes 47 seconds 198 msec
