                         Program Version 3.0.3 - RELEASE   -
|  1> ! NORI PBE0 def2-TZVP UseSym TightOPT Freq TightSCF Grid3 FinalGrid5 XYZFile
|  2> % pal
|  3>     nprocs 8
|  4> end
|  5> %method
|  6>     SymThresh 5.0e-2
|  7> end
|  8> % geom
|  9>     MaxIter 10
| 10> end
| 11> % maxcore 2000
| 12> % output
| 13>     printlevel mini
| 14>     print[ P_Basis ] 0
| 15>     print[ P_SCFInfo ] 1
| 16>     print[ P_SCFIterInfo ] 1
| 17>     print[ P_OrbEn ] 0
| 18>     print[ P_Cartesian ] 0
| 19> end
| 20> % elprop
| 21>     Dipole false
| 22> end
| 23> *xyz 1 1
| 24>  N        1.3012778469    -0.5412570721     0.9851180796
| 25>  C        2.4001646011    -0.0744288068     0.0866171373
| 26>  C        3.0493424139    -1.2054576907    -0.6691941593
| 27>  O        4.0319719766    -0.5843761567    -1.4186011266
| 28>  C        3.2600793145    -2.5588914354    -0.0731516244
| 29>  C        2.2764996415    -2.3657482482    -1.2047560395
| 30>  H        0.8730366600     0.2442871376     1.4781606799
| 31>  H        1.6528306663    -1.1981582220     1.6858182801
| 32>  H        0.5678587369    -1.0154953921     0.4528493948
| 33>  H        1.9678302299     0.6456502367    -0.6101841852
| 34>  H        3.1380235840     0.4333278100     0.7098245853
| 35>  H        4.5205522537    -1.2224224224    -1.9473292219
| 36>  H        4.2025070310    -3.0471154573    -0.2912422664
| 37>  H        2.8788913171    -2.8168061835     0.9107457363
| 38>  H        2.5511844957    -2.7240182262    -2.1894372215
| 39>  H        1.2161892309    -2.4890198708    -1.0007580483
| 40> *
| 41>
| 42>                          ****END OF INPUT****
 Total Charge           Charge          ....    1
 Multiplicity           Mult            ....    1
 Number of Electrons    NEL             ....   48
FINAL SINGLE POINT ENERGY      -287.910588898750
FINAL SINGLE POINT ENERGY      -287.910590014433

CARTESIAN COORDINATES (ANGSTROEM)
---------------------------------
  N      1.273533   -0.002281   -1.608700
  C      1.235225   -0.012835   -0.114583
  C     -0.171633   -0.000145    0.426819
  O      0.000375   -0.000964    1.799254
  C     -1.280002    0.764334   -0.220871
  C     -1.291455   -0.747708   -0.220247
  H      2.235994   -0.017000   -1.950885
  H      0.819820    0.834762   -1.981409
  H      0.790488   -0.817098   -1.993861
  H      1.759695   -0.909370    0.219160
  H      1.779512    0.866731    0.232420
  H     -0.846725    0.007644    2.254436
  H     -1.967221    1.281119    0.438330
  H     -1.141711    1.284519   -1.164526
  H     -1.986816   -1.253956    0.438749
  H     -1.159774   -1.270576   -1.163240

FINAL SINGLE POINT ENERGY      -287.910590683173
                    ***********************HURRAY********************
 Multiplicity           Mult            ....    1
 Number of Electrons    NEL             ....   48
 Basis Dimension        Dim             ....  246
FINAL SINGLE POINT ENERGY      -287.910591080105

VIBRATIONAL FREQUENCIES
-----------------------

   0:         0.00 cm**-1
   1:         0.00 cm**-1
   2:         0.00 cm**-1
   3:         0.00 cm**-1
   4:         0.00 cm**-1
   5:         0.00 cm**-1
   6:       -96.71 cm**-1 ***imaginary mode***
   7:       112.67 cm**-1
   8:       197.83 cm**-1
   9:       230.55 cm**-1
  10:       327.10 cm**-1
  11:       383.64 cm**-1
  12:       456.01 cm**-1
  13:       467.97 cm**-1
  14:       692.47 cm**-1
  15:       750.92 cm**-1
  16:       801.80 cm**-1
  17:       897.06 cm**-1
  18:       909.75 cm**-1
  19:       960.78 cm**-1
  20:       983.73 cm**-1
  21:      1025.20 cm**-1
  22:      1054.42 cm**-1
  23:      1080.91 cm**-1
  24:      1090.81 cm**-1
  25:      1143.55 cm**-1
  26:      1158.66 cm**-1
  27:      1179.90 cm**-1
  28:      1324.82 cm**-1
  29:      1337.06 cm**-1
  30:      1400.76 cm**-1
  31:      1457.35 cm**-1
  32:      1463.00 cm**-1
  33:      1493.51 cm**-1
  34:      1505.72 cm**-1
  35:      1521.99 cm**-1
  36:      1652.36 cm**-1
  37:      1663.41 cm**-1
  38:      3098.67 cm**-1
  39:      3129.74 cm**-1
  40:      3135.19 cm**-1
  41:      3157.79 cm**-1
  42:      3216.27 cm**-1
  43:      3229.08 cm**-1
  44:      3422.74 cm**-1
  45:      3497.99 cm**-1
  46:      3510.92 cm**-1
  47:      3861.76 cm**-1

IR SPECTRUM
-----------

 Mode    freq (cm**-1)   T**2         TX         TY         TZ
-------------------------------------------------------------------
   7:       112.67   66.798211  (  0.069309   8.172722   0.003950)
   8:       197.83    4.795758  (  0.076554   2.188556  -0.010955)
   9:       230.55   18.385535  ( -4.185429   0.039538   0.930674)
  10:       327.10    1.845220  ( -0.018765  -1.358195   0.013247)
  11:       383.64   20.472381  (  1.840118  -0.022073  -4.133505)
  12:       456.01   21.691197  (  2.756625  -0.016022  -3.753926)
  13:       467.97    0.013899  ( -0.073089  -0.021263   0.090027)
  14:       692.47    6.049923  (  2.027480  -0.008074   1.392546)
  15:       750.92    0.039721  ( -0.055982  -0.000895  -0.191275)
  16:       801.80    0.012380  ( -0.012082  -0.109945  -0.012074)
  17:       897.06    5.740421  (  0.037512   2.395331  -0.037446)
  18:       909.75   29.911431  (  1.022249  -0.016820  -5.372723)
  19:       960.78   25.883696  (  0.047646   5.087364   0.012575)
  20:       983.73    3.471394  (  0.724489   0.021540  -1.716405)
  21:      1025.20    6.745288  ( -2.354688   0.006048   1.095763)
  22:      1054.42   35.957281  (  5.162903  -0.047735   3.049497)
  23:      1080.91    1.413677  (  0.040945   1.188077   0.021775)
  24:      1090.81   22.429907  (  4.345556  -0.052211   1.882371)
  25:      1143.55    0.435175  (  0.006766   0.656400  -0.065334)
  26:      1158.66  110.570086  (  1.172451  -0.009595  10.449658)
  27:      1179.90    0.377546  (  0.007109   0.613955   0.023561)
  28:      1324.82   18.679126  (  1.397077   0.057212  -4.089502)
  29:      1337.06   11.077483  ( -0.000816  -3.326834  -0.098261)
  30:      1400.76   40.603786  (  2.274937  -0.019768   5.952147)
  31:      1457.35    6.770872  ( -1.105525  -0.003516   2.355562)
  32:      1463.00    7.040405  (  0.010611   2.653134  -0.034245)
  33:      1493.51   20.096920  (  4.482100  -0.046573   0.074377)
  34:      1505.72  129.223650  ( -2.214826  -0.038385  11.149741)
  35:      1521.99   38.865924  (  2.680779  -0.026578   5.628378)
  36:      1652.36   60.759554  ( -0.190701  -7.792412  -0.038731)
  37:      1663.41   45.709080  ( -6.584318   0.153529   1.527174)
  38:      3098.67    2.165497  ( -1.439261   0.017311   0.306145)
  39:      3129.74    4.574773  ( -0.117938  -2.129685   0.159080)
  40:      3135.19   16.160818  (  2.354689  -0.101344  -3.256684)
  41:      3157.79    0.059479  ( -0.011122  -0.243453  -0.009286)
  42:      3216.27    1.956823  ( -0.003161   1.398208   0.042756)
  43:      3229.08    3.080128  (  0.206274  -0.021542   1.742732)
  44:      3422.74   27.955487  (  0.289126  -0.004776  -5.279382)
  45:      3497.99   79.421758  ( -0.381125  -8.903678   0.031922)
  46:      3510.92  129.266741  (-11.219645   0.340333   1.808446)
  47:      3861.76   84.351832  (  5.252457  -0.040033  -7.534051)

--------------------------
THERMOCHEMISTRY AT 298.15K
--------------------------

Temperature         ... 298.15 K
Pressure            ... 1.00 atm
Total Mass          ... 88.13 AMU

Throughout the following assumptions are being made:
  (1) The electronic state is orbitally nondegenerate
  (2) There are no thermally accessible electronically excited states
  (3) Hindered rotations indicated by low frequency modes) are not
      treated as such but are treated as vibrations and this may
      case some error
  (4) All equations used are the standard statistical mechanics
      equations for an ideal gas
  (5) All vibrations are strinctly harmonic

------------
INNER ENERGY
------------

The inner energy is: U= E(el) + E(ZPE) + E(vib) + E(rot) + E(trans)
    E(el)   - is the total energy from the electronic structure calculation
              = E(kin-el) + E(nuc-el) + E(el-el) + E(nuc-nuc)
    E(ZPE)  - the the zero temperature vibrational energy from the frequency calculation
    E(vib)  - the the finite temperature correction to E(ZPE) due to population
              of excietd vibrational states
    E(rot)  - is the rotational thermal energy
    E(trans)- is the translational thermal energy

Summary of contributions to the inner energy U:
Electronic energy                ...   -287.91059108 Eh
Zero point energy                ...      0.14577052 Eh      91.47 kcal/mol
Thermal vibrational correction   ...      0.00371919 Eh       2.33 kcal/mol
Thermal rotational correction    ...      0.00141627 Eh       0.89 kcal/mol
Thermal translational correction ...      0.00141627 Eh       0.89 kcal/mol
-----------------------------------------------------------------------
Total thermal energy                   -287.75826883 Eh

Summary of corrections to the electronic energy:
(perhaps to be used in another calculation)
Total thermal correction                  0.00655173 Eh       4.11 kcal/mol
Non-thermal (ZPE) correction              0.14577052 Eh      91.47 kcal/mol
-----------------------------------------------------------------------
Total correction                          0.15232225 Eh      95.58 kcal/mol

--------
ENTHALPY
--------

The enthalpy is H = U + kB*T
                kB is Boltzmann's constant
Total free energy                 ...   -287.75826883 Eh
Thermal Enthalpy correction       ...      0.00094421 Eh       0.59 kcal/mol
-----------------------------------------------------------------------
Total Enthalpy                    ...   -287.75732462 Eh

-------
ENTROPY
-------

The entropy contributions are T*S = T*(S(el)+S(vib)+S(rot)+S(trans)
     S(el)   - electronic entropy
     S(vib)  - vibrational entropy
     S(rot)  - rotational entropy
     S(trans)- translational entropy
The entropies will be listed as mutliplied by the temperature to get
units of energy

Electronic entropy                ...      0.00000000 Eh      0.00 kcal/mol
Vibrational entropy               ...      0.00613203 Eh      3.85 kcal/mol
Rotational entropy                ...      0.01158993 Eh      7.27 kcal/mol
Translational entropy             ...      0.01869229 Eh     11.73 kcal/mol
-----------------------------------------------------------------------
Final entropy term                ...      0.03641424 Eh     22.85 kcal/mol

CAUTION: The rotational entropy is not quite correctly treated here
         because it includes a symmetry number that is not yet correctly
         implemented in ORCA!
For a nonlinear molecule the correct rotational entropy is:
    S(rot) = R*(ln(qrot/sn)+1.5)
    R    = 8.31441 J/mol/K = 1.987191683e-3 kcal/mol/K
    qrot = 143447.4387706
    sn is the rotational symmetry number. We have assumed 3 here
       if it is different for your molecule then you should correct
       the printed rotational entropy by manually evaluating the equation
       as given above

For convenience we print out the resulting values for sn=1 - 12:
 sn= 1  qrot/sn=  143447.4388 T*S(rot)=     7.92 kcal/mol T*S(tot)=    23.50 kcal/mol
 sn= 2  qrot/sn=   71723.7194 T*S(rot)=     7.51 kcal/mol T*S(tot)=    23.09 kcal/mol
 sn= 3  qrot/sn=   47815.8129 T*S(rot)=     7.27 kcal/mol T*S(tot)=    22.85 kcal/mol
 sn= 4  qrot/sn=   35861.8597 T*S(rot)=     7.10 kcal/mol T*S(tot)=    22.68 kcal/mol
 sn= 5  qrot/sn=   28689.4878 T*S(rot)=     6.97 kcal/mol T*S(tot)=    22.55 kcal/mol
 sn= 6  qrot/sn=   23907.9065 T*S(rot)=     6.86 kcal/mol T*S(tot)=    22.44 kcal/mol
 sn= 7  qrot/sn=   20492.4913 T*S(rot)=     6.77 kcal/mol T*S(tot)=    22.35 kcal/mol
 sn= 8  qrot/sn=   17930.9298 T*S(rot)=     6.69 kcal/mol T*S(tot)=    22.27 kcal/mol
 sn= 9  qrot/sn=   15938.6043 T*S(rot)=     6.62 kcal/mol T*S(tot)=    22.20 kcal/mol
 sn=10  qrot/sn=   14344.7439 T*S(rot)=     6.56 kcal/mol T*S(tot)=    22.14 kcal/mol
 sn=11  qrot/sn=   13040.6763 T*S(rot)=     6.50 kcal/mol T*S(tot)=    22.08 kcal/mol
 sn=12  qrot/sn=   11953.9532 T*S(rot)=     6.45 kcal/mol T*S(tot)=    22.03 kcal/mol

-------------------
GIBBS FREE ENTHALPY
-------------------

The Gibbs free enthalpy is G = H - T*S

Total enthalpy                    ...   -287.75732462 Eh
Total entropy correction          ...     -0.03641424 Eh    -22.85 kcal/mol
-----------------------------------------------------------------------
Final Gibbs free enthalpy         ...   -287.79373886 Eh

For completeness - the Gibbs free enthalpy minus the electronic energy
G-E(el)                           ...      0.11685222 Eh     73.33 kcal/mol

                             ****ORCA TERMINATED NORMALLY****
TOTAL RUN TIME: 0 days 0 hours 23 minutes 28 seconds 933 msec
