                         Program Version 3.0.3 - RELEASE   -
|  1> ! NORI PBE0 def2-TZVP UseSym TightOPT Freq TightSCF Grid3 FinalGrid5 XYZFile
|  2> % pal
|  3>     nprocs 8
|  4> end
|  5> %method
|  6>     SymThresh 5.0e-2
|  7> end
|  8> % geom
|  9>     MaxIter 10
| 10> end
| 11> % maxcore 2000
| 12> % output
| 13>     printlevel mini
| 14>     print[ P_Basis ] 0
| 15>     print[ P_SCFInfo ] 1
| 16>     print[ P_SCFIterInfo ] 1
| 17>     print[ P_OrbEn ] 0
| 18>     print[ P_Cartesian ] 0
| 19> end
| 20> % elprop
| 21>     Dipole false
| 22> end
| 23> *xyz 1 1
| 24>  N        0.7543434528     0.0390007226    -0.1307114841
| 25>  C        2.1849803379     0.3701199460     0.2108463512
| 26>  C        3.0992676933     0.0052871006    -0.9366409704
| 27>  C        4.5256896261     0.3992213981    -0.6452901770
| 28>  C        5.4838853509    -0.5514380317    -0.0811887222
| 29>  O        5.4854007882    -0.2232169729    -1.4598564097
| 30>  H        0.1140014813     0.2790100870     0.6297900505
| 31>  H        0.6474078759    -0.9594740699    -0.3264416023
| 32>  H        0.4519787920     0.5455724269    -0.9666227439
| 33>  H        2.2064893631     1.4373806096     0.4362333390
| 34>  H        2.4221854391    -0.1821453821     1.1210034850
| 35>  H        3.0721773426    -1.0721853431    -1.1292483217
| 36>  H        2.7775917255     0.5142058432    -1.8536360930
| 37>  H        4.6910365041     1.4640902335    -0.4791066443
| 38>  H        6.3319857098    -0.1811089943     0.4874304744
| 39>  H        5.1625985174    -1.5641795735     0.1523594686
| 40> *
| 41>
| 42>                          ****END OF INPUT****
 Total Charge           Charge          ....    1
 Multiplicity           Mult            ....    1
 Number of Electrons    NEL             ....   48
FINAL SINGLE POINT ENERGY      -287.904400216358
FINAL SINGLE POINT ENERGY      -287.904401464939

CARTESIAN COORDINATES (ANGSTROEM)
---------------------------------
  N      0.898542   -0.000721   -2.641398
  C     -0.115188    0.191985   -1.542063
  C      0.556544    0.134185   -0.188731
  C     -0.428981    0.399710    0.922096
  C     -1.101371   -0.690456    1.627937
  O      0.000053   -0.003184    2.196983
  H      0.468969    0.036324   -3.568226
  H      1.368446   -0.904351   -2.550092
  H      1.621114    0.722004   -2.601687
  H     -0.590056    1.156316   -1.729221
  H     -0.861653   -0.593263   -1.667237
  H      1.008493   -0.848519   -0.020275
  H      1.357627    0.881712   -0.130860
  H     -0.913303    1.375884    0.892508
  H     -2.060659   -0.507764    2.102484
  H     -0.904019   -1.721053    1.340312

FINAL SINGLE POINT ENERGY      -287.904402069918
                    ***********************HURRAY********************
 Multiplicity           Mult            ....    1
 Number of Electrons    NEL             ....   48
 Basis Dimension        Dim             ....  246
FINAL SINGLE POINT ENERGY      -287.904402604174

VIBRATIONAL FREQUENCIES
-----------------------

   0:         0.00 cm**-1
   1:         0.00 cm**-1
   2:         0.00 cm**-1
   3:         0.00 cm**-1
   4:         0.00 cm**-1
   5:         0.00 cm**-1
   6:        82.09 cm**-1
   7:        93.36 cm**-1
   8:       172.19 cm**-1
   9:       226.69 cm**-1
  10:       331.64 cm**-1
  11:       433.74 cm**-1
  12:       436.61 cm**-1
  13:       774.55 cm**-1
  14:       846.03 cm**-1
  15:       894.53 cm**-1
  16:       903.00 cm**-1
  17:       933.43 cm**-1
  18:       972.89 cm**-1
  19:       992.13 cm**-1
  20:      1049.24 cm**-1
  21:      1107.83 cm**-1
  22:      1152.16 cm**-1
  23:      1174.86 cm**-1
  24:      1177.26 cm**-1
  25:      1188.66 cm**-1
  26:      1285.64 cm**-1
  27:      1303.44 cm**-1
  28:      1335.48 cm**-1
  29:      1353.94 cm**-1
  30:      1416.62 cm**-1
  31:      1453.87 cm**-1
  32:      1478.87 cm**-1
  33:      1502.40 cm**-1
  34:      1512.01 cm**-1
  35:      1534.47 cm**-1
  36:      1657.85 cm**-1
  37:      1663.99 cm**-1
  38:      3036.33 cm**-1
  39:      3089.81 cm**-1
  40:      3099.73 cm**-1
  41:      3110.36 cm**-1
  42:      3121.85 cm**-1
  43:      3159.15 cm**-1
  44:      3208.58 cm**-1
  45:      3419.82 cm**-1
  46:      3499.75 cm**-1
  47:      3506.01 cm**-1

IR SPECTRUM
-----------

 Mode    freq (cm**-1)   T**2         TX         TY         TZ
-------------------------------------------------------------------
   6:        82.09    0.578442  (  0.681855   0.295304  -0.162209)
   7:        93.36    6.007151  ( -0.135121   2.421207  -0.355876)
   8:       172.19    5.311485  ( -0.497578  -0.835643  -2.089402)
   9:       226.69    0.379909  ( -0.011196   0.305918   0.534975)
  10:       331.64    7.733442  (  0.151409   0.064853  -2.776024)
  11:       433.74   12.870245  (  0.961522   0.059393  -3.455748)
  12:       436.61    1.593820  ( -1.098617   0.576790   0.232750)
  13:       774.55    8.343128  (  0.192804  -2.590168   1.263718)
  14:       846.03   32.292700  (  3.038051   1.810198   4.448160)
  15:       894.53    7.643113  ( -0.173404  -2.023018   1.876284)
  16:       903.00   32.093158  ( -0.033621   0.252506  -5.659352)
  17:       933.43    2.945104  (  0.550975   1.133749  -1.164535)
  18:       972.89    8.106236  (  0.904548  -0.825287   2.570395)
  19:       992.13    5.367983  ( -0.911103   1.900645  -0.961990)
  20:      1049.24   16.855070  ( -3.764814  -1.418236  -0.818447)
  21:      1107.83    6.099911  (  1.075298   0.248138  -2.209542)
  22:      1152.16   18.908871  ( -2.859214  -0.159460  -3.272360)
  23:      1174.86    0.507894  (  0.366627   0.459877   0.402481)
  24:      1177.26    5.074191  ( -0.235542   1.865773   1.240000)
  25:      1188.66    5.217733  ( -1.978274   1.088227  -0.346302)
  26:      1285.64    3.026127  ( -1.165360   0.276946  -1.261492)
  27:      1303.44    5.102261  (  1.539713   1.597794   0.422612)
  28:      1335.48    2.964394  ( -1.613073   0.189822  -0.571278)
  29:      1353.94    4.395088  (  0.086669  -2.086957   0.179405)
  30:      1416.62   10.792294  (  1.451895  -0.566757  -2.891899)
  31:      1453.87   18.815296  ( -0.750859   0.539213   4.238013)
  32:      1478.87    1.205619  (  0.534417  -0.670811  -0.685588)
  33:      1502.40   14.182334  ( -2.092833   0.378949  -3.107858)
  34:      1512.01  148.828738  ( -8.305792   1.363141   8.830877)
  35:      1534.47    4.802034  ( -1.210358   1.102221  -1.456769)
  36:      1657.85   53.397261  ( -0.725568  -7.233883   0.736034)
  37:      1663.99   38.048069  (  4.255199   0.100862   4.464435)
  38:      3036.33   10.730114  (  2.772103   0.560542  -1.652680)
  39:      3089.81    1.862427  (  0.781770   1.106972   0.160864)
  40:      3099.73    1.160131  (  0.809736   0.003651   0.710243)
  41:      3110.36   12.724292  ( -1.415227  -3.147955  -0.901001)
  42:      3121.85   12.046103  (  1.753346  -2.782131   1.109787)
  43:      3159.15    0.525513  (  0.100180   0.709423  -0.110435)
  44:      3208.58    6.710626  (  1.715285  -1.631998  -1.051192)
  45:      3419.82   48.367073  (  4.149609  -0.507219  -5.557927)
  46:      3499.75   95.432640  (  1.984070   9.558529   0.361426)
  47:      3506.01  102.352247  ( -6.988732   1.630252  -7.131069)

--------------------------
THERMOCHEMISTRY AT 298.15K
--------------------------

Temperature         ... 298.15 K
Pressure            ... 1.00 atm
Total Mass          ... 88.13 AMU

Throughout the following assumptions are being made:
  (1) The electronic state is orbitally nondegenerate
  (2) There are no thermally accessible electronically excited states
  (3) Hindered rotations indicated by low frequency modes) are not
      treated as such but are treated as vibrations and this may
      case some error
  (4) All equations used are the standard statistical mechanics
      equations for an ideal gas
  (5) All vibrations are strinctly harmonic

------------
INNER ENERGY
------------

The inner energy is: U= E(el) + E(ZPE) + E(vib) + E(rot) + E(trans)
    E(el)   - is the total energy from the electronic structure calculation
              = E(kin-el) + E(nuc-el) + E(el-el) + E(nuc-nuc)
    E(ZPE)  - the the zero temperature vibrational energy from the frequency calculation
    E(vib)  - the the finite temperature correction to E(ZPE) due to population
              of excietd vibrational states
    E(rot)  - is the rotational thermal energy
    E(trans)- is the translational thermal energy

Summary of contributions to the inner energy U:
Electronic energy                ...   -287.90440260 Eh
Zero point energy                ...      0.14738117 Eh      92.48 kcal/mol
Thermal vibrational correction   ...      0.00417336 Eh       2.62 kcal/mol
Thermal rotational correction    ...      0.00141627 Eh       0.89 kcal/mol
Thermal translational correction ...      0.00141627 Eh       0.89 kcal/mol
-----------------------------------------------------------------------
Total thermal energy                   -287.75001553 Eh

Summary of corrections to the electronic energy:
(perhaps to be used in another calculation)
Total thermal correction                  0.00700590 Eh       4.40 kcal/mol
Non-thermal (ZPE) correction              0.14738117 Eh      92.48 kcal/mol
-----------------------------------------------------------------------
Total correction                          0.15438707 Eh      96.88 kcal/mol

--------
ENTHALPY
--------

The enthalpy is H = U + kB*T
                kB is Boltzmann's constant
Total free energy                 ...   -287.75001553 Eh
Thermal Enthalpy correction       ...      0.00094421 Eh       0.59 kcal/mol
-----------------------------------------------------------------------
Total Enthalpy                    ...   -287.74907133 Eh

-------
ENTROPY
-------

The entropy contributions are T*S = T*(S(el)+S(vib)+S(rot)+S(trans)
     S(el)   - electronic entropy
     S(vib)  - vibrational entropy
     S(rot)  - rotational entropy
     S(trans)- translational entropy
The entropies will be listed as mutliplied by the temperature to get
units of energy

Electronic entropy                ...      0.00000000 Eh      0.00 kcal/mol
Vibrational entropy               ...      0.00769685 Eh      4.83 kcal/mol
Rotational entropy                ...      0.01172240 Eh      7.36 kcal/mol
Translational entropy             ...      0.01869229 Eh     11.73 kcal/mol
-----------------------------------------------------------------------
Final entropy term                ...      0.03811154 Eh     23.92 kcal/mol

CAUTION: The rotational entropy is not quite correctly treated here
         because it includes a symmetry number that is not yet correctly
         implemented in ORCA!
For a nonlinear molecule the correct rotational entropy is:
    S(rot) = R*(ln(qrot/sn)+1.5)
    R    = 8.31441 J/mol/K = 1.987191683e-3 kcal/mol/K
    qrot = 165054.6918777
    sn is the rotational symmetry number. We have assumed 3 here
       if it is different for your molecule then you should correct
       the printed rotational entropy by manually evaluating the equation
       as given above

For convenience we print out the resulting values for sn=1 - 12:
 sn= 1  qrot/sn=  165054.6919 T*S(rot)=     8.01 kcal/mol T*S(tot)=    24.57 kcal/mol
 sn= 2  qrot/sn=   82527.3459 T*S(rot)=     7.60 kcal/mol T*S(tot)=    24.16 kcal/mol
 sn= 3  qrot/sn=   55018.2306 T*S(rot)=     7.36 kcal/mol T*S(tot)=    23.92 kcal/mol
 sn= 4  qrot/sn=   41263.6730 T*S(rot)=     7.19 kcal/mol T*S(tot)=    23.74 kcal/mol
 sn= 5  qrot/sn=   33010.9384 T*S(rot)=     7.05 kcal/mol T*S(tot)=    23.61 kcal/mol
 sn= 6  qrot/sn=   27509.1153 T*S(rot)=     6.95 kcal/mol T*S(tot)=    23.50 kcal/mol
 sn= 7  qrot/sn=   23579.2417 T*S(rot)=     6.85 kcal/mol T*S(tot)=    23.41 kcal/mol
 sn= 8  qrot/sn=   20631.8365 T*S(rot)=     6.77 kcal/mol T*S(tot)=    23.33 kcal/mol
 sn= 9  qrot/sn=   18339.4102 T*S(rot)=     6.70 kcal/mol T*S(tot)=    23.26 kcal/mol
 sn=10  qrot/sn=   16505.4692 T*S(rot)=     6.64 kcal/mol T*S(tot)=    23.20 kcal/mol
 sn=11  qrot/sn=   15004.9720 T*S(rot)=     6.59 kcal/mol T*S(tot)=    23.15 kcal/mol
 sn=12  qrot/sn=   13754.5577 T*S(rot)=     6.53 kcal/mol T*S(tot)=    23.09 kcal/mol

-------------------
GIBBS FREE ENTHALPY
-------------------

The Gibbs free enthalpy is G = H - T*S

Total enthalpy                    ...   -287.74907133 Eh
Total entropy correction          ...     -0.03811154 Eh    -23.92 kcal/mol
-----------------------------------------------------------------------
Final Gibbs free enthalpy         ...   -287.78718286 Eh

For completeness - the Gibbs free enthalpy minus the electronic energy
G-E(el)                           ...      0.11721974 Eh     73.56 kcal/mol

                             ****ORCA TERMINATED NORMALLY****
TOTAL RUN TIME: 0 days 0 hours 20 minutes 31 seconds 758 msec
