                         Program Version 3.0.3 - RELEASE   -
|  1> ! NORI PBE0 def2-TZVP UseSym TightOPT Freq TightSCF Grid3 FinalGrid5 XYZFile
|  2> % pal
|  3>     nprocs 8
|  4> end
|  5> %method
|  6>     SymThresh 5.0e-2
|  7> end
|  8> % geom
|  9>     MaxIter 10
| 10> end
| 11> % maxcore 2000
| 12> % output
| 13>     printlevel mini
| 14>     print[ P_Basis ] 0
| 15>     print[ P_SCFInfo ] 1
| 16>     print[ P_SCFIterInfo ] 1
| 17>     print[ P_OrbEn ] 0
| 18>     print[ P_Cartesian ] 0
| 19> end
| 20> % elprop
| 21>     Dipole false
| 22> end
| 23> *xyz 1 1
| 24>  N        1.6699220483     0.6976455459     1.0263803957
| 25>  C        2.5658593527     0.0901834241    -0.0453593699
| 26>  C        3.0418826116    -1.2522792263     0.3713974472
| 27>  C        4.3067822110    -1.4805141594     0.7117638656
| 28>  C        4.8637804907    -2.7983244589     1.1235153955
| 29>  O        6.0916697785    -2.9488582294     0.4617589716
| 30>  H        1.3266003145     1.6235644911     0.7616936433
| 31>  H        2.1837910574     0.7809280191     1.9061033796
| 32>  H        0.8607052252     0.0991748400     1.2029481241
| 33>  H        1.9588407716     0.0649014355    -0.9523840696
| 34>  H        3.3879123271     0.7917663545    -0.1857735021
| 35>  H        2.3231814062    -2.0682944046     0.3387422690
| 36>  H        5.0366854107    -0.6719393169     0.6834135217
| 37>  H        4.9933531004    -2.7820773854     2.2175445900
| 38>  H        4.1574319822    -3.6045369027     0.8856363757
| 39>  H        6.5481119120    -3.7219500263     0.8042689628
| 40> *
| 41>
| 42>                          ****END OF INPUT****
 Total Charge           Charge          ....    1
 Multiplicity           Mult            ....    1
 Number of Electrons    NEL             ....   48
FINAL SINGLE POINT ENERGY      -287.919897397498

CARTESIAN COORDINATES (ANGSTROEM)
---------------------------------
  N      0.446546   -0.000110   -2.866574
  C     -0.048247   -0.877281   -1.723823
  C     -0.494228   -0.042829   -0.580526
  C      0.189159    0.020508    0.558391
  C     -0.200101    0.818617    1.753467
  O     -0.000142   -0.000179    2.875013
  H      0.758201   -0.552315   -3.668857
  H      1.225751    0.580787   -2.549678
  H     -0.292318    0.630257   -3.184745
  H     -0.850913   -1.483238   -2.148340
  H      0.785929   -1.526117   -1.457648
  H     -1.440475    0.483126   -0.686550
  H      1.104707   -0.557179    0.681093
  H      0.442899    1.712579    1.785541
  H     -1.239182    1.161322    1.664107
  H     -0.108051    0.520078    3.675609

FINAL SINGLE POINT ENERGY      -287.919897662541
                    ***********************HURRAY********************
 Multiplicity           Mult            ....    1
 Number of Electrons    NEL             ....   48
 Basis Dimension        Dim             ....  246
FINAL SINGLE POINT ENERGY      -287.919897719080

VIBRATIONAL FREQUENCIES
-----------------------

   0:         0.00 cm**-1
   1:         0.00 cm**-1
   2:         0.00 cm**-1
   3:         0.00 cm**-1
   4:         0.00 cm**-1
   5:         0.00 cm**-1
   6:        53.39 cm**-1
   7:       121.45 cm**-1
   8:       137.74 cm**-1
   9:       201.86 cm**-1
  10:       248.35 cm**-1
  11:       287.73 cm**-1
  12:       360.22 cm**-1
  13:       467.13 cm**-1
  14:       522.80 cm**-1
  15:       785.32 cm**-1
  16:       853.14 cm**-1
  17:       863.81 cm**-1
  18:       949.36 cm**-1
  19:      1000.96 cm**-1
  20:      1027.59 cm**-1
  21:      1060.05 cm**-1
  22:      1115.43 cm**-1
  23:      1126.44 cm**-1
  24:      1174.39 cm**-1
  25:      1232.16 cm**-1
  26:      1261.26 cm**-1
  27:      1310.02 cm**-1
  28:      1331.46 cm**-1
  29:      1348.68 cm**-1
  30:      1400.43 cm**-1
  31:      1454.80 cm**-1
  32:      1487.71 cm**-1
  33:      1493.35 cm**-1
  34:      1495.58 cm**-1
  35:      1652.41 cm**-1
  36:      1661.74 cm**-1
  37:      1742.32 cm**-1
  38:      2985.74 cm**-1
  39:      3038.62 cm**-1
  40:      3096.13 cm**-1
  41:      3152.84 cm**-1
  42:      3155.72 cm**-1
  43:      3170.30 cm**-1
  44:      3416.29 cm**-1
  45:      3506.30 cm**-1
  46:      3508.08 cm**-1
  47:      3869.50 cm**-1

IR SPECTRUM
-----------

 Mode    freq (cm**-1)   T**2         TX         TY         TZ
-------------------------------------------------------------------
   6:        53.39    1.652918  ( -0.282176  -0.269858  -1.224937)
   7:       121.45   12.897575  ( -2.171852  -2.591027  -1.211286)
   8:       137.74    8.614532  (  0.864443  -1.310239   2.480029)
   9:       201.86    5.943339  (  2.284642   0.844553   0.102379)
  10:       248.35  121.472837  (-10.693872  -2.666547   0.058959)
  11:       287.73    8.259040  ( -2.245635   0.174595   1.784847)
  12:       360.22   12.592525  ( -0.243804  -0.094630  -3.538945)
  13:       467.13    0.548531  ( -0.218721   0.232174   0.668422)
  14:       522.80    3.777325  ( -1.740128   0.196964  -0.842902)
  15:       785.32    3.492345  (  1.645892   0.884940  -0.016262)
  16:       853.14   11.058619  (  2.536787  -1.027506   1.888800)
  17:       863.81   53.584654  ( -1.662259  -0.190721   7.126372)
  18:       949.36   10.729779  (  1.345544   1.767505  -2.407326)
  19:      1000.96   28.418501  ( -1.556805  -4.322637   2.703639)
  20:      1027.59   12.227281  (  2.868933   1.084320  -1.679510)
  21:      1060.05   10.606542  ( -2.096746  -2.320997   0.907286)
  22:      1115.43   41.162230  (  0.642526  -5.182008   3.727758)
  23:      1126.44   78.543013  ( -0.454549  -2.832776   8.385212)
  24:      1174.39   20.604853  ( -0.433992   2.719787   3.608222)
  25:      1232.16   51.701526  ( -1.182209   3.823456  -5.973700)
  26:      1261.26   16.020877  ( -0.418773   2.160686  -3.343194)
  27:      1310.02   24.216801  ( -2.613772   1.837613  -3.742750)
  28:      1331.46    4.960224  ( -1.067414   1.778789   0.810408)
  29:      1348.68    5.867285  ( -0.719630  -1.740412  -1.523281)
  30:      1400.43   35.912541  (  0.352762   0.641687   5.947801)
  31:      1454.80   17.958396  (  0.025009   1.346876   4.017922)
  32:      1487.71   12.913482  (  1.219795  -3.122870  -1.293547)
  33:      1493.35    6.049132  (  0.729688  -1.408701  -1.879428)
  34:      1495.58  144.003485  ( -3.940094  -6.550292   9.250558)
  35:      1652.41   49.734106  (  6.740036  -0.910572   1.864640)
  36:      1661.74   38.053679  (  0.253353  -4.562745  -4.143773)
  37:      1742.32   23.955577  (  0.325287   1.211436   4.730982)
  38:      2985.74   27.241338  (  0.362963   4.330193  -2.891198)
  39:      3038.62   22.605440  ( -4.476408   1.274515  -0.970991)
  40:      3096.13    3.265945  (  0.260857  -0.986448  -1.491583)
  41:      3152.84    1.018002  (  0.649962  -0.465674  -0.615385)
  42:      3155.72    1.973544  (  0.939503  -0.785656  -0.688203)
  43:      3170.30    1.098237  (  0.719483  -0.750415  -0.132131)
  44:      3416.29   39.523443  (  2.028468   2.486959  -5.405904)
  45:      3506.30   86.760640  ( -3.143099  -6.459192  -5.929622)
  46:      3508.08   93.459355  (  8.389775  -4.673327   1.109523)
  47:      3869.50   86.731183  (  0.418137  -2.401653  -8.988237)

--------------------------
THERMOCHEMISTRY AT 298.15K
--------------------------

Temperature         ... 298.15 K
Pressure            ... 1.00 atm
Total Mass          ... 88.13 AMU

Throughout the following assumptions are being made:
  (1) The electronic state is orbitally nondegenerate
  (2) There are no thermally accessible electronically excited states
  (3) Hindered rotations indicated by low frequency modes) are not
      treated as such but are treated as vibrations and this may
      case some error
  (4) All equations used are the standard statistical mechanics
      equations for an ideal gas
  (5) All vibrations are strinctly harmonic

------------
INNER ENERGY
------------

The inner energy is: U= E(el) + E(ZPE) + E(vib) + E(rot) + E(trans)
    E(el)   - is the total energy from the electronic structure calculation
              = E(kin-el) + E(nuc-el) + E(el-el) + E(nuc-nuc)
    E(ZPE)  - the the zero temperature vibrational energy from the frequency calculation
    E(vib)  - the the finite temperature correction to E(ZPE) due to population
              of excietd vibrational states
    E(rot)  - is the rotational thermal energy
    E(trans)- is the translational thermal energy

Summary of contributions to the inner energy U:
Electronic energy                ...   -287.91989772 Eh
Zero point energy                ...      0.14609568 Eh      91.68 kcal/mol
Thermal vibrational correction   ...      0.00498738 Eh       3.13 kcal/mol
Thermal rotational correction    ...      0.00141627 Eh       0.89 kcal/mol
Thermal translational correction ...      0.00141627 Eh       0.89 kcal/mol
-----------------------------------------------------------------------
Total thermal energy                   -287.76598211 Eh

Summary of corrections to the electronic energy:
(perhaps to be used in another calculation)
Total thermal correction                  0.00781993 Eh       4.91 kcal/mol
Non-thermal (ZPE) correction              0.14609568 Eh      91.68 kcal/mol
-----------------------------------------------------------------------
Total correction                          0.15391561 Eh      96.58 kcal/mol

--------
ENTHALPY
--------

The enthalpy is H = U + kB*T
                kB is Boltzmann's constant
Total free energy                 ...   -287.76598211 Eh
Thermal Enthalpy correction       ...      0.00094421 Eh       0.59 kcal/mol
-----------------------------------------------------------------------
Total Enthalpy                    ...   -287.76503790 Eh

-------
ENTROPY
-------

The entropy contributions are T*S = T*(S(el)+S(vib)+S(rot)+S(trans)
     S(el)   - electronic entropy
     S(vib)  - vibrational entropy
     S(rot)  - rotational entropy
     S(trans)- translational entropy
The entropies will be listed as mutliplied by the temperature to get
units of energy

Electronic entropy                ...      0.00000000 Eh      0.00 kcal/mol
Vibrational entropy               ...      0.00936769 Eh      5.88 kcal/mol
Rotational entropy                ...      0.01185083 Eh      7.44 kcal/mol
Translational entropy             ...      0.01869229 Eh     11.73 kcal/mol
-----------------------------------------------------------------------
Final entropy term                ...      0.03991080 Eh     25.04 kcal/mol

CAUTION: The rotational entropy is not quite correctly treated here
         because it includes a symmetry number that is not yet correctly
         implemented in ORCA!
For a nonlinear molecule the correct rotational entropy is:
    S(rot) = R*(ln(qrot/sn)+1.5)
    R    = 8.31441 J/mol/K = 1.987191683e-3 kcal/mol/K
    qrot = 189102.8986050
    sn is the rotational symmetry number. We have assumed 3 here
       if it is different for your molecule then you should correct
       the printed rotational entropy by manually evaluating the equation
       as given above

For convenience we print out the resulting values for sn=1 - 12:
 sn= 1  qrot/sn=  189102.8986 T*S(rot)=     8.09 kcal/mol T*S(tot)=    25.70 kcal/mol
 sn= 2  qrot/sn=   94551.4493 T*S(rot)=     7.68 kcal/mol T*S(tot)=    25.28 kcal/mol
 sn= 3  qrot/sn=   63034.2995 T*S(rot)=     7.44 kcal/mol T*S(tot)=    25.04 kcal/mol
 sn= 4  qrot/sn=   47275.7247 T*S(rot)=     7.27 kcal/mol T*S(tot)=    24.87 kcal/mol
 sn= 5  qrot/sn=   37820.5797 T*S(rot)=     7.13 kcal/mol T*S(tot)=    24.74 kcal/mol
 sn= 6  qrot/sn=   31517.1498 T*S(rot)=     7.03 kcal/mol T*S(tot)=    24.63 kcal/mol
 sn= 7  qrot/sn=   27014.6998 T*S(rot)=     6.93 kcal/mol T*S(tot)=    24.54 kcal/mol
 sn= 8  qrot/sn=   23637.8623 T*S(rot)=     6.86 kcal/mol T*S(tot)=    24.46 kcal/mol
 sn= 9  qrot/sn=   21011.4332 T*S(rot)=     6.79 kcal/mol T*S(tot)=    24.39 kcal/mol
 sn=10  qrot/sn=   18910.2899 T*S(rot)=     6.72 kcal/mol T*S(tot)=    24.33 kcal/mol
 sn=11  qrot/sn=   17191.1726 T*S(rot)=     6.67 kcal/mol T*S(tot)=    24.27 kcal/mol
 sn=12  qrot/sn=   15758.5749 T*S(rot)=     6.62 kcal/mol T*S(tot)=    24.22 kcal/mol

-------------------
GIBBS FREE ENTHALPY
-------------------

The Gibbs free enthalpy is G = H - T*S

Total enthalpy                    ...   -287.76503790 Eh
Total entropy correction          ...     -0.03991080 Eh    -25.04 kcal/mol
-----------------------------------------------------------------------
Final Gibbs free enthalpy         ...   -287.80494871 Eh

For completeness - the Gibbs free enthalpy minus the electronic energy
G-E(el)                           ...      0.11494901 Eh     72.13 kcal/mol

                             ****ORCA TERMINATED NORMALLY****
TOTAL RUN TIME: 0 days 0 hours 17 minutes 55 seconds 763 msec
