                         Program Version 3.0.3 - RELEASE   -
|  1> ! NORI PBE0 def2-TZVP UseSym TightOPT Freq TightSCF Grid3 FinalGrid5 XYZFile
|  2> % pal
|  3>     nprocs 8
|  4> end
|  5> %method
|  6>     SymThresh 5.0e-2
|  7> end
|  8> % geom
|  9>     MaxIter 10
| 10> end
| 11> % maxcore 2000
| 12> % output
| 13>     printlevel mini
| 14>     print[ P_Basis ] 0
| 15>     print[ P_SCFInfo ] 1
| 16>     print[ P_SCFIterInfo ] 1
| 17>     print[ P_OrbEn ] 0
| 18>     print[ P_Cartesian ] 0
| 19> end
| 20> % elprop
| 21>     Dipole false
| 22> end
| 23> *xyz 1 1
| 24>  N        0.9563949670    -0.1315004628     0.1419283266
| 25>  C        2.4664866658    -0.0255087828     0.0166578852
| 26>  C        2.9077914395    -0.6442424039    -1.2042704086
| 27>  C        3.3405954796    -1.1525849185    -2.2056981684
| 28>  C        3.9018937313    -1.7770699217    -3.4053782434
| 29>  O        4.4362822306    -3.0466703392    -3.1656674578
| 30>  H        0.6124467096     0.3029017699     1.0016884285
| 31>  H        0.6708636568    -1.1132098627     0.1364392471
| 32>  H        0.5042534390     0.3217616603    -0.6554910191
| 33>  H        2.7058263572     1.0395797009     0.0553999015
| 34>  H        2.8857860054    -0.5092238096     0.9017034007
| 35>  H        3.1407835393    -1.7727440931    -4.1964697415
| 36>  H        4.7221201524    -1.1433916156    -3.7564139511
| 37>  H        3.7293556264    -3.6969169210    -3.1312481998
| 38> *
| 39>
| 40>                          ****END OF INPUT****
 Total Charge           Charge          ....    1
 Multiplicity           Mult            ....    1
 Number of Electrons    NEL             ....   46
FINAL SINGLE POINT ENERGY      -286.663527352176
FINAL SINGLE POINT ENERGY      -286.663528162974
FINAL SINGLE POINT ENERGY      -286.663529314176
FINAL SINGLE POINT ENERGY      -286.663530087592
FINAL SINGLE POINT ENERGY      -286.663530657791

CARTESIAN COORDINATES (ANGSTROEM)
---------------------------------
  N      1.022553   -0.007569   -2.675519
  C     -0.033626   -0.785112   -1.908060
  C     -0.225697   -0.209194   -0.604574
  C     -0.428481    0.221303    0.500832
  C     -0.683764    0.708865    1.857597
  O      0.034220    0.013598    2.835709
  H      1.178021   -0.394760   -3.609427
  H      1.909083   -0.020265   -2.166071
  H      0.739729    0.970522   -2.771139
  H     -0.940979   -0.755251   -2.515803
  H      0.318217   -1.818245   -1.857842
  H     -0.508699    1.792040    1.884223
  H     -1.746812    0.558549    2.069615
  H      0.935227    0.345475    2.876588

FINAL SINGLE POINT ENERGY      -286.663530890462
                    ***********************HURRAY********************
 Multiplicity           Mult            ....    1
 Number of Electrons    NEL             ....   46
 Basis Dimension        Dim             ....  234
FINAL SINGLE POINT ENERGY      -286.663530987880

VIBRATIONAL FREQUENCIES
-----------------------

   0:         0.00 cm**-1
   1:         0.00 cm**-1
   2:         0.00 cm**-1
   3:         0.00 cm**-1
   4:         0.00 cm**-1
   5:         0.00 cm**-1
   6:        29.65 cm**-1
   7:       117.79 cm**-1
   8:       123.85 cm**-1
   9:       216.84 cm**-1
  10:       229.34 cm**-1
  11:       313.19 cm**-1
  12:       349.88 cm**-1
  13:       483.79 cm**-1
  14:       567.53 cm**-1
  15:       754.79 cm**-1
  16:       856.17 cm**-1
  17:       878.94 cm**-1
  18:       955.37 cm**-1
  19:      1070.31 cm**-1
  20:      1101.47 cm**-1
  21:      1108.89 cm**-1
  22:      1186.33 cm**-1
  23:      1216.51 cm**-1
  24:      1326.25 cm**-1
  25:      1382.81 cm**-1
  26:      1392.08 cm**-1
  27:      1403.53 cm**-1
  28:      1456.78 cm**-1
  29:      1476.55 cm**-1
  30:      1501.99 cm**-1
  31:      1646.62 cm**-1
  32:      1661.40 cm**-1
  33:      2358.39 cm**-1
  34:      3034.98 cm**-1
  35:      3082.31 cm**-1
  36:      3092.41 cm**-1
  37:      3132.49 cm**-1
  38:      3413.97 cm**-1
  39:      3502.71 cm**-1
  40:      3505.34 cm**-1
  41:      3863.70 cm**-1

IR SPECTRUM
-----------

 Mode    freq (cm**-1)   T**2         TX         TY         TZ
-------------------------------------------------------------------
   7:       117.79    9.553070  ( -2.526418  -1.503087  -0.954470)
   8:       123.85    6.528669  (  0.877847  -0.949485   2.203754)
   9:       216.84    5.680644  (  0.252249   1.706475   1.644675)
  10:       229.34  126.942778  ( -2.122248   7.154757   8.440871)
  11:       313.19    9.960047  (  3.084453   0.200255   0.637257)
  12:       349.88   24.609275  (  0.658351  -4.724406  -1.362290)
  13:       483.79   18.236285  ( -2.523964  -0.459552   3.413899)
  14:       567.53    3.574214  (  0.643141   1.321815  -1.188860)
  15:       754.79   12.270549  ( -1.663426   1.494507   2.696296)
  16:       856.17    9.526397  (  2.175756  -1.892389   1.100611)
  17:       878.94   34.493594  (  2.413617   0.703671  -5.307814)
  18:       955.37   27.026415  ( -1.898296   1.762705  -4.507300)
  19:      1070.31   15.624751  (  2.918980   1.615819   2.119773)
  20:      1101.47    3.575070  ( -1.558622   0.934015  -0.522861)
  21:      1108.89   93.910520  ( -4.156398   4.982929  -7.197589)
  22:      1186.33   43.078191  (  0.529927   0.993614   6.466073)
  23:      1216.51   14.674037  ( -1.468497   2.412221  -2.588192)
  24:      1326.25    9.232915  (  2.037398  -1.893508   1.223336)
  25:      1382.81   11.028049  (  0.843882  -1.964293  -2.541155)
  26:      1392.08   73.654049  ( -0.749318   1.038021  -8.486170)
  27:      1403.53   56.220564  (  1.959252  -3.010273  -6.581804)
  28:      1456.78   14.396252  (  1.970572  -2.245722  -2.338767)
  29:      1476.55    9.136258  (  0.672936   2.106001   2.061110)
  30:      1501.99  151.796900  (  8.405535   5.591570  -7.062452)
  31:      1646.62   51.536187  ( -5.110846   4.284253  -2.657182)
  32:      1661.40   36.024092  ( -0.257909  -3.378076  -4.954410)
  33:      2358.39   94.105888  (  2.979909  -2.243030  -8.955157)
  34:      3034.98   12.831004  (  1.010324  -2.697457   2.129314)
  35:      3082.31    2.918442  (  0.596009  -0.136976  -1.595134)
  36:      3092.41    2.441672  ( -0.155995  -0.391352  -1.504720)
  37:      3132.49    1.959204  (  0.979089  -0.851879   0.524300)
  38:      3413.97   46.092559  ( -4.359665  -2.615756   4.499301)
  39:      3502.71  107.559491  (  7.119637  -6.967678   2.884739)
  40:      3505.34   92.573501  (  2.446865   5.445869   7.545122)
  41:      3863.70   64.432599  (  6.879817   1.386445   3.895958)

--------------------------
THERMOCHEMISTRY AT 298.15K
--------------------------

Temperature         ... 298.15 K
Pressure            ... 1.00 atm
Total Mass          ... 86.11 AMU

Throughout the following assumptions are being made:
  (1) The electronic state is orbitally nondegenerate
  (2) There are no thermally accessible electronically excited states
  (3) Hindered rotations indicated by low frequency modes) are not
      treated as such but are treated as vibrations and this may
      case some error
  (4) All equations used are the standard statistical mechanics
      equations for an ideal gas
  (5) All vibrations are strinctly harmonic

------------
INNER ENERGY
------------

The inner energy is: U= E(el) + E(ZPE) + E(vib) + E(rot) + E(trans)
    E(el)   - is the total energy from the electronic structure calculation
              = E(kin-el) + E(nuc-el) + E(el-el) + E(nuc-nuc)
    E(ZPE)  - the the zero temperature vibrational energy from the frequency calculation
    E(vib)  - the the finite temperature correction to E(ZPE) due to population
              of excietd vibrational states
    E(rot)  - is the rotational thermal energy
    E(trans)- is the translational thermal energy

Summary of contributions to the inner energy U:
Electronic energy                ...   -286.66353099 Eh
Zero point energy                ...      0.12248638 Eh      76.86 kcal/mol
Thermal vibrational correction   ...      0.00404588 Eh       2.54 kcal/mol
Thermal rotational correction    ...      0.00141627 Eh       0.89 kcal/mol
Thermal translational correction ...      0.00141627 Eh       0.89 kcal/mol
-----------------------------------------------------------------------
Total thermal energy                   -286.53416619 Eh

Summary of corrections to the electronic energy:
(perhaps to be used in another calculation)
Total thermal correction                  0.00687842 Eh       4.32 kcal/mol
Non-thermal (ZPE) correction              0.12248638 Eh      76.86 kcal/mol
-----------------------------------------------------------------------
Total correction                          0.12936480 Eh      81.18 kcal/mol

--------
ENTHALPY
--------

The enthalpy is H = U + kB*T
                kB is Boltzmann's constant
Total free energy                 ...   -286.53416619 Eh
Thermal Enthalpy correction       ...      0.00094421 Eh       0.59 kcal/mol
-----------------------------------------------------------------------
Total Enthalpy                    ...   -286.53322198 Eh

-------
ENTROPY
-------

The entropy contributions are T*S = T*(S(el)+S(vib)+S(rot)+S(trans)
     S(el)   - electronic entropy
     S(vib)  - vibrational entropy
     S(rot)  - rotational entropy
     S(trans)- translational entropy
The entropies will be listed as mutliplied by the temperature to get
units of energy

Electronic entropy                ...      0.00000000 Eh      0.00 kcal/mol
Vibrational entropy               ...      0.00705579 Eh      4.43 kcal/mol
Rotational entropy                ...      0.01189251 Eh      7.46 kcal/mol
Translational entropy             ...      0.01865951 Eh     11.71 kcal/mol
-----------------------------------------------------------------------
Final entropy term                ...      0.03760782 Eh     23.60 kcal/mol

CAUTION: The rotational entropy is not quite correctly treated here
         because it includes a symmetry number that is not yet correctly
         implemented in ORCA!
For a nonlinear molecule the correct rotational entropy is:
    S(rot) = R*(ln(qrot/sn)+1.5)
    R    = 8.31441 J/mol/K = 1.987191683e-3 kcal/mol/K
    qrot = 197639.1305649
    sn is the rotational symmetry number. We have assumed 3 here
       if it is different for your molecule then you should correct
       the printed rotational entropy by manually evaluating the equation
       as given above

For convenience we print out the resulting values for sn=1 - 12:
 sn= 1  qrot/sn=  197639.1306 T*S(rot)=     8.11 kcal/mol T*S(tot)=    24.25 kcal/mol
 sn= 2  qrot/sn=   98819.5653 T*S(rot)=     7.70 kcal/mol T*S(tot)=    23.84 kcal/mol
 sn= 3  qrot/sn=   65879.7102 T*S(rot)=     7.46 kcal/mol T*S(tot)=    23.60 kcal/mol
 sn= 4  qrot/sn=   49409.7826 T*S(rot)=     7.29 kcal/mol T*S(tot)=    23.43 kcal/mol
 sn= 5  qrot/sn=   39527.8261 T*S(rot)=     7.16 kcal/mol T*S(tot)=    23.30 kcal/mol
 sn= 6  qrot/sn=   32939.8551 T*S(rot)=     7.05 kcal/mol T*S(tot)=    23.19 kcal/mol
 sn= 7  qrot/sn=   28234.1615 T*S(rot)=     6.96 kcal/mol T*S(tot)=    23.10 kcal/mol
 sn= 8  qrot/sn=   24704.8913 T*S(rot)=     6.88 kcal/mol T*S(tot)=    23.02 kcal/mol
 sn= 9  qrot/sn=   21959.9034 T*S(rot)=     6.81 kcal/mol T*S(tot)=    22.95 kcal/mol
 sn=10  qrot/sn=   19763.9131 T*S(rot)=     6.75 kcal/mol T*S(tot)=    22.89 kcal/mol
 sn=11  qrot/sn=   17967.1937 T*S(rot)=     6.69 kcal/mol T*S(tot)=    22.83 kcal/mol
 sn=12  qrot/sn=   16469.9275 T*S(rot)=     6.64 kcal/mol T*S(tot)=    22.78 kcal/mol

-------------------
GIBBS FREE ENTHALPY
-------------------

The Gibbs free enthalpy is G = H - T*S

Total enthalpy                    ...   -286.53322198 Eh
Total entropy correction          ...     -0.03760782 Eh    -23.60 kcal/mol
-----------------------------------------------------------------------
Final Gibbs free enthalpy         ...   -286.57082979 Eh

For completeness - the Gibbs free enthalpy minus the electronic energy
G-E(el)                           ...      0.09270120 Eh     58.17 kcal/mol

                             ****ORCA TERMINATED NORMALLY****
TOTAL RUN TIME: 0 days 0 hours 18 minutes 37 seconds 12 msec
