                         Program Version 3.0.3 - RELEASE   -
|  1> ! NORI PBE0 def2-TZVP UseSym TightOPT Freq TightSCF Grid3 FinalGrid5 XYZFile
|  2> % pal
|  3>     nprocs 8
|  4> end
|  5> %method
|  6>     SymThresh 5.0e-2
|  7> end
|  8> % geom
|  9>     MaxIter 10
| 10> end
| 11> % maxcore 2000
| 12> % output
| 13>     printlevel mini
| 14>     print[ P_Basis ] 0
| 15>     print[ P_SCFInfo ] 1
| 16>     print[ P_SCFIterInfo ] 1
| 17>     print[ P_OrbEn ] 0
| 18>     print[ P_Cartesian ] 0
| 19> end
| 20> % elprop
| 21>     Dipole false
| 22> end
| 23> *xyz 1 1
| 24>  N        1.3145847943     0.0276400641     0.3925376788
| 25>  C        2.7319884872     0.0750331721    -0.1544420568
| 26>  C        3.0777750484    -1.3550232076    -0.5220990227
| 27>  O        2.6940157241    -2.1205288322     0.5996849453
| 28>  C        2.8338184242     1.1080804608    -1.2261024449
| 29>  C        3.1359610857     0.8626523779    -2.4928222409
| 30>  H        1.0841849903     0.8513853992     0.9478707069
| 31>  H        1.2548380659    -0.8206991663     0.9754026778
| 32>  H        0.6357314770    -0.0456876856    -0.3677030635
| 33>  H        3.3391573273     0.3595708627     0.7106131179
| 34>  H        4.1522149952    -1.4119141123    -0.7178009197
| 35>  H        2.5396534617    -1.6724559267    -1.4237333059
| 36>  H        2.9207976805    -3.0471694020     0.4800281059
| 37>  H        2.6815490582     2.1350592507    -0.9011993197
| 38>  H        3.3289068889    -0.1335854849    -2.8745267294
| 39>  H        3.2215724914     1.6741922299    -3.2051881290
| 40> *
| 41>
| 42>                          ****END OF INPUT****
 Total Charge           Charge          ....    1
 Multiplicity           Mult            ....    1
 Number of Electrons    NEL             ....   48
FINAL SINGLE POINT ENERGY      -287.927449827597

CARTESIAN COORDINATES (ANGSTROEM)
---------------------------------
  N      1.589869    0.000059    0.112667
  C      0.173223   -0.488508   -0.142382
  C     -0.689267    0.189973    0.904497
  O      0.000230    0.000243    2.121000
  C     -0.188879   -0.283635   -1.575403
  C     -1.163498    0.502753   -2.008895
  H      2.292259   -0.603908   -0.313462
  H      1.712540    0.018811    1.136088
  H      1.717308    0.945887   -0.252594
  H      0.216003   -1.556459    0.093097
  H     -1.673600   -0.286902    0.904260
  H     -0.816041    1.256598    0.681073
  H     -0.497692    0.359834    2.860618
  H      0.384950   -0.868776   -2.290507
  H     -1.791446    1.089007   -1.347573
  H     -1.383426    0.573810   -3.067087

FINAL SINGLE POINT ENERGY      -287.927450614969
                    ***********************HURRAY********************
 Multiplicity           Mult            ....    1
 Number of Electrons    NEL             ....   48
 Basis Dimension        Dim             ....  246
FINAL SINGLE POINT ENERGY      -287.927451031633

VIBRATIONAL FREQUENCIES
-----------------------

   0:         0.00 cm**-1
   1:         0.00 cm**-1
   2:         0.00 cm**-1
   3:         0.00 cm**-1
   4:         0.00 cm**-1
   5:         0.00 cm**-1
   6:        87.69 cm**-1
   7:       160.12 cm**-1
   8:       222.44 cm**-1
   9:       240.17 cm**-1
  10:       298.09 cm**-1
  11:       326.35 cm**-1
  12:       364.86 cm**-1
  13:       472.43 cm**-1
  14:       557.76 cm**-1
  15:       672.61 cm**-1
  16:       806.38 cm**-1
  17:       942.79 cm**-1
  18:       947.52 cm**-1
  19:      1003.57 cm**-1
  20:      1020.43 cm**-1
  21:      1030.27 cm**-1
  22:      1054.18 cm**-1
  23:      1111.39 cm**-1
  24:      1125.49 cm**-1
  25:      1197.23 cm**-1
  26:      1230.06 cm**-1
  27:      1282.13 cm**-1
  28:      1340.31 cm**-1
  29:      1366.79 cm**-1
  30:      1397.21 cm**-1
  31:      1449.23 cm**-1
  32:      1457.15 cm**-1
  33:      1477.24 cm**-1
  34:      1518.13 cm**-1
  35:      1638.51 cm**-1
  36:      1662.05 cm**-1
  37:      1725.67 cm**-1
  38:      3032.30 cm**-1
  39:      3082.80 cm**-1
  40:      3102.35 cm**-1
  41:      3163.57 cm**-1
  42:      3174.37 cm**-1
  43:      3261.90 cm**-1
  44:      3332.81 cm**-1
  45:      3472.33 cm**-1
  46:      3530.76 cm**-1
  47:      3868.15 cm**-1

IR SPECTRUM
-----------

 Mode    freq (cm**-1)   T**2         TX         TY         TZ
-------------------------------------------------------------------
   6:        87.69    2.976945  (  0.876837  -1.137947   0.955604)
   7:       160.12   14.168696  (  1.728480   3.071319  -1.322141)
   8:       222.44   12.579305  ( -2.265570  -2.088530   1.756287)
   9:       240.17   14.316379  ( -0.064829  -3.470669  -1.505533)
  10:       298.09  117.702256  ( -4.380906  -9.514041   2.827178)
  11:       326.35   26.158078  (  1.261131  -1.798900  -4.618613)
  12:       364.86    8.175117  ( -2.487122   0.366986   1.361860)
  13:       472.43    5.363607  (  1.707915  -0.231715   1.546914)
  14:       557.76    4.456404  (  1.549530   0.904585   1.112244)
  15:       672.61   14.537212  (  2.672198   2.492792   1.087453)
  16:       806.38    2.201050  ( -1.452419  -0.257745  -0.158422)
  17:       942.79   10.235846  (  0.334969   1.933776   2.526688)
  18:       947.52   18.064972  ( -1.398969  -0.303805   4.001944)
  19:      1003.57   44.349405  ( -5.632387  -0.830374  -3.454867)
  20:      1020.43   42.892861  (  3.862684   5.246587   0.667722)
  21:      1030.27    8.628934  (  0.603817  -0.683150   2.792427)
  22:      1054.18   68.062248  (  1.248610  -1.795173   7.954909)
  23:      1111.39   36.358103  (  4.060963   0.200473   4.452695)
  24:      1125.49   27.658328  (  1.327713   1.743308  -4.780835)
  25:      1197.23   12.005687  ( -3.213113   0.695298   1.094602)
  26:      1230.06   38.892481  (  3.028889  -2.270054   4.956326)
  27:      1282.13    4.104027  ( -0.618285  -0.366289  -1.894092)
  28:      1340.31    4.335623  ( -1.121396   0.901313  -1.505234)
  29:      1366.79    5.749914  ( -1.897168   0.186899  -1.454557)
  30:      1397.21   13.518644  (  2.380583  -1.846943   2.107196)
  31:      1449.23   81.465833  ( -8.821480  -1.884668  -0.308794)
  32:      1457.15   61.175557  (  7.334894  -1.438208   2.303571)
  33:      1477.24   79.672468  ( -8.205765  -3.342578  -1.079379)
  34:      1518.13    4.964346  ( -1.599087   0.619986   1.422281)
  35:      1638.51   33.751362  (  0.492284  -5.232130   2.476658)
  36:      1662.05   34.118025  (  2.174154  -3.388850  -4.231640)
  37:      1725.67    0.339415  (  0.423148   0.336254   0.217471)
  38:      3032.30   18.291972  ( -1.388036   2.864531  -2.856534)
  39:      3082.80    1.648871  ( -0.863265   0.020910  -0.950372)
  40:      3102.35    3.591550  ( -0.841033  -1.652049  -0.393634)
  41:      3163.57    1.282625  (  0.591676  -0.416243  -0.871371)
  42:      3174.37    1.311805  (  0.128598   0.051859   1.136916)
  43:      3261.90    0.285725  (  0.411091  -0.247163   0.235880)
  44:      3332.81  112.295126  ( -1.019250  -0.641234 -10.528299)
  45:      3472.33   94.697607  ( -5.266707  -3.348826   7.466242)
  46:      3530.76   98.402194  ( -5.477506   8.010635   2.056416)
  47:      3868.15  138.159340  ( -3.785379   3.078759  10.693525)

--------------------------
THERMOCHEMISTRY AT 298.15K
--------------------------

Temperature         ... 298.15 K
Pressure            ... 1.00 atm
Total Mass          ... 88.13 AMU

Throughout the following assumptions are being made:
  (1) The electronic state is orbitally nondegenerate
  (2) There are no thermally accessible electronically excited states
  (3) Hindered rotations indicated by low frequency modes) are not
      treated as such but are treated as vibrations and this may
      case some error
  (4) All equations used are the standard statistical mechanics
      equations for an ideal gas
  (5) All vibrations are strinctly harmonic

------------
INNER ENERGY
------------

The inner energy is: U= E(el) + E(ZPE) + E(vib) + E(rot) + E(trans)
    E(el)   - is the total energy from the electronic structure calculation
              = E(kin-el) + E(nuc-el) + E(el-el) + E(nuc-nuc)
    E(ZPE)  - the the zero temperature vibrational energy from the frequency calculation
    E(vib)  - the the finite temperature correction to E(ZPE) due to population
              of excietd vibrational states
    E(rot)  - is the rotational thermal energy
    E(trans)- is the translational thermal energy

Summary of contributions to the inner energy U:
Electronic energy                ...   -287.92745103 Eh
Zero point energy                ...      0.14627567 Eh      91.79 kcal/mol
Thermal vibrational correction   ...      0.00456697 Eh       2.87 kcal/mol
Thermal rotational correction    ...      0.00141627 Eh       0.89 kcal/mol
Thermal translational correction ...      0.00141627 Eh       0.89 kcal/mol
-----------------------------------------------------------------------
Total thermal energy                   -287.77377585 Eh

Summary of corrections to the electronic energy:
(perhaps to be used in another calculation)
Total thermal correction                  0.00739951 Eh       4.64 kcal/mol
Non-thermal (ZPE) correction              0.14627567 Eh      91.79 kcal/mol
-----------------------------------------------------------------------
Total correction                          0.15367518 Eh      96.43 kcal/mol

--------
ENTHALPY
--------

The enthalpy is H = U + kB*T
                kB is Boltzmann's constant
Total free energy                 ...   -287.77377585 Eh
Thermal Enthalpy correction       ...      0.00094421 Eh       0.59 kcal/mol
-----------------------------------------------------------------------
Total Enthalpy                    ...   -287.77283164 Eh

-------
ENTROPY
-------

The entropy contributions are T*S = T*(S(el)+S(vib)+S(rot)+S(trans)
     S(el)   - electronic entropy
     S(vib)  - vibrational entropy
     S(rot)  - rotational entropy
     S(trans)- translational entropy
The entropies will be listed as mutliplied by the temperature to get
units of energy

Electronic entropy                ...      0.00000000 Eh      0.00 kcal/mol
Vibrational entropy               ...      0.00785549 Eh      4.93 kcal/mol
Rotational entropy                ...      0.01173730 Eh      7.37 kcal/mol
Translational entropy             ...      0.01869229 Eh     11.73 kcal/mol
-----------------------------------------------------------------------
Final entropy term                ...      0.03828508 Eh     24.02 kcal/mol

CAUTION: The rotational entropy is not quite correctly treated here
         because it includes a symmetry number that is not yet correctly
         implemented in ORCA!
For a nonlinear molecule the correct rotational entropy is:
    S(rot) = R*(ln(qrot/sn)+1.5)
    R    = 8.31441 J/mol/K = 1.987191683e-3 kcal/mol/K
    qrot = 167680.3730593
    sn is the rotational symmetry number. We have assumed 3 here
       if it is different for your molecule then you should correct
       the printed rotational entropy by manually evaluating the equation
       as given above

For convenience we print out the resulting values for sn=1 - 12:
 sn= 1  qrot/sn=  167680.3731 T*S(rot)=     8.02 kcal/mol T*S(tot)=    24.68 kcal/mol
 sn= 2  qrot/sn=   83840.1865 T*S(rot)=     7.61 kcal/mol T*S(tot)=    24.26 kcal/mol
 sn= 3  qrot/sn=   55893.4577 T*S(rot)=     7.37 kcal/mol T*S(tot)=    24.02 kcal/mol
 sn= 4  qrot/sn=   41920.0933 T*S(rot)=     7.19 kcal/mol T*S(tot)=    23.85 kcal/mol
 sn= 5  qrot/sn=   33536.0746 T*S(rot)=     7.06 kcal/mol T*S(tot)=    23.72 kcal/mol
 sn= 6  qrot/sn=   27946.7288 T*S(rot)=     6.95 kcal/mol T*S(tot)=    23.61 kcal/mol
 sn= 7  qrot/sn=   23954.3390 T*S(rot)=     6.86 kcal/mol T*S(tot)=    23.52 kcal/mol
 sn= 8  qrot/sn=   20960.0466 T*S(rot)=     6.78 kcal/mol T*S(tot)=    23.44 kcal/mol
 sn= 9  qrot/sn=   18631.1526 T*S(rot)=     6.71 kcal/mol T*S(tot)=    23.37 kcal/mol
 sn=10  qrot/sn=   16768.0373 T*S(rot)=     6.65 kcal/mol T*S(tot)=    23.31 kcal/mol
 sn=11  qrot/sn=   15243.6703 T*S(rot)=     6.60 kcal/mol T*S(tot)=    23.25 kcal/mol
 sn=12  qrot/sn=   13973.3644 T*S(rot)=     6.54 kcal/mol T*S(tot)=    23.20 kcal/mol

-------------------
GIBBS FREE ENTHALPY
-------------------

The Gibbs free enthalpy is G = H - T*S

Total enthalpy                    ...   -287.77283164 Eh
Total entropy correction          ...     -0.03828508 Eh    -24.02 kcal/mol
-----------------------------------------------------------------------
Final Gibbs free enthalpy         ...   -287.81111672 Eh

For completeness - the Gibbs free enthalpy minus the electronic energy
G-E(el)                           ...      0.11633431 Eh     73.00 kcal/mol

                             ****ORCA TERMINATED NORMALLY****
TOTAL RUN TIME: 0 days 0 hours 21 minutes 14 seconds 918 msec
