                         Program Version 3.0.3 - RELEASE   -
|  1> ! NORI PBE0 def2-TZVP UseSym TightOPT Freq TightSCF Grid3 FinalGrid5 XYZFile
|  2> % pal
|  3>     nprocs 8
|  4> end
|  5> %method
|  6>     SymThresh 5.0e-2
|  7> end
|  8> % geom
|  9>     MaxIter 10
| 10> end
| 11> % maxcore 2000
| 12> % output
| 13>     printlevel mini
| 14>     print[ P_Basis ] 0
| 15>     print[ P_SCFInfo ] 1
| 16>     print[ P_SCFIterInfo ] 1
| 17>     print[ P_OrbEn ] 0
| 18>     print[ P_Cartesian ] 0
| 19> end
| 20> % elprop
| 21>     Dipole false
| 22> end
| 23> *xyz 1 1
| 24>  N        1.0542864738     0.1023620169    -0.0513995381
| 25>  C        2.5750857396     0.0756119501    -0.0209415816
| 26>  C        3.0487831203    -1.3297523934    -0.4444630088
| 27>  O        4.4324520373    -1.3732492222    -0.4694897684
| 28>  C        3.0493025329     1.1318299201    -0.8845115875
| 29>  C        3.4241739617     2.0029391390    -1.6166815421
| 30>  H        0.7086688898     1.0223126680     0.2310767344
| 31>  H        0.6460090352    -0.6041641373     0.5651193646
| 32>  H        0.7226231174    -0.0674290654    -1.0048492461
| 33>  H        2.8552855471     0.2673387776     1.0194243566
| 34>  H        2.6079827598    -2.0761263599     0.2300713836
| 35>  H        2.6856311646    -1.5303530694    -1.4590521891
| 36>  H        4.7823631511    -1.7263530271     0.3530139343
| 37>  H        3.7747824694     2.7769028030    -2.2639773116
| 38> *
| 39>
| 40>                          ****END OF INPUT****
 Total Charge           Charge          ....    1
 Multiplicity           Mult            ....    1
 Number of Electrons    NEL             ....   46
FINAL SINGLE POINT ENERGY      -286.654554352603

CARTESIAN COORDINATES (ANGSTROEM)
---------------------------------
  N      1.276075    0.000129   -1.426050
  C      0.367061   -0.408880   -0.276343
  C      0.835592    0.317845    1.000783
  O     -0.000193    0.000219    2.057887
  C     -0.990497   -0.094978   -0.657058
  C     -2.108360    0.186193   -0.983614
  H      0.993686   -0.471720   -2.288274
  H      2.256529   -0.222171   -1.237103
  H      1.196935    1.007465   -1.590592
  H      0.499995   -1.489142   -0.162239
  H      1.886849    0.064260    1.193314
  H      0.771001    1.399065    0.831919
  H      0.362042   -0.720154    2.581054
  H     -3.111063    0.428728   -1.260576

FINAL SINGLE POINT ENERGY      -286.654554764731
                    ***********************HURRAY********************
 Multiplicity           Mult            ....    1
 Number of Electrons    NEL             ....   46
 Basis Dimension        Dim             ....  234
FINAL SINGLE POINT ENERGY      -286.654554901094

VIBRATIONAL FREQUENCIES
-----------------------

   0:         0.00 cm**-1
   1:         0.00 cm**-1
   2:         0.00 cm**-1
   3:         0.00 cm**-1
   4:         0.00 cm**-1
   5:         0.00 cm**-1
   6:       103.92 cm**-1
   7:       145.91 cm**-1
   8:       167.22 cm**-1
   9:       192.78 cm**-1
  10:       228.24 cm**-1
  11:       252.05 cm**-1
  12:       414.36 cm**-1
  13:       524.28 cm**-1
  14:       558.09 cm**-1
  15:       733.55 cm**-1
  16:       771.96 cm**-1
  17:       802.81 cm**-1
  18:       906.95 cm**-1
  19:       932.88 cm**-1
  20:      1008.81 cm**-1
  21:      1097.38 cm**-1
  22:      1149.38 cm**-1
  23:      1166.26 cm**-1
  24:      1220.74 cm**-1
  25:      1345.99 cm**-1
  26:      1375.00 cm**-1
  27:      1396.94 cm**-1
  28:      1422.72 cm**-1
  29:      1490.22 cm**-1
  30:      1498.87 cm**-1
  31:      1641.50 cm**-1
  32:      1654.38 cm**-1
  33:      2255.19 cm**-1
  34:      3016.20 cm**-1
  35:      3068.68 cm**-1
  36:      3090.75 cm**-1
  37:      3407.91 cm**-1
  38:      3452.27 cm**-1
  39:      3492.47 cm**-1
  40:      3503.10 cm**-1
  41:      3865.80 cm**-1

IR SPECTRUM
-----------

 Mode    freq (cm**-1)   T**2         TX         TY         TZ
-------------------------------------------------------------------
   6:       103.92    2.568853  (  0.210114   0.327884  -1.554734)
   7:       145.91   75.587267  (  5.315042   4.615830   5.102128)
   8:       167.22   33.899052  (  2.210862   3.826092   3.791064)
   9:       192.78    4.220715  (  0.324163  -2.004019   0.315503)
  10:       228.24    9.567525  (  1.580589  -1.262611   2.339888)
  11:       252.05   23.554941  ( -1.446709  -2.785067  -3.702077)
  12:       414.36    0.855085  ( -0.801161  -0.167946  -0.430140)
  13:       524.28   13.303330  ( -2.504031  -2.401175  -1.125841)
  14:       558.09   29.577295  ( -3.030722   0.071225   4.515190)
  15:       733.55   40.889102  (  0.691853   5.633311   2.945547)
  16:       771.96   26.199081  (  0.874707   2.442477  -4.412286)
  17:       802.81   16.238834  (  1.001499  -0.676938  -3.844163)
  18:       906.95   17.930247  (  4.102103   0.035457   1.049639)
  19:       932.88   12.157666  (  2.224549   2.205135   1.531806)
  20:      1008.81   48.557093  ( -3.517586  -1.323058   5.867981)
  21:      1097.38   23.149413  (  3.378128  -2.013254  -2.772088)
  22:      1149.38   39.462789  (  4.162215   0.977072  -4.602618)
  23:      1166.26   62.644971  (  0.958771   1.583621  -7.695315)
  24:      1220.74   12.133900  ( -3.329050  -0.759331   0.689018)
  25:      1345.99    8.219018  (  1.098939  -1.502485  -2.180342)
  26:      1375.00   12.183296  (  2.469771  -1.757054   1.730979)
  27:      1396.94   22.507676  (  3.822350   0.630947  -2.738471)
  28:      1422.72   16.550475  ( -3.817530   1.106502  -0.867522)
  29:      1490.22   51.968001  ( -3.668640  -1.180059   6.092335)
  30:      1498.87  117.879722  (  7.090606   3.015416  -7.649202)
  31:      1641.50   49.740129  (  0.753708   6.261597   3.156652)
  32:      1654.38   41.148378  (  5.102251  -2.746999   2.751256)
  33:      2255.19   39.397086  (  6.185029  -0.993000   0.395548)
  34:      3016.20   32.956739  (  5.208048   1.353498  -2.000255)
  35:      3068.68    6.069975  ( -0.628964   2.096320  -1.131291)
  36:      3090.75    6.677353  (  1.826722  -1.247689   1.335557)
  37:      3407.91   46.888836  ( -4.292145  -1.641629   5.076552)
  38:      3452.27   93.699050  (  8.981691  -2.083835   2.947188)
  39:      3492.47   96.355590  ( -2.352773   9.249068   2.296690)
  40:      3503.10   90.396598  ( -6.509662  -1.173425  -6.829639)
  41:      3865.80  106.395975  (  1.668004  -6.092798   8.154235)

--------------------------
THERMOCHEMISTRY AT 298.15K
--------------------------

Temperature         ... 298.15 K
Pressure            ... 1.00 atm
Total Mass          ... 86.11 AMU

Throughout the following assumptions are being made:
  (1) The electronic state is orbitally nondegenerate
  (2) There are no thermally accessible electronically excited states
  (3) Hindered rotations indicated by low frequency modes) are not
      treated as such but are treated as vibrations and this may
      case some error
  (4) All equations used are the standard statistical mechanics
      equations for an ideal gas
  (5) All vibrations are strinctly harmonic

------------
INNER ENERGY
------------

The inner energy is: U= E(el) + E(ZPE) + E(vib) + E(rot) + E(trans)
    E(el)   - is the total energy from the electronic structure calculation
              = E(kin-el) + E(nuc-el) + E(el-el) + E(nuc-nuc)
    E(ZPE)  - the the zero temperature vibrational energy from the frequency calculation
    E(vib)  - the the finite temperature correction to E(ZPE) due to population
              of excietd vibrational states
    E(rot)  - is the rotational thermal energy
    E(trans)- is the translational thermal energy

Summary of contributions to the inner energy U:
Electronic energy                ...   -286.65455490 Eh
Zero point energy                ...      0.12155294 Eh      76.28 kcal/mol
Thermal vibrational correction   ...      0.00478015 Eh       3.00 kcal/mol
Thermal rotational correction    ...      0.00141627 Eh       0.89 kcal/mol
Thermal translational correction ...      0.00141627 Eh       0.89 kcal/mol
-----------------------------------------------------------------------
Total thermal energy                   -286.52538927 Eh

Summary of corrections to the electronic energy:
(perhaps to be used in another calculation)
Total thermal correction                  0.00761269 Eh       4.78 kcal/mol
Non-thermal (ZPE) correction              0.12155294 Eh      76.28 kcal/mol
-----------------------------------------------------------------------
Total correction                          0.12916563 Eh      81.05 kcal/mol

--------
ENTHALPY
--------

The enthalpy is H = U + kB*T
                kB is Boltzmann's constant
Total free energy                 ...   -286.52538927 Eh
Thermal Enthalpy correction       ...      0.00094421 Eh       0.59 kcal/mol
-----------------------------------------------------------------------
Total Enthalpy                    ...   -286.52444506 Eh

-------
ENTROPY
-------

The entropy contributions are T*S = T*(S(el)+S(vib)+S(rot)+S(trans)
     S(el)   - electronic entropy
     S(vib)  - vibrational entropy
     S(rot)  - rotational entropy
     S(trans)- translational entropy
The entropies will be listed as mutliplied by the temperature to get
units of energy

Electronic entropy                ...      0.00000000 Eh      0.00 kcal/mol
Vibrational entropy               ...      0.00845138 Eh      5.30 kcal/mol
Rotational entropy                ...      0.01178238 Eh      7.39 kcal/mol
Translational entropy             ...      0.01865951 Eh     11.71 kcal/mol
-----------------------------------------------------------------------
Final entropy term                ...      0.03889328 Eh     24.41 kcal/mol

CAUTION: The rotational entropy is not quite correctly treated here
         because it includes a symmetry number that is not yet correctly
         implemented in ORCA!
For a nonlinear molecule the correct rotational entropy is:
    S(rot) = R*(ln(qrot/sn)+1.5)
    R    = 8.31441 J/mol/K = 1.987191683e-3 kcal/mol/K
    qrot = 175880.3246942
    sn is the rotational symmetry number. We have assumed 3 here
       if it is different for your molecule then you should correct
       the printed rotational entropy by manually evaluating the equation
       as given above

For convenience we print out the resulting values for sn=1 - 12:
 sn= 1  qrot/sn=  175880.3247 T*S(rot)=     8.04 kcal/mol T*S(tot)=    25.06 kcal/mol
 sn= 2  qrot/sn=   87940.1623 T*S(rot)=     7.63 kcal/mol T*S(tot)=    24.65 kcal/mol
 sn= 3  qrot/sn=   58626.7749 T*S(rot)=     7.39 kcal/mol T*S(tot)=    24.41 kcal/mol
 sn= 4  qrot/sn=   43970.0812 T*S(rot)=     7.22 kcal/mol T*S(tot)=    24.24 kcal/mol
 sn= 5  qrot/sn=   35176.0649 T*S(rot)=     7.09 kcal/mol T*S(tot)=    24.10 kcal/mol
 sn= 6  qrot/sn=   29313.3874 T*S(rot)=     6.98 kcal/mol T*S(tot)=    24.00 kcal/mol
 sn= 7  qrot/sn=   25125.7607 T*S(rot)=     6.89 kcal/mol T*S(tot)=    23.90 kcal/mol
 sn= 8  qrot/sn=   21985.0406 T*S(rot)=     6.81 kcal/mol T*S(tot)=    23.82 kcal/mol
 sn= 9  qrot/sn=   19542.2583 T*S(rot)=     6.74 kcal/mol T*S(tot)=    23.75 kcal/mol
 sn=10  qrot/sn=   17588.0325 T*S(rot)=     6.68 kcal/mol T*S(tot)=    23.69 kcal/mol
 sn=11  qrot/sn=   15989.1204 T*S(rot)=     6.62 kcal/mol T*S(tot)=    23.64 kcal/mol
 sn=12  qrot/sn=   14656.6937 T*S(rot)=     6.57 kcal/mol T*S(tot)=    23.58 kcal/mol

-------------------
GIBBS FREE ENTHALPY
-------------------

The Gibbs free enthalpy is G = H - T*S

Total enthalpy                    ...   -286.52444506 Eh
Total entropy correction          ...     -0.03889328 Eh    -24.41 kcal/mol
-----------------------------------------------------------------------
Final Gibbs free enthalpy         ...   -286.56333834 Eh

For completeness - the Gibbs free enthalpy minus the electronic energy
G-E(el)                           ...      0.09121656 Eh     57.24 kcal/mol

                             ****ORCA TERMINATED NORMALLY****
TOTAL RUN TIME: 0 days 0 hours 19 minutes 5 seconds 289 msec
