                         Program Version 3.0.3 - RELEASE   -
|  1> ! NORI PBE0 def2-TZVP UseSym TightOPT Freq TightSCF Grid3 FinalGrid5 XYZFile
|  2> % pal
|  3>     nprocs 8
|  4> end
|  5> %method
|  6>     SymThresh 5.0e-2
|  7> end
|  8> % geom
|  9>     MaxIter 10
| 10> end
| 11> % maxcore 2000
| 12> % output
| 13>     printlevel mini
| 14>     print[ P_Basis ] 0
| 15>     print[ P_SCFInfo ] 1
| 16>     print[ P_SCFIterInfo ] 1
| 17>     print[ P_OrbEn ] 0
| 18>     print[ P_Cartesian ] 0
| 19> end
| 20> % elprop
| 21>     Dipole false
| 22> end
| 23> *xyz 1 1
| 24>  N        2.5169436168    -1.2762909304    -0.6682090988
| 25>  C        2.5074684138     0.0683810313    -0.0038485287
| 26>  C        3.1599574106    -0.0865699650     1.3659734057
| 27>  O        2.5043590014    -1.2265806754     1.9025882271
| 28>  C        4.6458273256    -0.2583063698     1.3189664226
| 29>  C        5.4951706898     0.6169395410     1.8368962504
| 30>  H        1.8471196452    -1.3412970433    -1.4342672340
| 31>  H        2.2738100869    -1.9536396001     0.0716545465
| 32>  H        3.4407154824    -1.5175889918    -1.0290738813
| 33>  H        1.4603942218     0.3496802656     0.1068233698
| 34>  H        3.0239954349     0.7863860003    -0.6373563060
| 35>  H        2.9144670547     0.8174314620     1.9356076654
| 36>  H        2.8709430523    -1.4461696850     2.7652207503
| 37>  H        5.0237181588    -1.1738613019     0.8645075822
| 38>  H        5.1511149602     1.5228360641     2.3265170418
| 39>  H        6.5665554449     0.4607901984     1.7937497871
| 40> *
| 41>
| 42>                          ****END OF INPUT****
 Total Charge           Charge          ....    1
 Multiplicity           Mult            ....    1
 Number of Electrons    NEL             ....   48
FINAL SINGLE POINT ENERGY      -287.928451937322

CARTESIAN COORDINATES (ANGSTROEM)
---------------------------------
  N      2.021163   -0.000430   -0.039363
  C      0.922911   -0.982688   -0.318843
  C     -0.372246   -0.402222    0.239603
  O     -0.000060    0.000254    1.549922
  C     -0.931213    0.730404   -0.563119
  C     -2.098586    0.672010   -1.187151
  H      2.948360   -0.420783   -0.095513
  H      1.848086    0.345766    0.917466
  H      1.991815    0.796700   -0.676154
  H      1.185837   -1.897514    0.212011
  H      0.872737   -1.171324   -1.389228
  H     -1.098255   -1.223007    0.267890
  H     -0.742822    0.424890    1.991162
  H     -0.350114    1.652092   -0.590076
  H     -2.718825   -0.218378   -1.152230
  H     -2.480638    1.512181   -1.754061

FINAL SINGLE POINT ENERGY      -287.928452548814
                    ***********************HURRAY********************
 Multiplicity           Mult            ....    1
 Number of Electrons    NEL             ....   48
 Basis Dimension        Dim             ....  246
FINAL SINGLE POINT ENERGY      -287.928452689502

VIBRATIONAL FREQUENCIES
-----------------------

   0:         0.00 cm**-1
   1:         0.00 cm**-1
   2:         0.00 cm**-1
   3:         0.00 cm**-1
   4:         0.00 cm**-1
   5:         0.00 cm**-1
   6:        73.07 cm**-1
   7:       129.77 cm**-1
   8:       236.21 cm**-1
   9:       268.33 cm**-1
  10:       320.46 cm**-1
  11:       354.08 cm**-1
  12:       375.71 cm**-1
  13:       417.42 cm**-1
  14:       647.34 cm**-1
  15:       704.27 cm**-1
  16:       829.79 cm**-1
  17:       877.14 cm**-1
  18:       939.43 cm**-1
  19:      1012.51 cm**-1
  20:      1015.67 cm**-1
  21:      1022.76 cm**-1
  22:      1034.97 cm**-1
  23:      1061.07 cm**-1
  24:      1132.75 cm**-1
  25:      1192.60 cm**-1
  26:      1248.07 cm**-1
  27:      1316.69 cm**-1
  28:      1332.22 cm**-1
  29:      1354.92 cm**-1
  30:      1384.72 cm**-1
  31:      1407.28 cm**-1
  32:      1465.05 cm**-1
  33:      1477.98 cm**-1
  34:      1488.07 cm**-1
  35:      1640.96 cm**-1
  36:      1669.68 cm**-1
  37:      1723.01 cm**-1
  38:      3058.94 cm**-1
  39:      3115.99 cm**-1
  40:      3135.80 cm**-1
  41:      3161.23 cm**-1
  42:      3186.32 cm**-1
  43:      3255.99 cm**-1
  44:      3321.82 cm**-1
  45:      3481.65 cm**-1
  46:      3533.73 cm**-1
  47:      3849.83 cm**-1

IR SPECTRUM
-----------

 Mode    freq (cm**-1)   T**2         TX         TY         TZ
-------------------------------------------------------------------
   6:        73.07    4.320842  ( -0.861258   0.340224  -1.861001)
   7:       129.77   10.033664  ( -0.931711   2.072907  -2.206499)
   8:       236.21    4.659472  ( -1.709900   1.270322   0.349278)
   9:       268.33   30.282619  ( -4.885296   0.691010   2.437007)
  10:       320.46    8.470071  (  0.824344   1.576568  -2.303250)
  11:       354.08  100.732859  (  1.858370   7.947240  -5.841292)
  12:       375.71   19.604733  ( -3.768073   2.000424   1.185185)
  13:       417.42   27.310396  (  1.238599   4.800363  -1.653113)
  14:       647.34   12.646613  (  3.111332  -0.358612   1.684525)
  15:       704.27   15.149210  ( -0.515598   2.104860   3.233100)
  16:       829.79    2.179516  (  0.060706   1.292737   0.710396)
  17:       877.14   13.399156  (  1.570727   1.471697  -2.960757)
  18:       939.43   13.654251  (  2.728824  -1.672172  -1.847055)
  19:      1012.51   91.833258  ( -3.716743   3.606511   8.063012)
  20:      1015.67    6.745140  (  1.071628   1.724828  -1.619173)
  21:      1022.76    1.621327  (  0.747731  -0.344823  -0.971248)
  22:      1034.97   98.035403  ( -0.240107   2.795691   9.495360)
  23:      1061.07   15.620158  (  3.653969  -1.498797   0.149264)
  24:      1132.75   22.909882  ( -3.361642  -0.422239  -3.380970)
  25:      1192.60    6.580434  ( -2.184152  -0.142130  -1.337802)
  26:      1248.07   48.244289  ( -4.507845   0.724540  -5.234374)
  27:      1316.69    2.856684  (  0.842366   1.461456  -0.106072)
  28:      1332.22    6.227609  (  1.174390  -0.349976   2.173922)
  29:      1354.92    9.919998  ( -0.216928   0.425302  -3.113207)
  30:      1384.72   16.382976  (  0.985617  -1.335716   3.691531)
  31:      1407.28    1.283395  ( -0.350459  -0.417327   0.993182)
  32:      1465.05   31.852372  ( -4.419181  -0.009940  -3.510429)
  33:      1477.98  191.446352  ( 11.136552   7.404592   3.549025)
  34:      1488.07   39.523096  ( -6.204504   0.963798   0.313551)
  35:      1640.96   37.270705  ( -0.564379  -3.014057   5.278981)
  36:      1669.68   42.829119  (  5.493034  -3.353366  -1.187704)
  37:      1723.01    1.047157  (  0.451005  -0.394982   0.829301)
  38:      3058.94    5.707144  (  0.766231   1.965544   1.121013)
  39:      3115.99    0.448848  ( -0.235450   0.580707   0.237047)
  40:      3135.80    9.221650  ( -2.232068  -2.041192  -0.270288)
  41:      3161.23    0.414621  (  0.141991  -0.561814   0.280757)
  42:      3186.32    0.124212  ( -0.337844   0.039812   0.092132)
  43:      3255.99    0.180329  (  0.346028   0.236139   0.069519)
  44:      3321.82  109.734557  ( -3.139209   3.572555   9.333637)
  45:      3481.65  100.210913  ( -7.145463  -2.022738   6.712809)
  46:      3533.73  114.875975  ( -7.887315   6.843090  -2.416271)
  47:      3849.83  106.355515  ( -5.783576   4.139657   7.467865)

--------------------------
THERMOCHEMISTRY AT 298.15K
--------------------------

Temperature         ... 298.15 K
Pressure            ... 1.00 atm
Total Mass          ... 88.13 AMU

Throughout the following assumptions are being made:
  (1) The electronic state is orbitally nondegenerate
  (2) There are no thermally accessible electronically excited states
  (3) Hindered rotations indicated by low frequency modes) are not
      treated as such but are treated as vibrations and this may
      case some error
  (4) All equations used are the standard statistical mechanics
      equations for an ideal gas
  (5) All vibrations are strinctly harmonic

------------
INNER ENERGY
------------

The inner energy is: U= E(el) + E(ZPE) + E(vib) + E(rot) + E(trans)
    E(el)   - is the total energy from the electronic structure calculation
              = E(kin-el) + E(nuc-el) + E(el-el) + E(nuc-nuc)
    E(ZPE)  - the the zero temperature vibrational energy from the frequency calculation
    E(vib)  - the the finite temperature correction to E(ZPE) due to population
              of excietd vibrational states
    E(rot)  - is the rotational thermal energy
    E(trans)- is the translational thermal energy

Summary of contributions to the inner energy U:
Electronic energy                ...   -287.92845269 Eh
Zero point energy                ...      0.14638432 Eh      91.86 kcal/mol
Thermal vibrational correction   ...      0.00452048 Eh       2.84 kcal/mol
Thermal rotational correction    ...      0.00141627 Eh       0.89 kcal/mol
Thermal translational correction ...      0.00141627 Eh       0.89 kcal/mol
-----------------------------------------------------------------------
Total thermal energy                   -287.77471534 Eh

Summary of corrections to the electronic energy:
(perhaps to be used in another calculation)
Total thermal correction                  0.00735303 Eh       4.61 kcal/mol
Non-thermal (ZPE) correction              0.14638432 Eh      91.86 kcal/mol
-----------------------------------------------------------------------
Total correction                          0.15373735 Eh      96.47 kcal/mol

--------
ENTHALPY
--------

The enthalpy is H = U + kB*T
                kB is Boltzmann's constant
Total free energy                 ...   -287.77471534 Eh
Thermal Enthalpy correction       ...      0.00094421 Eh       0.59 kcal/mol
-----------------------------------------------------------------------
Total Enthalpy                    ...   -287.77377113 Eh

-------
ENTROPY
-------

The entropy contributions are T*S = T*(S(el)+S(vib)+S(rot)+S(trans)
     S(el)   - electronic entropy
     S(vib)  - vibrational entropy
     S(rot)  - rotational entropy
     S(trans)- translational entropy
The entropies will be listed as mutliplied by the temperature to get
units of energy

Electronic entropy                ...      0.00000000 Eh      0.00 kcal/mol
Vibrational entropy               ...      0.00794107 Eh      4.98 kcal/mol
Rotational entropy                ...      0.01173371 Eh      7.36 kcal/mol
Translational entropy             ...      0.01869229 Eh     11.73 kcal/mol
-----------------------------------------------------------------------
Final entropy term                ...      0.03836707 Eh     24.08 kcal/mol

CAUTION: The rotational entropy is not quite correctly treated here
         because it includes a symmetry number that is not yet correctly
         implemented in ORCA!
For a nonlinear molecule the correct rotational entropy is:
    S(rot) = R*(ln(qrot/sn)+1.5)
    R    = 8.31441 J/mol/K = 1.987191683e-3 kcal/mol/K
    qrot = 167043.7786467
    sn is the rotational symmetry number. We have assumed 3 here
       if it is different for your molecule then you should correct
       the printed rotational entropy by manually evaluating the equation
       as given above

For convenience we print out the resulting values for sn=1 - 12:
 sn= 1  qrot/sn=  167043.7786 T*S(rot)=     8.01 kcal/mol T*S(tot)=    24.73 kcal/mol
 sn= 2  qrot/sn=   83521.8893 T*S(rot)=     7.60 kcal/mol T*S(tot)=    24.32 kcal/mol
 sn= 3  qrot/sn=   55681.2595 T*S(rot)=     7.36 kcal/mol T*S(tot)=    24.08 kcal/mol
 sn= 4  qrot/sn=   41760.9447 T*S(rot)=     7.19 kcal/mol T*S(tot)=    23.91 kcal/mol
 sn= 5  qrot/sn=   33408.7557 T*S(rot)=     7.06 kcal/mol T*S(tot)=    23.77 kcal/mol
 sn= 6  qrot/sn=   27840.6298 T*S(rot)=     6.95 kcal/mol T*S(tot)=    23.66 kcal/mol
 sn= 7  qrot/sn=   23863.3969 T*S(rot)=     6.86 kcal/mol T*S(tot)=    23.57 kcal/mol
 sn= 8  qrot/sn=   20880.4723 T*S(rot)=     6.78 kcal/mol T*S(tot)=    23.49 kcal/mol
 sn= 9  qrot/sn=   18560.4198 T*S(rot)=     6.71 kcal/mol T*S(tot)=    23.42 kcal/mol
 sn=10  qrot/sn=   16704.3779 T*S(rot)=     6.65 kcal/mol T*S(tot)=    23.36 kcal/mol
 sn=11  qrot/sn=   15185.7981 T*S(rot)=     6.59 kcal/mol T*S(tot)=    23.31 kcal/mol
 sn=12  qrot/sn=   13920.3149 T*S(rot)=     6.54 kcal/mol T*S(tot)=    23.25 kcal/mol

-------------------
GIBBS FREE ENTHALPY
-------------------

The Gibbs free enthalpy is G = H - T*S

Total enthalpy                    ...   -287.77377113 Eh
Total entropy correction          ...     -0.03836707 Eh    -24.08 kcal/mol
-----------------------------------------------------------------------
Final Gibbs free enthalpy         ...   -287.81213820 Eh

For completeness - the Gibbs free enthalpy minus the electronic energy
G-E(el)                           ...      0.11631449 Eh     72.99 kcal/mol

                             ****ORCA TERMINATED NORMALLY****
TOTAL RUN TIME: 0 days 0 hours 21 minutes 1 seconds 861 msec
