                         Program Version 3.0.3 - RELEASE   -
|  1> ! NORI PBE0 def2-TZVP UseSym TightOPT Freq TightSCF Grid3 FinalGrid5 XYZFile
|  2> % pal
|  3>     nprocs 8
|  4> end
|  5> %method
|  6>     SymThresh 5.0e-2
|  7> end
|  8> % geom
|  9>     MaxIter 10
| 10> end
| 11> % maxcore 2000
| 12> % output
| 13>     printlevel mini
| 14>     print[ P_Basis ] 0
| 15>     print[ P_SCFInfo ] 1
| 16>     print[ P_SCFIterInfo ] 1
| 17>     print[ P_OrbEn ] 0
| 18>     print[ P_Cartesian ] 0
| 19> end
| 20> % elprop
| 21>     Dipole false
| 22> end
| 23> *xyz 1 1
| 24>  N        2.9511361636     0.4431138695    -1.2029858599
| 25>  C        2.3479502303    -0.1285136169     0.0386598731
| 26>  C        2.9431653417     0.5500938388     1.2758599254
| 27>  O        2.4998414887    -0.2491163040     2.3291340055
| 28>  C        4.4005784231     0.6238021352     1.1359614533
| 29>  C        5.5870006085     0.6889175396     0.9577885550
| 30>  H        2.7416939410    -0.1261840603    -2.0244142351
| 31>  H        3.9741969601     0.4857844240    -1.0687085171
| 32>  H        2.6240978897     1.3937782303    -1.3871445568
| 33>  H        2.5964961400    -1.1895075483     0.0681716433
| 34>  H        1.2669254887    -0.0031794136    -0.0013748710
| 35>  H        2.5512799628     1.5760769494     1.3567092674
| 36>  H        2.7743316370     0.1280187413     3.1717021521
| 37>  H        6.6483957249     0.7492952149     0.8499811649
| 38> *
| 39>
| 40>                          ****END OF INPUT****
 Total Charge           Charge          ....    1
 Multiplicity           Mult            ....    1
 Number of Electrons    NEL             ....   46
FINAL SINGLE POINT ENERGY      -286.664668065440

CARTESIAN COORDINATES (ANGSTROEM)
---------------------------------
  N      1.319899    0.000310   -1.470490
  C      1.294535    0.158139    0.014988
  C      0.011235   -0.450019    0.588289
  O     -0.000100    0.000250    1.908089
  C     -1.134061   -0.014188   -0.216231
  C     -2.033902    0.344895   -0.926845
  H      2.044108    0.576479   -1.901969
  H      0.396186    0.282439   -1.835843
  H      1.479877   -0.969297   -1.751545
  H      1.303778    1.225753    0.233717
  H      2.180319   -0.313164    0.437505
  H      0.070852   -1.548586    0.538138
  H     -0.747763   -0.378390    2.382590
  H     -2.866276    0.656833   -1.519607

FINAL SINGLE POINT ENERGY      -286.664668386624
                    ***********************HURRAY********************
 Multiplicity           Mult            ....    1
 Number of Electrons    NEL             ....   46
 Basis Dimension        Dim             ....  234
FINAL SINGLE POINT ENERGY      -286.664668420688

VIBRATIONAL FREQUENCIES
-----------------------

   0:         0.00 cm**-1
   1:         0.00 cm**-1
   2:         0.00 cm**-1
   3:         0.00 cm**-1
   4:         0.00 cm**-1
   5:         0.00 cm**-1
   6:       110.70 cm**-1
   7:       155.33 cm**-1
   8:       218.42 cm**-1
   9:       248.68 cm**-1
  10:       277.09 cm**-1
  11:       302.17 cm**-1
  12:       441.99 cm**-1
  13:       558.38 cm**-1
  14:       589.49 cm**-1
  15:       722.94 cm**-1
  16:       765.40 cm**-1
  17:       801.36 cm**-1
  18:       910.27 cm**-1
  19:       957.26 cm**-1
  20:      1029.60 cm**-1
  21:      1089.71 cm**-1
  22:      1112.18 cm**-1
  23:      1169.56 cm**-1
  24:      1272.89 cm**-1
  25:      1327.79 cm**-1
  26:      1366.21 cm**-1
  27:      1373.28 cm**-1
  28:      1423.68 cm**-1
  29:      1490.93 cm**-1
  30:      1502.57 cm**-1
  31:      1642.09 cm**-1
  32:      1662.34 cm**-1
  33:      2225.40 cm**-1
  34:      2995.16 cm**-1
  35:      3116.98 cm**-1
  36:      3186.21 cm**-1
  37:      3300.38 cm**-1
  38:      3446.33 cm**-1
  39:      3464.93 cm**-1
  40:      3516.17 cm**-1
  41:      3846.27 cm**-1

IR SPECTRUM
-----------

 Mode    freq (cm**-1)   T**2         TX         TY         TZ
-------------------------------------------------------------------
   6:       110.70    4.867973  ( -1.868627   0.099424   1.168898)
   7:       155.33    2.776636  ( -1.447323  -0.819697  -0.099944)
   8:       218.42    3.518503  ( -0.590955  -0.717667  -1.629181)
   9:       248.68    1.299501  (  0.066353   1.080520  -0.357177)
  10:       277.09  137.208270  (  6.996332  -8.382459   4.241933)
  11:       302.17   20.206963  (  1.500457   4.111657  -1.024632)
  12:       441.99   53.564025  ( -4.982736   1.204071   5.223655)
  13:       558.38   10.860984  ( -1.841676  -1.928549   1.936468)
  14:       589.49    7.368973  (  1.646609  -2.147674   0.212481)
  15:       722.94   40.884398  ( -1.508413  -6.180394  -0.641729)
  16:       765.40   32.832061  ( -2.274419   0.140158   5.257322)
  17:       801.36    7.940335  ( -1.990914  -0.515132   1.926456)
  18:       910.27   22.625823  (  0.461233  -3.418106   3.275612)
  19:       957.26   53.110196  (  6.100217  -1.955623  -3.474635)
  20:      1029.60   15.520798  (  3.890756   0.036232   0.617656)
  21:      1089.71   94.018885  (  3.350260   3.692744   8.316146)
  22:      1112.18    6.529473  (  2.377315   0.576409  -0.738648)
  23:      1169.56   34.948149  (  2.087361   0.157002  -5.528691)
  24:      1272.89   41.351267  (  0.458426   1.393866   6.260851)
  25:      1327.79   11.930441  ( -2.355182   2.300159   1.045383)
  26:      1366.21   15.407910  (  2.078112  -1.294718   3.068072)
  27:      1373.28   33.367703  (  3.482623   0.535235   4.577397)
  28:      1423.68    4.017282  ( -0.816625  -1.329611  -1.257990)
  29:      1490.93   13.933969  (  2.678661   2.171418   1.429575)
  30:      1502.57  153.367887  (  4.323941   0.039662 -11.604734)
  31:      1642.09   31.614995  ( -0.190925   5.617565   0.146635)
  32:      1662.34   36.731259  ( -5.870716  -1.109145   1.017719)
  33:      2225.40   19.302692  (  3.937366  -0.939487   1.707983)
  34:      2995.16   14.301010  ( -1.070758   3.050204   1.962332)
  35:      3116.98    0.318102  ( -0.205385   0.307018   0.426215)
  36:      3186.21    0.628236  (  0.349481   0.707523  -0.074229)
  37:      3300.38  122.219844  ( 10.901214  -1.533082   1.016382)
  38:      3446.33  102.312850  (  8.117231  -2.839999   5.325206)
  39:      3464.93  119.992475  (  8.776270  -3.682289  -5.423127)
  40:      3516.17  114.021038  (  5.113746   9.131651  -2.117449)
  41:      3846.27  115.826678  ( -5.962974  -2.687867   8.546636)

--------------------------
THERMOCHEMISTRY AT 298.15K
--------------------------

Temperature         ... 298.15 K
Pressure            ... 1.00 atm
Total Mass          ... 86.11 AMU

Throughout the following assumptions are being made:
  (1) The electronic state is orbitally nondegenerate
  (2) There are no thermally accessible electronically excited states
  (3) Hindered rotations indicated by low frequency modes) are not
      treated as such but are treated as vibrations and this may
      case some error
  (4) All equations used are the standard statistical mechanics
      equations for an ideal gas
  (5) All vibrations are strinctly harmonic

------------
INNER ENERGY
------------

The inner energy is: U= E(el) + E(ZPE) + E(vib) + E(rot) + E(trans)
    E(el)   - is the total energy from the electronic structure calculation
              = E(kin-el) + E(nuc-el) + E(el-el) + E(nuc-nuc)
    E(ZPE)  - the the zero temperature vibrational energy from the frequency calculation
    E(vib)  - the the finite temperature correction to E(ZPE) due to population
              of excietd vibrational states
    E(rot)  - is the rotational thermal energy
    E(trans)- is the translational thermal energy

Summary of contributions to the inner energy U:
Electronic energy                ...   -286.66466842 Eh
Zero point energy                ...      0.12215561 Eh      76.65 kcal/mol
Thermal vibrational correction   ...      0.00438651 Eh       2.75 kcal/mol
Thermal rotational correction    ...      0.00141627 Eh       0.89 kcal/mol
Thermal translational correction ...      0.00141627 Eh       0.89 kcal/mol
-----------------------------------------------------------------------
Total thermal energy                   -286.53529376 Eh

Summary of corrections to the electronic energy:
(perhaps to be used in another calculation)
Total thermal correction                  0.00721905 Eh       4.53 kcal/mol
Non-thermal (ZPE) correction              0.12215561 Eh      76.65 kcal/mol
-----------------------------------------------------------------------
Total correction                          0.12937466 Eh      81.18 kcal/mol

--------
ENTHALPY
--------

The enthalpy is H = U + kB*T
                kB is Boltzmann's constant
Total free energy                 ...   -286.53529376 Eh
Thermal Enthalpy correction       ...      0.00094421 Eh       0.59 kcal/mol
-----------------------------------------------------------------------
Total Enthalpy                    ...   -286.53434955 Eh

-------
ENTROPY
-------

The entropy contributions are T*S = T*(S(el)+S(vib)+S(rot)+S(trans)
     S(el)   - electronic entropy
     S(vib)  - vibrational entropy
     S(rot)  - rotational entropy
     S(trans)- translational entropy
The entropies will be listed as mutliplied by the temperature to get
units of energy

Electronic entropy                ...      0.00000000 Eh      0.00 kcal/mol
Vibrational entropy               ...      0.00746843 Eh      4.69 kcal/mol
Rotational entropy                ...      0.01172989 Eh      7.36 kcal/mol
Translational entropy             ...      0.01865951 Eh     11.71 kcal/mol
-----------------------------------------------------------------------
Final entropy term                ...      0.03785784 Eh     23.76 kcal/mol

CAUTION: The rotational entropy is not quite correctly treated here
         because it includes a symmetry number that is not yet correctly
         implemented in ORCA!
For a nonlinear molecule the correct rotational entropy is:
    S(rot) = R*(ln(qrot/sn)+1.5)
    R    = 8.31441 J/mol/K = 1.987191683e-3 kcal/mol/K
    qrot = 166368.8699664
    sn is the rotational symmetry number. We have assumed 3 here
       if it is different for your molecule then you should correct
       the printed rotational entropy by manually evaluating the equation
       as given above

For convenience we print out the resulting values for sn=1 - 12:
 sn= 1  qrot/sn=  166368.8700 T*S(rot)=     8.01 kcal/mol T*S(tot)=    24.41 kcal/mol
 sn= 2  qrot/sn=   83184.4350 T*S(rot)=     7.60 kcal/mol T*S(tot)=    24.00 kcal/mol
 sn= 3  qrot/sn=   55456.2900 T*S(rot)=     7.36 kcal/mol T*S(tot)=    23.76 kcal/mol
 sn= 4  qrot/sn=   41592.2175 T*S(rot)=     7.19 kcal/mol T*S(tot)=    23.59 kcal/mol
 sn= 5  qrot/sn=   33273.7740 T*S(rot)=     7.06 kcal/mol T*S(tot)=    23.45 kcal/mol
 sn= 6  qrot/sn=   27728.1450 T*S(rot)=     6.95 kcal/mol T*S(tot)=    23.35 kcal/mol
 sn= 7  qrot/sn=   23766.9814 T*S(rot)=     6.86 kcal/mol T*S(tot)=    23.25 kcal/mol
 sn= 8  qrot/sn=   20796.1087 T*S(rot)=     6.78 kcal/mol T*S(tot)=    23.17 kcal/mol
 sn= 9  qrot/sn=   18485.4300 T*S(rot)=     6.71 kcal/mol T*S(tot)=    23.11 kcal/mol
 sn=10  qrot/sn=   16636.8870 T*S(rot)=     6.65 kcal/mol T*S(tot)=    23.04 kcal/mol
 sn=11  qrot/sn=   15124.4427 T*S(rot)=     6.59 kcal/mol T*S(tot)=    22.99 kcal/mol
 sn=12  qrot/sn=   13864.0725 T*S(rot)=     6.54 kcal/mol T*S(tot)=    22.93 kcal/mol

-------------------
GIBBS FREE ENTHALPY
-------------------

The Gibbs free enthalpy is G = H - T*S

Total enthalpy                    ...   -286.53434955 Eh
Total entropy correction          ...     -0.03785784 Eh    -23.76 kcal/mol
-----------------------------------------------------------------------
Final Gibbs free enthalpy         ...   -286.57220738 Eh

For completeness - the Gibbs free enthalpy minus the electronic energy
G-E(el)                           ...      0.09246104 Eh     58.02 kcal/mol

                             ****ORCA TERMINATED NORMALLY****
TOTAL RUN TIME: 0 days 0 hours 19 minutes 6 seconds 195 msec
