                         Program Version 3.0.3 - RELEASE   -
|  1> ! NORI PBE0 def2-TZVP UseSym TightOPT Freq TightSCF Grid3 FinalGrid5 XYZFile
|  2> % pal
|  3>     nprocs 8
|  4> end
|  5> %method
|  6>     SymThresh 5.0e-2
|  7> end
|  8> % geom
|  9>     MaxIter 10
| 10> end
| 11> % maxcore 2000
| 12> % output
| 13>     printlevel mini
| 14>     print[ P_Basis ] 0
| 15>     print[ P_SCFInfo ] 1
| 16>     print[ P_SCFIterInfo ] 1
| 17>     print[ P_OrbEn ] 0
| 18>     print[ P_Cartesian ] 0
| 19> end
| 20> % elprop
| 21>     Dipole false
| 22> end
| 23> *xyz 1 1
| 24>  N        0.6031218620    -0.3808585672     1.4736140944
| 25>  C        0.8313075108    -0.6788721224     0.0201179630
| 26>  C        2.3198978934    -0.6233487529    -0.2323822780
| 27>  O        2.7426900221     0.5891928989     0.3357330075
| 28>  C        4.0721468483     0.9124621951     0.2144656868
| 29>  C        5.0046620097     0.1941727634    -0.3855520815
| 30>  H       -0.3706927437    -0.1583727231     1.6819948363
| 31>  H        1.1992075752     0.4262188011     1.7042277882
| 32>  H        0.8883704709    -1.1590774384     2.0714112509
| 33>  H        0.4004543353    -1.6512752886    -0.2139131902
| 34>  H        0.3112146253     0.0983201800    -0.5395120929
| 35>  H        2.5037343379    -0.6543323470    -1.3115135224
| 36>  H        2.8426319637    -1.4732385534     0.2270296917
| 37>  H        4.2609019718     1.8680687259     0.6859093765
| 38>  H        4.8272602280    -0.7586356200    -0.8664946004
| 39>  H        6.0150110896     0.5782958486    -0.4079959299
| 40> *
| 41>
| 42>                          ****END OF INPUT****
 Total Charge           Charge          ....    1
 Multiplicity           Mult            ....    1
 Number of Electrons    NEL             ....   48
FINAL SINGLE POINT ENERGY      -287.917005148527
FINAL SINGLE POINT ENERGY      -287.917006910825

CARTESIAN COORDINATES (ANGSTROEM)
---------------------------------
  N      2.110357   -0.001842   -0.891214
  C      0.988475   -0.941156   -1.226680
  C     -0.289663   -0.343490   -0.686234
  O      0.000179    0.001050    0.643675
  C     -1.017371    0.543644    1.389732
  C     -2.254623    0.770266    0.985387
  H      3.029302   -0.431813   -1.000454
  H      1.974173    0.278932    0.089619
  H      2.082998    0.844173   -1.463522
  H      0.961135   -1.089462   -2.305092
  H      1.217833   -1.884505   -0.731245
  H     -1.090320   -1.087835   -0.750019
  H     -0.600074    0.540812   -1.259412
  H     -0.661852    0.764322    2.388010
  H     -2.624054    0.546126   -0.006576
  H     -2.954489    1.201512    1.687347

FINAL SINGLE POINT ENERGY      -287.917007592089
                    ***********************HURRAY********************
 Multiplicity           Mult            ....    1
 Number of Electrons    NEL             ....   48
 Basis Dimension        Dim             ....  246
FINAL SINGLE POINT ENERGY      -287.917007774633

VIBRATIONAL FREQUENCIES
-----------------------

   0:         0.00 cm**-1
   1:         0.00 cm**-1
   2:         0.00 cm**-1
   3:         0.00 cm**-1
   4:         0.00 cm**-1
   5:         0.00 cm**-1
   6:        72.62 cm**-1
   7:       145.03 cm**-1
   8:       197.15 cm**-1
   9:       239.98 cm**-1
  10:       257.52 cm**-1
  11:       314.71 cm**-1
  12:       494.00 cm**-1
  13:       607.85 cm**-1
  14:       718.59 cm**-1
  15:       808.64 cm**-1
  16:       888.83 cm**-1
  17:       900.91 cm**-1
  18:       954.71 cm**-1
  19:       965.72 cm**-1
  20:       989.75 cm**-1
  21:      1009.07 cm**-1
  22:      1070.41 cm**-1
  23:      1121.79 cm**-1
  24:      1182.19 cm**-1
  25:      1225.16 cm**-1
  26:      1276.97 cm**-1
  27:      1343.51 cm**-1
  28:      1358.43 cm**-1
  29:      1386.32 cm**-1
  30:      1427.87 cm**-1
  31:      1437.79 cm**-1
  32:      1487.54 cm**-1
  33:      1490.52 cm**-1
  34:      1510.74 cm**-1
  35:      1643.53 cm**-1
  36:      1668.52 cm**-1
  37:      1716.37 cm**-1
  38:      3022.91 cm**-1
  39:      3085.47 cm**-1
  40:      3115.71 cm**-1
  41:      3180.36 cm**-1
  42:      3192.87 cm**-1
  43:      3233.61 cm**-1
  44:      3283.05 cm**-1
  45:      3362.24 cm**-1
  46:      3474.81 cm**-1
  47:      3523.82 cm**-1

IR SPECTRUM
-----------

 Mode    freq (cm**-1)   T**2         TX         TY         TZ
-------------------------------------------------------------------
   6:        72.62    7.887892  (  0.764626  -2.640268   0.576388)
   7:       145.03   14.334977  (  2.273873  -0.557567  -2.975499)
   8:       197.15    6.627101  ( -1.904406  -0.419069   1.680690)
   9:       239.98    5.762039  ( -0.880689  -1.555022   1.602602)
  10:       257.52   16.293563  (  3.671029   0.706617  -1.522433)
  11:       314.71   15.822004  ( -3.321496   1.575161   1.519387)
  12:       494.00   15.841183  ( -3.884551   0.443574  -0.744775)
  13:       607.85    0.331453  (  0.377811   0.146366   0.409009)
  14:       718.59    2.296464  (  0.061847   1.485389  -0.293698)
  15:       808.64   24.831480  ( -4.395537  -0.666822   2.250796)
  16:       888.83    7.938589  (  1.819255  -2.134836  -0.267164)
  17:       900.91   57.430813  ( -2.410886  -6.790914   2.345620)
  18:       954.71   12.754490  ( -1.804229   1.981676  -2.360552)
  19:       965.72   12.580308  ( -2.826444   0.702451  -2.024373)
  20:       989.75   25.782685  (  2.335135   4.032856  -2.016407)
  21:      1009.07   36.779518  ( -4.719670   2.396505   2.959898)
  22:      1070.41   19.837291  ( -0.866051  -1.693023  -4.027521)
  23:      1121.79   94.149577  ( -8.201432   3.455656   3.865816)
  24:      1182.19    1.937496  ( -0.584594   0.763440   1.006432)
  25:      1225.16  194.806336  ( -8.931560   5.113827   9.427743)
  26:      1276.97    4.829050  ( -0.123576  -2.152299   0.425896)
  27:      1343.51    7.259888  ( -0.265316   0.951049  -2.506990)
  28:      1358.43   33.289147  (  2.679768  -1.797212  -4.783097)
  29:      1386.32    4.732650  (  1.594611  -0.937494  -1.144976)
  30:      1427.87    1.677368  ( -0.587460  -0.737579  -0.887826)
  31:      1437.79    4.238613  ( -1.206671  -0.268887   1.646286)
  32:      1487.54  107.904646  (  7.600673   6.461860   2.894612)
  33:      1490.52   97.858391  ( -9.703856  -1.730725  -0.835558)
  34:      1510.74    9.358494  ( -2.652686   1.118386   1.034874)
  35:      1643.53   43.557194  (  1.460964  -4.138025   4.929455)
  36:      1668.52   44.183613  ( -5.069270   3.527309   2.458496)
  37:      1716.37  119.571472  (-10.034613   3.564668   2.484182)
  38:      3022.91   15.166662  ( -0.496551  -1.188247   3.675346)
  39:      3085.47    3.917299  (  0.010804  -1.966623  -0.222654)
  40:      3115.71    0.484740  (  0.280717  -0.607220  -0.192929)
  41:      3180.36    0.064958  (  0.195961  -0.158706   0.037000)
  42:      3192.87   10.694007  ( -2.579475   1.205619   1.608353)
  43:      3233.61    0.437407  (  0.424625  -0.251650  -0.440196)
  44:      3283.05    0.057128  ( -0.224880   0.080968   0.001290)
  45:      3362.24   85.378753  ( -2.155570   3.582908   8.239845)
  46:      3474.81  129.088478  (  7.452985   2.553960  -8.186500)
  47:      3523.82  111.858631  (  7.573662  -7.272168   1.270375)

--------------------------
THERMOCHEMISTRY AT 298.15K
--------------------------

Temperature         ... 298.15 K
Pressure            ... 1.00 atm
Total Mass          ... 88.13 AMU

Throughout the following assumptions are being made:
  (1) The electronic state is orbitally nondegenerate
  (2) There are no thermally accessible electronically excited states
  (3) Hindered rotations indicated by low frequency modes) are not
      treated as such but are treated as vibrations and this may
      case some error
  (4) All equations used are the standard statistical mechanics
      equations for an ideal gas
  (5) All vibrations are strinctly harmonic

------------
INNER ENERGY
------------

The inner energy is: U= E(el) + E(ZPE) + E(vib) + E(rot) + E(trans)
    E(el)   - is the total energy from the electronic structure calculation
              = E(kin-el) + E(nuc-el) + E(el-el) + E(nuc-nuc)
    E(ZPE)  - the the zero temperature vibrational energy from the frequency calculation
    E(vib)  - the the finite temperature correction to E(ZPE) due to population
              of excietd vibrational states
    E(rot)  - is the rotational thermal energy
    E(trans)- is the translational thermal energy

Summary of contributions to the inner energy U:
Electronic energy                ...   -287.91700777 Eh
Zero point energy                ...      0.14668572 Eh      92.05 kcal/mol
Thermal vibrational correction   ...      0.00437765 Eh       2.75 kcal/mol
Thermal rotational correction    ...      0.00141627 Eh       0.89 kcal/mol
Thermal translational correction ...      0.00141627 Eh       0.89 kcal/mol
-----------------------------------------------------------------------
Total thermal energy                   -287.76311187 Eh

Summary of corrections to the electronic energy:
(perhaps to be used in another calculation)
Total thermal correction                  0.00721019 Eh       4.52 kcal/mol
Non-thermal (ZPE) correction              0.14668572 Eh      92.05 kcal/mol
-----------------------------------------------------------------------
Total correction                          0.15389591 Eh      96.57 kcal/mol

--------
ENTHALPY
--------

The enthalpy is H = U + kB*T
                kB is Boltzmann's constant
Total free energy                 ...   -287.76311187 Eh
Thermal Enthalpy correction       ...      0.00094421 Eh       0.59 kcal/mol
-----------------------------------------------------------------------
Total Enthalpy                    ...   -287.76216766 Eh

-------
ENTROPY
-------

The entropy contributions are T*S = T*(S(el)+S(vib)+S(rot)+S(trans)
     S(el)   - electronic entropy
     S(vib)  - vibrational entropy
     S(rot)  - rotational entropy
     S(trans)- translational entropy
The entropies will be listed as mutliplied by the temperature to get
units of energy

Electronic entropy                ...      0.00000000 Eh      0.00 kcal/mol
Vibrational entropy               ...      0.00782547 Eh      4.91 kcal/mol
Rotational entropy                ...      0.01168347 Eh      7.33 kcal/mol
Translational entropy             ...      0.01869229 Eh     11.73 kcal/mol
-----------------------------------------------------------------------
Final entropy term                ...      0.03820123 Eh     23.97 kcal/mol

CAUTION: The rotational entropy is not quite correctly treated here
         because it includes a symmetry number that is not yet correctly
         implemented in ORCA!
For a nonlinear molecule the correct rotational entropy is:
    S(rot) = R*(ln(qrot/sn)+1.5)
    R    = 8.31441 J/mol/K = 1.987191683e-3 kcal/mol/K
    qrot = 158387.1742608
    sn is the rotational symmetry number. We have assumed 3 here
       if it is different for your molecule then you should correct
       the printed rotational entropy by manually evaluating the equation
       as given above

For convenience we print out the resulting values for sn=1 - 12:
 sn= 1  qrot/sn=  158387.1743 T*S(rot)=     7.98 kcal/mol T*S(tot)=    24.62 kcal/mol
 sn= 2  qrot/sn=   79193.5871 T*S(rot)=     7.57 kcal/mol T*S(tot)=    24.21 kcal/mol
 sn= 3  qrot/sn=   52795.7248 T*S(rot)=     7.33 kcal/mol T*S(tot)=    23.97 kcal/mol
 sn= 4  qrot/sn=   39596.7936 T*S(rot)=     7.16 kcal/mol T*S(tot)=    23.80 kcal/mol
 sn= 5  qrot/sn=   31677.4349 T*S(rot)=     7.03 kcal/mol T*S(tot)=    23.67 kcal/mol
 sn= 6  qrot/sn=   26397.8624 T*S(rot)=     6.92 kcal/mol T*S(tot)=    23.56 kcal/mol
 sn= 7  qrot/sn=   22626.7392 T*S(rot)=     6.83 kcal/mol T*S(tot)=    23.47 kcal/mol
 sn= 8  qrot/sn=   19798.3968 T*S(rot)=     6.75 kcal/mol T*S(tot)=    23.39 kcal/mol
 sn= 9  qrot/sn=   17598.5749 T*S(rot)=     6.68 kcal/mol T*S(tot)=    23.32 kcal/mol
 sn=10  qrot/sn=   15838.7174 T*S(rot)=     6.62 kcal/mol T*S(tot)=    23.26 kcal/mol
 sn=11  qrot/sn=   14398.8340 T*S(rot)=     6.56 kcal/mol T*S(tot)=    23.20 kcal/mol
 sn=12  qrot/sn=   13198.9312 T*S(rot)=     6.51 kcal/mol T*S(tot)=    23.15 kcal/mol

-------------------
GIBBS FREE ENTHALPY
-------------------

The Gibbs free enthalpy is G = H - T*S

Total enthalpy                    ...   -287.76216766 Eh
Total entropy correction          ...     -0.03820123 Eh    -23.97 kcal/mol
-----------------------------------------------------------------------
Final Gibbs free enthalpy         ...   -287.80036889 Eh

For completeness - the Gibbs free enthalpy minus the electronic energy
G-E(el)                           ...      0.11663889 Eh     73.19 kcal/mol

                             ****ORCA TERMINATED NORMALLY****
TOTAL RUN TIME: 0 days 0 hours 20 minutes 54 seconds 82 msec
