                         Program Version 3.0.3 - RELEASE   -
|  1> ! NORI PBE0 def2-TZVP UseSym TightOPT Freq TightSCF Grid3 FinalGrid5 XYZFile
|  2> % pal
|  3>     nprocs 8
|  4> end
|  5> %method
|  6>     SymThresh 5.0e-2
|  7> end
|  8> % geom
|  9>     MaxIter 10
| 10> end
| 11> % maxcore 2000
| 12> % output
| 13>     printlevel mini
| 14>     print[ P_Basis ] 0
| 15>     print[ P_SCFInfo ] 1
| 16>     print[ P_SCFIterInfo ] 1
| 17>     print[ P_OrbEn ] 0
| 18>     print[ P_Cartesian ] 0
| 19> end
| 20> % elprop
| 21>     Dipole false
| 22> end
| 23> *xyz 1 1
| 24>  O        1.3917926630    -0.3372014987     1.0722204187
| 25>  C        2.3152421204    -0.1143482627     0.0310402127
| 26>  C        3.1610241459     1.1357078728     0.2864003958
| 27>  C        4.1833959642     0.7003986707     1.3437539615
| 28>  N        3.9956473919    -0.7989197898     1.4559809117
| 29>  C        3.3257605103    -1.2295957472     0.1861041482
| 30>  H        0.6481428043     0.2689831142     1.0043520108
| 31>  H        1.8466313546    -0.1215309903    -0.9561899549
| 32>  H        2.5480600603     1.9669715549     0.6327226530
| 33>  H        3.6624493708     1.4514687877    -0.6297716791
| 34>  H        4.0231790211     1.1350323553     2.3279725715
| 35>  H        5.2129815157     0.8832085714     1.0412318446
| 36>  H        4.8676529465    -1.2921052783     1.6402360492
| 37>  H        3.3483489161    -0.9978212280     2.2216144098
| 38>  H        4.0678524168    -1.2349875924    -0.6118018679
| 39>  H        2.8837687980    -2.2157605396     0.3138039143
| 40> *
| 41>
| 42>                          ****END OF INPUT****
 Total Charge           Charge          ....    1
 Multiplicity           Mult            ....    1
 Number of Electrons    NEL             ....   48
FINAL SINGLE POINT ENERGY      -287.959087383431

CARTESIAN COORDINATES (ANGSTROEM)
---------------------------------
  O      0.000530    0.000208    1.687287
  C     -0.687539   -0.505295    0.565801
  C     -1.141714    0.618195   -0.369498
  C      0.131999    1.039867   -1.112780
  N      1.161086   -0.000045   -0.718672
  C      0.385977   -1.193628   -0.248321
  H     -0.614168    0.379716    2.322335
  H     -1.494681   -1.189005    0.839800
  H     -1.579745    1.446131    0.186713
  H     -1.894542    0.251968   -1.069089
  H      0.514222    2.017534   -0.828173
  H      0.024581    1.005257   -2.195411
  H      1.813844   -0.212778   -1.471250
  H      1.696657    0.346328    0.080138
  H     -0.016516   -1.709872   -1.119252
  H      1.030369   -1.851829    0.331337

FINAL SINGLE POINT ENERGY      -287.959087758095
                    ***********************HURRAY********************
 Multiplicity           Mult            ....    1
 Number of Electrons    NEL             ....   48
 Basis Dimension        Dim             ....  246
FINAL SINGLE POINT ENERGY      -287.959087946427

VIBRATIONAL FREQUENCIES
-----------------------

   0:         0.00 cm**-1
   1:         0.00 cm**-1
   2:         0.00 cm**-1
   3:         0.00 cm**-1
   4:         0.00 cm**-1
   5:         0.00 cm**-1
   6:       101.64 cm**-1
   7:       199.29 cm**-1
   8:       302.89 cm**-1
   9:       392.05 cm**-1
  10:       435.25 cm**-1
  11:       629.56 cm**-1
  12:       759.18 cm**-1
  13:       795.77 cm**-1
  14:       865.89 cm**-1
  15:       884.97 cm**-1
  16:       902.48 cm**-1
  17:       916.07 cm**-1
  18:       976.15 cm**-1
  19:      1002.71 cm**-1
  20:      1044.24 cm**-1
  21:      1071.97 cm**-1
  22:      1097.65 cm**-1
  23:      1186.25 cm**-1
  24:      1213.93 cm**-1
  25:      1246.67 cm**-1
  26:      1267.84 cm**-1
  27:      1301.04 cm**-1
  28:      1320.35 cm**-1
  29:      1337.42 cm**-1
  30:      1379.41 cm**-1
  31:      1392.40 cm**-1
  32:      1406.20 cm**-1
  33:      1433.46 cm**-1
  34:      1479.80 cm**-1
  35:      1487.70 cm**-1
  36:      1508.80 cm**-1
  37:      1629.34 cm**-1
  38:      3097.78 cm**-1
  39:      3105.90 cm**-1
  40:      3119.93 cm**-1
  41:      3125.27 cm**-1
  42:      3154.29 cm**-1
  43:      3186.23 cm**-1
  44:      3190.36 cm**-1
  45:      3451.90 cm**-1
  46:      3527.94 cm**-1
  47:      3858.64 cm**-1

IR SPECTRUM
-----------

 Mode    freq (cm**-1)   T**2         TX         TY         TZ
-------------------------------------------------------------------
   6:       101.64    1.271357  ( -0.025960   1.118846   0.137353)
   7:       199.29   18.751624  (  1.088739  -0.437385  -4.168329)
   8:       302.89  135.108427  (  1.256732   9.629833  -6.387126)
   9:       392.05    4.821775  ( -0.678169   2.041809  -0.439177)
  10:       435.25    9.098860  ( -0.211883   0.585552   2.951456)
  11:       629.56    4.475208  (  1.731789   0.620704  -1.044434)
  12:       759.18    3.928822  (  0.670044  -1.447084   1.177205)
  13:       795.77    2.971830  ( -0.599404  -0.892984  -1.347265)
  14:       865.89   10.455746  (  1.077391   0.486909   3.009633)
  15:       884.97    8.590598  ( -1.796907   1.103818   2.035511)
  16:       902.48    1.340777  (  0.010089   0.675297  -0.940558)
  17:       916.07    1.310782  (  0.916794  -0.586109   0.356014)
  18:       976.15   33.004356  ( -2.252127  -2.863787  -4.441959)
  19:      1002.71    9.752356  ( -0.111675  -0.900428   2.988162)
  20:      1044.24    6.646799  ( -1.445259   1.929273   0.914292)
  21:      1071.97    7.687834  ( -0.752954  -1.998392  -1.768424)
  22:      1097.65   40.669498  ( -2.322353  -1.361959  -5.781111)
  23:      1186.25   10.301422  ( -2.056611  -1.574860  -1.895149)
  24:      1213.93   13.080701  (  1.677293   2.947213   1.257507)
  25:      1246.67   26.014070  (  2.171554   2.543192   3.851051)
  26:      1267.84   35.002330  (  3.510571  -2.553005   4.019999)
  27:      1301.04   11.623487  (  1.155088  -1.096248   3.014548)
  28:      1320.35   22.707204  (  1.487382  -1.017577   4.411285)
  29:      1337.42    7.676862  ( -0.881119  -0.946589  -2.450400)
  30:      1379.41    6.537685  (  0.000001  -2.362537   0.977805)
  31:      1392.40    5.543001  ( -0.541518   2.144997   0.805447)
  32:      1406.20   23.565925  ( -0.224854   4.201679  -2.421004)
  33:      1433.46   12.827696  (  1.985455   2.833200  -0.926629)
  34:      1479.80   16.941501  ( -2.903502   2.809577   0.785782)
  35:      1487.70    7.015774  (  0.851319   2.495424   0.252760)
  36:      1508.80    7.837211  ( -0.416037   1.039549  -2.565826)
  37:      1629.34   79.929254  (  8.799135   1.423309  -0.691859)
  38:      3097.78    1.173149  (  0.132974   0.998755   0.397437)
  39:      3105.90    5.525473  (  1.898400   1.369495   0.214554)
  40:      3119.93    1.608828  ( -1.000884  -0.634949  -0.451551)
  41:      3125.27    1.119988  ( -0.189550  -0.221765   1.017290)
  42:      3154.29    0.796047  (  0.102011   0.356823   0.811368)
  43:      3186.23    0.054691  ( -0.016444  -0.006641  -0.233187)
  44:      3190.36    0.079681  (  0.194855  -0.080285   0.187796)
  45:      3451.90   66.672834  (  7.354412   1.720291   3.102589)
  46:      3527.94   96.013836  ( -3.362431   2.861688   8.747493)
  47:      3858.64  105.112497  (  4.019675  -3.507064  -8.755296)

--------------------------
THERMOCHEMISTRY AT 298.15K
--------------------------

Temperature         ... 298.15 K
Pressure            ... 1.00 atm
Total Mass          ... 88.13 AMU

Throughout the following assumptions are being made:
  (1) The electronic state is orbitally nondegenerate
  (2) There are no thermally accessible electronically excited states
  (3) Hindered rotations indicated by low frequency modes) are not
      treated as such but are treated as vibrations and this may
      case some error
  (4) All equations used are the standard statistical mechanics
      equations for an ideal gas
  (5) All vibrations are strinctly harmonic

------------
INNER ENERGY
------------

The inner energy is: U= E(el) + E(ZPE) + E(vib) + E(rot) + E(trans)
    E(el)   - is the total energy from the electronic structure calculation
              = E(kin-el) + E(nuc-el) + E(el-el) + E(nuc-nuc)
    E(ZPE)  - the the zero temperature vibrational energy from the frequency calculation
    E(vib)  - the the finite temperature correction to E(ZPE) due to population
              of excietd vibrational states
    E(rot)  - is the rotational thermal energy
    E(trans)- is the translational thermal energy

Summary of contributions to the inner energy U:
Electronic energy                ...   -287.95908795 Eh
Zero point energy                ...      0.14987293 Eh      94.05 kcal/mol
Thermal vibrational correction   ...      0.00314151 Eh       1.97 kcal/mol
Thermal rotational correction    ...      0.00141627 Eh       0.89 kcal/mol
Thermal translational correction ...      0.00141627 Eh       0.89 kcal/mol
-----------------------------------------------------------------------
Total thermal energy                   -287.80324096 Eh

Summary of corrections to the electronic energy:
(perhaps to be used in another calculation)
Total thermal correction                  0.00597406 Eh       3.75 kcal/mol
Non-thermal (ZPE) correction              0.14987293 Eh      94.05 kcal/mol
-----------------------------------------------------------------------
Total correction                          0.15584699 Eh      97.80 kcal/mol

--------
ENTHALPY
--------

The enthalpy is H = U + kB*T
                kB is Boltzmann's constant
Total free energy                 ...   -287.80324096 Eh
Thermal Enthalpy correction       ...      0.00094421 Eh       0.59 kcal/mol
-----------------------------------------------------------------------
Total Enthalpy                    ...   -287.80229675 Eh

-------
ENTROPY
-------

The entropy contributions are T*S = T*(S(el)+S(vib)+S(rot)+S(trans)
     S(el)   - electronic entropy
     S(vib)  - vibrational entropy
     S(rot)  - rotational entropy
     S(trans)- translational entropy
The entropies will be listed as mutliplied by the temperature to get
units of energy

Electronic entropy                ...      0.00000000 Eh      0.00 kcal/mol
Vibrational entropy               ...      0.00521473 Eh      3.27 kcal/mol
Rotational entropy                ...      0.01138470 Eh      7.14 kcal/mol
Translational entropy             ...      0.01869229 Eh     11.73 kcal/mol
-----------------------------------------------------------------------
Final entropy term                ...      0.03529172 Eh     22.15 kcal/mol

CAUTION: The rotational entropy is not quite correctly treated here
         because it includes a symmetry number that is not yet correctly
         implemented in ORCA!
For a nonlinear molecule the correct rotational entropy is:
    S(rot) = R*(ln(qrot/sn)+1.5)
    R    = 8.31441 J/mol/K = 1.987191683e-3 kcal/mol/K
    qrot = 115424.1173284
    sn is the rotational symmetry number. We have assumed 3 here
       if it is different for your molecule then you should correct
       the printed rotational entropy by manually evaluating the equation
       as given above

For convenience we print out the resulting values for sn=1 - 12:
 sn= 1  qrot/sn=  115424.1173 T*S(rot)=     7.79 kcal/mol T*S(tot)=    22.80 kcal/mol
 sn= 2  qrot/sn=   57712.0587 T*S(rot)=     7.38 kcal/mol T*S(tot)=    22.39 kcal/mol
 sn= 3  qrot/sn=   38474.7058 T*S(rot)=     7.14 kcal/mol T*S(tot)=    22.15 kcal/mol
 sn= 4  qrot/sn=   28856.0293 T*S(rot)=     6.97 kcal/mol T*S(tot)=    21.98 kcal/mol
 sn= 5  qrot/sn=   23084.8235 T*S(rot)=     6.84 kcal/mol T*S(tot)=    21.84 kcal/mol
 sn= 6  qrot/sn=   19237.3529 T*S(rot)=     6.73 kcal/mol T*S(tot)=    21.74 kcal/mol
 sn= 7  qrot/sn=   16489.1596 T*S(rot)=     6.64 kcal/mol T*S(tot)=    21.64 kcal/mol
 sn= 8  qrot/sn=   14428.0147 T*S(rot)=     6.56 kcal/mol T*S(tot)=    21.56 kcal/mol
 sn= 9  qrot/sn=   12824.9019 T*S(rot)=     6.49 kcal/mol T*S(tot)=    21.49 kcal/mol
 sn=10  qrot/sn=   11542.4117 T*S(rot)=     6.43 kcal/mol T*S(tot)=    21.43 kcal/mol
 sn=11  qrot/sn=   10493.1016 T*S(rot)=     6.37 kcal/mol T*S(tot)=    21.38 kcal/mol
 sn=12  qrot/sn=    9618.6764 T*S(rot)=     6.32 kcal/mol T*S(tot)=    21.32 kcal/mol

-------------------
GIBBS FREE ENTHALPY
-------------------

The Gibbs free enthalpy is G = H - T*S

Total enthalpy                    ...   -287.80229675 Eh
Total entropy correction          ...     -0.03529172 Eh    -22.15 kcal/mol
-----------------------------------------------------------------------
Final Gibbs free enthalpy         ...   -287.83758847 Eh

For completeness - the Gibbs free enthalpy minus the electronic energy
G-E(el)                           ...      0.12149947 Eh     76.24 kcal/mol

                             ****ORCA TERMINATED NORMALLY****
TOTAL RUN TIME: 0 days 0 hours 23 minutes 58 seconds 381 msec
