                         Program Version 3.0.3 - RELEASE   -
|  1> ! NORI PBE0 def2-TZVP UseSym TightOPT Freq TightSCF Grid3 FinalGrid5 XYZFile
|  2> % pal
|  3>     nprocs 8
|  4> end
|  5> %method
|  6>     SymThresh 5.0e-2
|  7> end
|  8> % geom
|  9>     MaxIter 10
| 10> end
| 11> % maxcore 2000
| 12> % output
| 13>     printlevel mini
| 14>     print[ P_Basis ] 0
| 15>     print[ P_SCFInfo ] 1
| 16>     print[ P_SCFIterInfo ] 1
| 17>     print[ P_OrbEn ] 0
| 18>     print[ P_Cartesian ] 0
| 19> end
| 20> % elprop
| 21>     Dipole false
| 22> end
| 23> *xyz 1 1
| 24>  O        1.2304923391    -0.1420202164     0.6887954248
| 25>  C        2.3402006772    -0.0664171134     0.2763720831
| 26>  C        3.1711893390     1.1866145136     0.0538886730
| 27>  C        4.3453325634     0.7341519593    -0.7855002205
| 28>  N        4.5402655601    -0.7184341580    -0.3815452998
| 29>  C        3.1794522589    -1.2837558396    -0.1346024907
| 30>  H        2.5735496406     1.9614766058    -0.4256604777
| 31>  H        3.4824615968     1.5720981092     1.0305853203
| 32>  H        4.1141383773     0.7301074718    -1.8513058028
| 33>  H        5.2780632384     1.2712383651    -0.6232064468
| 34>  H        5.0965077596    -0.7627502625     0.4739464860
| 35>  H        5.0558689429    -1.2380063377    -1.0923397560
| 36>  H        3.2049587571    -2.0567591091     0.6320445537
| 37>  H        2.7926589495    -1.7051539880    -1.0643620467
| 38> *
| 39>
| 40>                          ****END OF INPUT****
 Total Charge           Charge          ....    1
 Multiplicity           Mult            ....    1
 Number of Electrons    NEL             ....   46
FINAL SINGLE POINT ENERGY      -286.735121810807

CARTESIAN COORDINATES (ANGSTROEM)
---------------------------------
  O      0.000079    0.000167    2.063267
  C     -0.027625    0.020925    0.877511
  C     -1.184060    0.422493   -0.023278
  C     -0.790967   -0.057379   -1.403076
  N      0.728067   -0.000044   -1.386807
  C      1.159397   -0.381419   -0.008028
  H     -2.116511   -0.013968    0.333981
  H     -1.294807    1.511271    0.022118
  H     -1.058991   -1.101223   -1.569311
  H     -1.155373    0.542879   -2.234414
  H      1.035816    0.950748   -1.597602
  H      1.132379   -0.603309   -2.103354
  H      2.083544    0.121962    0.271155
  H      1.305770   -1.462309    0.035208

FINAL SINGLE POINT ENERGY      -286.735122090335
                    ***********************HURRAY********************
 Multiplicity           Mult            ....    1
 Number of Electrons    NEL             ....   46
 Basis Dimension        Dim             ....  234
FINAL SINGLE POINT ENERGY      -286.735122140840

VIBRATIONAL FREQUENCIES
-----------------------

   0:         0.00 cm**-1
   1:         0.00 cm**-1
   2:         0.00 cm**-1
   3:         0.00 cm**-1
   4:         0.00 cm**-1
   5:         0.00 cm**-1
   6:       103.50 cm**-1
   7:       210.79 cm**-1
   8:       450.46 cm**-1
   9:       466.11 cm**-1
  10:       584.44 cm**-1
  11:       604.02 cm**-1
  12:       729.32 cm**-1
  13:       812.00 cm**-1
  14:       859.22 cm**-1
  15:       869.78 cm**-1
  16:       951.16 cm**-1
  17:       976.24 cm**-1
  18:      1016.28 cm**-1
  19:      1046.20 cm**-1
  20:      1155.74 cm**-1
  21:      1174.09 cm**-1
  22:      1211.49 cm**-1
  23:      1258.23 cm**-1
  24:      1280.98 cm**-1
  25:      1324.87 cm**-1
  26:      1350.19 cm**-1
  27:      1391.10 cm**-1
  28:      1402.95 cm**-1
  29:      1444.33 cm**-1
  30:      1459.22 cm**-1
  31:      1503.57 cm**-1
  32:      1658.59 cm**-1
  33:      1909.92 cm**-1
  34:      3072.39 cm**-1
  35:      3105.99 cm**-1
  36:      3112.11 cm**-1
  37:      3152.61 cm**-1
  38:      3178.39 cm**-1
  39:      3179.26 cm**-1
  40:      3456.03 cm**-1
  41:      3511.78 cm**-1

IR SPECTRUM
-----------

 Mode    freq (cm**-1)   T**2         TX         TY         TZ
-------------------------------------------------------------------
   6:       103.50    2.167372  ( -0.585692  -1.279838   0.431685)
   7:       210.79    2.722728  (  0.357337  -1.525134  -0.518657)
   8:       450.46    2.611752  ( -1.596478   0.232383   0.094919)
   9:       466.11    4.654728  ( -2.003368   0.775439   0.199845)
  10:       584.44    9.043362  ( -0.251029   0.119422  -2.994342)
  11:       604.02    3.377068  (  0.488247   1.588987   0.783455)
  12:       729.32    2.085204  ( -0.215315  -0.261345  -1.403760)
  13:       812.00    3.201460  (  1.216436  -0.232994  -1.291301)
  14:       859.22   21.051466  ( -2.397317   3.911791   0.047194)
  15:       869.78    2.176115  (  0.878311   0.570142  -1.039049)
  16:       951.16    0.500207  ( -0.405445   0.407358   0.412166)
  17:       976.24    3.828514  (  0.937168  -0.836557  -1.500134)
  18:      1016.28    9.078443  (  2.989438  -0.093249  -0.364703)
  19:      1046.20    4.881593  (  2.027047  -0.866095  -0.150178)
  20:      1155.74   69.509636  (  8.015793  -2.233310   0.518675)
  21:      1174.09    0.340255  ( -0.142768   0.356414  -0.439137)
  22:      1211.49   12.696696  ( -3.431170   0.761895  -0.585905)
  23:      1258.23    8.120608  ( -2.395218  -0.399721  -1.491228)
  24:      1280.98   17.580981  ( -3.137967   2.009698  -1.922306)
  25:      1324.87    8.110689  (  1.858462   1.030318   1.896115)
  26:      1350.19    4.540691  ( -0.740936   0.136085   1.993285)
  27:      1391.10   30.330635  (  4.659470  -0.813041   2.821159)
  28:      1402.95    6.733075  (  1.236957   0.125055   2.277581)
  29:      1444.33   20.951820  ( -3.538231   2.681405   1.114814)
  30:      1459.22   17.438220  ( -3.775311   1.774243  -0.193157)
  31:      1503.57   10.699162  ( -1.033964  -1.765382  -2.552157)
  32:      1658.59   68.074250  ( -4.712444  -2.446075   6.315365)
  33:      1909.92  209.058532  ( -0.300615   0.144509 -14.455009)
  34:      3072.39    6.560137  ( -2.279449   0.969855  -0.650869)
  35:      3105.99    7.224167  (  2.307340  -1.313707  -0.417756)
  36:      3112.11    0.489133  ( -0.244327  -0.523426  -0.394288)
  37:      3152.61    6.893574  ( -2.374559  -0.992225   0.520129)
  38:      3178.39    4.836182  ( -1.369630  -1.699798  -0.266428)
  39:      3179.26    0.841876  (  0.311585   0.814978  -0.283904)
  40:      3456.03   75.704816  (  4.956401   3.014343  -6.484801)
  41:      3511.78   95.387600  ( -1.429568   8.720440   4.159070)

--------------------------
THERMOCHEMISTRY AT 298.15K
--------------------------

Temperature         ... 298.15 K
Pressure            ... 1.00 atm
Total Mass          ... 86.11 AMU

Throughout the following assumptions are being made:
  (1) The electronic state is orbitally nondegenerate
  (2) There are no thermally accessible electronically excited states
  (3) Hindered rotations indicated by low frequency modes) are not
      treated as such but are treated as vibrations and this may
      case some error
  (4) All equations used are the standard statistical mechanics
      equations for an ideal gas
  (5) All vibrations are strinctly harmonic

------------
INNER ENERGY
------------

The inner energy is: U= E(el) + E(ZPE) + E(vib) + E(rot) + E(trans)
    E(el)   - is the total energy from the electronic structure calculation
              = E(kin-el) + E(nuc-el) + E(el-el) + E(nuc-nuc)
    E(ZPE)  - the the zero temperature vibrational energy from the frequency calculation
    E(vib)  - the the finite temperature correction to E(ZPE) due to population
              of excietd vibrational states
    E(rot)  - is the rotational thermal energy
    E(trans)- is the translational thermal energy

Summary of contributions to the inner energy U:
Electronic energy                ...   -286.73512214 Eh
Zero point energy                ...      0.12523850 Eh      78.59 kcal/mol
Thermal vibrational correction   ...      0.00269702 Eh       1.69 kcal/mol
Thermal rotational correction    ...      0.00141627 Eh       0.89 kcal/mol
Thermal translational correction ...      0.00141627 Eh       0.89 kcal/mol
-----------------------------------------------------------------------
Total thermal energy                   -286.60435408 Eh

Summary of corrections to the electronic energy:
(perhaps to be used in another calculation)
Total thermal correction                  0.00552956 Eh       3.47 kcal/mol
Non-thermal (ZPE) correction              0.12523850 Eh      78.59 kcal/mol
-----------------------------------------------------------------------
Total correction                          0.13076806 Eh      82.06 kcal/mol

--------
ENTHALPY
--------

The enthalpy is H = U + kB*T
                kB is Boltzmann's constant
Total free energy                 ...   -286.60435408 Eh
Thermal Enthalpy correction       ...      0.00094421 Eh       0.59 kcal/mol
-----------------------------------------------------------------------
Total Enthalpy                    ...   -286.60340987 Eh

-------
ENTROPY
-------

The entropy contributions are T*S = T*(S(el)+S(vib)+S(rot)+S(trans)
     S(el)   - electronic entropy
     S(vib)  - vibrational entropy
     S(rot)  - rotational entropy
     S(trans)- translational entropy
The entropies will be listed as mutliplied by the temperature to get
units of energy

Electronic entropy                ...      0.00000000 Eh      0.00 kcal/mol
Vibrational entropy               ...      0.00446185 Eh      2.80 kcal/mol
Rotational entropy                ...      0.01141317 Eh      7.16 kcal/mol
Translational entropy             ...      0.01865951 Eh     11.71 kcal/mol
-----------------------------------------------------------------------
Final entropy term                ...      0.03453453 Eh     21.67 kcal/mol

CAUTION: The rotational entropy is not quite correctly treated here
         because it includes a symmetry number that is not yet correctly
         implemented in ORCA!
For a nonlinear molecule the correct rotational entropy is:
    S(rot) = R*(ln(qrot/sn)+1.5)
    R    = 8.31441 J/mol/K = 1.987191683e-3 kcal/mol/K
    qrot = 118957.3319175
    sn is the rotational symmetry number. We have assumed 3 here
       if it is different for your molecule then you should correct
       the printed rotational entropy by manually evaluating the equation
       as given above

For convenience we print out the resulting values for sn=1 - 12:
 sn= 1  qrot/sn=  118957.3319 T*S(rot)=     7.81 kcal/mol T*S(tot)=    22.32 kcal/mol
 sn= 2  qrot/sn=   59478.6660 T*S(rot)=     7.40 kcal/mol T*S(tot)=    21.91 kcal/mol
 sn= 3  qrot/sn=   39652.4440 T*S(rot)=     7.16 kcal/mol T*S(tot)=    21.67 kcal/mol
 sn= 4  qrot/sn=   29739.3330 T*S(rot)=     6.99 kcal/mol T*S(tot)=    21.50 kcal/mol
 sn= 5  qrot/sn=   23791.4664 T*S(rot)=     6.86 kcal/mol T*S(tot)=    21.37 kcal/mol
 sn= 6  qrot/sn=   19826.2220 T*S(rot)=     6.75 kcal/mol T*S(tot)=    21.26 kcal/mol
 sn= 7  qrot/sn=   16993.9046 T*S(rot)=     6.66 kcal/mol T*S(tot)=    21.17 kcal/mol
 sn= 8  qrot/sn=   14869.6665 T*S(rot)=     6.58 kcal/mol T*S(tot)=    21.09 kcal/mol
 sn= 9  qrot/sn=   13217.4813 T*S(rot)=     6.51 kcal/mol T*S(tot)=    21.02 kcal/mol
 sn=10  qrot/sn=   11895.7332 T*S(rot)=     6.45 kcal/mol T*S(tot)=    20.96 kcal/mol
 sn=11  qrot/sn=   10814.3029 T*S(rot)=     6.39 kcal/mol T*S(tot)=    20.90 kcal/mol
 sn=12  qrot/sn=    9913.1110 T*S(rot)=     6.34 kcal/mol T*S(tot)=    20.85 kcal/mol

-------------------
GIBBS FREE ENTHALPY
-------------------

The Gibbs free enthalpy is G = H - T*S

Total enthalpy                    ...   -286.60340987 Eh
Total entropy correction          ...     -0.03453453 Eh    -21.67 kcal/mol
-----------------------------------------------------------------------
Final Gibbs free enthalpy         ...   -286.63794440 Eh

For completeness - the Gibbs free enthalpy minus the electronic energy
G-E(el)                           ...      0.09717774 Eh     60.98 kcal/mol

                             ****ORCA TERMINATED NORMALLY****
TOTAL RUN TIME: 0 days 0 hours 21 minutes 11 seconds 548 msec
