                         Program Version 3.0.3 - RELEASE   -
|  1> ! NORI PBE0 def2-TZVP UseSym TightOPT Freq TightSCF Grid3 FinalGrid5 XYZFile
|  2> % pal
|  3>     nprocs 8
|  4> end
|  5> %method
|  6>     SymThresh 5.0e-2
|  7> end
|  8> % geom
|  9>     MaxIter 10
| 10> end
| 11> % maxcore 2000
| 12> % output
| 13>     printlevel mini
| 14>     print[ P_Basis ] 0
| 15>     print[ P_SCFInfo ] 1
| 16>     print[ P_SCFIterInfo ] 1
| 17>     print[ P_OrbEn ] 0
| 18>     print[ P_Cartesian ] 0
| 19> end
| 20> % elprop
| 21>     Dipole false
| 22> end
| 23> *xyz 1 1
| 24>  O        3.3356954245    -0.9630647306    -0.1792944032
| 25>  C        2.4700486071     0.1163653174     0.0659800958
| 26>  C        2.5486086580     0.9826563582    -1.1699745687
| 27>  C        2.3287153975     2.4885275888    -0.9661311943
| 28>  C        3.8534654430     2.6639194796    -0.9763724460
| 29>  N        4.0168214178     1.2439666220    -1.4806152468
| 30>  H        3.2657276349    -1.6225352316     0.5170412914
| 31>  H        1.4277782437    -0.1912621049     0.2036670706
| 32>  H        2.7751743510     0.6855140499     0.9554659963
| 33>  H        2.0580751764     0.5039443772    -2.0160537089
| 34>  H        1.8215628967     2.7709860195    -0.0458487717
| 35>  H        1.8351962952     2.9706830425    -1.8082411784
| 36>  H        4.2849707542     3.3943393633    -1.6562026960
| 37>  H        4.3140234706     2.7538681379     0.0045801349
| 38>  H        4.2364533269     1.1875485862    -2.4730250273
| 39>  H        4.6445429025     0.6133531247    -0.9750553477
| 40> *
| 41>
| 42>                          ****END OF INPUT****
 Total Charge           Charge          ....    1
 Multiplicity           Mult            ....    1
 Number of Electrons    NEL             ....   48
FINAL SINGLE POINT ENERGY      -287.929391392329

CARTESIAN COORDINATES (ANGSTROEM)
---------------------------------
  O      0.000003    0.000065    2.083492
  C     -0.934094    0.027076    1.033825
  C     -0.246220   -0.643622   -0.132944
  C     -0.654820   -0.167747   -1.534492
  C      0.599986    0.716335   -1.548148
  N      1.121915    0.000291   -0.318462
  H     -0.395657    0.314205    2.901745
  H     -1.849822   -0.530496    1.258948
  H     -1.219748    1.055931    0.773014
  H     -0.145304   -1.714844    0.034321
  H     -1.607664    0.353813   -1.596215
  H     -0.631303   -0.958081   -2.282688
  H      1.280447    0.634417   -2.392114
  H      0.428800    1.763902   -1.311055
  H      1.860484   -0.670452   -0.521250
  H      1.407071    0.558884    0.490224

FINAL SINGLE POINT ENERGY      -287.929391930493
                    ***********************HURRAY********************
 Multiplicity           Mult            ....    1
 Number of Electrons    NEL             ....   48
 Basis Dimension        Dim             ....  246
FINAL SINGLE POINT ENERGY      -287.929392370608

VIBRATIONAL FREQUENCIES
-----------------------

   0:         0.00 cm**-1
   1:         0.00 cm**-1
   2:         0.00 cm**-1
   3:         0.00 cm**-1
   4:         0.00 cm**-1
   5:         0.00 cm**-1
   6:        94.95 cm**-1
   7:       141.29 cm**-1
   8:       248.99 cm**-1
   9:       301.32 cm**-1
  10:       369.29 cm**-1
  11:       511.12 cm**-1
  12:       722.48 cm**-1
  13:       793.43 cm**-1
  14:       821.66 cm**-1
  15:       885.90 cm**-1
  16:       905.48 cm**-1
  17:       932.42 cm**-1
  18:       992.90 cm**-1
  19:      1010.13 cm**-1
  20:      1061.66 cm**-1
  21:      1082.49 cm**-1
  22:      1121.67 cm**-1
  23:      1180.63 cm**-1
  24:      1221.32 cm**-1
  25:      1228.47 cm**-1
  26:      1235.42 cm**-1
  27:      1285.96 cm**-1
  28:      1292.89 cm**-1
  29:      1315.29 cm**-1
  30:      1323.03 cm**-1
  31:      1345.38 cm**-1
  32:      1374.31 cm**-1
  33:      1459.52 cm**-1
  34:      1487.99 cm**-1
  35:      1501.71 cm**-1
  36:      1516.52 cm**-1
  37:      1651.65 cm**-1
  38:      3012.85 cm**-1
  39:      3078.30 cm**-1
  40:      3122.27 cm**-1
  41:      3130.67 cm**-1
  42:      3146.40 cm**-1
  43:      3177.73 cm**-1
  44:      3199.49 cm**-1
  45:      3432.78 cm**-1
  46:      3529.15 cm**-1
  47:      3863.35 cm**-1

IR SPECTRUM
-----------

 Mode    freq (cm**-1)   T**2         TX         TY         TZ
-------------------------------------------------------------------
   6:        94.95    5.429939  ( -0.664534  -1.950029   1.088908)
   7:       141.29    9.260885  (  0.805353   1.705898  -2.387928)
   8:       248.99   15.048458  ( -1.425025   0.159085   3.604505)
   9:       301.32  126.688275  (  2.499167  10.728430  -2.311544)
  10:       369.29   10.200706  ( -0.973924  -1.324532   2.738210)
  11:       511.12   10.821763  ( -2.154390  -0.781425  -2.360030)
  12:       722.48    3.852045  (  0.920768  -1.242204  -1.208785)
  13:       793.43    4.237871  (  0.787303   0.430897   1.852661)
  14:       821.66    6.032059  ( -0.921304   0.608631   2.193815)
  15:       885.90    0.929562  (  0.107143   0.599561   0.747402)
  16:       905.48    4.451828  (  0.108835  -1.393154  -1.580856)
  17:       932.42   12.884475  (  2.046603   0.738395   2.854937)
  18:       992.90    3.261126  (  1.123137   1.120447  -0.862721)
  19:      1010.13   10.375628  ( -2.976739  -0.066269  -1.228927)
  20:      1061.66   20.473252  ( -2.611280   0.844122  -3.597489)
  21:      1082.49   21.415699  ( -2.199915  -0.312154  -4.059388)
  22:      1121.67   43.904157  ( -4.245030  -0.189572  -5.084087)
  23:      1180.63    3.732157  ( -1.863700   0.394779   0.320827)
  24:      1221.32   24.090012  (  4.204363   1.995543  -1.559215)
  25:      1228.47   42.176739  ( -4.082272   1.837178  -4.704952)
  26:      1235.42   39.478039  (  2.758897   3.249997  -4.615630)
  27:      1285.96   26.643920  ( -0.382946  -2.374029   4.567413)
  28:      1292.89    8.177419  (  1.132583   0.628929  -2.549337)
  29:      1315.29    3.096620  (  0.396535   1.588915  -0.643995)
  30:      1323.03   43.573496  (  4.780169   3.835848  -2.451479)
  31:      1345.38    2.847039  ( -1.383122  -0.706582  -0.659360)
  32:      1374.31    4.694137  (  2.039994  -0.723016  -0.099033)
  33:      1459.52    3.506967  ( -1.446470  -0.891716   0.787105)
  34:      1487.99   12.425065  (  2.757285   1.981257   0.947136)
  35:      1501.71    9.908905  (  0.564457  -1.176735   2.864540)
  36:      1516.52    7.650478  ( -1.573210   2.146334   0.754146)
  37:      1651.65   53.878051  (  6.915692  -0.114456   2.457266)
  38:      3012.85   25.192952  ( -2.627130   3.117876  -2.927454)
  39:      3078.30    5.859976  ( -1.469350  -1.908699  -0.240532)
  40:      3122.27    0.783130  (  0.522741   0.217104   0.680248)
  41:      3130.67    1.069641  ( -0.548742  -0.816546   0.319022)
  42:      3146.40    1.298063  (  0.062723   1.027389  -0.488468)
  43:      3177.73    0.164508  (  0.263848  -0.299346  -0.072689)
  44:      3199.49    0.140962  ( -0.023996  -0.331862   0.173934)
  45:      3432.78   83.425140  (  4.696142   1.960219   7.584783)
  46:      3529.15   99.523878  (  5.937437  -6.590647  -4.564437)
  47:      3863.35  127.664408  ( -2.124471   2.720376  10.758745)

--------------------------
THERMOCHEMISTRY AT 298.15K
--------------------------

Temperature         ... 298.15 K
Pressure            ... 1.00 atm
Total Mass          ... 88.13 AMU

Throughout the following assumptions are being made:
  (1) The electronic state is orbitally nondegenerate
  (2) There are no thermally accessible electronically excited states
  (3) Hindered rotations indicated by low frequency modes) are not
      treated as such but are treated as vibrations and this may
      case some error
  (4) All equations used are the standard statistical mechanics
      equations for an ideal gas
  (5) All vibrations are strinctly harmonic

------------
INNER ENERGY
------------

The inner energy is: U= E(el) + E(ZPE) + E(vib) + E(rot) + E(trans)
    E(el)   - is the total energy from the electronic structure calculation
              = E(kin-el) + E(nuc-el) + E(el-el) + E(nuc-nuc)
    E(ZPE)  - the the zero temperature vibrational energy from the frequency calculation
    E(vib)  - the the finite temperature correction to E(ZPE) due to population
              of excietd vibrational states
    E(rot)  - is the rotational thermal energy
    E(trans)- is the translational thermal energy

Summary of contributions to the inner energy U:
Electronic energy                ...   -287.92939237 Eh
Zero point energy                ...      0.14833203 Eh      93.08 kcal/mol
Thermal vibrational correction   ...      0.00357979 Eh       2.25 kcal/mol
Thermal rotational correction    ...      0.00141627 Eh       0.89 kcal/mol
Thermal translational correction ...      0.00141627 Eh       0.89 kcal/mol
-----------------------------------------------------------------------
Total thermal energy                   -287.77464801 Eh

Summary of corrections to the electronic energy:
(perhaps to be used in another calculation)
Total thermal correction                  0.00641233 Eh       4.02 kcal/mol
Non-thermal (ZPE) correction              0.14833203 Eh      93.08 kcal/mol
-----------------------------------------------------------------------
Total correction                          0.15474436 Eh      97.10 kcal/mol

--------
ENTHALPY
--------

The enthalpy is H = U + kB*T
                kB is Boltzmann's constant
Total free energy                 ...   -287.77464801 Eh
Thermal Enthalpy correction       ...      0.00094421 Eh       0.59 kcal/mol
-----------------------------------------------------------------------
Total Enthalpy                    ...   -287.77370380 Eh

-------
ENTROPY
-------

The entropy contributions are T*S = T*(S(el)+S(vib)+S(rot)+S(trans)
     S(el)   - electronic entropy
     S(vib)  - vibrational entropy
     S(rot)  - rotational entropy
     S(trans)- translational entropy
The entropies will be listed as mutliplied by the temperature to get
units of energy

Electronic entropy                ...      0.00000000 Eh      0.00 kcal/mol
Vibrational entropy               ...      0.00619430 Eh      3.89 kcal/mol
Rotational entropy                ...      0.01151783 Eh      7.23 kcal/mol
Translational entropy             ...      0.01869229 Eh     11.73 kcal/mol
-----------------------------------------------------------------------
Final entropy term                ...      0.03640442 Eh     22.84 kcal/mol

CAUTION: The rotational entropy is not quite correctly treated here
         because it includes a symmetry number that is not yet correctly
         implemented in ORCA!
For a nonlinear molecule the correct rotational entropy is:
    S(rot) = R*(ln(qrot/sn)+1.5)
    R    = 8.31441 J/mol/K = 1.987191683e-3 kcal/mol/K
    qrot = 132901.9859773
    sn is the rotational symmetry number. We have assumed 3 here
       if it is different for your molecule then you should correct
       the printed rotational entropy by manually evaluating the equation
       as given above

For convenience we print out the resulting values for sn=1 - 12:
 sn= 1  qrot/sn=  132901.9860 T*S(rot)=     7.88 kcal/mol T*S(tot)=    23.49 kcal/mol
 sn= 2  qrot/sn=   66450.9930 T*S(rot)=     7.47 kcal/mol T*S(tot)=    23.08 kcal/mol
 sn= 3  qrot/sn=   44300.6620 T*S(rot)=     7.23 kcal/mol T*S(tot)=    22.84 kcal/mol
 sn= 4  qrot/sn=   33225.4965 T*S(rot)=     7.06 kcal/mol T*S(tot)=    22.67 kcal/mol
 sn= 5  qrot/sn=   26580.3972 T*S(rot)=     6.92 kcal/mol T*S(tot)=    22.54 kcal/mol
 sn= 6  qrot/sn=   22150.3310 T*S(rot)=     6.82 kcal/mol T*S(tot)=    22.43 kcal/mol
 sn= 7  qrot/sn=   18985.9980 T*S(rot)=     6.73 kcal/mol T*S(tot)=    22.34 kcal/mol
 sn= 8  qrot/sn=   16612.7482 T*S(rot)=     6.65 kcal/mol T*S(tot)=    22.26 kcal/mol
 sn= 9  qrot/sn=   14766.8873 T*S(rot)=     6.58 kcal/mol T*S(tot)=    22.19 kcal/mol
 sn=10  qrot/sn=   13290.1986 T*S(rot)=     6.51 kcal/mol T*S(tot)=    22.13 kcal/mol
 sn=11  qrot/sn=   12081.9987 T*S(rot)=     6.46 kcal/mol T*S(tot)=    22.07 kcal/mol
 sn=12  qrot/sn=   11075.1655 T*S(rot)=     6.41 kcal/mol T*S(tot)=    22.02 kcal/mol

-------------------
GIBBS FREE ENTHALPY
-------------------

The Gibbs free enthalpy is G = H - T*S

Total enthalpy                    ...   -287.77370380 Eh
Total entropy correction          ...     -0.03640442 Eh    -22.84 kcal/mol
-----------------------------------------------------------------------
Final Gibbs free enthalpy         ...   -287.81010822 Eh

For completeness - the Gibbs free enthalpy minus the electronic energy
G-E(el)                           ...      0.11928415 Eh     74.85 kcal/mol

                             ****ORCA TERMINATED NORMALLY****
TOTAL RUN TIME: 0 days 0 hours 22 minutes 25 seconds 553 msec
