                         Program Version 3.0.3 - RELEASE   -
|  1> ! NORI PBE0 def2-TZVP UseSym TightOPT Freq TightSCF Grid3 FinalGrid5 XYZFile
|  2> % pal
|  3>     nprocs 8
|  4> end
|  5> %method
|  6>     SymThresh 5.0e-2
|  7> end
|  8> % geom
|  9>     MaxIter 10
| 10> end
| 11> % maxcore 2000
| 12> % output
| 13>     printlevel mini
| 14>     print[ P_Basis ] 0
| 15>     print[ P_SCFInfo ] 1
| 16>     print[ P_SCFIterInfo ] 1
| 17>     print[ P_OrbEn ] 0
| 18>     print[ P_Cartesian ] 0
| 19> end
| 20> % elprop
| 21>     Dipole false
| 22> end
| 23> *xyz 1 1
| 24>  O        2.8608842845     0.5927163224     0.8858593722
| 25>  C        2.3471448717    -0.1701159402     0.1320228166
| 26>  C        2.9649453335    -0.4839528548    -1.2266197496
| 27>  C        4.4786203067    -0.2969684893    -1.3382980375
| 28>  C        4.6309524867    -1.8218588236    -1.3041431017
| 29>  N        3.1194623232    -1.9874312635    -1.4362495728
| 30>  H        1.3853565776    -0.6781514352     0.3550277574
| 31>  H        2.3377557449    -0.0463406503    -2.0069798104
| 32>  H        4.9134556754     0.2437030577    -0.4997729806
| 33>  H        4.7991310454     0.1577335467    -2.2733925837
| 34>  H        5.1576222615    -2.3079316743    -2.1216749612
| 35>  H        4.9535826841    -2.2341370282    -0.3502090894
| 36>  H        2.8255412835    -2.3022331051    -2.3600621322
| 37>  H        2.6706551211    -2.5888616624    -0.7431479270
| 38> *
| 39>
| 40>                          ****END OF INPUT****
 Total Charge           Charge          ....    1
 Multiplicity           Mult            ....    1
 Number of Electrons    NEL             ....   46
FINAL SINGLE POINT ENERGY      -286.694497040240
FINAL SINGLE POINT ENERGY      -286.694497412043
FINAL SINGLE POINT ENERGY      -286.694497438449

CARTESIAN COORDINATES (ANGSTROEM)
---------------------------------
  O      0.003774    0.007053    2.126306
  C      0.650291   -0.415248    1.222123
  C      0.027305   -0.695109   -0.141571
  C     -1.228543    0.106179   -0.487268
  C     -0.377481    0.957977   -1.436129
  N      0.798341    0.000670   -1.259717
  H      1.731182   -0.652328    1.316761
  H      0.003529   -1.775859   -0.301267
  H     -1.659467    0.629115    0.364125
  H     -1.998672   -0.476161   -0.988288
  H     -0.679281    1.030065   -2.478026
  H     -0.100089    1.938954   -1.055451
  H      0.963273   -0.592256   -2.072329
  H      1.689210    0.426513   -0.997458

FINAL SINGLE POINT ENERGY      -286.694498085112
                    ***********************HURRAY********************
 Multiplicity           Mult            ....    1
 Number of Electrons    NEL             ....   46
 Basis Dimension        Dim             ....  234
FINAL SINGLE POINT ENERGY      -286.694498233411

VIBRATIONAL FREQUENCIES
-----------------------

   0:         0.00 cm**-1
   1:         0.00 cm**-1
   2:         0.00 cm**-1
   3:         0.00 cm**-1
   4:         0.00 cm**-1
   5:         0.00 cm**-1
   6:        55.69 cm**-1
   7:        92.16 cm**-1
   8:       239.66 cm**-1
   9:       340.17 cm**-1
  10:       604.84 cm**-1
  11:       717.49 cm**-1
  12:       770.05 cm**-1
  13:       806.00 cm**-1
  14:       872.80 cm**-1
  15:       904.57 cm**-1
  16:       917.87 cm**-1
  17:       973.38 cm**-1
  18:      1007.33 cm**-1
  19:      1043.42 cm**-1
  20:      1108.62 cm**-1
  21:      1143.50 cm**-1
  22:      1224.42 cm**-1
  23:      1249.76 cm**-1
  24:      1288.49 cm**-1
  25:      1294.93 cm**-1
  26:      1308.88 cm**-1
  27:      1343.21 cm**-1
  28:      1360.68 cm**-1
  29:      1400.73 cm**-1
  30:      1485.72 cm**-1
  31:      1500.11 cm**-1
  32:      1644.72 cm**-1
  33:      1871.40 cm**-1
  34:      2930.37 cm**-1
  35:      3109.44 cm**-1
  36:      3127.00 cm**-1
  37:      3129.15 cm**-1
  38:      3183.61 cm**-1
  39:      3201.69 cm**-1
  40:      3447.01 cm**-1
  41:      3520.80 cm**-1

IR SPECTRUM
-----------

 Mode    freq (cm**-1)   T**2         TX         TY         TZ
-------------------------------------------------------------------
   6:        55.69    4.494727  (  0.335758   1.778099  -1.104698)
   7:        92.16    4.193944  ( -0.138751   1.180062  -1.667977)
   8:       239.66    6.493108  (  2.327801  -0.451621   0.933000)
   9:       340.17    4.144177  ( -0.081280  -1.023356  -1.757929)
  10:       604.84    2.914721  ( -0.884014   0.455193  -1.387818)
  11:       717.49    0.658405  ( -0.474273   0.263242  -0.603468)
  12:       770.05   26.880590  (  2.820409   1.052675   4.221108)
  13:       806.00    3.817477  (  0.221738   0.651049   1.828782)
  14:       872.80    2.145902  ( -0.149109   1.449237   0.152909)
  15:       904.57    5.102158  (  0.544895   1.000528   1.950434)
  16:       917.87   12.984476  (  3.289069  -0.821034   1.221641)
  17:       973.38    6.359349  (  1.594506   0.480867  -1.893585)
  18:      1007.33    7.948499  ( -0.789256   1.250427  -2.400418)
  19:      1043.42    3.269031  ( -0.887845   0.573227  -1.467029)
  20:      1108.62   11.647961  (  1.801585  -0.794624   2.787620)
  21:      1143.50    4.456903  ( -0.272472  -1.993896   0.637999)
  22:      1224.42    1.915086  (  0.754710   0.790587  -0.848806)
  23:      1249.76   34.194640  ( -1.435520   3.178106  -4.693992)
  24:      1288.49    0.265797  (  0.435568  -0.246346  -0.124063)
  25:      1294.93    6.960691  (  1.396160  -0.002660   2.238620)
  26:      1308.88   47.678920  (  0.129604  -6.166111   3.105027)
  27:      1343.21    6.012452  ( -1.216968   1.365484  -1.633063)
  28:      1360.68    4.593036  ( -1.444694   0.047547  -1.582288)
  29:      1400.73   10.222613  (  1.807753  -1.966144   1.757532)
  30:      1485.72   15.308515  (  3.084515   1.801817  -1.596165)
  31:      1500.11   11.379235  (  2.598169  -2.143685  -0.182656)
  32:      1644.72   54.258145  ( -6.421399   0.485787   3.576002)
  33:      1871.40  114.837716  (  3.578688  -2.576699  -9.766849)
  34:      2930.37   39.853156  (  6.136076  -1.468559   0.212272)
  35:      3109.44    4.448601  ( -1.062550  -0.736027  -1.666689)
  36:      3127.00    1.430879  (  0.106241  -0.196534  -1.175145)
  37:      3129.15    0.321010  (  0.354674   0.416442   0.147622)
  38:      3183.61    1.745350  (  0.091110  -0.255819  -1.292906)
  39:      3201.69    1.419097  (  0.169636   0.734324   0.922545)
  40:      3447.01   57.247978  ( -7.228206   0.053015   2.235667)
  41:      3520.80   97.856241  (  1.634258   6.002355   7.691370)

--------------------------
THERMOCHEMISTRY AT 298.15K
--------------------------

Temperature         ... 298.15 K
Pressure            ... 1.00 atm
Total Mass          ... 86.11 AMU

Throughout the following assumptions are being made:
  (1) The electronic state is orbitally nondegenerate
  (2) There are no thermally accessible electronically excited states
  (3) Hindered rotations indicated by low frequency modes) are not
      treated as such but are treated as vibrations and this may
      case some error
  (4) All equations used are the standard statistical mechanics
      equations for an ideal gas
  (5) All vibrations are strinctly harmonic

------------
INNER ENERGY
------------

The inner energy is: U= E(el) + E(ZPE) + E(vib) + E(rot) + E(trans)
    E(el)   - is the total energy from the electronic structure calculation
              = E(kin-el) + E(nuc-el) + E(el-el) + E(nuc-nuc)
    E(ZPE)  - the the zero temperature vibrational energy from the frequency calculation
    E(vib)  - the the finite temperature correction to E(ZPE) due to population
              of excietd vibrational states
    E(rot)  - is the rotational thermal energy
    E(trans)- is the translational thermal energy

Summary of contributions to the inner energy U:
Electronic energy                ...   -286.69449823 Eh
Zero point energy                ...      0.12352149 Eh      77.51 kcal/mol
Thermal vibrational correction   ...      0.00329215 Eh       2.07 kcal/mol
Thermal rotational correction    ...      0.00141627 Eh       0.89 kcal/mol
Thermal translational correction ...      0.00141627 Eh       0.89 kcal/mol
-----------------------------------------------------------------------
Total thermal energy                   -286.56485205 Eh

Summary of corrections to the electronic energy:
(perhaps to be used in another calculation)
Total thermal correction                  0.00612469 Eh       3.84 kcal/mol
Non-thermal (ZPE) correction              0.12352149 Eh      77.51 kcal/mol
-----------------------------------------------------------------------
Total correction                          0.12964618 Eh      81.35 kcal/mol

--------
ENTHALPY
--------

The enthalpy is H = U + kB*T
                kB is Boltzmann's constant
Total free energy                 ...   -286.56485205 Eh
Thermal Enthalpy correction       ...      0.00094421 Eh       0.59 kcal/mol
-----------------------------------------------------------------------
Total Enthalpy                    ...   -286.56390784 Eh

-------
ENTROPY
-------

The entropy contributions are T*S = T*(S(el)+S(vib)+S(rot)+S(trans)
     S(el)   - electronic entropy
     S(vib)  - vibrational entropy
     S(rot)  - rotational entropy
     S(trans)- translational entropy
The entropies will be listed as mutliplied by the temperature to get
units of energy

Electronic entropy                ...      0.00000000 Eh      0.00 kcal/mol
Vibrational entropy               ...      0.00639317 Eh      4.01 kcal/mol
Rotational entropy                ...      0.01146834 Eh      7.20 kcal/mol
Translational entropy             ...      0.01865951 Eh     11.71 kcal/mol
-----------------------------------------------------------------------
Final entropy term                ...      0.03652102 Eh     22.92 kcal/mol

CAUTION: The rotational entropy is not quite correctly treated here
         because it includes a symmetry number that is not yet correctly
         implemented in ORCA!
For a nonlinear molecule the correct rotational entropy is:
    S(rot) = R*(ln(qrot/sn)+1.5)
    R    = 8.31441 J/mol/K = 1.987191683e-3 kcal/mol/K
    qrot = 126115.4182409
    sn is the rotational symmetry number. We have assumed 3 here
       if it is different for your molecule then you should correct
       the printed rotational entropy by manually evaluating the equation
       as given above

For convenience we print out the resulting values for sn=1 - 12:
 sn= 1  qrot/sn=  126115.4182 T*S(rot)=     7.85 kcal/mol T*S(tot)=    23.57 kcal/mol
 sn= 2  qrot/sn=   63057.7091 T*S(rot)=     7.44 kcal/mol T*S(tot)=    23.16 kcal/mol
 sn= 3  qrot/sn=   42038.4727 T*S(rot)=     7.20 kcal/mol T*S(tot)=    22.92 kcal/mol
 sn= 4  qrot/sn=   31528.8546 T*S(rot)=     7.03 kcal/mol T*S(tot)=    22.75 kcal/mol
 sn= 5  qrot/sn=   25223.0836 T*S(rot)=     6.89 kcal/mol T*S(tot)=    22.61 kcal/mol
 sn= 6  qrot/sn=   21019.2364 T*S(rot)=     6.79 kcal/mol T*S(tot)=    22.51 kcal/mol
 sn= 7  qrot/sn=   18016.4883 T*S(rot)=     6.69 kcal/mol T*S(tot)=    22.42 kcal/mol
 sn= 8  qrot/sn=   15764.4273 T*S(rot)=     6.62 kcal/mol T*S(tot)=    22.34 kcal/mol
 sn= 9  qrot/sn=   14012.8242 T*S(rot)=     6.55 kcal/mol T*S(tot)=    22.27 kcal/mol
 sn=10  qrot/sn=   12611.5418 T*S(rot)=     6.48 kcal/mol T*S(tot)=    22.20 kcal/mol
 sn=11  qrot/sn=   11465.0380 T*S(rot)=     6.43 kcal/mol T*S(tot)=    22.15 kcal/mol
 sn=12  qrot/sn=   10509.6182 T*S(rot)=     6.38 kcal/mol T*S(tot)=    22.10 kcal/mol

-------------------
GIBBS FREE ENTHALPY
-------------------

The Gibbs free enthalpy is G = H - T*S

Total enthalpy                    ...   -286.56390784 Eh
Total entropy correction          ...     -0.03652102 Eh    -22.92 kcal/mol
-----------------------------------------------------------------------
Final Gibbs free enthalpy         ...   -286.60042886 Eh

For completeness - the Gibbs free enthalpy minus the electronic energy
G-E(el)                           ...      0.09406937 Eh     59.03 kcal/mol

                             ****ORCA TERMINATED NORMALLY****
TOTAL RUN TIME: 0 days 0 hours 22 minutes 20 seconds 141 msec
