                         Program Version 3.0.3 - RELEASE   -
|  1> ! NORI PBE0 def2-TZVP UseSym TightOPT Freq TightSCF Grid3 FinalGrid5 XYZFile
|  2> % pal
|  3>     nprocs 8
|  4> end
|  5> %method
|  6>     SymThresh 5.0e-2
|  7> end
|  8> % geom
|  9>     MaxIter 10
| 10> end
| 11> % maxcore 2000
| 12> % output
| 13>     printlevel mini
| 14>     print[ P_Basis ] 0
| 15>     print[ P_SCFInfo ] 1
| 16>     print[ P_SCFIterInfo ] 1
| 17>     print[ P_OrbEn ] 0
| 18>     print[ P_Cartesian ] 0
| 19> end
| 20> % elprop
| 21>     Dipole false
| 22> end
| 23> *xyz 1 1
| 24>  O        2.2270061051    -1.0550030952     0.7524880025
| 25>  C        2.3342237101     0.0731411826    -0.0718048764
| 26>  C        2.9173016786     1.1522446642     0.8067729178
| 27>  C        2.8139778067     2.6105878991     0.3398677206
| 28>  N        2.2984646963     3.0095731658     1.7111617488
| 29>  C        2.0753523042     1.5376732256     2.0312414292
| 30>  H        1.9349818746    -1.8142340939     0.2405530393
| 31>  H        1.3524249379     0.3963827055    -0.4515723962
| 32>  H        2.9881390628    -0.0991410648    -0.9358337488
| 33>  H        3.9354872564     0.8852394126     1.0950915432
| 34>  H        2.0303783904     2.7885727568    -0.3961435814
| 35>  H        3.7192461839     3.1457599218     0.0635217188
| 36>  H        1.4781022711     3.6134513925     1.7341966710
| 37>  H        3.0190078972     3.4335879025     2.2937529526
| 38>  H        2.4271761113     1.2684238712     3.0233364423
| 39>  H        1.0161697135     1.3057401536     1.9282304168
| 40> *
| 41>
| 42>                          ****END OF INPUT****
 Total Charge           Charge          ....    1
 Multiplicity           Mult            ....    1
 Number of Electrons    NEL             ....   48
FINAL SINGLE POINT ENERGY      -287.921334280492
FINAL SINGLE POINT ENERGY      -287.921335333262
FINAL SINGLE POINT ENERGY      -287.921336744802
FINAL SINGLE POINT ENERGY      -287.921337517961
FINAL SINGLE POINT ENERGY      -287.921338358997

CARTESIAN COORDINATES (ANGSTROEM)
---------------------------------
  O      0.002018   -0.001995    2.260546
  C     -0.834448    0.365485    1.197531
  C     -0.314298   -0.395352    0.003397
  C     -0.747403    0.052754   -1.399217
  N      0.698309   -0.007120   -1.859014
  C      1.134068   -0.087481   -0.402817
  H     -0.323224    0.371876    3.084117
  H     -0.787632    1.447414    0.997885
  H     -1.884291    0.102818    1.379005
  H     -0.461617   -1.466399    0.154433
  H     -1.088926    1.086185   -1.449729
  H     -1.399326   -0.588867   -1.987201
  H      1.041949    0.785291   -2.399503
  H      0.908787   -0.858386   -2.377964
  H      1.905451   -0.834524   -0.236105
  H      1.480030    0.893618   -0.080406

FINAL SINGLE POINT ENERGY      -287.921338724448
                    ***********************HURRAY********************
 Multiplicity           Mult            ....    1
 Number of Electrons    NEL             ....   48
 Basis Dimension        Dim             ....  246
FINAL SINGLE POINT ENERGY      -287.921338888494

VIBRATIONAL FREQUENCIES
-----------------------

   0:         0.00 cm**-1
   1:         0.00 cm**-1
   2:         0.00 cm**-1
   3:         0.00 cm**-1
   4:         0.00 cm**-1
   5:         0.00 cm**-1
   6:        88.19 cm**-1
   7:       109.46 cm**-1
   8:       214.60 cm**-1
   9:       287.11 cm**-1
  10:       386.82 cm**-1
  11:       457.39 cm**-1
  12:       676.52 cm**-1
  13:       806.56 cm**-1
  14:       831.62 cm**-1
  15:       882.63 cm**-1
  16:       900.59 cm**-1
  17:       937.53 cm**-1
  18:       962.13 cm**-1
  19:      1017.65 cm**-1
  20:      1080.16 cm**-1
  21:      1120.39 cm**-1
  22:      1135.13 cm**-1
  23:      1176.04 cm**-1
  24:      1233.70 cm**-1
  25:      1257.07 cm**-1
  26:      1271.56 cm**-1
  27:      1291.63 cm**-1
  28:      1300.54 cm**-1
  29:      1318.98 cm**-1
  30:      1324.57 cm**-1
  31:      1336.84 cm**-1
  32:      1393.94 cm**-1
  33:      1467.04 cm**-1
  34:      1480.78 cm**-1
  35:      1497.46 cm**-1
  36:      1520.10 cm**-1
  37:      1649.03 cm**-1
  38:      2986.34 cm**-1
  39:      3049.09 cm**-1
  40:      3109.61 cm**-1
  41:      3117.74 cm**-1
  42:      3125.97 cm**-1
  43:      3191.37 cm**-1
  44:      3201.24 cm**-1
  45:      3472.31 cm**-1
  46:      3539.27 cm**-1
  47:      3866.87 cm**-1

IR SPECTRUM
-----------

 Mode    freq (cm**-1)   T**2         TX         TY         TZ
-------------------------------------------------------------------
   6:        88.19    2.424938  ( -0.126959   0.326027   1.517408)
   7:       109.46   10.330679  ( -0.568303  -2.667634   1.700423)
   8:       214.60   12.550357  (  2.055681   2.319160   1.716400)
   9:       287.11  120.740396  ( -5.942154  -8.995297   2.125048)
  10:       386.82    6.731514  ( -1.468202  -1.162837   1.795469)
  11:       457.39   10.692633  (  0.666026  -0.667486   3.131055)
  12:       676.52    9.034491  (  1.246638   1.889611   1.977309)
  13:       806.56    4.750759  (  1.261583  -1.545320   0.878155)
  14:       831.62    0.976904  (  0.440349   0.791779  -0.395072)
  15:       882.63    7.597209  ( -0.949741  -2.060269   1.565405)
  16:       900.59    2.021677  ( -1.020860  -0.217154  -0.965591)
  17:       937.53    1.812020  ( -0.471543  -0.525482   1.146096)
  18:       962.13   11.512398  ( -0.951621   0.083164   3.255749)
  19:      1017.65    7.041149  (  1.665852  -0.579929   1.982365)
  20:      1080.16   28.267530  ( -2.812238   1.204824  -4.348246)
  21:      1120.39    0.564998  ( -0.248970  -0.432990  -0.561722)
  22:      1135.13   58.981359  (  3.689806  -1.963361   6.442973)
  23:      1176.04    4.798671  ( -1.823963  -0.450755  -1.126344)
  24:      1233.70    9.091113  (  1.019502  -1.706591   2.266997)
  25:      1257.07   58.008359  (  6.214308  -0.834542   4.323688)
  26:      1271.56   23.268443  (  3.418989  -2.506443   2.301456)
  27:      1291.63    2.105633  (  0.332429   0.726922  -1.211078)
  28:      1300.54    1.614285  (  0.794356   0.613822   0.778784)
  29:      1318.98    1.630192  ( -1.155495  -0.268579  -0.472110)
  30:      1324.57   44.393687  (  5.242812  -1.457626   3.844728)
  31:      1336.84    9.408750  ( -2.848710  -0.775980  -0.831538)
  32:      1393.94    0.451981  (  0.460213  -0.435470   0.224835)
  33:      1467.04    7.167811  (  1.719514  -0.140381  -2.047285)
  34:      1480.78   15.315593  (  3.491506  -0.100737   1.764888)
  35:      1497.46    4.801324  (  0.348601   1.746920  -1.275959)
  36:      1520.10    4.539824  (  0.136669  -1.918189  -0.917441)
  37:      1649.03   58.288913  ( -3.576736   0.383956   6.734126)
  38:      2986.34   42.641374  (  2.350639  -5.287288   3.026624)
  39:      3049.09   20.091255  ( -4.089546  -1.816117   0.261894)
  40:      3109.61    1.674231  ( -0.368268  -1.194299  -0.335051)
  41:      3117.74    1.268499  (  0.572895  -0.773786   0.584419)
  42:      3125.97    0.925014  ( -0.301364  -0.846872   0.342056)
  43:      3191.37    0.118209  ( -0.281200   0.126265  -0.152294)
  44:      3201.24    0.205469  ( -0.168970  -0.411416  -0.087493)
  45:      3472.31   70.850536  ( -3.927199   0.179815   7.442803)
  46:      3539.27   89.183732  (  0.516540   9.421535   0.389357)
  47:      3866.87   99.339737  ( -1.288747   2.318589   9.607446)

--------------------------
THERMOCHEMISTRY AT 298.15K
--------------------------

Temperature         ... 298.15 K
Pressure            ... 1.00 atm
Total Mass          ... 88.13 AMU

Throughout the following assumptions are being made:
  (1) The electronic state is orbitally nondegenerate
  (2) There are no thermally accessible electronically excited states
  (3) Hindered rotations indicated by low frequency modes) are not
      treated as such but are treated as vibrations and this may
      case some error
  (4) All equations used are the standard statistical mechanics
      equations for an ideal gas
  (5) All vibrations are strinctly harmonic

------------
INNER ENERGY
------------

The inner energy is: U= E(el) + E(ZPE) + E(vib) + E(rot) + E(trans)
    E(el)   - is the total energy from the electronic structure calculation
              = E(kin-el) + E(nuc-el) + E(el-el) + E(nuc-nuc)
    E(ZPE)  - the the zero temperature vibrational energy from the frequency calculation
    E(vib)  - the the finite temperature correction to E(ZPE) due to population
              of excietd vibrational states
    E(rot)  - is the rotational thermal energy
    E(trans)- is the translational thermal energy

Summary of contributions to the inner energy U:
Electronic energy                ...   -287.92133889 Eh
Zero point energy                ...      0.14824856 Eh      93.03 kcal/mol
Thermal vibrational correction   ...      0.00374740 Eh       2.35 kcal/mol
Thermal rotational correction    ...      0.00141627 Eh       0.89 kcal/mol
Thermal translational correction ...      0.00141627 Eh       0.89 kcal/mol
-----------------------------------------------------------------------
Total thermal energy                   -287.76651039 Eh

Summary of corrections to the electronic energy:
(perhaps to be used in another calculation)
Total thermal correction                  0.00657994 Eh       4.13 kcal/mol
Non-thermal (ZPE) correction              0.14824856 Eh      93.03 kcal/mol
-----------------------------------------------------------------------
Total correction                          0.15482850 Eh      97.16 kcal/mol

--------
ENTHALPY
--------

The enthalpy is H = U + kB*T
                kB is Boltzmann's constant
Total free energy                 ...   -287.76651039 Eh
Thermal Enthalpy correction       ...      0.00094421 Eh       0.59 kcal/mol
-----------------------------------------------------------------------
Total Enthalpy                    ...   -287.76556618 Eh

-------
ENTROPY
-------

The entropy contributions are T*S = T*(S(el)+S(vib)+S(rot)+S(trans)
     S(el)   - electronic entropy
     S(vib)  - vibrational entropy
     S(rot)  - rotational entropy
     S(trans)- translational entropy
The entropies will be listed as mutliplied by the temperature to get
units of energy

Electronic entropy                ...      0.00000000 Eh      0.00 kcal/mol
Vibrational entropy               ...      0.00670493 Eh      4.21 kcal/mol
Rotational entropy                ...      0.01158087 Eh      7.27 kcal/mol
Translational entropy             ...      0.01869229 Eh     11.73 kcal/mol
-----------------------------------------------------------------------
Final entropy term                ...      0.03697809 Eh     23.20 kcal/mol

CAUTION: The rotational entropy is not quite correctly treated here
         because it includes a symmetry number that is not yet correctly
         implemented in ORCA!
For a nonlinear molecule the correct rotational entropy is:
    S(rot) = R*(ln(qrot/sn)+1.5)
    R    = 8.31441 J/mol/K = 1.987191683e-3 kcal/mol/K
    qrot = 142078.2051385
    sn is the rotational symmetry number. We have assumed 3 here
       if it is different for your molecule then you should correct
       the printed rotational entropy by manually evaluating the equation
       as given above

For convenience we print out the resulting values for sn=1 - 12:
 sn= 1  qrot/sn=  142078.2051 T*S(rot)=     7.92 kcal/mol T*S(tot)=    23.85 kcal/mol
 sn= 2  qrot/sn=   71039.1026 T*S(rot)=     7.51 kcal/mol T*S(tot)=    23.44 kcal/mol
 sn= 3  qrot/sn=   47359.4017 T*S(rot)=     7.27 kcal/mol T*S(tot)=    23.20 kcal/mol
 sn= 4  qrot/sn=   35519.5513 T*S(rot)=     7.10 kcal/mol T*S(tot)=    23.03 kcal/mol
 sn= 5  qrot/sn=   28415.6410 T*S(rot)=     6.96 kcal/mol T*S(tot)=    22.90 kcal/mol
 sn= 6  qrot/sn=   23679.7009 T*S(rot)=     6.86 kcal/mol T*S(tot)=    22.79 kcal/mol
 sn= 7  qrot/sn=   20296.8864 T*S(rot)=     6.77 kcal/mol T*S(tot)=    22.70 kcal/mol
 sn= 8  qrot/sn=   17759.7756 T*S(rot)=     6.69 kcal/mol T*S(tot)=    22.62 kcal/mol
 sn= 9  qrot/sn=   15786.4672 T*S(rot)=     6.62 kcal/mol T*S(tot)=    22.55 kcal/mol
 sn=10  qrot/sn=   14207.8205 T*S(rot)=     6.55 kcal/mol T*S(tot)=    22.49 kcal/mol
 sn=11  qrot/sn=   12916.2005 T*S(rot)=     6.50 kcal/mol T*S(tot)=    22.43 kcal/mol
 sn=12  qrot/sn=   11839.8504 T*S(rot)=     6.45 kcal/mol T*S(tot)=    22.38 kcal/mol

-------------------
GIBBS FREE ENTHALPY
-------------------

The Gibbs free enthalpy is G = H - T*S

Total enthalpy                    ...   -287.76556618 Eh
Total entropy correction          ...     -0.03697809 Eh    -23.20 kcal/mol
-----------------------------------------------------------------------
Final Gibbs free enthalpy         ...   -287.80254427 Eh

For completeness - the Gibbs free enthalpy minus the electronic energy
G-E(el)                           ...      0.11879462 Eh     74.54 kcal/mol

                             ****ORCA TERMINATED NORMALLY****
TOTAL RUN TIME: 0 days 0 hours 25 minutes 33 seconds 335 msec
