                         Program Version 3.0.3 - RELEASE   -
|  1> ! NORI PBE0 def2-TZVP UseSym TightOPT Freq TightSCF Grid3 FinalGrid5 XYZFile
|  2> % pal
|  3>     nprocs 8
|  4> end
|  5> %method
|  6>     SymThresh 5.0e-2
|  7> end
|  8> % geom
|  9>     MaxIter 10
| 10> end
| 11> % maxcore 2000
| 12> % output
| 13>     printlevel mini
| 14>     print[ P_Basis ] 0
| 15>     print[ P_SCFInfo ] 1
| 16>     print[ P_SCFIterInfo ] 1
| 17>     print[ P_OrbEn ] 0
| 18>     print[ P_Cartesian ] 0
| 19> end
| 20> % elprop
| 21>     Dipole false
| 22> end
| 23> *xyz 1 1
| 24>  O        1.6475782496    -0.8380473938    -0.6241063631
| 25>  C        2.1525113390     0.0185531839     0.0290030995
| 26>  C        2.9672900222     1.1441571413    -0.5771927690
| 27>  C        2.6062758628     2.5681819650    -0.1210486772
| 28>  N        4.0742946775     2.8686409071     0.1159179510
| 29>  C        4.3590691617     1.3808503667     0.0341402709
| 30>  H        2.0588423192     0.0495331506     1.1383616202
| 31>  H        2.9870181710     1.0303886296    -1.6610884403
| 32>  H        2.0817289043     2.6066266265     0.8341896334
| 33>  H        2.1425329524     3.2441869051    -0.8354315017
| 34>  H        4.3154789648     3.3383106546     0.9887784062
| 35>  H        4.4962615945     3.3907944703    -0.6518340059
| 36>  H        5.2375904730     1.1474445206    -0.5623471702
| 37>  H        4.4718073079     0.9888588725     1.0455279463
| 38> *
| 39>
| 40>                          ****END OF INPUT****
 Total Charge           Charge          ....    1
 Multiplicity           Mult            ....    1
 Number of Electrons    NEL             ....   46
FINAL SINGLE POINT ENERGY      -286.694468599528

CARTESIAN COORDINATES (ANGSTROEM)
---------------------------------
  O     -0.000313    0.000151    2.481993
  C     -0.465520    0.046211    1.388061
  C      0.375539   -0.049139    0.130295
  C     -0.099333   -1.055536   -0.931741
  N      0.061806   -0.000022   -2.009604
  C      0.152952    1.052313   -0.920479
  H     -1.558712    0.167869    1.214962
  H      1.422216   -0.175235    0.406284
  H     -1.154984   -1.317246   -0.852200
  H      0.498768   -1.944927   -1.113441
  H     -0.699578    0.094789   -2.681764
  H      0.932941   -0.101311   -2.529961
  H      0.945144    1.776619   -1.093180
  H     -0.810580    1.555952   -0.837576

FINAL SINGLE POINT ENERGY      -286.694468704026
                    ***********************HURRAY********************
 Multiplicity           Mult            ....    1
 Number of Electrons    NEL             ....   46
 Basis Dimension        Dim             ....  234
FINAL SINGLE POINT ENERGY      -286.694469096331

VIBRATIONAL FREQUENCIES
-----------------------

   0:         0.00 cm**-1
   1:         0.00 cm**-1
   2:         0.00 cm**-1
   3:         0.00 cm**-1
   4:         0.00 cm**-1
   5:         0.00 cm**-1
   6:        53.50 cm**-1
   7:       108.65 cm**-1
   8:       301.79 cm**-1
   9:       309.74 cm**-1
  10:       457.39 cm**-1
  11:       700.88 cm**-1
  12:       810.50 cm**-1
  13:       839.24 cm**-1
  14:       883.96 cm**-1
  15:       907.39 cm**-1
  16:       942.96 cm**-1
  17:       957.86 cm**-1
  18:      1034.68 cm**-1
  19:      1087.00 cm**-1
  20:      1100.57 cm**-1
  21:      1166.84 cm**-1
  22:      1259.00 cm**-1
  23:      1285.45 cm**-1
  24:      1288.90 cm**-1
  25:      1307.00 cm**-1
  26:      1323.18 cm**-1
  27:      1329.60 cm**-1
  28:      1367.49 cm**-1
  29:      1410.61 cm**-1
  30:      1477.95 cm**-1
  31:      1495.83 cm**-1
  32:      1649.94 cm**-1
  33:      1872.39 cm**-1
  34:      2896.40 cm**-1
  35:      3111.73 cm**-1
  36:      3114.81 cm**-1
  37:      3139.14 cm**-1
  38:      3193.69 cm**-1
  39:      3195.43 cm**-1
  40:      3461.84 cm**-1
  41:      3528.41 cm**-1

IR SPECTRUM
-----------

 Mode    freq (cm**-1)   T**2         TX         TY         TZ
-------------------------------------------------------------------
   6:        53.50    3.739131  (  0.221215   1.920817  -0.025627)
   7:       108.65    0.386360  ( -0.562306   0.067594  -0.256131)
   8:       301.79    1.001394  (  0.057123   0.999011   0.010392)
   9:       309.74    4.741560  (  2.164086  -0.235400   0.053652)
  10:       457.39    6.479464  ( -0.600638   0.062476   2.472811)
  11:       700.88   19.232376  (  3.913083  -0.453368  -1.927334)
  12:       810.50    4.577685  ( -0.250380  -2.124846  -0.004918)
  13:       839.24    3.440988  (  0.999175  -0.090150  -1.560292)
  14:       883.96    8.148247  ( -2.676272   0.319602  -0.940037)
  15:       907.39    1.943663  (  0.163520   1.384296   0.025463)
  16:       942.96    0.350191  ( -0.065515  -0.584474  -0.065489)
  17:       957.86   29.662666  ( -1.189094   0.105645   5.313902)
  18:      1034.68    1.066614  (  0.111622   1.026720  -0.001049)
  19:      1087.00   16.463625  (  0.663161  -0.064302  -4.002463)
  20:      1100.57    0.377582  (  0.046898   0.612270   0.022528)
  21:      1166.84   18.050563  (  3.003783  -0.340940  -2.985232)
  22:      1259.00   28.362235  (  0.641977   5.286763   0.015466)
  23:      1285.45    8.347651  ( -0.321017  -2.870783  -0.056615)
  24:      1288.90    1.764825  ( -1.227588   0.108248   0.496119)
  25:      1307.00    0.620572  (  0.477193  -0.109697   0.617111)
  26:      1323.18   18.284950  (  0.506272   4.245877   0.034159)
  27:      1329.60   29.982358  (  0.646494   5.437315   0.003542)
  28:      1367.49    1.518966  (  0.719654  -0.084881  -0.996925)
  29:      1410.61    7.203851  ( -1.013563   0.108311   2.482904)
  30:      1477.95   17.258532  (  0.483572   4.126037   0.022646)
  31:      1495.83    6.378931  (  2.251688  -0.269233   1.111911)
  32:      1649.94   62.812623  ( -0.638997   0.036971   7.899553)
  33:      1872.39  178.802673  ( -3.061122   0.334303 -13.012319)
  34:      2896.40   56.096343  (  7.309302  -0.810595   1.418937)
  35:      3111.73    0.106898  ( -0.154887  -0.166782  -0.234716)
  36:      3114.81    1.030978  (  0.529235  -0.111558   0.859327)
  37:      3139.14    0.120455  ( -0.269282   0.037197  -0.215775)
  38:      3193.69    0.739533  (  0.799697   0.103707  -0.298770)
  39:      3195.43    1.336495  ( -1.051761   0.263218   0.401261)
  40:      3461.84   72.507752  ( -0.112075  -0.031709   8.514352)
  41:      3528.41   96.540008  ( -9.740654   1.157235   0.566098)

--------------------------
THERMOCHEMISTRY AT 298.15K
--------------------------

Temperature         ... 298.15 K
Pressure            ... 1.00 atm
Total Mass          ... 86.11 AMU

Throughout the following assumptions are being made:
  (1) The electronic state is orbitally nondegenerate
  (2) There are no thermally accessible electronically excited states
  (3) Hindered rotations indicated by low frequency modes) are not
      treated as such but are treated as vibrations and this may
      case some error
  (4) All equations used are the standard statistical mechanics
      equations for an ideal gas
  (5) All vibrations are strinctly harmonic

------------
INNER ENERGY
------------

The inner energy is: U= E(el) + E(ZPE) + E(vib) + E(rot) + E(trans)
    E(el)   - is the total energy from the electronic structure calculation
              = E(kin-el) + E(nuc-el) + E(el-el) + E(nuc-nuc)
    E(ZPE)  - the the zero temperature vibrational energy from the frequency calculation
    E(vib)  - the the finite temperature correction to E(ZPE) due to population
              of excietd vibrational states
    E(rot)  - is the rotational thermal energy
    E(trans)- is the translational thermal energy

Summary of contributions to the inner energy U:
Electronic energy                ...   -286.69446910 Eh
Zero point energy                ...      0.12386798 Eh      77.73 kcal/mol
Thermal vibrational correction   ...      0.00328405 Eh       2.06 kcal/mol
Thermal rotational correction    ...      0.00141627 Eh       0.89 kcal/mol
Thermal translational correction ...      0.00141627 Eh       0.89 kcal/mol
-----------------------------------------------------------------------
Total thermal energy                   -286.56448453 Eh

Summary of corrections to the electronic energy:
(perhaps to be used in another calculation)
Total thermal correction                  0.00611659 Eh       3.84 kcal/mol
Non-thermal (ZPE) correction              0.12386798 Eh      77.73 kcal/mol
-----------------------------------------------------------------------
Total correction                          0.12998457 Eh      81.57 kcal/mol

--------
ENTHALPY
--------

The enthalpy is H = U + kB*T
                kB is Boltzmann's constant
Total free energy                 ...   -286.56448453 Eh
Thermal Enthalpy correction       ...      0.00094421 Eh       0.59 kcal/mol
-----------------------------------------------------------------------
Total Enthalpy                    ...   -286.56354032 Eh

-------
ENTROPY
-------

The entropy contributions are T*S = T*(S(el)+S(vib)+S(rot)+S(trans)
     S(el)   - electronic entropy
     S(vib)  - vibrational entropy
     S(rot)  - rotational entropy
     S(trans)- translational entropy
The entropies will be listed as mutliplied by the temperature to get
units of energy

Electronic entropy                ...      0.00000000 Eh      0.00 kcal/mol
Vibrational entropy               ...      0.00627614 Eh      3.94 kcal/mol
Rotational entropy                ...      0.01152146 Eh      7.23 kcal/mol
Translational entropy             ...      0.01865951 Eh     11.71 kcal/mol
-----------------------------------------------------------------------
Final entropy term                ...      0.03645711 Eh     22.88 kcal/mol

CAUTION: The rotational entropy is not quite correctly treated here
         because it includes a symmetry number that is not yet correctly
         implemented in ORCA!
For a nonlinear molecule the correct rotational entropy is:
    S(rot) = R*(ln(qrot/sn)+1.5)
    R    = 8.31441 J/mol/K = 1.987191683e-3 kcal/mol/K
    qrot = 133413.3776921
    sn is the rotational symmetry number. We have assumed 3 here
       if it is different for your molecule then you should correct
       the printed rotational entropy by manually evaluating the equation
       as given above

For convenience we print out the resulting values for sn=1 - 12:
 sn= 1  qrot/sn=  133413.3777 T*S(rot)=     7.88 kcal/mol T*S(tot)=    23.53 kcal/mol
 sn= 2  qrot/sn=   66706.6888 T*S(rot)=     7.47 kcal/mol T*S(tot)=    23.12 kcal/mol
 sn= 3  qrot/sn=   44471.1259 T*S(rot)=     7.23 kcal/mol T*S(tot)=    22.88 kcal/mol
 sn= 4  qrot/sn=   33353.3444 T*S(rot)=     7.06 kcal/mol T*S(tot)=    22.71 kcal/mol
 sn= 5  qrot/sn=   26682.6755 T*S(rot)=     6.93 kcal/mol T*S(tot)=    22.57 kcal/mol
 sn= 6  qrot/sn=   22235.5629 T*S(rot)=     6.82 kcal/mol T*S(tot)=    22.47 kcal/mol
 sn= 7  qrot/sn=   19059.0540 T*S(rot)=     6.73 kcal/mol T*S(tot)=    22.38 kcal/mol
 sn= 8  qrot/sn=   16676.6722 T*S(rot)=     6.65 kcal/mol T*S(tot)=    22.30 kcal/mol
 sn= 9  qrot/sn=   14823.7086 T*S(rot)=     6.58 kcal/mol T*S(tot)=    22.23 kcal/mol
 sn=10  qrot/sn=   13341.3378 T*S(rot)=     6.52 kcal/mol T*S(tot)=    22.16 kcal/mol
 sn=11  qrot/sn=   12128.4889 T*S(rot)=     6.46 kcal/mol T*S(tot)=    22.11 kcal/mol
 sn=12  qrot/sn=   11117.7815 T*S(rot)=     6.41 kcal/mol T*S(tot)=    22.06 kcal/mol

-------------------
GIBBS FREE ENTHALPY
-------------------

The Gibbs free enthalpy is G = H - T*S

Total enthalpy                    ...   -286.56354032 Eh
Total entropy correction          ...     -0.03645711 Eh    -22.88 kcal/mol
-----------------------------------------------------------------------
Final Gibbs free enthalpy         ...   -286.59999743 Eh

For completeness - the Gibbs free enthalpy minus the electronic energy
G-E(el)                           ...      0.09447167 Eh     59.28 kcal/mol

                             ****ORCA TERMINATED NORMALLY****
TOTAL RUN TIME: 0 days 0 hours 22 minutes 57 seconds 898 msec
