                         Program Version 3.0.3 - RELEASE   -
|  1> ! NORI PBE0 def2-TZVP UseSym TightOPT Freq TightSCF Grid3 FinalGrid5 XYZFile
|  2> % pal
|  3>     nprocs 8
|  4> end
|  5> %method
|  6>     SymThresh 5.0e-2
|  7> end
|  8> % geom
|  9>     MaxIter 10
| 10> end
| 11> % maxcore 2000
| 12> % output
| 13>     printlevel mini
| 14>     print[ P_Basis ] 0
| 15>     print[ P_SCFInfo ] 1
| 16>     print[ P_SCFIterInfo ] 1
| 17>     print[ P_OrbEn ] 0
| 18>     print[ P_Cartesian ] 0
| 19> end
| 20> % elprop
| 21>     Dipole false
| 22> end
| 23> *xyz 1 1
| 24>  O        2.8934592518     1.2740341753     0.0125449544
| 25>  C        2.2115958282     0.0917169758    -0.3247072430
| 26>  C        2.9701582836    -1.0535822577     0.3246751101
| 27>  C        4.4402469920    -0.9792257663     0.0560493345
| 28>  C        5.3050519580    -2.1644791124    -0.0053404339
| 29>  N        4.9254868747    -1.4861813874    -1.2700935815
| 30>  H        2.3555937043     2.0394742954    -0.2062012362
| 31>  H        2.1695201841    -0.0454833717    -1.4159135162
| 32>  H        1.1812609819     0.0863645478     0.0450827683
| 33>  H        2.5586084828    -2.0179834102     0.0093652029
| 34>  H        2.8556444592    -0.9953778306     1.4114283459
| 35>  H        4.9092016418    -0.0336268024     0.3036946647
| 36>  H        6.3561604703    -2.0833249701     0.2394702628
| 37>  H        4.8662926151    -3.1482813385     0.1056581159
| 38>  H        4.2578578289    -1.9515759687    -1.8751938225
| 39>  H        5.6326404434    -0.9551277782    -1.7657189262
| 40> *
| 41>
| 42>                          ****END OF INPUT****
 Total Charge           Charge          ....    1
 Multiplicity           Mult            ....    1
 Number of Electrons    NEL             ....   48
FINAL SINGLE POINT ENERGY      -287.917355872783

CARTESIAN COORDINATES (ANGSTROEM)
---------------------------------
  O     -0.000778   -0.000232    2.144471
  C     -0.501649    1.016355    1.312397
  C     -0.984848    0.343935    0.038294
  C      0.035035   -0.595639   -0.523756
  C      0.145943   -0.894531   -1.957349
  N      1.151046    0.000161   -1.330442
  H      0.138502    0.338639    3.032620
  H      0.275428    1.761065    1.082514
  H     -1.341125    1.550864    1.768911
  H     -1.286146    1.090834   -0.703233
  H     -1.868150   -0.262589    0.260247
  H      0.412708   -1.338400    0.169863
  H      0.546279   -1.845332   -2.284688
  H     -0.506628   -0.387697   -2.657594
  H      1.105463    0.989534   -1.548403
  H      2.092449   -0.350168   -1.193462

FINAL SINGLE POINT ENERGY      -287.917356214744
                    ***********************HURRAY********************
 Multiplicity           Mult            ....    1
 Number of Electrons    NEL             ....   48
 Basis Dimension        Dim             ....  246
FINAL SINGLE POINT ENERGY      -287.917356337068

VIBRATIONAL FREQUENCIES
-----------------------

   0:         0.00 cm**-1
   1:         0.00 cm**-1
   2:         0.00 cm**-1
   3:         0.00 cm**-1
   4:         0.00 cm**-1
   5:         0.00 cm**-1
   6:        64.71 cm**-1
   7:       144.85 cm**-1
   8:       201.38 cm**-1
   9:       293.10 cm**-1
  10:       338.04 cm**-1
  11:       391.99 cm**-1
  12:       541.04 cm**-1
  13:       734.15 cm**-1
  14:       829.43 cm**-1
  15:       848.94 cm**-1
  16:       870.02 cm**-1
  17:       915.06 cm**-1
  18:       942.75 cm**-1
  19:       986.59 cm**-1
  20:      1016.56 cm**-1
  21:      1074.42 cm**-1
  22:      1121.59 cm**-1
  23:      1155.11 cm**-1
  24:      1162.43 cm**-1
  25:      1191.41 cm**-1
  26:      1234.58 cm**-1
  27:      1247.32 cm**-1
  28:      1267.95 cm**-1
  29:      1285.32 cm**-1
  30:      1314.88 cm**-1
  31:      1350.87 cm**-1
  32:      1441.37 cm**-1
  33:      1453.16 cm**-1
  34:      1461.59 cm**-1
  35:      1498.81 cm**-1
  36:      1521.25 cm**-1
  37:      1633.71 cm**-1
  38:      2991.60 cm**-1
  39:      3061.83 cm**-1
  40:      3074.37 cm**-1
  41:      3113.43 cm**-1
  42:      3170.30 cm**-1
  43:      3209.48 cm**-1
  44:      3271.58 cm**-1
  45:      3516.99 cm**-1
  46:      3621.45 cm**-1
  47:      3872.26 cm**-1

IR SPECTRUM
-----------

 Mode    freq (cm**-1)   T**2         TX         TY         TZ
-------------------------------------------------------------------
   6:        64.71    6.691058  (  0.714643   0.671367  -2.393660)
   7:       144.85    6.763825  (  1.444223   0.863639  -1.982971)
   8:       201.38    6.831845  ( -1.102911  -1.642051  -1.708537)
   9:       293.10  131.085362  (-10.692706  -2.477175   3.258067)
  10:       338.04    3.168390  ( -0.057368   0.275941  -1.757543)
  11:       391.99    3.224638  (  0.290722   1.310541  -1.192728)
  12:       541.04    9.546961  ( -1.285452   1.190308  -2.545141)
  13:       734.15    0.887629  (  0.331748   0.097521  -0.876391)
  14:       829.43   16.726904  ( -3.897922  -1.212904  -0.248937)
  15:       848.94    4.004717  (  0.248385   1.968726   0.259113)
  16:       870.02    3.571341  (  1.565955  -1.031241  -0.235939)
  17:       915.06    5.596317  ( -1.680736   1.306948  -1.031180)
  18:       942.75   24.251266  ( -2.648998  -3.312333   2.502504)
  19:       986.59    5.919579  (  1.794515  -0.210818  -1.629371)
  20:      1016.56   93.350117  (  1.371681  -1.787514  -9.395393)
  21:      1074.42   37.983188  (  0.102416  -3.657611   4.959292)
  22:      1121.59   54.771249  ( -3.149479   3.413680  -5.761842)
  23:      1155.11    3.726411  ( -0.481888   1.800775   0.501402)
  24:      1162.43    1.116277  (  0.611592  -0.478812   0.716220)
  25:      1191.41    2.699441  ( -1.124873  -0.258842   1.169231)
  26:      1234.58   28.646428  (  2.125360  -4.409949   2.163705)
  27:      1247.32    2.580408  (  0.353618   0.023867  -1.566778)
  28:      1267.95    9.023727  (  1.495233  -2.582654   0.343372)
  29:      1285.32   15.436421  ( -0.249458   3.422014  -1.914161)
  30:      1314.88   23.264390  (  1.119247  -3.754593   2.813309)
  31:      1350.87    2.528601  (  1.266298   0.961597  -0.020557)
  32:      1441.37    2.975148  (  0.131703  -1.544633  -0.756249)
  33:      1453.16    6.469081  (  0.977665  -1.468201  -1.832386)
  34:      1461.59   20.046946  (  3.307456  -0.551374   2.967097)
  35:      1498.81    7.370741  ( -0.229261  -1.048561  -2.493732)
  36:      1521.25    4.570091  (  0.722067   1.364299   1.478986)
  37:      1633.71   57.994798  (  5.963999   4.370168  -1.824047)
  38:      2991.60   47.786379  (  2.796437   5.935689  -2.175756)
  39:      3061.83    7.294961  (  1.176778  -0.186217  -2.423939)
  40:      3074.37   14.351945  (  3.277908  -1.898492  -0.054721)
  41:      3113.43    2.936595  ( -0.051073   1.359735  -1.041685)
  42:      3170.30    1.912739  (  0.325022   0.795497   1.083644)
  43:      3209.48    7.110139  ( -0.014440   0.947926  -2.492261)
  44:      3271.58    5.291622  ( -1.224826   1.855317  -0.590951)
  45:      3516.99   98.470507  ( -8.585213  -4.799350   1.315622)
  46:      3621.45  120.159377  ( -6.990223   8.229114  -1.891519)
  47:      3872.26   99.551611  ( -1.854374  -1.066744  -9.745510)

--------------------------
THERMOCHEMISTRY AT 298.15K
--------------------------

Temperature         ... 298.15 K
Pressure            ... 1.00 atm
Total Mass          ... 88.13 AMU

Throughout the following assumptions are being made:
  (1) The electronic state is orbitally nondegenerate
  (2) There are no thermally accessible electronically excited states
  (3) Hindered rotations indicated by low frequency modes) are not
      treated as such but are treated as vibrations and this may
      case some error
  (4) All equations used are the standard statistical mechanics
      equations for an ideal gas
  (5) All vibrations are strinctly harmonic

------------
INNER ENERGY
------------

The inner energy is: U= E(el) + E(ZPE) + E(vib) + E(rot) + E(trans)
    E(el)   - is the total energy from the electronic structure calculation
              = E(kin-el) + E(nuc-el) + E(el-el) + E(nuc-nuc)
    E(ZPE)  - the the zero temperature vibrational energy from the frequency calculation
    E(vib)  - the the finite temperature correction to E(ZPE) due to population
              of excietd vibrational states
    E(rot)  - is the rotational thermal energy
    E(trans)- is the translational thermal energy

Summary of contributions to the inner energy U:
Electronic energy                ...   -287.91735634 Eh
Zero point energy                ...      0.14679982 Eh      92.12 kcal/mol
Thermal vibrational correction   ...      0.00400822 Eh       2.52 kcal/mol
Thermal rotational correction    ...      0.00141627 Eh       0.89 kcal/mol
Thermal translational correction ...      0.00141627 Eh       0.89 kcal/mol
-----------------------------------------------------------------------
Total thermal energy                   -287.76371575 Eh

Summary of corrections to the electronic energy:
(perhaps to be used in another calculation)
Total thermal correction                  0.00684076 Eh       4.29 kcal/mol
Non-thermal (ZPE) correction              0.14679982 Eh      92.12 kcal/mol
-----------------------------------------------------------------------
Total correction                          0.15364058 Eh      96.41 kcal/mol

--------
ENTHALPY
--------

The enthalpy is H = U + kB*T
                kB is Boltzmann's constant
Total free energy                 ...   -287.76371575 Eh
Thermal Enthalpy correction       ...      0.00094421 Eh       0.59 kcal/mol
-----------------------------------------------------------------------
Total Enthalpy                    ...   -287.76277155 Eh

-------
ENTROPY
-------

The entropy contributions are T*S = T*(S(el)+S(vib)+S(rot)+S(trans)
     S(el)   - electronic entropy
     S(vib)  - vibrational entropy
     S(rot)  - rotational entropy
     S(trans)- translational entropy
The entropies will be listed as mutliplied by the temperature to get
units of energy

Electronic entropy                ...      0.00000000 Eh      0.00 kcal/mol
Vibrational entropy               ...      0.00719111 Eh      4.51 kcal/mol
Rotational entropy                ...      0.01166704 Eh      7.32 kcal/mol
Translational entropy             ...      0.01869229 Eh     11.73 kcal/mol
-----------------------------------------------------------------------
Final entropy term                ...      0.03755043 Eh     23.56 kcal/mol

CAUTION: The rotational entropy is not quite correctly treated here
         because it includes a symmetry number that is not yet correctly
         implemented in ORCA!
For a nonlinear molecule the correct rotational entropy is:
    S(rot) = R*(ln(qrot/sn)+1.5)
    R    = 8.31441 J/mol/K = 1.987191683e-3 kcal/mol/K
    qrot = 155654.0504121
    sn is the rotational symmetry number. We have assumed 3 here
       if it is different for your molecule then you should correct
       the printed rotational entropy by manually evaluating the equation
       as given above

For convenience we print out the resulting values for sn=1 - 12:
 sn= 1  qrot/sn=  155654.0504 T*S(rot)=     7.97 kcal/mol T*S(tot)=    24.21 kcal/mol
 sn= 2  qrot/sn=   77827.0252 T*S(rot)=     7.56 kcal/mol T*S(tot)=    23.80 kcal/mol
 sn= 3  qrot/sn=   51884.6835 T*S(rot)=     7.32 kcal/mol T*S(tot)=    23.56 kcal/mol
 sn= 4  qrot/sn=   38913.5126 T*S(rot)=     7.15 kcal/mol T*S(tot)=    23.39 kcal/mol
 sn= 5  qrot/sn=   31130.8101 T*S(rot)=     7.02 kcal/mol T*S(tot)=    23.26 kcal/mol
 sn= 6  qrot/sn=   25942.3417 T*S(rot)=     6.91 kcal/mol T*S(tot)=    23.15 kcal/mol
 sn= 7  qrot/sn=   22236.2929 T*S(rot)=     6.82 kcal/mol T*S(tot)=    23.06 kcal/mol
 sn= 8  qrot/sn=   19456.7563 T*S(rot)=     6.74 kcal/mol T*S(tot)=    22.98 kcal/mol
 sn= 9  qrot/sn=   17294.8945 T*S(rot)=     6.67 kcal/mol T*S(tot)=    22.91 kcal/mol
 sn=10  qrot/sn=   15565.4050 T*S(rot)=     6.61 kcal/mol T*S(tot)=    22.85 kcal/mol
 sn=11  qrot/sn=   14150.3682 T*S(rot)=     6.55 kcal/mol T*S(tot)=    22.79 kcal/mol
 sn=12  qrot/sn=   12971.1709 T*S(rot)=     6.50 kcal/mol T*S(tot)=    22.74 kcal/mol

-------------------
GIBBS FREE ENTHALPY
-------------------

The Gibbs free enthalpy is G = H - T*S

Total enthalpy                    ...   -287.76277155 Eh
Total entropy correction          ...     -0.03755043 Eh    -23.56 kcal/mol
-----------------------------------------------------------------------
Final Gibbs free enthalpy         ...   -287.80032198 Eh

For completeness - the Gibbs free enthalpy minus the electronic energy
G-E(el)                           ...      0.11703436 Eh     73.44 kcal/mol

                             ****ORCA TERMINATED NORMALLY****
TOTAL RUN TIME: 0 days 0 hours 23 minutes 37 seconds 512 msec
