                         Program Version 3.0.3 - RELEASE   -
|  1> ! NORI PBE0 def2-TZVP UseSym TightOPT Freq TightSCF Grid3 FinalGrid5 XYZFile
|  2> % pal
|  3>     nprocs 8
|  4> end
|  5> %method
|  6>     SymThresh 5.0e-2
|  7> end
|  8> % geom
|  9>     MaxIter 10
| 10> end
| 11> % maxcore 2000
| 12> % output
| 13>     printlevel mini
| 14>     print[ P_Basis ] 0
| 15>     print[ P_SCFInfo ] 1
| 16>     print[ P_SCFIterInfo ] 1
| 17>     print[ P_OrbEn ] 0
| 18>     print[ P_Cartesian ] 0
| 19> end
| 20> % elprop
| 21>     Dipole false
| 22> end
| 23> *xyz 1 1
| 24>  O        2.7409446456    -1.9999468576    -3.1232331286
| 25>  C        2.5417970807    -0.8726499978    -2.7758493725
| 26>  C        3.3897492098    -0.2014235867    -1.7096192509
| 27>  C        4.3822227524    -1.1917794707    -1.1857745870
| 28>  C        5.7012617362    -1.3820058200    -1.7970004289
| 29>  N        5.6010361691    -0.6648487133    -0.4975239970
| 30>  H        1.7333267449    -0.2527757877    -3.2039393847
| 31>  H        2.7339020442     0.1679822118    -0.9141796215
| 32>  H        3.8720105970     0.6767353071    -2.1563352276
| 33>  H        3.9697006858    -2.0481514194    -0.6646811464
| 34>  H        6.0027256190    -0.7472377249    -2.6209751844
| 35>  H        6.1894238881    -2.3455436505    -1.7342271419
| 36>  H        5.7574097550     0.3373573414    -0.4917567415
| 37>  H        5.9297890719    -1.1356018317     0.3385252129
| 38> *
| 39>
| 40>                          ****END OF INPUT****
 Total Charge           Charge          ....    1
 Multiplicity           Mult            ....    1
 Number of Electrons    NEL             ....   46
FINAL SINGLE POINT ENERGY      -286.696517237391
FINAL SINGLE POINT ENERGY      -286.696514930334

CARTESIAN COORDINATES (ANGSTROEM)
---------------------------------
  O      0.000080    0.001644    2.084230
  C     -1.008068    0.235188    1.484028
  C     -1.018936    0.414754   -0.024174
  C      0.385495    0.321740   -0.533211
  C      1.000424   -0.953227   -0.915831
  N      0.586153    0.000075   -1.980000
  H     -1.988360    0.333591    1.984023
  H     -1.469144    1.384294   -0.263242
  H     -1.671401   -0.353586   -0.457139
  H      1.064478    1.098601   -0.200166
  H      0.407581   -1.859073   -0.889686
  H      2.071343   -1.081563   -0.828877
  H     -0.226688   -0.233024   -2.540302
  H      1.309276    0.493672   -2.492355

FINAL SINGLE POINT ENERGY      -286.696517925475
                    ***********************HURRAY********************
 Multiplicity           Mult            ....    1
 Number of Electrons    NEL             ....   46
 Basis Dimension        Dim             ....  234
FINAL SINGLE POINT ENERGY      -286.696518048601

VIBRATIONAL FREQUENCIES
-----------------------

   0:         0.00 cm**-1
   1:         0.00 cm**-1
   2:         0.00 cm**-1
   3:         0.00 cm**-1
   4:         0.00 cm**-1
   5:         0.00 cm**-1
   6:        53.34 cm**-1
   7:       164.32 cm**-1
   8:       185.84 cm**-1
   9:       342.75 cm**-1
  10:       363.95 cm**-1
  11:       650.70 cm**-1
  12:       728.91 cm**-1
  13:       815.72 cm**-1
  14:       859.73 cm**-1
  15:       878.91 cm**-1
  16:       890.86 cm**-1
  17:       913.60 cm**-1
  18:       973.91 cm**-1
  19:      1025.72 cm**-1
  20:      1048.76 cm**-1
  21:      1158.24 cm**-1
  22:      1161.42 cm**-1
  23:      1185.19 cm**-1
  24:      1247.64 cm**-1
  25:      1256.19 cm**-1
  26:      1294.85 cm**-1
  27:      1325.59 cm**-1
  28:      1398.90 cm**-1
  29:      1425.92 cm**-1
  30:      1468.13 cm**-1
  31:      1500.49 cm**-1
  32:      1635.71 cm**-1
  33:      1842.88 cm**-1
  34:      2990.52 cm**-1
  35:      3048.67 cm**-1
  36:      3097.70 cm**-1
  37:      3174.35 cm**-1
  38:      3206.33 cm**-1
  39:      3277.33 cm**-1
  40:      3513.47 cm**-1
  41:      3615.72 cm**-1

IR SPECTRUM
-----------

 Mode    freq (cm**-1)   T**2         TX         TY         TZ
-------------------------------------------------------------------
   6:        53.34    1.839107  (  0.423379  -0.839017  -0.977705)
   7:       164.32    9.023105  (  0.832931   1.592565  -2.406880)
   8:       185.84   10.859810  ( -0.102831   2.005313   2.613036)
   9:       342.75    7.114865  (  1.636726  -0.495912  -2.046965)
  10:       363.95    0.314483  (  0.233933  -0.259952  -0.438387)
  11:       650.70   10.584719  (  1.073943   1.145723  -2.849331)
  12:       728.91    6.337206  ( -0.147188   1.934619   1.603992)
  13:       815.72    4.003333  ( -0.443017  -0.183823   1.942493)
  14:       859.73   11.336151  ( -0.378280  -1.290837   3.086551)
  15:       878.91    2.671519  ( -1.332639   0.017174  -0.946202)
  16:       890.86   27.111707  ( -0.665627  -0.947134   5.076572)
  17:       913.60   30.710959  ( -0.657986   0.066435   5.502145)
  18:       973.91    1.957304  (  1.203508   0.504803   0.504030)
  19:      1025.72   77.375605  (  3.162650  -7.588507  -3.128547)
  20:      1048.76   22.807201  (  2.421382  -3.864540  -1.417547)
  21:      1158.24    0.496098  (  0.565998  -0.082113   0.411098)
  22:      1161.42    3.964313  ( -0.914587   0.945125   1.494852)
  23:      1185.19    0.812157  (  0.392311   0.787326   0.195875)
  24:      1247.64    2.801692  (  1.646149   0.000723   0.303126)
  25:      1256.19    7.585582  ( -0.991231  -0.203775   2.561546)
  26:      1294.85    1.392214  (  0.682625   0.002773   0.962408)
  27:      1325.59   38.200724  ( -0.205842  -1.108475   6.076976)
  28:      1398.90   15.434111  (  2.959753  -0.240698  -2.572166)
  29:      1425.92   23.017817  (  2.418068  -1.246071   3.951970)
  30:      1468.13    7.899358  (  2.106061   1.532787   1.055665)
  31:      1500.49    9.660772  ( -1.536364   2.636500   0.590952)
  32:      1635.71   69.879005  ( -0.711035   1.081582  -8.258548)
  33:      1842.88  127.996625  ( -7.496656   1.767090  -8.286988)
  34:      2990.52   38.612920  ( -5.426546   0.738958   2.935891)
  35:      3048.67    1.699785  (  0.810594   0.615040  -0.815137)
  36:      3097.70    0.660313  ( -0.013130   0.138592  -0.800583)
  37:      3174.35    4.423302  (  1.250400  -1.654336   0.350676)
  38:      3206.33    4.557520  (  0.856458   1.494375   1.261286)
  39:      3277.33    8.014091  ( -2.592643  -1.096753  -0.299044)
  40:      3513.47  118.949120  ( -0.456316  -2.479031  10.611093)
  41:      3615.72  126.349127  (-10.155383  -4.817936   0.069352)

--------------------------
THERMOCHEMISTRY AT 298.15K
--------------------------

Temperature         ... 298.15 K
Pressure            ... 1.00 atm
Total Mass          ... 86.11 AMU

Throughout the following assumptions are being made:
  (1) The electronic state is orbitally nondegenerate
  (2) There are no thermally accessible electronically excited states
  (3) Hindered rotations indicated by low frequency modes) are not
      treated as such but are treated as vibrations and this may
      case some error
  (4) All equations used are the standard statistical mechanics
      equations for an ideal gas
  (5) All vibrations are strinctly harmonic

------------
INNER ENERGY
------------

The inner energy is: U= E(el) + E(ZPE) + E(vib) + E(rot) + E(trans)
    E(el)   - is the total energy from the electronic structure calculation
              = E(kin-el) + E(nuc-el) + E(el-el) + E(nuc-nuc)
    E(ZPE)  - the the zero temperature vibrational energy from the frequency calculation
    E(vib)  - the the finite temperature correction to E(ZPE) due to population
              of excietd vibrational states
    E(rot)  - is the rotational thermal energy
    E(trans)- is the translational thermal energy

Summary of contributions to the inner energy U:
Electronic energy                ...   -286.69651805 Eh
Zero point energy                ...      0.12238835 Eh      76.80 kcal/mol
Thermal vibrational correction   ...      0.00352280 Eh       2.21 kcal/mol
Thermal rotational correction    ...      0.00141627 Eh       0.89 kcal/mol
Thermal translational correction ...      0.00141627 Eh       0.89 kcal/mol
-----------------------------------------------------------------------
Total thermal energy                   -286.56777436 Eh

Summary of corrections to the electronic energy:
(perhaps to be used in another calculation)
Total thermal correction                  0.00635534 Eh       3.99 kcal/mol
Non-thermal (ZPE) correction              0.12238835 Eh      76.80 kcal/mol
-----------------------------------------------------------------------
Total correction                          0.12874369 Eh      80.79 kcal/mol

--------
ENTHALPY
--------

The enthalpy is H = U + kB*T
                kB is Boltzmann's constant
Total free energy                 ...   -286.56777436 Eh
Thermal Enthalpy correction       ...      0.00094421 Eh       0.59 kcal/mol
-----------------------------------------------------------------------
Total Enthalpy                    ...   -286.56683015 Eh

-------
ENTROPY
-------

The entropy contributions are T*S = T*(S(el)+S(vib)+S(rot)+S(trans)
     S(el)   - electronic entropy
     S(vib)  - vibrational entropy
     S(rot)  - rotational entropy
     S(trans)- translational entropy
The entropies will be listed as mutliplied by the temperature to get
units of energy

Electronic entropy                ...      0.00000000 Eh      0.00 kcal/mol
Vibrational entropy               ...      0.00655149 Eh      4.11 kcal/mol
Rotational entropy                ...      0.01155736 Eh      7.25 kcal/mol
Translational entropy             ...      0.01865951 Eh     11.71 kcal/mol
-----------------------------------------------------------------------
Final entropy term                ...      0.03676837 Eh     23.07 kcal/mol

CAUTION: The rotational entropy is not quite correctly treated here
         because it includes a symmetry number that is not yet correctly
         implemented in ORCA!
For a nonlinear molecule the correct rotational entropy is:
    S(rot) = R*(ln(qrot/sn)+1.5)
    R    = 8.31441 J/mol/K = 1.987191683e-3 kcal/mol/K
    qrot = 138584.3757987
    sn is the rotational symmetry number. We have assumed 3 here
       if it is different for your molecule then you should correct
       the printed rotational entropy by manually evaluating the equation
       as given above

For convenience we print out the resulting values for sn=1 - 12:
 sn= 1  qrot/sn=  138584.3758 T*S(rot)=     7.90 kcal/mol T*S(tot)=    23.72 kcal/mol
 sn= 2  qrot/sn=   69292.1879 T*S(rot)=     7.49 kcal/mol T*S(tot)=    23.31 kcal/mol
 sn= 3  qrot/sn=   46194.7919 T*S(rot)=     7.25 kcal/mol T*S(tot)=    23.07 kcal/mol
 sn= 4  qrot/sn=   34646.0939 T*S(rot)=     7.08 kcal/mol T*S(tot)=    22.90 kcal/mol
 sn= 5  qrot/sn=   27716.8752 T*S(rot)=     6.95 kcal/mol T*S(tot)=    22.77 kcal/mol
 sn= 6  qrot/sn=   23097.3960 T*S(rot)=     6.84 kcal/mol T*S(tot)=    22.66 kcal/mol
 sn= 7  qrot/sn=   19797.7680 T*S(rot)=     6.75 kcal/mol T*S(tot)=    22.57 kcal/mol
 sn= 8  qrot/sn=   17323.0470 T*S(rot)=     6.67 kcal/mol T*S(tot)=    22.49 kcal/mol
 sn= 9  qrot/sn=   15398.2640 T*S(rot)=     6.60 kcal/mol T*S(tot)=    22.42 kcal/mol
 sn=10  qrot/sn=   13858.4376 T*S(rot)=     6.54 kcal/mol T*S(tot)=    22.36 kcal/mol
 sn=11  qrot/sn=   12598.5796 T*S(rot)=     6.48 kcal/mol T*S(tot)=    22.30 kcal/mol
 sn=12  qrot/sn=   11548.6980 T*S(rot)=     6.43 kcal/mol T*S(tot)=    22.25 kcal/mol

-------------------
GIBBS FREE ENTHALPY
-------------------

The Gibbs free enthalpy is G = H - T*S

Total enthalpy                    ...   -286.56683015 Eh
Total entropy correction          ...     -0.03676837 Eh    -23.07 kcal/mol
-----------------------------------------------------------------------
Final Gibbs free enthalpy         ...   -286.60359852 Eh

For completeness - the Gibbs free enthalpy minus the electronic energy
G-E(el)                           ...      0.09291953 Eh     58.31 kcal/mol

                             ****ORCA TERMINATED NORMALLY****
TOTAL RUN TIME: 0 days 0 hours 21 minutes 28 seconds 620 msec
