                         Program Version 3.0.3 - RELEASE   -
|  1> ! NORI PBE0 def2-TZVP UseSym TightOPT Freq TightSCF Grid3 FinalGrid5 XYZFile
|  2> % pal
|  3>     nprocs 8
|  4> end
|  5> %method
|  6>     SymThresh 5.0e-2
|  7> end
|  8> % geom
|  9>     MaxIter 10
| 10> end
| 11> % maxcore 2000
| 12> % output
| 13>     printlevel mini
| 14>     print[ P_Basis ] 0
| 15>     print[ P_SCFInfo ] 1
| 16>     print[ P_SCFIterInfo ] 1
| 17>     print[ P_OrbEn ] 0
| 18>     print[ P_Cartesian ] 0
| 19> end
| 20> % elprop
| 21>     Dipole false
| 22> end
| 23> *xyz 1 1
| 24>  O        0.9265231692    -0.1680058966     0.4001918102
| 25>  C        2.3049589990    -0.2406003326     0.6007767783
| 26>  C        2.8570145183     0.9596815104    -0.1455525640
| 27>  N        4.3236588396     1.0414112571    -0.0254630594
| 28>  C        5.0434278772     2.3183932638    -0.2179017304
| 29>  C        4.9711916675     1.7152454109     1.1212523608
| 30>  H        0.4906651549    -0.9210690510     0.8088323226
| 31>  H        2.5768391343    -0.1811696423     1.6645412987
| 32>  H        2.7379953482    -1.1659865191     0.1920271172
| 33>  H        2.6096928018     0.8997735764    -1.2068225881
| 34>  H        2.4380278970     1.8833934179     0.2568439505
| 35>  H        4.8122339558     0.2213327735    -0.3722773362
| 36>  H        4.3945302335     3.1501397390    -0.4598817012
| 37>  H        5.9579110300     2.2407157393    -0.7913938448
| 38>  H        4.2687612778     2.1144794521     1.8417416400
| 39>  H        5.8338680960     1.2021753012     1.5252855457
| 40> *
| 41>
| 42>                          ****END OF INPUT****
 Total Charge           Charge          ....    1
 Multiplicity           Mult            ....    1
 Number of Electrons    NEL             ....   48
FINAL SINGLE POINT ENERGY      -287.904961080095

CARTESIAN COORDINATES (ANGSTROEM)
---------------------------------
  O     -0.000350   -0.000454    2.634385
  C      0.238257    0.625647    1.411022
  C      0.160895   -0.497314    0.393356
  N      0.381587   -0.000022   -0.976470
  C     -0.111622   -0.743857   -2.155207
  C     -0.727280    0.541522   -1.792460
  H      0.068552    0.634883    3.352491
  H     -0.512635    1.395325    1.181038
  H      1.230968    1.098702    1.370799
  H      0.916375   -1.257142    0.600780
  H     -0.822752   -0.969130    0.421717
  H      1.276259    0.462362   -1.108705
  H     -0.621577   -1.665010   -1.904727
  H      0.582208   -0.789940   -2.984602
  H     -1.680845    0.543367   -1.280026
  H     -0.485415    1.430930   -2.359756

FINAL SINGLE POINT ENERGY      -287.904961946875
                    ***********************HURRAY********************
 Multiplicity           Mult            ....    1
 Number of Electrons    NEL             ....   48
 Basis Dimension        Dim             ....  246
FINAL SINGLE POINT ENERGY      -287.904962732207

VIBRATIONAL FREQUENCIES
-----------------------

   0:         0.00 cm**-1
   1:         0.00 cm**-1
   2:         0.00 cm**-1
   3:         0.00 cm**-1
   4:         0.00 cm**-1
   5:         0.00 cm**-1
   6:        74.09 cm**-1
   7:       102.39 cm**-1
   8:       176.21 cm**-1
   9:       253.84 cm**-1
  10:       338.52 cm**-1
  11:       395.65 cm**-1
  12:       453.14 cm**-1
  13:       787.72 cm**-1
  14:       800.08 cm**-1
  15:       853.15 cm**-1
  16:       877.47 cm**-1
  17:       945.40 cm**-1
  18:      1005.17 cm**-1
  19:      1057.51 cm**-1
  20:      1103.47 cm**-1
  21:      1146.50 cm**-1
  22:      1156.15 cm**-1
  23:      1157.84 cm**-1
  24:      1179.84 cm**-1
  25:      1196.11 cm**-1
  26:      1217.30 cm**-1
  27:      1253.80 cm**-1
  28:      1274.26 cm**-1
  29:      1284.71 cm**-1
  30:      1326.33 cm**-1
  31:      1360.74 cm**-1
  32:      1462.73 cm**-1
  33:      1473.89 cm**-1
  34:      1479.91 cm**-1
  35:      1488.46 cm**-1
  36:      1520.20 cm**-1
  37:      1524.24 cm**-1
  38:      2990.43 cm**-1
  39:      3026.33 cm**-1
  40:      3094.72 cm**-1
  41:      3154.86 cm**-1
  42:      3172.03 cm**-1
  43:      3174.96 cm**-1
  44:      3270.55 cm**-1
  45:      3280.96 cm**-1
  46:      3536.34 cm**-1
  47:      3866.99 cm**-1

IR SPECTRUM
-----------

 Mode    freq (cm**-1)   T**2         TX         TY         TZ
-------------------------------------------------------------------
   6:        74.09   10.343313  (  3.154643  -0.527722   0.336232)
   7:       102.39    3.373327  ( -1.792558  -0.066405  -0.394527)
   8:       176.21    0.213568  (  0.052754   0.161272   0.429857)
   9:       253.84  125.889080  ( 10.961402  -2.209911   0.923605)
  10:       338.52    8.062090  ( -1.056615  -0.052119  -2.634946)
  11:       395.65    1.929241  (  0.668380   0.359945  -1.163163)
  12:       453.14   14.938247  (  0.515694   0.477170  -3.800607)
  13:       787.72    0.130330  ( -0.200199  -0.287440  -0.087340)
  14:       800.08    2.881149  ( -1.594341  -0.055984  -0.579735)
  15:       853.15    3.810858  (  1.887045   0.468321   0.174909)
  16:       877.47    5.431265  (  2.245732  -0.051084  -0.620759)
  17:       945.40   23.058651  (  0.878228  -3.710595  -2.918707)
  18:      1005.17   84.834026  (  2.377768  -2.228556   8.614742)
  19:      1057.51   11.711585  ( -2.152032  -2.633632   0.379902)
  20:      1103.47   13.785014  (  0.139157  -2.022313   3.110611)
  21:      1146.50   46.113433  ( -0.960145  -1.024338   6.643966)
  22:      1156.15    8.520302  (  1.690199  -2.204306  -0.896977)
  23:      1157.84    9.052629  ( -0.925253  -1.584576   2.384461)
  24:      1179.84    1.090883  (  0.446110  -0.924542   0.192590)
  25:      1196.11    4.005017  ( -0.186288   1.315601  -1.496499)
  26:      1217.30    9.506574  ( -1.640319   2.048712   1.618242)
  27:      1253.80   48.775134  (  1.317589   4.054931  -5.531422)
  28:      1274.26    8.674075  (  1.853565   1.168571   1.967946)
  29:      1284.71    3.307283  (  0.359112   0.019117   1.782682)
  30:      1326.33    7.638964  (  2.695328   0.462618  -0.400196)
  31:      1360.74    5.290173  (  0.786999   1.508286  -1.547863)
  32:      1462.73   31.060799  (  1.525698  -0.316836   5.350949)
  33:      1473.89   18.902724  ( -0.939635   4.183195   0.721586)
  34:      1479.91    7.527790  ( -0.359624   1.876989   1.968596)
  35:      1488.46    7.203275  ( -2.049145  -0.835288  -1.518740)
  36:      1520.20    7.811620  (  0.440888   0.790982  -2.644161)
  37:      1524.24    3.276561  ( -0.152541  -1.803295   0.037693)
  38:      2990.43   42.714771  (  1.813506   4.813286  -4.032151)
  39:      3026.33   26.516447  ( -4.896697   1.302665  -0.917534)
  40:      3094.72    0.792815  (  0.325905   0.751191   0.349732)
  41:      3154.86    0.609941  (  0.536466   0.069701   0.563282)
  42:      3172.03    3.784630  (  1.087471  -1.602528   0.184232)
  43:      3174.96    2.626475  (  0.275627   0.878537   1.333671)
  44:      3270.55    0.115832  ( -0.276512  -0.021022   0.197309)
  45:      3280.96   12.307501  (  2.309720   1.780086  -1.950382)
  46:      3536.34   81.657528  ( -8.247883  -3.691555   0.048642)
  47:      3866.99  111.376889  ( -0.114304  -4.157631  -9.699378)

--------------------------
THERMOCHEMISTRY AT 298.15K
--------------------------

Temperature         ... 298.15 K
Pressure            ... 1.00 atm
Total Mass          ... 88.13 AMU

Throughout the following assumptions are being made:
  (1) The electronic state is orbitally nondegenerate
  (2) There are no thermally accessible electronically excited states
  (3) Hindered rotations indicated by low frequency modes) are not
      treated as such but are treated as vibrations and this may
      case some error
  (4) All equations used are the standard statistical mechanics
      equations for an ideal gas
  (5) All vibrations are strinctly harmonic

------------
INNER ENERGY
------------

The inner energy is: U= E(el) + E(ZPE) + E(vib) + E(rot) + E(trans)
    E(el)   - is the total energy from the electronic structure calculation
              = E(kin-el) + E(nuc-el) + E(el-el) + E(nuc-nuc)
    E(ZPE)  - the the zero temperature vibrational energy from the frequency calculation
    E(vib)  - the the finite temperature correction to E(ZPE) due to population
              of excietd vibrational states
    E(rot)  - is the rotational thermal energy
    E(trans)- is the translational thermal energy

Summary of contributions to the inner energy U:
Electronic energy                ...   -287.90496273 Eh
Zero point energy                ...      0.14647477 Eh      91.91 kcal/mol
Thermal vibrational correction   ...      0.00416256 Eh       2.61 kcal/mol
Thermal rotational correction    ...      0.00141627 Eh       0.89 kcal/mol
Thermal translational correction ...      0.00141627 Eh       0.89 kcal/mol
-----------------------------------------------------------------------
Total thermal energy                   -287.75149286 Eh

Summary of corrections to the electronic energy:
(perhaps to be used in another calculation)
Total thermal correction                  0.00699511 Eh       4.39 kcal/mol
Non-thermal (ZPE) correction              0.14647477 Eh      91.91 kcal/mol
-----------------------------------------------------------------------
Total correction                          0.15346988 Eh      96.30 kcal/mol

--------
ENTHALPY
--------

The enthalpy is H = U + kB*T
                kB is Boltzmann's constant
Total free energy                 ...   -287.75149286 Eh
Thermal Enthalpy correction       ...      0.00094421 Eh       0.59 kcal/mol
-----------------------------------------------------------------------
Total Enthalpy                    ...   -287.75054865 Eh

-------
ENTROPY
-------

The entropy contributions are T*S = T*(S(el)+S(vib)+S(rot)+S(trans)
     S(el)   - electronic entropy
     S(vib)  - vibrational entropy
     S(rot)  - rotational entropy
     S(trans)- translational entropy
The entropies will be listed as mutliplied by the temperature to get
units of energy

Electronic entropy                ...      0.00000000 Eh      0.00 kcal/mol
Vibrational entropy               ...      0.00764171 Eh      4.80 kcal/mol
Rotational entropy                ...      0.01167533 Eh      7.33 kcal/mol
Translational entropy             ...      0.01869229 Eh     11.73 kcal/mol
-----------------------------------------------------------------------
Final entropy term                ...      0.03800932 Eh     23.85 kcal/mol

CAUTION: The rotational entropy is not quite correctly treated here
         because it includes a symmetry number that is not yet correctly
         implemented in ORCA!
For a nonlinear molecule the correct rotational entropy is:
    S(rot) = R*(ln(qrot/sn)+1.5)
    R    = 8.31441 J/mol/K = 1.987191683e-3 kcal/mol/K
    qrot = 157027.4347625
    sn is the rotational symmetry number. We have assumed 3 here
       if it is different for your molecule then you should correct
       the printed rotational entropy by manually evaluating the equation
       as given above

For convenience we print out the resulting values for sn=1 - 12:
 sn= 1  qrot/sn=  157027.4348 T*S(rot)=     7.98 kcal/mol T*S(tot)=    24.50 kcal/mol
 sn= 2  qrot/sn=   78513.7174 T*S(rot)=     7.57 kcal/mol T*S(tot)=    24.09 kcal/mol
 sn= 3  qrot/sn=   52342.4783 T*S(rot)=     7.33 kcal/mol T*S(tot)=    23.85 kcal/mol
 sn= 4  qrot/sn=   39256.8587 T*S(rot)=     7.16 kcal/mol T*S(tot)=    23.68 kcal/mol
 sn= 5  qrot/sn=   31405.4870 T*S(rot)=     7.02 kcal/mol T*S(tot)=    23.55 kcal/mol
 sn= 6  qrot/sn=   26171.2391 T*S(rot)=     6.92 kcal/mol T*S(tot)=    23.44 kcal/mol
 sn= 7  qrot/sn=   22432.4907 T*S(rot)=     6.82 kcal/mol T*S(tot)=    23.35 kcal/mol
 sn= 8  qrot/sn=   19628.4293 T*S(rot)=     6.75 kcal/mol T*S(tot)=    23.27 kcal/mol
 sn= 9  qrot/sn=   17447.4928 T*S(rot)=     6.68 kcal/mol T*S(tot)=    23.20 kcal/mol
 sn=10  qrot/sn=   15702.7435 T*S(rot)=     6.61 kcal/mol T*S(tot)=    23.14 kcal/mol
 sn=11  qrot/sn=   14275.2213 T*S(rot)=     6.56 kcal/mol T*S(tot)=    23.08 kcal/mol
 sn=12  qrot/sn=   13085.6196 T*S(rot)=     6.51 kcal/mol T*S(tot)=    23.03 kcal/mol

-------------------
GIBBS FREE ENTHALPY
-------------------

The Gibbs free enthalpy is G = H - T*S

Total enthalpy                    ...   -287.75054865 Eh
Total entropy correction          ...     -0.03800932 Eh    -23.85 kcal/mol
-----------------------------------------------------------------------
Final Gibbs free enthalpy         ...   -287.78855797 Eh

For completeness - the Gibbs free enthalpy minus the electronic energy
G-E(el)                           ...      0.11640476 Eh     73.04 kcal/mol

                             ****ORCA TERMINATED NORMALLY****
TOTAL RUN TIME: 0 days 0 hours 26 minutes 39 seconds 58 msec
