                         Program Version 3.0.3 - RELEASE   -
|  1> ! NORI PBE0 def2-TZVP UseSym TightOPT Freq TightSCF Grid3 FinalGrid5 XYZFile
|  2> % pal
|  3>     nprocs 8
|  4> end
|  5> %method
|  6>     SymThresh 5.0e-2
|  7> end
|  8> % geom
|  9>     MaxIter 10
| 10> end
| 11> % maxcore 2000
| 12> % output
| 13>     printlevel mini
| 14>     print[ P_Basis ] 0
| 15>     print[ P_SCFInfo ] 1
| 16>     print[ P_SCFIterInfo ] 1
| 17>     print[ P_OrbEn ] 0
| 18>     print[ P_Cartesian ] 0
| 19> end
| 20> % elprop
| 21>     Dipole false
| 22> end
| 23> *xyz 1 1
| 24>  O        1.8278970013     0.3618814452     2.6187806116
| 25>  C        2.7851630441    -0.2525186468     2.2741893826
| 26>  C        3.0807621047    -0.4695155592     0.7934678716
| 27>  N        4.5013854680    -0.7683504346     0.5470553571
| 28>  C        5.1367440281    -0.4860460513    -0.7615090843
| 29>  C        5.5056366055     0.3150918466     0.4143688310
| 30>  H        3.4904954788    -0.7153875230     2.9975060681
| 31>  H        2.4860798399    -1.3118934701     0.4267786664
| 32>  H        2.8021098033     0.4216170484     0.2296774218
| 33>  H        4.8375736019    -1.6088986896     1.0084547539
| 34>  H        5.8069373700    -1.2602319499    -1.1127118187
| 35>  H        4.4565974078    -0.0729132808    -1.4951133899
| 36>  H        5.0899199335     1.3081953067     0.5304216540
| 37>  H        6.4448383134     0.1264299584     0.9183936749
| 38> *
| 39>
| 40>                          ****END OF INPUT****
 Total Charge           Charge          ....    1
 Multiplicity           Mult            ....    1
 Number of Electrons    NEL             ....   46
FINAL SINGLE POINT ENERGY      -286.677887191872
FINAL SINGLE POINT ENERGY      -286.677886874767

CARTESIAN COORDINATES (ANGSTROEM)
---------------------------------
  O     -0.000997   -0.000169    2.610568
  C      0.469947    0.215414    1.540955
  C      0.142859   -0.680083    0.350128
  N      0.367098   -0.000017   -0.936568
  C     -0.356407   -0.407636   -2.164226
  C     -0.665347    0.882878   -1.531860
  H      1.181646    1.049447    1.358244
  H      0.779718   -1.569319    0.381722
  H     -0.898416   -0.998656    0.406285
  H      1.326043    0.299225   -1.089725
  H      0.253229   -0.432936   -3.058573
  H     -1.025155   -1.246140   -2.017029
  H     -1.558312    0.976149   -0.926282
  H     -0.283211    1.797720   -1.966417

FINAL SINGLE POINT ENERGY      -286.677887670308
                    ***********************HURRAY********************
 Multiplicity           Mult            ....    1
 Number of Electrons    NEL             ....   46
 Basis Dimension        Dim             ....  234
FINAL SINGLE POINT ENERGY      -286.677887786812

VIBRATIONAL FREQUENCIES
-----------------------

   0:         0.00 cm**-1
   1:         0.00 cm**-1
   2:         0.00 cm**-1
   3:         0.00 cm**-1
   4:         0.00 cm**-1
   5:         0.00 cm**-1
   6:        32.44 cm**-1
   7:        85.45 cm**-1
   8:       182.94 cm**-1
   9:       348.43 cm**-1
  10:       393.12 cm**-1
  11:       501.77 cm**-1
  12:       715.82 cm**-1
  13:       789.16 cm**-1
  14:       846.23 cm**-1
  15:       875.08 cm**-1
  16:       936.13 cm**-1
  17:      1012.39 cm**-1
  18:      1044.80 cm**-1
  19:      1078.36 cm**-1
  20:      1152.48 cm**-1
  21:      1155.31 cm**-1
  22:      1180.51 cm**-1
  23:      1184.83 cm**-1
  24:      1215.04 cm**-1
  25:      1273.22 cm**-1
  26:      1306.14 cm**-1
  27:      1335.02 cm**-1
  28:      1415.29 cm**-1
  29:      1449.30 cm**-1
  30:      1471.47 cm**-1
  31:      1479.78 cm**-1
  32:      1519.02 cm**-1
  33:      1877.83 cm**-1
  34:      2913.53 cm**-1
  35:      3081.34 cm**-1
  36:      3154.31 cm**-1
  37:      3170.80 cm**-1
  38:      3173.22 cm**-1
  39:      3269.32 cm**-1
  40:      3279.61 cm**-1
  41:      3532.58 cm**-1

IR SPECTRUM
-----------

 Mode    freq (cm**-1)   T**2         TX         TY         TZ
-------------------------------------------------------------------
   7:        85.45    0.357763  (  0.389896   0.284072  -0.353620)
   8:       182.94    5.749053  ( -1.739015  -1.579632   0.479208)
   9:       348.43    1.271002  ( -0.293992  -0.821412  -0.714040)
  10:       393.12    2.934465  (  0.849492   1.480650   0.143190)
  11:       501.77   12.558092  (  0.907021   1.786926   2.922722)
  12:       715.82    7.343869  (  2.201165  -1.569080   0.191653)
  13:       789.16    1.130224  ( -0.608548  -0.771391   0.406015)
  14:       846.23    4.312465  (  1.339710   0.177678   1.576728)
  15:       875.08   10.854204  (  2.748347   0.051032   1.816091)
  16:       936.13   40.353907  ( -0.263937  -4.528601  -4.447023)
  17:      1012.39   68.613309  ( -3.873063  -0.394632  -7.311427)
  18:      1044.80    4.988472  ( -0.088987   2.222459   0.203050)
  19:      1078.36    9.905118  ( -1.706319   1.891665  -1.848026)
  20:      1152.48    7.624925  (  1.558471  -1.652333  -1.570315)
  21:      1155.31    5.504281  ( -0.476351  -1.933193  -1.241023)
  22:      1180.51    1.235867  ( -0.499168   0.683375  -0.720900)
  23:      1184.83    4.061140  ( -0.264933  -0.853388  -1.806289)
  24:      1215.04    9.983791  ( -0.761672   2.387055   1.924998)
  25:      1273.22   11.725404  (  1.798029  -0.534351   2.864780)
  26:      1306.14    5.400187  (  2.255030   0.543403   0.140496)
  27:      1335.02    0.671360  (  0.064298   0.816646   0.017776)
  28:      1415.29    9.906198  ( -0.827983  -2.727518  -1.334648)
  29:      1449.30   17.894601  ( -1.124072  -4.028043  -0.637125)
  30:      1471.47   33.143665  ( -2.442319   0.619195  -5.176421)
  31:      1479.78   14.381820  ( -1.222763   3.272659   1.475254)
  32:      1519.02    6.873963  ( -0.122531  -1.530846   2.124961)
  33:      1877.83  143.422299  ( -3.036634  -0.460228  11.575377)
  34:      2913.53   52.336145  (  4.770063   5.210490  -1.559946)
  35:      3081.34    4.190496  (  0.005623  -1.745514  -1.069413)
  36:      3154.31    2.182394  ( -1.347061   0.250727   0.552229)
  37:      3170.80    5.730711  (  0.952824  -2.162568  -0.382276)
  38:      3173.22    3.683160  (  0.758273   0.457249   1.702676)
  39:      3269.32    0.107726  ( -0.221038  -0.021312   0.241690)
  40:      3279.61   15.613352  ( -2.778728  -1.811284   2.147387)
  41:      3532.58   91.629882  (  9.326938   2.105557  -0.452476)

--------------------------
THERMOCHEMISTRY AT 298.15K
--------------------------

Temperature         ... 298.15 K
Pressure            ... 1.00 atm
Total Mass          ... 86.11 AMU

Throughout the following assumptions are being made:
  (1) The electronic state is orbitally nondegenerate
  (2) There are no thermally accessible electronically excited states
  (3) Hindered rotations indicated by low frequency modes) are not
      treated as such but are treated as vibrations and this may
      case some error
  (4) All equations used are the standard statistical mechanics
      equations for an ideal gas
  (5) All vibrations are strinctly harmonic

------------
INNER ENERGY
------------

The inner energy is: U= E(el) + E(ZPE) + E(vib) + E(rot) + E(trans)
    E(el)   - is the total energy from the electronic structure calculation
              = E(kin-el) + E(nuc-el) + E(el-el) + E(nuc-nuc)
    E(ZPE)  - the the zero temperature vibrational energy from the frequency calculation
    E(vib)  - the the finite temperature correction to E(ZPE) due to population
              of excietd vibrational states
    E(rot)  - is the rotational thermal energy
    E(trans)- is the translational thermal energy

Summary of contributions to the inner energy U:
Electronic energy                ...   -286.67788779 Eh
Zero point energy                ...      0.12165334 Eh      76.34 kcal/mol
Thermal vibrational correction   ...      0.00286120 Eh       1.80 kcal/mol
Thermal rotational correction    ...      0.00141627 Eh       0.89 kcal/mol
Thermal translational correction ...      0.00141627 Eh       0.89 kcal/mol
-----------------------------------------------------------------------
Total thermal energy                   -286.55054070 Eh

Summary of corrections to the electronic energy:
(perhaps to be used in another calculation)
Total thermal correction                  0.00569374 Eh       3.57 kcal/mol
Non-thermal (ZPE) correction              0.12165334 Eh      76.34 kcal/mol
-----------------------------------------------------------------------
Total correction                          0.12734709 Eh      79.91 kcal/mol

--------
ENTHALPY
--------

The enthalpy is H = U + kB*T
                kB is Boltzmann's constant
Total free energy                 ...   -286.55054070 Eh
Thermal Enthalpy correction       ...      0.00094421 Eh       0.59 kcal/mol
-----------------------------------------------------------------------
Total Enthalpy                    ...   -286.54959649 Eh

-------
ENTROPY
-------

The entropy contributions are T*S = T*(S(el)+S(vib)+S(rot)+S(trans)
     S(el)   - electronic entropy
     S(vib)  - vibrational entropy
     S(rot)  - rotational entropy
     S(trans)- translational entropy
The entropies will be listed as mutliplied by the temperature to get
units of energy

Electronic entropy                ...      0.00000000 Eh      0.00 kcal/mol
Vibrational entropy               ...      0.00496119 Eh      3.11 kcal/mol
Rotational entropy                ...      0.01159357 Eh      7.28 kcal/mol
Translational entropy             ...      0.01865951 Eh     11.71 kcal/mol
-----------------------------------------------------------------------
Final entropy term                ...      0.03521427 Eh     22.10 kcal/mol

CAUTION: The rotational entropy is not quite correctly treated here
         because it includes a symmetry number that is not yet correctly
         implemented in ORCA!
For a nonlinear molecule the correct rotational entropy is:
    S(rot) = R*(ln(qrot/sn)+1.5)
    R    = 8.31441 J/mol/K = 1.987191683e-3 kcal/mol/K
    qrot = 144001.4004281
    sn is the rotational symmetry number. We have assumed 3 here
       if it is different for your molecule then you should correct
       the printed rotational entropy by manually evaluating the equation
       as given above

For convenience we print out the resulting values for sn=1 - 12:
 sn= 1  qrot/sn=  144001.4004 T*S(rot)=     7.93 kcal/mol T*S(tot)=    22.75 kcal/mol
 sn= 2  qrot/sn=   72000.7002 T*S(rot)=     7.52 kcal/mol T*S(tot)=    22.34 kcal/mol
 sn= 3  qrot/sn=   48000.4668 T*S(rot)=     7.28 kcal/mol T*S(tot)=    22.10 kcal/mol
 sn= 4  qrot/sn=   36000.3501 T*S(rot)=     7.10 kcal/mol T*S(tot)=    21.93 kcal/mol
 sn= 5  qrot/sn=   28800.2801 T*S(rot)=     6.97 kcal/mol T*S(tot)=    21.79 kcal/mol
 sn= 6  qrot/sn=   24000.2334 T*S(rot)=     6.86 kcal/mol T*S(tot)=    21.69 kcal/mol
 sn= 7  qrot/sn=   20571.6286 T*S(rot)=     6.77 kcal/mol T*S(tot)=    21.60 kcal/mol
 sn= 8  qrot/sn=   18000.1751 T*S(rot)=     6.69 kcal/mol T*S(tot)=    21.52 kcal/mol
 sn= 9  qrot/sn=   16000.1556 T*S(rot)=     6.62 kcal/mol T*S(tot)=    21.45 kcal/mol
 sn=10  qrot/sn=   14400.1400 T*S(rot)=     6.56 kcal/mol T*S(tot)=    21.38 kcal/mol
 sn=11  qrot/sn=   13091.0364 T*S(rot)=     6.51 kcal/mol T*S(tot)=    21.33 kcal/mol
 sn=12  qrot/sn=   12000.1167 T*S(rot)=     6.45 kcal/mol T*S(tot)=    21.28 kcal/mol

-------------------
GIBBS FREE ENTHALPY
-------------------

The Gibbs free enthalpy is G = H - T*S

Total enthalpy                    ...   -286.54959649 Eh
Total entropy correction          ...     -0.03521427 Eh    -22.10 kcal/mol
-----------------------------------------------------------------------
Final Gibbs free enthalpy         ...   -286.58481076 Eh

For completeness - the Gibbs free enthalpy minus the electronic energy
G-E(el)                           ...      0.09307703 Eh     58.41 kcal/mol

                             ****ORCA TERMINATED NORMALLY****
TOTAL RUN TIME: 0 days 0 hours 23 minutes 7 seconds 331 msec
