                         Program Version 3.0.3 - RELEASE   -
|  1> ! NORI PBE0 def2-TZVP UseSym TightOPT Freq TightSCF Grid3 FinalGrid5 XYZFile
|  2> % pal
|  3>     nprocs 8
|  4> end
|  5> %method
|  6>     SymThresh 5.0e-2
|  7> end
|  8> % geom
|  9>     MaxIter 10
| 10> end
| 11> % maxcore 2000
| 12> % output
| 13>     printlevel mini
| 14>     print[ P_Basis ] 0
| 15>     print[ P_SCFInfo ] 1
| 16>     print[ P_SCFIterInfo ] 1
| 17>     print[ P_OrbEn ] 0
| 18>     print[ P_Cartesian ] 0
| 19> end
| 20> % elprop
| 21>     Dipole false
| 22> end
| 23> *xyz 1 1
| 24>  C        0.5769711045     1.1911808214     0.6746117020
| 25>  C       -0.8475182975     0.7586080215     0.4423741794
| 26>  C       -0.8550440964     0.0064546685    -0.8609533060
| 27>  C        0.5651571810     0.0148238747    -1.3641918141
| 28>  N        1.2250848235     0.0185528077    -0.0116782405
| 29>  C        0.5908233761    -1.1621439500     0.6741572031
| 30>  C       -0.8386124546    -0.7462848941     0.4421549255
| 31>  H        0.8677461825     2.1133113270     0.1710142270
| 32>  H        0.8865958464     1.2161350086     1.7194455590
| 33>  H       -1.6839073296     1.3443007170     0.7913749560
| 34>  H       -1.6977297166     0.0012705149    -1.5351471978
| 35>  H        0.8548362238     0.9115948004    -1.9125037411
| 36>  H        0.8653343273    -0.8784147042    -1.9125928747
| 37>  H        2.2425446201     0.0242136125    -0.0211969067
| 38>  H        0.9006429541    -1.1836959483     1.7190161646
| 39>  H        0.8927735069    -2.0804360987     0.1701558730
| 40>  H       -1.6683282516    -1.3418405789     0.7903792912
| 41> *
| 42>
| 43>                          ****END OF INPUT****
 Total Charge           Charge          ....    1
 Multiplicity           Mult            ....    1
 Number of Electrons    NEL             ....   52
FINAL SINGLE POINT ENERGY      -288.900896849466
                    ***********************HURRAY********************
 Multiplicity           Mult            ....    1
 Number of Electrons    NEL             ....   52
 Basis Dimension        Dim             ....  277
FINAL SINGLE POINT ENERGY      -288.900896941895

VIBRATIONAL FREQUENCIES
-----------------------

   0:         0.00 cm**-1
   1:         0.00 cm**-1
   2:         0.00 cm**-1
   3:         0.00 cm**-1
   4:         0.00 cm**-1
   5:         0.00 cm**-1
   6:       440.47 cm**-1
   7:       444.50 cm**-1
   8:       444.53 cm**-1
   9:       662.86 cm**-1
  10:       662.87 cm**-1
  11:       813.83 cm**-1
  12:       834.35 cm**-1
  13:       834.45 cm**-1
  14:       898.41 cm**-1
  15:       898.41 cm**-1
  16:       908.49 cm**-1
  17:       966.35 cm**-1
  18:       966.42 cm**-1
  19:       996.10 cm**-1
  20:      1014.49 cm**-1
  21:      1024.20 cm**-1
  22:      1024.24 cm**-1
  23:      1077.32 cm**-1
  24:      1087.91 cm**-1
  25:      1112.02 cm**-1
  26:      1112.04 cm**-1
  27:      1165.83 cm**-1
  28:      1206.36 cm**-1
  29:      1206.38 cm**-1
  30:      1284.87 cm**-1
  31:      1284.91 cm**-1
  32:      1297.81 cm**-1
  33:      1297.83 cm**-1
  34:      1349.20 cm**-1
  35:      1390.73 cm**-1
  36:      1390.75 cm**-1
  37:      1427.17 cm**-1
  38:      1492.00 cm**-1
  39:      1492.06 cm**-1
  40:      1527.57 cm**-1
  41:      3104.01 cm**-1
  42:      3104.16 cm**-1
  43:      3108.91 cm**-1
  44:      3165.67 cm**-1
  45:      3170.31 cm**-1
  46:      3170.51 cm**-1
  47:      3255.07 cm**-1
  48:      3255.79 cm**-1
  49:      3264.20 cm**-1
  50:      3527.83 cm**-1

IR SPECTRUM
-----------

 Mode    freq (cm**-1)   T**2         TX         TY         TZ
-------------------------------------------------------------------
   6:       440.47    0.000141  ( -0.000004   0.000003   0.011883)
   7:       444.50    0.051217  (  0.000082   0.000003  -0.226312)
   8:       444.53    0.045769  (  0.213783   0.008146   0.000086)
   9:       662.86    0.348592  ( -0.002173  -0.000025   0.590413)
  10:       662.87    0.343724  ( -0.586236  -0.006768  -0.002194)
  11:       813.83    2.028359  (  0.004194  -1.424198  -0.000005)
  12:       834.35   21.277614  ( -0.001794  -0.000005   4.612766)
  13:       834.45   21.264461  (  4.611340   0.001224   0.001805)
  14:       898.41    4.117917  ( -0.002237   0.000002   2.029264)
  15:       898.41    4.131904  (  2.032706   0.002481   0.002238)
  16:       908.49    5.117890  ( -0.003370   2.262273   0.000001)
  17:       966.35    1.233662  ( -1.110676  -0.007645  -0.001157)
  18:       966.42    1.283038  (  0.001139   0.000002  -1.132712)
  19:       996.10    4.624939  (  0.003748  -2.150564   0.000004)
  20:      1014.49    0.000000  ( -0.000008  -0.000002  -0.000314)
  21:      1024.20    0.325150  (  0.000398   0.000005   0.570219)
  22:      1024.24    0.316187  ( -0.562304  -0.000982   0.000406)
  23:      1077.32    0.000008  ( -0.000008  -0.000015  -0.002778)
  24:      1087.91    0.964591  (  0.001005  -0.982135   0.000003)
  25:      1112.02    0.076115  ( -0.275873   0.003030  -0.000007)
  26:      1112.04    0.071137  ( -0.000009   0.000005   0.266715)
  27:      1165.83    0.000057  ( -0.000001   0.000003   0.007572)
  28:      1206.36    4.938417  ( -2.222253   0.002950  -0.000093)
  29:      1206.38    4.883558  (  0.000091  -0.000000  -2.209877)
  30:      1284.87    2.713456  (  1.647256  -0.000347   0.001400)
  31:      1284.91    2.690027  (  0.001419  -0.000002  -1.640129)
  32:      1297.81    5.168699  ( -2.273451  -0.007296  -0.008040)
  33:      1297.83    5.170351  (  0.008036   0.000023  -2.273826)
  34:      1349.20    0.010800  (  0.005654  -0.103769  -0.000009)
  35:      1390.73   41.212706  (  0.002143  -0.000002   6.419712)
  36:      1390.75   41.172088  ( -6.416545  -0.005386   0.002145)
  37:      1427.17    7.857330  ( -0.006739   2.803085   0.000006)
  38:      1492.00    8.163021  (  0.000127  -0.000002   2.857100)
  39:      1492.06    8.180499  (  2.860148  -0.007318  -0.000126)
  40:      1527.57    9.017921  ( -0.011382   3.002964   0.000000)
  41:      3104.01    2.160099  (  0.000002   0.000000   1.469728)
  42:      3104.16    2.163053  (  1.470056  -0.044589  -0.000002)
  43:      3108.91    3.176450  ( -0.037540  -1.781864  -0.000000)
  44:      3165.67    0.000000  (  0.000000   0.000000  -0.000543)
  45:      3170.31    0.055831  ( -0.235825   0.014745   0.000000)
  46:      3170.51    0.055066  ( -0.000000   0.000000  -0.234662)
  47:      3255.07    3.145525  ( -1.766205   0.161381   0.000097)
  48:      3255.79    3.112051  ( -0.000091  -0.000001  -1.764101)
  49:      3264.20   10.693939  (  0.091450   3.268880  -0.000006)
  50:      3527.83   85.763465  ( -0.002996  -9.260856  -0.000000)

--------------------------
THERMOCHEMISTRY AT 298.15K
--------------------------

Temperature         ... 298.15 K
Pressure            ... 1.00 atm
Total Mass          ... 96.15 AMU

Throughout the following assumptions are being made:
  (1) The electronic state is orbitally nondegenerate
  (2) There are no thermally accessible electronically excited states
  (3) Hindered rotations indicated by low frequency modes) are not
      treated as such but are treated as vibrations and this may
      case some error
  (4) All equations used are the standard statistical mechanics
      equations for an ideal gas
  (5) All vibrations are strinctly harmonic

------------
INNER ENERGY
------------

The inner energy is: U= E(el) + E(ZPE) + E(vib) + E(rot) + E(trans)
    E(el)   - is the total energy from the electronic structure calculation
              = E(kin-el) + E(nuc-el) + E(el-el) + E(nuc-nuc)
    E(ZPE)  - the the zero temperature vibrational energy from the frequency calculation
    E(vib)  - the the finite temperature correction to E(ZPE) due to population
              of excietd vibrational states
    E(rot)  - is the rotational thermal energy
    E(trans)- is the translational thermal energy

Summary of contributions to the inner energy U:
Electronic energy                ...   -288.90089694 Eh
Zero point energy                ...      0.15756770 Eh      98.88 kcal/mol
Thermal vibrational correction   ...      0.00190800 Eh       1.20 kcal/mol
Thermal rotational correction    ...      0.00141627 Eh       0.89 kcal/mol
Thermal translational correction ...      0.00141627 Eh       0.89 kcal/mol
-----------------------------------------------------------------------
Total thermal energy                   -288.73858870 Eh

Summary of corrections to the electronic energy:
(perhaps to be used in another calculation)
Total thermal correction                  0.00474054 Eh       2.97 kcal/mol
Non-thermal (ZPE) correction              0.15756770 Eh      98.88 kcal/mol
-----------------------------------------------------------------------
Total correction                          0.16230824 Eh     101.85 kcal/mol

--------
ENTHALPY
--------

The enthalpy is H = U + kB*T
                kB is Boltzmann's constant
Total free energy                 ...   -288.73858870 Eh
Thermal Enthalpy correction       ...      0.00094421 Eh       0.59 kcal/mol
-----------------------------------------------------------------------
Total Enthalpy                    ...   -288.73764449 Eh

-------
ENTROPY
-------

The entropy contributions are T*S = T*(S(el)+S(vib)+S(rot)+S(trans)
     S(el)   - electronic entropy
     S(vib)  - vibrational entropy
     S(rot)  - rotational entropy
     S(trans)- translational entropy
The entropies will be listed as mutliplied by the temperature to get
units of energy

Electronic entropy                ...      0.00000000 Eh      0.00 kcal/mol
Vibrational entropy               ...      0.00251972 Eh      1.58 kcal/mol
Rotational entropy                ...      0.01142901 Eh      7.17 kcal/mol
Translational entropy             ...      0.01881568 Eh     11.81 kcal/mol
-----------------------------------------------------------------------
Final entropy term                ...      0.03276441 Eh     20.56 kcal/mol

CAUTION: The rotational entropy is not quite correctly treated here
         because it includes a symmetry number that is not yet correctly
         implemented in ORCA!
For a nonlinear molecule the correct rotational entropy is:
    S(rot) = R*(ln(qrot/sn)+1.5)
    R    = 8.31441 J/mol/K = 1.987191683e-3 kcal/mol/K
    qrot = 120969.2832690
    sn is the rotational symmetry number. We have assumed 3 here
       if it is different for your molecule then you should correct
       the printed rotational entropy by manually evaluating the equation
       as given above

For convenience we print out the resulting values for sn=1 - 12:
 sn= 1  qrot/sn=  120969.2833 T*S(rot)=     7.82 kcal/mol T*S(tot)=    21.21 kcal/mol
 sn= 2  qrot/sn=   60484.6416 T*S(rot)=     7.41 kcal/mol T*S(tot)=    20.80 kcal/mol
 sn= 3  qrot/sn=   40323.0944 T*S(rot)=     7.17 kcal/mol T*S(tot)=    20.56 kcal/mol
 sn= 4  qrot/sn=   30242.3208 T*S(rot)=     7.00 kcal/mol T*S(tot)=    20.39 kcal/mol
 sn= 5  qrot/sn=   24193.8567 T*S(rot)=     6.87 kcal/mol T*S(tot)=    20.26 kcal/mol
 sn= 6  qrot/sn=   20161.5472 T*S(rot)=     6.76 kcal/mol T*S(tot)=    20.15 kcal/mol
 sn= 7  qrot/sn=   17281.3262 T*S(rot)=     6.67 kcal/mol T*S(tot)=    20.06 kcal/mol
 sn= 8  qrot/sn=   15121.1604 T*S(rot)=     6.59 kcal/mol T*S(tot)=    19.98 kcal/mol
 sn= 9  qrot/sn=   13441.0315 T*S(rot)=     6.52 kcal/mol T*S(tot)=    19.91 kcal/mol
 sn=10  qrot/sn=   12096.9283 T*S(rot)=     6.46 kcal/mol T*S(tot)=    19.85 kcal/mol
 sn=11  qrot/sn=   10997.2076 T*S(rot)=     6.40 kcal/mol T*S(tot)=    19.79 kcal/mol
 sn=12  qrot/sn=   10080.7736 T*S(rot)=     6.35 kcal/mol T*S(tot)=    19.74 kcal/mol

-------------------
GIBBS FREE ENTHALPY
-------------------

The Gibbs free enthalpy is G = H - T*S

Total enthalpy                    ...   -288.73764449 Eh
Total entropy correction          ...     -0.03276441 Eh    -20.56 kcal/mol
-----------------------------------------------------------------------
Final Gibbs free enthalpy         ...   -288.77040890 Eh

For completeness - the Gibbs free enthalpy minus the electronic energy
G-E(el)                           ...      0.13048804 Eh     81.88 kcal/mol

                             ****ORCA TERMINATED NORMALLY****
TOTAL RUN TIME: 0 days 0 hours 42 minutes 18 seconds 564 msec
