                         Program Version 3.0.3 - RELEASE   -
|  1> ! NORI PBE0 def2-TZVP UseSym TightOPT Freq TightSCF Grid3 FinalGrid5 XYZFile
|  2> % pal
|  3>     nprocs 8
|  4> end
|  5> %method
|  6>     SymThresh 5.0e-2
|  7> end
|  8> % geom
|  9>     MaxIter 10
| 10> end
| 11> % maxcore 2000
| 12> % output
| 13>     printlevel mini
| 14>     print[ P_Basis ] 0
| 15>     print[ P_SCFInfo ] 1
| 16>     print[ P_SCFIterInfo ] 1
| 17>     print[ P_OrbEn ] 0
| 18>     print[ P_Cartesian ] 0
| 19> end
| 20> % elprop
| 21>     Dipole false
| 22> end
| 23> *xyz 1 1
| 24>  C        1.7014249521     0.0193533051    -0.6634750637
| 25>  C        0.8339731865     0.7930805946     0.2803798552
| 26>  C        0.8130354020    -0.7091872798     0.2860096064
| 27>  N       -0.6211773029    -0.9487317118    -0.0915917375
| 28>  C       -0.9268702428     0.0405285291    -1.1916399227
| 29>  C       -0.6292537623     1.0709309460    -0.0955003410
| 30>  C       -1.3317903314     0.0450567298     0.8318659154
| 31>  H        1.5499333003     0.0176232964    -1.7342699049
| 32>  H        2.7482477018    -0.0344315656    -0.3858857413
| 33>  H        1.2715884373     1.3588048655     1.0919013636
| 34>  H        1.1675556120    -1.3550796191     1.0770140856
| 35>  H       -0.9192299788    -1.9204104804    -0.1664630317
| 36>  H       -1.9819941436    -0.0283112529    -1.4461241831
| 37>  H       -0.3084646138    -0.0514455229    -2.0780810363
| 38>  H       -0.9645892482     2.0989562245    -0.1769468885
| 39>  H       -1.0156154505    -0.0364700171     1.8702354068
| 40>  H       -2.4123535178    -0.0357670413     0.7155416177
| 41> *
| 42>
| 43>                          ****END OF INPUT****
 Total Charge           Charge          ....    1
 Multiplicity           Mult            ....    1
 Number of Electrons    NEL             ....   52
FINAL SINGLE POINT ENERGY      -288.838198177719

CARTESIAN COORDINATES (ANGSTROEM)
---------------------------------
  C      1.599558    0.000174   -0.897066
  C      0.197692    0.479974   -1.112490
  C      0.901838    0.747732    0.187349
  N      0.000129   -0.000234    1.128022
  C     -0.332676   -1.299447    0.432476
  C     -0.976944   -0.367466   -0.600827
  C     -1.374593    0.469510    0.643082
  H      1.857839   -1.046634   -0.821227
  H      2.366550    0.588730   -1.387401
  H     -0.010442    1.271231   -1.820025
  H      1.216880    1.711545    0.561967
  H      0.255181    0.012492    2.114559
  H     -1.056561   -1.846264    1.032639
  H      0.520174   -1.924218    0.191039
  H     -1.711787   -0.729767   -1.310994
  H     -1.448550    1.551609    0.554187
  H     -2.161074    0.045980    1.266651

FINAL SINGLE POINT ENERGY      -288.838199202039
                    ***********************HURRAY********************
 Multiplicity           Mult            ....    1
 Number of Electrons    NEL             ....   52
 Basis Dimension        Dim             ....  277
FINAL SINGLE POINT ENERGY      -288.838199414126

VIBRATIONAL FREQUENCIES
-----------------------

   0:         0.00 cm**-1
   1:         0.00 cm**-1
   2:         0.00 cm**-1
   3:         0.00 cm**-1
   4:         0.00 cm**-1
   5:         0.00 cm**-1
   6:       338.21 cm**-1
   7:       430.34 cm**-1
   8:       550.50 cm**-1
   9:       576.90 cm**-1
  10:       657.04 cm**-1
  11:       761.29 cm**-1
  12:       804.43 cm**-1
  13:       817.72 cm**-1
  14:       832.56 cm**-1
  15:       864.77 cm**-1
  16:       889.54 cm**-1
  17:       924.96 cm**-1
  18:       969.67 cm**-1
  19:       994.11 cm**-1
  20:      1006.58 cm**-1
  21:      1048.73 cm**-1
  22:      1050.05 cm**-1
  23:      1081.44 cm**-1
  24:      1092.17 cm**-1
  25:      1099.53 cm**-1
  26:      1117.39 cm**-1
  27:      1134.59 cm**-1
  28:      1162.04 cm**-1
  29:      1182.05 cm**-1
  30:      1205.06 cm**-1
  31:      1239.07 cm**-1
  32:      1273.40 cm**-1
  33:      1293.72 cm**-1
  34:      1298.02 cm**-1
  35:      1326.42 cm**-1
  36:      1353.86 cm**-1
  37:      1398.66 cm**-1
  38:      1474.99 cm**-1
  39:      1505.00 cm**-1
  40:      1544.91 cm**-1
  41:      3114.16 cm**-1
  42:      3142.15 cm**-1
  43:      3172.52 cm**-1
  44:      3197.80 cm**-1
  45:      3207.81 cm**-1
  46:      3218.51 cm**-1
  47:      3223.12 cm**-1
  48:      3234.60 cm**-1
  49:      3255.00 cm**-1
  50:      3504.12 cm**-1

IR SPECTRUM
-----------

 Mode    freq (cm**-1)   T**2         TX         TY         TZ
-------------------------------------------------------------------
   6:       338.21    0.554385  ( -0.718430   0.103056  -0.166202)
   7:       430.34    0.522305  (  0.526699  -0.491029  -0.061519)
   8:       550.50    0.368136  ( -0.005874   0.595941  -0.113821)
   9:       576.90    1.234748  (  1.011514   0.170536  -0.427206)
  10:       657.04    4.985700  (  1.414362   0.339874   1.694038)
  11:       761.29   14.558280  (  1.009765   0.565995   3.635699)
  12:       804.43    2.112569  (  1.420497  -0.304948  -0.041997)
  13:       817.72    9.610447  ( -2.789071   1.173433   0.674231)
  14:       832.56    0.964430  ( -0.590976  -0.667896   0.411210)
  15:       864.77    1.401779  ( -0.962710   0.633545   0.271271)
  16:       889.54    2.193801  ( -0.559494  -1.370888   0.037860)
  17:       924.96    1.674205  ( -0.819398   0.762742  -0.648858)
  18:       969.67    4.740487  ( -1.579287  -1.009399  -1.107905)
  19:       994.11    2.723324  (  1.467345  -0.118695   0.745744)
  20:      1006.58    7.182980  ( -0.873432  -1.151746  -2.256896)
  21:      1048.73    1.240826  (  1.072856   0.235094   0.185841)
  22:      1050.05    0.269090  (  0.484185  -0.091205   0.162285)
  23:      1081.44    1.265544  ( -1.041536  -0.193860  -0.378370)
  24:      1092.17    6.479002  ( -1.043866  -0.393206  -2.287954)
  25:      1099.53    5.464170  (  0.404136   1.383093  -1.840624)
  26:      1117.39    4.445212  (  1.787453   1.090517   0.246974)
  27:      1134.59    3.251368  ( -1.445981   0.008158  -1.077237)
  28:      1162.04    5.504261  ( -0.989018   1.351505   1.643027)
  29:      1182.05    2.589697  (  0.139251  -1.563155  -0.356164)
  30:      1205.06    1.915188  (  0.797449  -1.131020  -0.007668)
  31:      1239.07   21.446500  (  2.535145  -3.797032  -0.775944)
  32:      1273.40   14.908482  (  2.077083   1.835536  -2.687939)
  33:      1293.72    2.598754  (  1.113224   0.236333   1.141767)
  34:      1298.02   24.428742  ( -3.639913   3.112124   1.222481)
  35:      1326.42   14.050405  (  0.532652   3.418178  -1.443173)
  36:      1353.86   21.071750  (  3.524485   1.605971   2.463862)
  37:      1398.66   11.481306  (  2.470094   2.304639  -0.261878)
  38:      1474.99    2.869574  (  1.239686   0.484423  -1.047896)
  39:      1505.00   19.946363  ( -2.707626   3.076294   1.775256)
  40:      1544.91   11.503401  (  0.335032  -2.816232   1.860106)
  41:      3114.16    3.034058  (  1.426366  -0.556518  -0.830558)
  42:      3142.15    0.508078  ( -0.330415   0.627185  -0.074449)
  43:      3172.52    1.730382  (  0.760943   0.578357  -0.903799)
  44:      3197.80    0.845938  (  0.294431   0.799798  -0.345791)
  45:      3207.81    0.070350  ( -0.071463  -0.190925  -0.169679)
  46:      3218.51    1.323381  (  0.162347  -1.129296   0.147362)
  47:      3223.12    0.736682  ( -0.047133   0.374935  -0.770639)
  48:      3234.60    2.419541  (  0.444196   1.490704   0.005723)
  49:      3255.00    1.474152  ( -1.022636  -0.376043   0.535686)
  50:      3504.12   69.098043  ( -2.209046  -0.151884  -8.012184)

--------------------------
THERMOCHEMISTRY AT 298.15K
--------------------------

Temperature         ... 298.15 K
Pressure            ... 1.00 atm
Total Mass          ... 96.15 AMU

Throughout the following assumptions are being made:
  (1) The electronic state is orbitally nondegenerate
  (2) There are no thermally accessible electronically excited states
  (3) Hindered rotations indicated by low frequency modes) are not
      treated as such but are treated as vibrations and this may
      case some error
  (4) All equations used are the standard statistical mechanics
      equations for an ideal gas
  (5) All vibrations are strinctly harmonic

------------
INNER ENERGY
------------

The inner energy is: U= E(el) + E(ZPE) + E(vib) + E(rot) + E(trans)
    E(el)   - is the total energy from the electronic structure calculation
              = E(kin-el) + E(nuc-el) + E(el-el) + E(nuc-nuc)
    E(ZPE)  - the the zero temperature vibrational energy from the frequency calculation
    E(vib)  - the the finite temperature correction to E(ZPE) due to population
              of excietd vibrational states
    E(rot)  - is the rotational thermal energy
    E(trans)- is the translational thermal energy

Summary of contributions to the inner energy U:
Electronic energy                ...   -288.83819941 Eh
Zero point energy                ...      0.15621293 Eh      98.02 kcal/mol
Thermal vibrational correction   ...      0.00206944 Eh       1.30 kcal/mol
Thermal rotational correction    ...      0.00141627 Eh       0.89 kcal/mol
Thermal translational correction ...      0.00141627 Eh       0.89 kcal/mol
-----------------------------------------------------------------------
Total thermal energy                   -288.67708450 Eh

Summary of corrections to the electronic energy:
(perhaps to be used in another calculation)
Total thermal correction                  0.00490198 Eh       3.08 kcal/mol
Non-thermal (ZPE) correction              0.15621293 Eh      98.02 kcal/mol
-----------------------------------------------------------------------
Total correction                          0.16111491 Eh     101.10 kcal/mol

--------
ENTHALPY
--------

The enthalpy is H = U + kB*T
                kB is Boltzmann's constant
Total free energy                 ...   -288.67708450 Eh
Thermal Enthalpy correction       ...      0.00094421 Eh       0.59 kcal/mol
-----------------------------------------------------------------------
Total Enthalpy                    ...   -288.67614029 Eh

-------
ENTROPY
-------

The entropy contributions are T*S = T*(S(el)+S(vib)+S(rot)+S(trans)
     S(el)   - electronic entropy
     S(vib)  - vibrational entropy
     S(rot)  - rotational entropy
     S(trans)- translational entropy
The entropies will be listed as mutliplied by the temperature to get
units of energy

Electronic entropy                ...      0.00000000 Eh      0.00 kcal/mol
Vibrational entropy               ...      0.00277128 Eh      1.74 kcal/mol
Rotational entropy                ...      0.01148509 Eh      7.21 kcal/mol
Translational entropy             ...      0.01881568 Eh     11.81 kcal/mol
-----------------------------------------------------------------------
Final entropy term                ...      0.03307205 Eh     20.75 kcal/mol

CAUTION: The rotational entropy is not quite correctly treated here
         because it includes a symmetry number that is not yet correctly
         implemented in ORCA!
For a nonlinear molecule the correct rotational entropy is:
    S(rot) = R*(ln(qrot/sn)+1.5)
    R    = 8.31441 J/mol/K = 1.987191683e-3 kcal/mol/K
    qrot = 128372.7771464
    sn is the rotational symmetry number. We have assumed 3 here
       if it is different for your molecule then you should correct
       the printed rotational entropy by manually evaluating the equation
       as given above

For convenience we print out the resulting values for sn=1 - 12:
 sn= 1  qrot/sn=  128372.7771 T*S(rot)=     7.86 kcal/mol T*S(tot)=    21.40 kcal/mol
 sn= 2  qrot/sn=   64186.3886 T*S(rot)=     7.45 kcal/mol T*S(tot)=    20.99 kcal/mol
 sn= 3  qrot/sn=   42790.9257 T*S(rot)=     7.21 kcal/mol T*S(tot)=    20.75 kcal/mol
 sn= 4  qrot/sn=   32093.1943 T*S(rot)=     7.04 kcal/mol T*S(tot)=    20.58 kcal/mol
 sn= 5  qrot/sn=   25674.5554 T*S(rot)=     6.90 kcal/mol T*S(tot)=    20.45 kcal/mol
 sn= 6  qrot/sn=   21395.4629 T*S(rot)=     6.80 kcal/mol T*S(tot)=    20.34 kcal/mol
 sn= 7  qrot/sn=   18338.9682 T*S(rot)=     6.70 kcal/mol T*S(tot)=    20.25 kcal/mol
 sn= 8  qrot/sn=   16046.5971 T*S(rot)=     6.63 kcal/mol T*S(tot)=    20.17 kcal/mol
 sn= 9  qrot/sn=   14263.6419 T*S(rot)=     6.56 kcal/mol T*S(tot)=    20.10 kcal/mol
 sn=10  qrot/sn=   12837.2777 T*S(rot)=     6.49 kcal/mol T*S(tot)=    20.04 kcal/mol
 sn=11  qrot/sn=   11670.2525 T*S(rot)=     6.44 kcal/mol T*S(tot)=    19.98 kcal/mol
 sn=12  qrot/sn=   10697.7314 T*S(rot)=     6.39 kcal/mol T*S(tot)=    19.93 kcal/mol

-------------------
GIBBS FREE ENTHALPY
-------------------

The Gibbs free enthalpy is G = H - T*S

Total enthalpy                    ...   -288.67614029 Eh
Total entropy correction          ...     -0.03307205 Eh    -20.75 kcal/mol
-----------------------------------------------------------------------
Final Gibbs free enthalpy         ...   -288.70921235 Eh

For completeness - the Gibbs free enthalpy minus the electronic energy
G-E(el)                           ...      0.12898707 Eh     80.94 kcal/mol

                             ****ORCA TERMINATED NORMALLY****
TOTAL RUN TIME: 0 days 0 hours 43 minutes 5 seconds 994 msec
