                         Program Version 3.0.3 - RELEASE   -
|  1> ! NORI PBE0 def2-TZVP UseSym TightOPT Freq TightSCF Grid3 FinalGrid5 XYZFile
|  2> % pal
|  3>     nprocs 8
|  4> end
|  5> %method
|  6>     SymThresh 5.0e-2
|  7> end
|  8> % geom
|  9>     MaxIter 10
| 10> end
| 11> % maxcore 2000
| 12> % output
| 13>     printlevel mini
| 14>     print[ P_Basis ] 0
| 15>     print[ P_SCFInfo ] 1
| 16>     print[ P_SCFIterInfo ] 1
| 17>     print[ P_OrbEn ] 0
| 18>     print[ P_Cartesian ] 0
| 19> end
| 20> % elprop
| 21>     Dipole false
| 22> end
| 23> *xyz 1 1
| 24>  C       -0.8659639806     0.0002853541    -1.2294359935
| 25>  C       -0.6000266850     1.0276963825    -0.1136231214
| 26>  C       -1.3245327412    -0.0004104906     0.8138032613
| 27>  C       -0.5997967726    -1.0277709360    -0.1142719839
| 28>  C        0.8327202771    -0.7352428874     0.3304374148
| 29>  N        1.6902415187     0.0003874539    -0.6513433347
| 30>  C        0.8325565507     0.7352064343     0.3308993593
| 31>  H       -1.9186268046     0.0002547704    -1.5039991634
| 32>  H       -0.2918079415     0.0006472262    -2.1616931075
| 33>  H       -0.8909751665     2.0714733485    -0.1911329301
| 34>  H       -1.0718589064    -0.0007165710     1.8756872333
| 35>  H       -2.4050388877    -0.0004893986     0.6769347665
| 36>  H       -0.8905146315    -2.0715636864    -0.1924385488
| 37>  H        1.3784593044    -1.3625683439     1.0225030759
| 38>  H        1.4329852917     0.0006665728    -1.6332994596
| 39>  H        2.6906722182     0.0004465533    -0.4809961728
| 40>  H        1.3781573568     1.3622182179     1.0233587046
| 41> *
| 42>
| 43>                          ****END OF INPUT****
 Total Charge           Charge          ....    1
 Multiplicity           Mult            ....    1
 Number of Electrons    NEL             ....   52
FINAL SINGLE POINT ENERGY      -288.846354311740

CARTESIAN COORDINATES (ANGSTROEM)
---------------------------------
  C     -0.500094    1.341089   -0.000000
  C     -0.592191    0.197970    1.027636
  C     -1.568517   -0.459887    0.000000
  C     -0.592191    0.197970   -1.027636
  C      0.632341   -0.668230   -0.735172
  N      1.751758   -0.000079    0.000000
  C      0.632341   -0.668230    0.735172
  H     -1.416348    1.927820    0.000000
  H      0.334311    2.049431    0.000000
  H     -0.844546    0.362130    2.071300
  H     -1.657080   -1.547485    0.000000
  H     -2.553139    0.004544    0.000000
  H     -0.844546    0.362130   -2.071300
  H      0.936775   -1.495299   -1.362214
  H      1.811306    1.013007    0.000000
  H      2.649785   -0.471749   -0.000000
  H      0.936775   -1.495299    1.362214

FINAL SINGLE POINT ENERGY      -288.846355163398
                    ***********************HURRAY********************
 Multiplicity           Mult            ....    1
 Number of Electrons    NEL             ....   52
 Basis Dimension        Dim             ....  277
FINAL SINGLE POINT ENERGY      -288.846355258319

VIBRATIONAL FREQUENCIES
-----------------------

   0:         0.00 cm**-1
   1:         0.00 cm**-1
   2:         0.00 cm**-1
   3:         0.00 cm**-1
   4:         0.00 cm**-1
   5:         0.00 cm**-1
   6:       346.02 cm**-1
   7:       398.25 cm**-1
   8:       531.12 cm**-1
   9:       581.62 cm**-1
  10:       665.71 cm**-1
  11:       750.98 cm**-1
  12:       807.62 cm**-1
  13:       829.73 cm**-1
  14:       859.91 cm**-1
  15:       866.85 cm**-1
  16:       901.84 cm**-1
  17:       904.73 cm**-1
  18:       935.06 cm**-1
  19:       955.08 cm**-1
  20:       989.90 cm**-1
  21:      1013.73 cm**-1
  22:      1032.75 cm**-1
  23:      1035.42 cm**-1
  24:      1063.58 cm**-1
  25:      1087.85 cm**-1
  26:      1098.19 cm**-1
  27:      1108.71 cm**-1
  28:      1140.28 cm**-1
  29:      1155.69 cm**-1
  30:      1229.23 cm**-1
  31:      1229.54 cm**-1
  32:      1252.79 cm**-1
  33:      1259.06 cm**-1
  34:      1287.24 cm**-1
  35:      1312.40 cm**-1
  36:      1349.33 cm**-1
  37:      1382.44 cm**-1
  38:      1494.24 cm**-1
  39:      1536.76 cm**-1
  40:      1611.30 cm**-1
  41:      3062.01 cm**-1
  42:      3097.74 cm**-1
  43:      3161.30 cm**-1
  44:      3174.60 cm**-1
  45:      3179.67 cm**-1
  46:      3180.34 cm**-1
  47:      3232.74 cm**-1
  48:      3240.74 cm**-1
  49:      3499.71 cm**-1
  50:      3606.73 cm**-1

IR SPECTRUM
-----------

 Mode    freq (cm**-1)   T**2         TX         TY         TZ
-------------------------------------------------------------------
   6:       346.02    2.200880  ( -0.000000   0.000000   1.483536)
   7:       398.25    5.802846  ( -1.192802   2.092862  -0.000000)
   8:       531.12    2.643398  ( -1.518140   0.581936   0.000000)
   9:       581.62    0.076806  ( -0.174425  -0.215363   0.000000)
  10:       665.71    1.452899  (  0.000000   0.000000   1.205363)
  11:       750.98    4.539130  (  0.000000   0.000000  -2.130523)
  12:       807.62    0.118988  (  0.019647  -0.344387  -0.000000)
  13:       829.73   32.506692  ( -5.638723  -0.843500   0.000001)
  14:       859.91    0.084323  ( -0.000031  -0.000014  -0.290384)
  15:       866.85    1.813900  ( -1.126515  -0.738148   0.000002)
  16:       901.84    3.436702  (  0.000000  -0.000002   1.853835)
  17:       904.73    0.363786  (  0.000000  -0.000003   0.603147)
  18:       935.06    7.453742  ( -1.236557  -2.434064   0.000001)
  19:       955.08    4.352113  ( -2.041543   0.429204  -0.000001)
  20:       989.90    5.792831  (  1.751999  -1.650252  -0.000005)
  21:      1013.73   28.102810  ( -0.000000   0.000000  -5.301208)
  22:      1032.75   53.634515  (  0.000000  -0.000000  -7.323559)
  23:      1035.42    0.713862  ( -0.811006   0.236921  -0.000003)
  24:      1063.58    4.371282  (  0.000000  -0.000000   2.090761)
  25:      1087.85   12.362976  ( -3.174065   1.512708  -0.000000)
  26:      1098.19    0.501129  ( -0.530021   0.469262   0.000002)
  27:      1108.71    0.496186  ( -0.000001  -0.000002   0.704405)
  28:      1140.28    0.140238  (  0.000001   0.000001   0.374483)
  29:      1155.69    4.792736  (  0.000001   0.000001   2.189232)
  30:      1229.23    0.309760  (  0.000097   0.000213   0.556561)
  31:      1229.54   11.050722  (  1.363581   3.031727  -0.000040)
  32:      1252.79    6.294939  ( -0.000000   0.000001   2.508972)
  33:      1259.06    4.922442  (  1.831219   1.252628   0.000000)
  34:      1287.24    0.003839  (  0.000002  -0.000004   0.061962)
  35:      1312.40    9.826784  ( -2.031076   2.387784  -0.000001)
  36:      1349.33   27.635390  ( -0.000000  -0.000000  -5.256937)
  37:      1382.44    0.183253  (  0.016056  -0.427779  -0.000001)
  38:      1494.24    3.011920  (  0.627258   1.618168  -0.000001)
  39:      1536.76   22.052273  ( -4.681024   0.374545   0.000000)
  40:      1611.30   82.164863  ( -7.731445  -4.731767  -0.000000)
  41:      3062.01   31.686428  ( -4.458245  -3.436638   0.000000)
  42:      3097.74    9.094446  (  1.664996   2.514405  -0.000000)
  43:      3161.30    2.015044  (  0.756755   1.200985   0.000000)
  44:      3174.60    2.534847  (  0.462732  -1.523393  -0.000006)
  45:      3179.67    5.513644  ( -0.000003   0.000001   2.348115)
  46:      3180.34    0.422040  (  0.453610  -0.465058   0.000023)
  47:      3232.74    1.909454  ( -0.000000   0.000000   1.381830)
  48:      3240.74    3.628377  ( -0.151579   1.898789  -0.000000)
  49:      3499.71   68.210826  (  7.049321   4.303243  -0.000000)
  50:      3606.73  136.267687  ( -8.346573   8.161030   0.000000)

--------------------------
THERMOCHEMISTRY AT 298.15K
--------------------------

Temperature         ... 298.15 K
Pressure            ... 1.00 atm
Total Mass          ... 96.15 AMU

Throughout the following assumptions are being made:
  (1) The electronic state is orbitally nondegenerate
  (2) There are no thermally accessible electronically excited states
  (3) Hindered rotations indicated by low frequency modes) are not
      treated as such but are treated as vibrations and this may
      case some error
  (4) All equations used are the standard statistical mechanics
      equations for an ideal gas
  (5) All vibrations are strinctly harmonic

------------
INNER ENERGY
------------

The inner energy is: U= E(el) + E(ZPE) + E(vib) + E(rot) + E(trans)
    E(el)   - is the total energy from the electronic structure calculation
              = E(kin-el) + E(nuc-el) + E(el-el) + E(nuc-nuc)
    E(ZPE)  - the the zero temperature vibrational energy from the frequency calculation
    E(vib)  - the the finite temperature correction to E(ZPE) due to population
              of excietd vibrational states
    E(rot)  - is the rotational thermal energy
    E(trans)- is the translational thermal energy

Summary of contributions to the inner energy U:
Electronic energy                ...   -288.84635526 Eh
Zero point energy                ...      0.15591898 Eh      97.84 kcal/mol
Thermal vibrational correction   ...      0.00213023 Eh       1.34 kcal/mol
Thermal rotational correction    ...      0.00141627 Eh       0.89 kcal/mol
Thermal translational correction ...      0.00141627 Eh       0.89 kcal/mol
-----------------------------------------------------------------------
Total thermal energy                   -288.68547350 Eh

Summary of corrections to the electronic energy:
(perhaps to be used in another calculation)
Total thermal correction                  0.00496278 Eh       3.11 kcal/mol
Non-thermal (ZPE) correction              0.15591898 Eh      97.84 kcal/mol
-----------------------------------------------------------------------
Total correction                          0.16088175 Eh     100.95 kcal/mol

--------
ENTHALPY
--------

The enthalpy is H = U + kB*T
                kB is Boltzmann's constant
Total free energy                 ...   -288.68547350 Eh
Thermal Enthalpy correction       ...      0.00094421 Eh       0.59 kcal/mol
-----------------------------------------------------------------------
Total Enthalpy                    ...   -288.68452929 Eh

-------
ENTROPY
-------

The entropy contributions are T*S = T*(S(el)+S(vib)+S(rot)+S(trans)
     S(el)   - electronic entropy
     S(vib)  - vibrational entropy
     S(rot)  - rotational entropy
     S(trans)- translational entropy
The entropies will be listed as mutliplied by the temperature to get
units of energy

Electronic entropy                ...      0.00000000 Eh      0.00 kcal/mol
Vibrational entropy               ...      0.00285837 Eh      1.79 kcal/mol
Rotational entropy                ...      0.01150458 Eh      7.22 kcal/mol
Translational entropy             ...      0.01881568 Eh     11.81 kcal/mol
-----------------------------------------------------------------------
Final entropy term                ...      0.03317863 Eh     20.82 kcal/mol

CAUTION: The rotational entropy is not quite correctly treated here
         because it includes a symmetry number that is not yet correctly
         implemented in ORCA!
For a nonlinear molecule the correct rotational entropy is:
    S(rot) = R*(ln(qrot/sn)+1.5)
    R    = 8.31441 J/mol/K = 1.987191683e-3 kcal/mol/K
    qrot = 131049.2122031
    sn is the rotational symmetry number. We have assumed 3 here
       if it is different for your molecule then you should correct
       the printed rotational entropy by manually evaluating the equation
       as given above

For convenience we print out the resulting values for sn=1 - 12:
 sn= 1  qrot/sn=  131049.2122 T*S(rot)=     7.87 kcal/mol T*S(tot)=    21.47 kcal/mol
 sn= 2  qrot/sn=   65524.6061 T*S(rot)=     7.46 kcal/mol T*S(tot)=    21.06 kcal/mol
 sn= 3  qrot/sn=   43683.0707 T*S(rot)=     7.22 kcal/mol T*S(tot)=    20.82 kcal/mol
 sn= 4  qrot/sn=   32762.3031 T*S(rot)=     7.05 kcal/mol T*S(tot)=    20.65 kcal/mol
 sn= 5  qrot/sn=   26209.8424 T*S(rot)=     6.92 kcal/mol T*S(tot)=    20.52 kcal/mol
 sn= 6  qrot/sn=   21841.5354 T*S(rot)=     6.81 kcal/mol T*S(tot)=    20.41 kcal/mol
 sn= 7  qrot/sn=   18721.3160 T*S(rot)=     6.72 kcal/mol T*S(tot)=    20.32 kcal/mol
 sn= 8  qrot/sn=   16381.1515 T*S(rot)=     6.64 kcal/mol T*S(tot)=    20.24 kcal/mol
 sn= 9  qrot/sn=   14561.0236 T*S(rot)=     6.57 kcal/mol T*S(tot)=    20.17 kcal/mol
 sn=10  qrot/sn=   13104.9212 T*S(rot)=     6.51 kcal/mol T*S(tot)=    20.11 kcal/mol
 sn=11  qrot/sn=   11913.5647 T*S(rot)=     6.45 kcal/mol T*S(tot)=    20.05 kcal/mol
 sn=12  qrot/sn=   10920.7677 T*S(rot)=     6.40 kcal/mol T*S(tot)=    20.00 kcal/mol

-------------------
GIBBS FREE ENTHALPY
-------------------

The Gibbs free enthalpy is G = H - T*S

Total enthalpy                    ...   -288.68452929 Eh
Total entropy correction          ...     -0.03317863 Eh    -20.82 kcal/mol
-----------------------------------------------------------------------
Final Gibbs free enthalpy         ...   -288.71770793 Eh

For completeness - the Gibbs free enthalpy minus the electronic energy
G-E(el)                           ...      0.12864733 Eh     80.73 kcal/mol

                             ****ORCA TERMINATED NORMALLY****
TOTAL RUN TIME: 0 days 0 hours 48 minutes 41 seconds 370 msec
