                         Program Version 3.0.3 - RELEASE   -
|  1> ! NORI PBE0 def2-TZVP UseSym TightOPT Freq TightSCF Grid3 FinalGrid5 XYZFile
|  2> % pal
|  3>     nprocs 8
|  4> end
|  5> %method
|  6>     SymThresh 5.0e-2
|  7> end
|  8> % geom
|  9>     MaxIter 10
| 10> end
| 11> % maxcore 2000
| 12> % output
| 13>     printlevel mini
| 14>     print[ P_Basis ] 0
| 15>     print[ P_SCFInfo ] 1
| 16>     print[ P_SCFIterInfo ] 1
| 17>     print[ P_OrbEn ] 0
| 18>     print[ P_Cartesian ] 0
| 19> end
| 20> % elprop
| 21>     Dipole false
| 22> end
| 23> *xyz 1 1
| 24>  C        1.7786645339     0.1601388277    -0.4340037471
| 25>  C        0.7729191426     0.9266295415     0.3227139024
| 26>  C       -0.6536381782     1.0812256772    -0.1906954366
| 27>  C       -1.3787204393     0.0978090475     0.7805190819
| 28>  C       -0.5692307328    -0.9439348966    -0.0236671445
| 29>  C       -0.7968734251    -0.0422163795    -1.2373755848
| 30>  N        0.8235421106    -0.5671211719     0.4320180428
| 31>  H        2.7908474436     0.1422581499    -0.0468176843
| 32>  H        1.6883106945    -0.0219999086    -1.4945886796
| 33>  H        1.0879078414     1.4852885056     1.1962586184
| 34>  H       -0.9948981788     2.0975554817    -0.3637942792
| 35>  H       -2.4480952748     0.0275703349     0.5899907686
| 36>  H       -1.1855564633     0.1819032267     1.8521608283
| 37>  H       -0.7205462191    -2.0202375067    -0.0077852685
| 38>  H       -0.1440129992    -0.0972723543    -2.1063862745
| 39>  H       -1.8290964242    -0.1336303800    -1.5682433841
| 40>  H        1.1760765681    -1.0004561953     1.2779962408
| 41> *
| 42>
| 43>                          ****END OF INPUT****
 Total Charge           Charge          ....    1
 Multiplicity           Mult            ....    1
 Number of Electrons    NEL             ....   52
FINAL SINGLE POINT ENERGY      -288.847023859721

CARTESIAN COORDINATES (ANGSTROEM)
---------------------------------
  C      1.477268   -0.000471    1.053839
  C      0.708760    0.937145    0.216062
  C      0.081792    0.489859   -1.098907
  C     -1.412854    0.419870   -0.654415
  C     -0.879036   -0.765184    0.181018
  C      0.056729   -1.048372   -0.994634
  N     -0.000229   -0.000029    1.146076
  H      1.951601    0.395955    1.943998
  H      1.925363   -0.897843    0.654265
  H      0.692278    1.987099    0.484052
  H      0.407494    1.016824   -1.990809
  H     -2.076376    0.096440   -1.453653
  H     -1.841505    1.271096   -0.122092
  H     -1.484016   -1.509864    0.691419
  H      0.969798   -1.624104   -0.857341
  H     -0.511869   -1.482550   -1.814158
  H     -0.428761    0.356407    1.992877

FINAL SINGLE POINT ENERGY      -288.847024687792
                    ***********************HURRAY********************
 Multiplicity           Mult            ....    1
 Number of Electrons    NEL             ....   52
 Basis Dimension        Dim             ....  277
FINAL SINGLE POINT ENERGY      -288.847024802632

VIBRATIONAL FREQUENCIES
-----------------------

   0:         0.00 cm**-1
   1:         0.00 cm**-1
   2:         0.00 cm**-1
   3:         0.00 cm**-1
   4:         0.00 cm**-1
   5:         0.00 cm**-1
   6:       348.81 cm**-1
   7:       411.29 cm**-1
   8:       540.76 cm**-1
   9:       563.00 cm**-1
  10:       650.70 cm**-1
  11:       741.01 cm**-1
  12:       777.97 cm**-1
  13:       831.65 cm**-1
  14:       864.52 cm**-1
  15:       866.56 cm**-1
  16:       893.56 cm**-1
  17:       909.41 cm**-1
  18:       948.27 cm**-1
  19:       983.10 cm**-1
  20:       986.89 cm**-1
  21:      1038.44 cm**-1
  22:      1043.06 cm**-1
  23:      1072.68 cm**-1
  24:      1098.83 cm**-1
  25:      1115.31 cm**-1
  26:      1123.71 cm**-1
  27:      1147.90 cm**-1
  28:      1161.26 cm**-1
  29:      1174.95 cm**-1
  30:      1229.12 cm**-1
  31:      1231.76 cm**-1
  32:      1262.51 cm**-1
  33:      1268.93 cm**-1
  34:      1294.27 cm**-1
  35:      1314.28 cm**-1
  36:      1371.55 cm**-1
  37:      1410.90 cm**-1
  38:      1474.50 cm**-1
  39:      1501.68 cm**-1
  40:      1536.31 cm**-1
  41:      3097.52 cm**-1
  42:      3125.84 cm**-1
  43:      3176.98 cm**-1
  44:      3179.63 cm**-1
  45:      3181.73 cm**-1
  46:      3184.75 cm**-1
  47:      3186.46 cm**-1
  48:      3211.37 cm**-1
  49:      3282.72 cm**-1
  50:      3565.50 cm**-1

IR SPECTRUM
-----------

 Mode    freq (cm**-1)   T**2         TX         TY         TZ
-------------------------------------------------------------------
   6:       348.81    0.839358  ( -0.783373   0.021368   0.474582)
   7:       411.29    1.188014  ( -0.684852   0.782538  -0.326536)
   8:       540.76    0.841128  (  0.797503   0.212006   0.400212)
   9:       563.00    0.438253  (  0.616229  -0.001866  -0.241890)
  10:       650.70    2.365117  ( -0.876187  -1.263190  -0.042008)
  11:       741.01    7.407298  (  0.548583   1.007936  -2.467877)
  12:       777.97   13.286403  ( -1.831297  -2.368318   2.079381)
  13:       831.65    0.815085  (  0.080914  -0.684166   0.583485)
  14:       864.52    1.136806  (  0.594566  -0.839344   0.280713)
  15:       866.56    3.965378  ( -1.286328   1.199860  -0.933315)
  16:       893.56   16.470962  (  1.261321  -0.949390   3.738809)
  17:       909.41    0.399219  ( -0.494110   0.207580  -0.334642)
  18:       948.27   11.267107  ( -1.213792  -3.040296   0.741898)
  19:       983.10   16.817486  (  3.368361   2.230920   0.703299)
  20:       986.89   14.457938  ( -3.193131   1.551599  -1.361762)
  21:      1038.44    4.277337  (  1.730090   1.075735  -0.356258)
  22:      1043.06    1.347454  ( -0.467487  -0.679874  -0.816506)
  23:      1072.68    0.037578  ( -0.081663  -0.175774   0.003507)
  24:      1098.83    2.629318  (  0.352773   1.444035   0.647790)
  25:      1115.31    1.869871  (  0.253467   0.820843  -1.063881)
  26:      1123.71    5.619580  ( -1.268237  -1.847183   0.773995)
  27:      1147.90    9.289179  (  0.994980   1.401475  -2.516955)
  28:      1161.26    0.925494  ( -0.729450  -0.580971   0.236364)
  29:      1174.95   11.441174  (  1.908351  -2.166889   1.761806)
  30:      1229.12    4.029079  ( -0.339529   1.754427  -0.914212)
  31:      1231.76    1.951149  (  0.061955   1.253698  -0.612823)
  32:      1262.51    5.847800  ( -2.199296   0.997782  -0.123807)
  33:      1268.93   19.539319  ( -2.374005  -1.715507   3.310658)
  34:      1294.27    2.787253  ( -1.110592  -1.044119  -0.680922)
  35:      1314.28    3.025403  ( -1.120899   1.075119  -0.783011)
  36:      1371.55   19.898939  (  2.437976   3.503555  -1.296268)
  37:      1410.90   28.998307  (  4.804601   2.166218   1.105267)
  38:      1474.50    4.598600  ( -0.833501   0.650536   1.865658)
  39:      1501.68   15.140667  ( -2.556322   2.563106  -1.427016)
  40:      1536.31    9.421528  ( -0.919929   2.596428   1.354186)
  41:      3097.52    7.562356  (  1.664347  -1.959847  -0.975348)
  42:      3125.84    5.748338  (  1.972513  -1.266133   0.504416)
  43:      3176.98    5.183171  ( -1.775117   1.409473   0.213349)
  44:      3179.63    1.724216  ( -0.105923   0.345002   1.262525)
  45:      3181.73    1.864865  (  0.248736   1.342756   0.000424)
  46:      3184.75    0.786295  (  0.807275  -0.132435  -0.342144)
  47:      3186.46    0.274072  (  0.020128   0.520650  -0.050898)
  48:      3211.37    0.909161  ( -0.035959   0.950041   0.072728)
  49:      3282.72    4.844123  (  0.402346   1.473760   1.584383)
  50:      3565.50  100.990925  (  4.282874  -2.366534  -8.777667)

--------------------------
THERMOCHEMISTRY AT 298.15K
--------------------------

Temperature         ... 298.15 K
Pressure            ... 1.00 atm
Total Mass          ... 96.15 AMU

Throughout the following assumptions are being made:
  (1) The electronic state is orbitally nondegenerate
  (2) There are no thermally accessible electronically excited states
  (3) Hindered rotations indicated by low frequency modes) are not
      treated as such but are treated as vibrations and this may
      case some error
  (4) All equations used are the standard statistical mechanics
      equations for an ideal gas
  (5) All vibrations are strinctly harmonic

------------
INNER ENERGY
------------

The inner energy is: U= E(el) + E(ZPE) + E(vib) + E(rot) + E(trans)
    E(el)   - is the total energy from the electronic structure calculation
              = E(kin-el) + E(nuc-el) + E(el-el) + E(nuc-nuc)
    E(ZPE)  - the the zero temperature vibrational energy from the frequency calculation
    E(vib)  - the the finite temperature correction to E(ZPE) due to population
              of excietd vibrational states
    E(rot)  - is the rotational thermal energy
    E(trans)- is the translational thermal energy

Summary of contributions to the inner energy U:
Electronic energy                ...   -288.84702480 Eh
Zero point energy                ...      0.15578547 Eh      97.76 kcal/mol
Thermal vibrational correction   ...      0.00210606 Eh       1.32 kcal/mol
Thermal rotational correction    ...      0.00141627 Eh       0.89 kcal/mol
Thermal translational correction ...      0.00141627 Eh       0.89 kcal/mol
-----------------------------------------------------------------------
Total thermal energy                   -288.68630073 Eh

Summary of corrections to the electronic energy:
(perhaps to be used in another calculation)
Total thermal correction                  0.00493861 Eh       3.10 kcal/mol
Non-thermal (ZPE) correction              0.15578547 Eh      97.76 kcal/mol
-----------------------------------------------------------------------
Total correction                          0.16072408 Eh     100.86 kcal/mol

--------
ENTHALPY
--------

The enthalpy is H = U + kB*T
                kB is Boltzmann's constant
Total free energy                 ...   -288.68630073 Eh
Thermal Enthalpy correction       ...      0.00094421 Eh       0.59 kcal/mol
-----------------------------------------------------------------------
Total Enthalpy                    ...   -288.68535652 Eh

-------
ENTROPY
-------

The entropy contributions are T*S = T*(S(el)+S(vib)+S(rot)+S(trans)
     S(el)   - electronic entropy
     S(vib)  - vibrational entropy
     S(rot)  - rotational entropy
     S(trans)- translational entropy
The entropies will be listed as mutliplied by the temperature to get
units of energy

Electronic entropy                ...      0.00000000 Eh      0.00 kcal/mol
Vibrational entropy               ...      0.00282297 Eh      1.77 kcal/mol
Rotational entropy                ...      0.01149122 Eh      7.21 kcal/mol
Translational entropy             ...      0.01881568 Eh     11.81 kcal/mol
-----------------------------------------------------------------------
Final entropy term                ...      0.03312987 Eh     20.79 kcal/mol

CAUTION: The rotational entropy is not quite correctly treated here
         because it includes a symmetry number that is not yet correctly
         implemented in ORCA!
For a nonlinear molecule the correct rotational entropy is:
    S(rot) = R*(ln(qrot/sn)+1.5)
    R    = 8.31441 J/mol/K = 1.987191683e-3 kcal/mol/K
    qrot = 129208.6017208
    sn is the rotational symmetry number. We have assumed 3 here
       if it is different for your molecule then you should correct
       the printed rotational entropy by manually evaluating the equation
       as given above

For convenience we print out the resulting values for sn=1 - 12:
 sn= 1  qrot/sn=  129208.6017 T*S(rot)=     7.86 kcal/mol T*S(tot)=    21.44 kcal/mol
 sn= 2  qrot/sn=   64604.3009 T*S(rot)=     7.45 kcal/mol T*S(tot)=    21.03 kcal/mol
 sn= 3  qrot/sn=   43069.5339 T*S(rot)=     7.21 kcal/mol T*S(tot)=    20.79 kcal/mol
 sn= 4  qrot/sn=   32302.1504 T*S(rot)=     7.04 kcal/mol T*S(tot)=    20.62 kcal/mol
 sn= 5  qrot/sn=   25841.7203 T*S(rot)=     6.91 kcal/mol T*S(tot)=    20.49 kcal/mol
 sn= 6  qrot/sn=   21534.7670 T*S(rot)=     6.80 kcal/mol T*S(tot)=    20.38 kcal/mol
 sn= 7  qrot/sn=   18458.3717 T*S(rot)=     6.71 kcal/mol T*S(tot)=    20.29 kcal/mol
 sn= 8  qrot/sn=   16151.0752 T*S(rot)=     6.63 kcal/mol T*S(tot)=    20.21 kcal/mol
 sn= 9  qrot/sn=   14356.5113 T*S(rot)=     6.56 kcal/mol T*S(tot)=    20.14 kcal/mol
 sn=10  qrot/sn=   12920.8602 T*S(rot)=     6.50 kcal/mol T*S(tot)=    20.08 kcal/mol
 sn=11  qrot/sn=   11746.2365 T*S(rot)=     6.44 kcal/mol T*S(tot)=    20.02 kcal/mol
 sn=12  qrot/sn=   10767.3835 T*S(rot)=     6.39 kcal/mol T*S(tot)=    19.97 kcal/mol

-------------------
GIBBS FREE ENTHALPY
-------------------

The Gibbs free enthalpy is G = H - T*S

Total enthalpy                    ...   -288.68535652 Eh
Total entropy correction          ...     -0.03312987 Eh    -20.79 kcal/mol
-----------------------------------------------------------------------
Final Gibbs free enthalpy         ...   -288.71848639 Eh

For completeness - the Gibbs free enthalpy minus the electronic energy
G-E(el)                           ...      0.12853841 Eh     80.66 kcal/mol

                             ****ORCA TERMINATED NORMALLY****
TOTAL RUN TIME: 0 days 0 hours 47 minutes 15 seconds 185 msec
