                         Program Version 3.0.3 - RELEASE   -
|  1> ! NORI PBE0 def2-TZVP UseSym TightOPT Freq TightSCF Grid3 FinalGrid5 XYZFile
|  2> % pal
|  3>     nprocs 8
|  4> end
|  5> %method
|  6>     SymThresh 5.0e-2
|  7> end
|  8> % geom
|  9>     MaxIter 10
| 10> end
| 11> % maxcore 2000
| 12> % output
| 13>     printlevel mini
| 14>     print[ P_Basis ] 0
| 15>     print[ P_SCFInfo ] 1
| 16>     print[ P_SCFIterInfo ] 1
| 17>     print[ P_OrbEn ] 0
| 18>     print[ P_Cartesian ] 0
| 19> end
| 20> % elprop
| 21>     Dipole false
| 22> end
| 23> *xyz 1 1
| 24>  C       -1.5740243747     0.9185614310     0.2897912242
| 25>  C       -1.1813904759    -0.4632716955    -0.1369727284
| 26>  C       -0.2005167162    -1.3122868931     0.7584853878
| 27>  C        1.0253382320    -0.7469471321     0.0539375580
| 28>  N        2.2719022488     0.1261822459     0.0590905274
| 29>  C        0.8519093460     0.6887097357     0.0865284184
| 30>  C       -0.4601009144     0.8009718427    -0.6995535224
| 31>  H       -2.5164362093     1.2965360597    -0.0894405744
| 32>  H       -1.3551183497     1.2422429174     1.3021510062
| 33>  H       -1.8668615429    -1.0201854276    -0.7632230881
| 34>  H       -0.3389098780    -2.3837289536     0.6261834713
| 35>  H       -0.2689064415    -1.0553886979     1.8153733023
| 36>  H        1.0183498605    -1.0957238157    -0.9764627477
| 37>  H        2.8343974574     0.0573330378    -0.7859509428
| 38>  H        2.8132155259     0.3699965362     0.8860326605
| 39>  H        0.7755795750     1.1055698221     1.0872985844
| 40>  H       -0.5483973432     1.1492389869    -1.7184585365
| 41> *
| 42>
| 43>                          ****END OF INPUT****
 Total Charge           Charge          ....    1
 Multiplicity           Mult            ....    1
 Number of Electrons    NEL             ....   52
FINAL SINGLE POINT ENERGY      -288.746608687832

CARTESIAN COORDINATES (ANGSTROEM)
---------------------------------
  C      1.040440    0.000249   -1.662001
  C     -0.420148   -0.124527   -1.350325
  C     -1.118769    0.943070   -0.424321
  C     -0.782879    0.156397    0.835405
  N      0.000088    0.000233    2.131157
  C      0.635652   -0.112607    0.746488
  C      0.656090   -0.925720   -0.553529
  H      1.384533   -0.464080   -2.579218
  H      1.554685    0.926669   -1.427975
  H     -1.054969   -0.632236   -2.065374
  H     -2.184254    1.033555   -0.624992
  H     -0.644582    1.922071   -0.481384
  H     -1.337366   -0.779201    0.812035
  H     -0.275191   -0.802795    2.691901
  H      0.379772    0.766928    2.682758
  H      1.255580    0.778031    0.690762
  H      0.789558   -1.996151   -0.617393

FINAL SINGLE POINT ENERGY      -288.746609502421
                    ***********************HURRAY********************
 Multiplicity           Mult            ....    1
 Number of Electrons    NEL             ....   52
 Basis Dimension        Dim             ....  277
FINAL SINGLE POINT ENERGY      -288.746609674149

VIBRATIONAL FREQUENCIES
-----------------------

   0:         0.00 cm**-1
   1:         0.00 cm**-1
   2:         0.00 cm**-1
   3:         0.00 cm**-1
   4:         0.00 cm**-1
   5:         0.00 cm**-1
   6:       271.44 cm**-1
   7:       295.73 cm**-1
   8:       339.23 cm**-1
   9:       394.92 cm**-1
  10:       485.17 cm**-1
  11:       615.82 cm**-1
  12:       648.74 cm**-1
  13:       731.41 cm**-1
  14:       757.09 cm**-1
  15:       777.60 cm**-1
  16:       850.60 cm**-1
  17:       878.93 cm**-1
  18:       909.68 cm**-1
  19:       930.81 cm**-1
  20:       949.94 cm**-1
  21:      1006.60 cm**-1
  22:      1023.24 cm**-1
  23:      1044.67 cm**-1
  24:      1067.10 cm**-1
  25:      1078.16 cm**-1
  26:      1113.72 cm**-1
  27:      1126.62 cm**-1
  28:      1152.82 cm**-1
  29:      1169.00 cm**-1
  30:      1188.85 cm**-1
  31:      1210.89 cm**-1
  32:      1237.28 cm**-1
  33:      1275.17 cm**-1
  34:      1342.54 cm**-1
  35:      1361.88 cm**-1
  36:      1449.91 cm**-1
  37:      1472.85 cm**-1
  38:      1491.17 cm**-1
  39:      1495.99 cm**-1
  40:      1604.62 cm**-1
  41:      3114.66 cm**-1
  42:      3135.13 cm**-1
  43:      3142.23 cm**-1
  44:      3153.21 cm**-1
  45:      3181.91 cm**-1
  46:      3210.04 cm**-1
  47:      3226.89 cm**-1
  48:      3236.91 cm**-1
  49:      3465.01 cm**-1
  50:      3579.90 cm**-1

IR SPECTRUM
-----------

 Mode    freq (cm**-1)   T**2         TX         TY         TZ
-------------------------------------------------------------------
   6:       271.44    5.419743  ( -0.065544   1.981505   1.220281)
   7:       295.73    5.048057  ( -1.029613   1.653917  -1.119157)
   8:       339.23    5.473172  (  1.457349  -1.125824  -1.442853)
   9:       394.92    1.425549  ( -1.149464   0.218113   0.238136)
  10:       485.17    0.608458  ( -0.733394  -0.090216  -0.249904)
  11:       615.82    5.644697  ( -0.357955  -0.069732   2.347702)
  12:       648.74   36.092258  ( -0.289190   0.810217  -5.945769)
  13:       731.41   14.216777  (  0.063637  -1.201291  -3.573462)
  14:       757.09   10.287627  (  3.196778  -0.193324  -0.175682)
  15:       777.60    1.829084  ( -0.136288   0.108378  -1.341180)
  16:       850.60   10.277608  ( -2.879644  -1.282322   0.583875)
  17:       878.93    9.309556  ( -1.240719   0.423562   2.755135)
  18:       909.68    4.254190  (  0.615188  -1.891094  -0.547263)
  19:       930.81    6.474996  ( -0.693162   0.642010   2.362699)
  20:       949.94   10.285719  ( -0.306133   1.969939  -2.512239)
  21:      1006.60   15.703863  ( -3.369447   1.906178   0.846862)
  22:      1023.24    2.573940  ( -1.038721  -0.954998  -0.763529)
  23:      1044.67   55.365937  ( -6.749002   3.096652   0.477140)
  24:      1067.10    7.923731  ( -2.683337   0.777585   0.344671)
  25:      1078.16   16.470483  ( -3.348654   2.025239  -1.074898)
  26:      1113.72    3.550987  (  1.424030  -1.119536   0.519388)
  27:      1126.62    1.032724  ( -0.708228   0.728345  -0.025517)
  28:      1152.82    1.189628  (  0.254170  -0.692013   0.803830)
  29:      1169.00    8.091679  (  2.543221  -0.749677   1.030384)
  30:      1188.85    2.034632  ( -0.657075   0.574636   1.128130)
  31:      1210.89    2.798426  ( -1.448303   0.376171   0.747891)
  32:      1237.28    2.641473  (  0.363490  -0.818817  -1.356055)
  33:      1275.17    2.346270  ( -1.198485   0.780049  -0.549025)
  34:      1342.54    1.607157  ( -1.205753  -0.147392  -0.362757)
  35:      1361.88    1.530329  (  0.241860  -0.335695   1.165822)
  36:      1449.91    1.615820  (  0.640187   0.532616   0.960365)
  37:      1472.85    8.864851  (  2.227303   1.230959  -1.545547)
  38:      1491.17   12.195896  (  0.328628   3.412141  -0.667229)
  39:      1495.99    1.698888  (  0.622707  -0.181862   1.130509)
  40:      1604.62   51.367601  ( -0.649408   0.387394  -7.127117)
  41:      3114.66    3.262331  (  0.844885  -1.548832   0.386808)
  42:      3135.13    1.229392  ( -0.160519   0.314047  -1.051190)
  43:      3142.23    2.287081  ( -0.427982  -0.985414  -1.064365)
  44:      3153.21    1.233770  (  0.417695   0.840471   0.594062)
  45:      3181.91    1.061328  ( -0.899442  -0.152744  -0.478541)
  46:      3210.04    0.062604  ( -0.031895  -0.075878  -0.236282)
  47:      3226.89    1.704211  (  0.491482   0.447395  -1.123608)
  48:      3236.91    1.171948  (  0.340948  -1.023340  -0.092081)
  49:      3465.01  122.360949  (  0.694438  -0.038758  11.039801)
  50:      3579.90  103.044645  ( -3.103758  -9.652313   0.494144)

--------------------------
THERMOCHEMISTRY AT 298.15K
--------------------------

Temperature         ... 298.15 K
Pressure            ... 1.00 atm
Total Mass          ... 96.15 AMU

Throughout the following assumptions are being made:
  (1) The electronic state is orbitally nondegenerate
  (2) There are no thermally accessible electronically excited states
  (3) Hindered rotations indicated by low frequency modes) are not
      treated as such but are treated as vibrations and this may
      case some error
  (4) All equations used are the standard statistical mechanics
      equations for an ideal gas
  (5) All vibrations are strinctly harmonic

------------
INNER ENERGY
------------

The inner energy is: U= E(el) + E(ZPE) + E(vib) + E(rot) + E(trans)
    E(el)   - is the total energy from the electronic structure calculation
              = E(kin-el) + E(nuc-el) + E(el-el) + E(nuc-nuc)
    E(ZPE)  - the the zero temperature vibrational energy from the frequency calculation
    E(vib)  - the the finite temperature correction to E(ZPE) due to population
              of excietd vibrational states
    E(rot)  - is the rotational thermal energy
    E(trans)- is the translational thermal energy

Summary of contributions to the inner energy U:
Electronic energy                ...   -288.74660967 Eh
Zero point energy                ...      0.15308385 Eh      96.06 kcal/mol
Thermal vibrational correction   ...      0.00298274 Eh       1.87 kcal/mol
Thermal rotational correction    ...      0.00141627 Eh       0.89 kcal/mol
Thermal translational correction ...      0.00141627 Eh       0.89 kcal/mol
-----------------------------------------------------------------------
Total thermal energy                   -288.58771054 Eh

Summary of corrections to the electronic energy:
(perhaps to be used in another calculation)
Total thermal correction                  0.00581528 Eh       3.65 kcal/mol
Non-thermal (ZPE) correction              0.15308385 Eh      96.06 kcal/mol
-----------------------------------------------------------------------
Total correction                          0.15889914 Eh      99.71 kcal/mol

--------
ENTHALPY
--------

The enthalpy is H = U + kB*T
                kB is Boltzmann's constant
Total free energy                 ...   -288.58771054 Eh
Thermal Enthalpy correction       ...      0.00094421 Eh       0.59 kcal/mol
-----------------------------------------------------------------------
Total Enthalpy                    ...   -288.58676633 Eh

-------
ENTROPY
-------

The entropy contributions are T*S = T*(S(el)+S(vib)+S(rot)+S(trans)
     S(el)   - electronic entropy
     S(vib)  - vibrational entropy
     S(rot)  - rotational entropy
     S(trans)- translational entropy
The entropies will be listed as mutliplied by the temperature to get
units of energy

Electronic entropy                ...      0.00000000 Eh      0.00 kcal/mol
Vibrational entropy               ...      0.00428214 Eh      2.69 kcal/mol
Rotational entropy                ...      0.01169995 Eh      7.34 kcal/mol
Translational entropy             ...      0.01881568 Eh     11.81 kcal/mol
-----------------------------------------------------------------------
Final entropy term                ...      0.03479777 Eh     21.84 kcal/mol

CAUTION: The rotational entropy is not quite correctly treated here
         because it includes a symmetry number that is not yet correctly
         implemented in ORCA!
For a nonlinear molecule the correct rotational entropy is:
    S(rot) = R*(ln(qrot/sn)+1.5)
    R    = 8.31441 J/mol/K = 1.987191683e-3 kcal/mol/K
    qrot = 161175.2748496
    sn is the rotational symmetry number. We have assumed 3 here
       if it is different for your molecule then you should correct
       the printed rotational entropy by manually evaluating the equation
       as given above

For convenience we print out the resulting values for sn=1 - 12:
 sn= 1  qrot/sn=  161175.2748 T*S(rot)=     7.99 kcal/mol T*S(tot)=    22.49 kcal/mol
 sn= 2  qrot/sn=   80587.6374 T*S(rot)=     7.58 kcal/mol T*S(tot)=    22.08 kcal/mol
 sn= 3  qrot/sn=   53725.0916 T*S(rot)=     7.34 kcal/mol T*S(tot)=    21.84 kcal/mol
 sn= 4  qrot/sn=   40293.8187 T*S(rot)=     7.17 kcal/mol T*S(tot)=    21.67 kcal/mol
 sn= 5  qrot/sn=   32235.0550 T*S(rot)=     7.04 kcal/mol T*S(tot)=    21.53 kcal/mol
 sn= 6  qrot/sn=   26862.5458 T*S(rot)=     6.93 kcal/mol T*S(tot)=    21.43 kcal/mol
 sn= 7  qrot/sn=   23025.0393 T*S(rot)=     6.84 kcal/mol T*S(tot)=    21.33 kcal/mol
 sn= 8  qrot/sn=   20146.9094 T*S(rot)=     6.76 kcal/mol T*S(tot)=    21.25 kcal/mol
 sn= 9  qrot/sn=   17908.3639 T*S(rot)=     6.69 kcal/mol T*S(tot)=    21.18 kcal/mol
 sn=10  qrot/sn=   16117.5275 T*S(rot)=     6.63 kcal/mol T*S(tot)=    21.12 kcal/mol
 sn=11  qrot/sn=   14652.2977 T*S(rot)=     6.57 kcal/mol T*S(tot)=    21.07 kcal/mol
 sn=12  qrot/sn=   13431.2729 T*S(rot)=     6.52 kcal/mol T*S(tot)=    21.01 kcal/mol

-------------------
GIBBS FREE ENTHALPY
-------------------

The Gibbs free enthalpy is G = H - T*S

Total enthalpy                    ...   -288.58676633 Eh
Total entropy correction          ...     -0.03479777 Eh    -21.84 kcal/mol
-----------------------------------------------------------------------
Final Gibbs free enthalpy         ...   -288.62156410 Eh

For completeness - the Gibbs free enthalpy minus the electronic energy
G-E(el)                           ...      0.12504558 Eh     78.47 kcal/mol

                             ****ORCA TERMINATED NORMALLY****
TOTAL RUN TIME: 0 days 0 hours 48 minutes 18 seconds 600 msec
