                         Program Version 3.0.3 - RELEASE   -
|  1> ! NORI PBE0 def2-TZVP UseSym TightOPT Freq TightSCF Grid3 FinalGrid5 XYZFile
|  2> % pal
|  3>     nprocs 8
|  4> end
|  5> %method
|  6>     SymThresh 5.0e-2
|  7> end
|  8> % geom
|  9>     MaxIter 10
| 10> end
| 11> % maxcore 2000
| 12> % output
| 13>     printlevel mini
| 14>     print[ P_Basis ] 0
| 15>     print[ P_SCFInfo ] 1
| 16>     print[ P_SCFIterInfo ] 1
| 17>     print[ P_OrbEn ] 0
| 18>     print[ P_Cartesian ] 0
| 19> end
| 20> % elprop
| 21>     Dipole false
| 22> end
| 23> *xyz 1 1
| 24>  C       -1.2293122160     0.9103783886     0.5814364905
| 25>  C       -1.3299064401    -0.4474910079    -0.0404174702
| 26>  C       -0.2967056201    -1.5043902823     0.3241880188
| 27>  C        1.0430002341    -1.0066659622    -0.1801033892
| 28>  C        1.6654482342     0.2214996501     0.3472541131
| 29>  N        0.7981845635     0.3093775932    -0.8469969219
| 30>  C       -0.6312230186     0.6640649804    -0.7613524429
| 31>  H       -2.1218044150     1.5234316035     0.5787331929
| 32>  H       -0.6071781678     1.0627151118     1.4533097856
| 33>  H       -2.2986189297    -0.7918090319    -0.3776493629
| 34>  H       -0.2614172305    -1.7085804444     1.3962465106
| 35>  H       -0.5366691180    -2.4417225171    -0.1779652002
| 36>  H        1.6825909550    -1.6875861783    -0.7298495736
| 37>  H        1.2755760455     0.7077175467     1.2284427400
| 38>  H        2.7135215299     0.4017988192     0.1404794991
| 39>  H        1.2514209903     0.5134732816    -1.7304625948
| 40>  H       -0.9904173967     1.1578484488    -1.6534033950
| 41> *
| 42>
| 43>                          ****END OF INPUT****
 Total Charge           Charge          ....    1
 Multiplicity           Mult            ....    1
 Number of Electrons    NEL             ....   52
FINAL SINGLE POINT ENERGY      -288.859057640883
FINAL SINGLE POINT ENERGY      -288.859060401533

CARTESIAN COORDINATES (ANGSTROEM)
---------------------------------
  C      1.501076   -0.001822   -0.899626
  C      0.286904   -0.863872   -1.052965
  C     -1.089845   -0.218235   -0.984157
  C     -1.251856    0.331750    0.418763
  C     -0.389054    1.409012    0.937294
  N      0.001026    0.000973    1.166121
  C      0.944010   -0.713648    0.284946
  H      2.439011   -0.396499   -1.270074
  H      1.419887    1.072405   -0.998811
  H      0.376608   -1.791171   -1.603387
  H     -1.226532    0.566004   -1.731779
  H     -1.858310   -0.971827   -1.158475
  H     -2.172160    0.134805    0.956387
  H      0.265598    1.962172    0.280360
  H     -0.694253    1.929522    1.836925
  H     -0.061638   -0.344365    2.117186
  H      1.493381   -1.485834    0.805209

FINAL SINGLE POINT ENERGY      -288.859060838013
                    ***********************HURRAY********************
 Multiplicity           Mult            ....    1
 Number of Electrons    NEL             ....   52
 Basis Dimension        Dim             ....  277
FINAL SINGLE POINT ENERGY      -288.859061003997

VIBRATIONAL FREQUENCIES
-----------------------

   0:         0.00 cm**-1
   1:         0.00 cm**-1
   2:         0.00 cm**-1
   3:         0.00 cm**-1
   4:         0.00 cm**-1
   5:         0.00 cm**-1
   6:       245.21 cm**-1
   7:       255.81 cm**-1
   8:       423.64 cm**-1
   9:       486.11 cm**-1
  10:       670.01 cm**-1
  11:       679.70 cm**-1
  12:       730.46 cm**-1
  13:       778.47 cm**-1
  14:       830.94 cm**-1
  15:       839.04 cm**-1
  16:       863.49 cm**-1
  17:       868.95 cm**-1
  18:       929.60 cm**-1
  19:       979.66 cm**-1
  20:      1025.20 cm**-1
  21:      1035.11 cm**-1
  22:      1060.83 cm**-1
  23:      1076.65 cm**-1
  24:      1097.93 cm**-1
  25:      1116.32 cm**-1
  26:      1130.76 cm**-1
  27:      1141.97 cm**-1
  28:      1163.24 cm**-1
  29:      1171.93 cm**-1
  30:      1207.03 cm**-1
  31:      1235.63 cm**-1
  32:      1264.53 cm**-1
  33:      1331.15 cm**-1
  34:      1340.10 cm**-1
  35:      1387.73 cm**-1
  36:      1412.96 cm**-1
  37:      1428.14 cm**-1
  38:      1484.56 cm**-1
  39:      1491.15 cm**-1
  40:      1512.38 cm**-1
  41:      3094.43 cm**-1
  42:      3142.62 cm**-1
  43:      3168.98 cm**-1
  44:      3180.19 cm**-1
  45:      3205.14 cm**-1
  46:      3214.22 cm**-1
  47:      3230.71 cm**-1
  48:      3252.05 cm**-1
  49:      3284.18 cm**-1
  50:      3565.39 cm**-1

IR SPECTRUM
-----------

 Mode    freq (cm**-1)   T**2         TX         TY         TZ
-------------------------------------------------------------------
   6:       245.21    0.146499  (  0.158723   0.340427  -0.073588)
   7:       255.81    0.229228  (  0.009909  -0.447687  -0.169429)
   8:       423.64    1.165824  (  0.912388   0.513561  -0.263868)
   9:       486.11    0.789455  (  0.059155   0.885943   0.032571)
  10:       670.01    2.201811  (  0.084407   0.206639   1.466965)
  11:       679.70    1.882379  ( -1.099513   0.422449  -0.703553)
  12:       730.46   13.057201  ( -1.952783   0.965076  -2.883135)
  13:       778.47    3.230868  ( -1.795278   0.087802  -0.011713)
  14:       830.94    9.187335  (  1.937219   1.873504  -1.387264)
  15:       839.04   11.011878  ( -0.537287   3.159487   0.860721)
  16:       863.49    2.690834  ( -1.575296  -0.359578   0.282810)
  17:       868.95    2.819387  (  0.319889   0.366920   1.606993)
  18:       929.60    5.162791  (  2.057315   0.919879   0.289942)
  19:       979.66   20.011052  ( -2.193510  -3.578119  -1.548105)
  20:      1025.20    2.199611  ( -1.096823   0.917487   0.393457)
  21:      1035.11   17.413814  ( -3.408989   0.442864  -2.365688)
  22:      1060.83    0.696597  (  0.263995  -0.538157   0.580767)
  23:      1076.65    5.850892  ( -1.108776   0.794693   1.997491)
  24:      1097.93    1.690138  ( -0.841534   0.795659  -0.590665)
  25:      1116.32    1.752953  ( -0.803418   0.946435  -0.460145)
  26:      1130.76    8.689897  (  0.406874  -2.892887   0.394404)
  27:      1141.97   12.164724  ( -2.789742  -0.462217  -2.041671)
  28:      1163.24    1.179112  ( -0.567867   0.073370   0.922636)
  29:      1171.93    0.642557  (  0.073724  -0.234604   0.762944)
  30:      1207.03    1.039617  ( -0.782479   0.614694  -0.222471)
  31:      1235.63    3.677407  (  1.812045  -0.605292   0.165898)
  32:      1264.53    5.391437  ( -1.674851  -0.758611  -1.418034)
  33:      1331.15    2.950361  ( -0.864164   0.404863   1.428169)
  34:      1340.10    2.473843  ( -1.354200   0.588763   0.541612)
  35:      1387.73   15.817695  ( -2.758672   2.825578   0.472790)
  36:      1412.96    3.468979  ( -1.204206  -1.414328  -0.136171)
  37:      1428.14   20.656725  ( -3.389477   2.903143   0.860195)
  38:      1484.56   10.896388  (  2.517995   0.790386   1.982770)
  39:      1491.15    5.830718  (  0.664790  -1.560681   1.718444)
  40:      1512.38   19.140650  ( -1.925517  -3.726228   1.244291)
  41:      3094.43    1.197679  (  1.038613  -0.183654   0.291948)
  42:      3142.62    0.108056  ( -0.227162  -0.195449  -0.135105)
  43:      3168.98    3.019204  (  0.809421  -1.271382  -0.864655)
  44:      3180.19    0.640540  ( -0.386805  -0.550471  -0.433478)
  45:      3205.14    0.999964  (  0.950104   0.199665  -0.239582)
  46:      3214.22    0.302548  ( -0.010276   0.367613   0.409027)
  47:      3230.71    1.749862  (  0.697156  -1.101411   0.225230)
  48:      3252.05    0.893900  ( -0.810186   0.188589   0.449370)
  49:      3284.18    4.047948  ( -1.286893   0.050830   1.545727)
  50:      3565.39  111.013354  ( -0.221074   3.831095  -9.812604)

--------------------------
THERMOCHEMISTRY AT 298.15K
--------------------------

Temperature         ... 298.15 K
Pressure            ... 1.00 atm
Total Mass          ... 96.15 AMU

Throughout the following assumptions are being made:
  (1) The electronic state is orbitally nondegenerate
  (2) There are no thermally accessible electronically excited states
  (3) Hindered rotations indicated by low frequency modes) are not
      treated as such but are treated as vibrations and this may
      case some error
  (4) All equations used are the standard statistical mechanics
      equations for an ideal gas
  (5) All vibrations are strinctly harmonic

------------
INNER ENERGY
------------

The inner energy is: U= E(el) + E(ZPE) + E(vib) + E(rot) + E(trans)
    E(el)   - is the total energy from the electronic structure calculation
              = E(kin-el) + E(nuc-el) + E(el-el) + E(nuc-nuc)
    E(ZPE)  - the the zero temperature vibrational energy from the frequency calculation
    E(vib)  - the the finite temperature correction to E(ZPE) due to population
              of excietd vibrational states
    E(rot)  - is the rotational thermal energy
    E(trans)- is the translational thermal energy

Summary of contributions to the inner energy U:
Electronic energy                ...   -288.85906100 Eh
Zero point energy                ...      0.15499357 Eh      97.26 kcal/mol
Thermal vibrational correction   ...      0.00262571 Eh       1.65 kcal/mol
Thermal rotational correction    ...      0.00141627 Eh       0.89 kcal/mol
Thermal translational correction ...      0.00141627 Eh       0.89 kcal/mol
-----------------------------------------------------------------------
Total thermal energy                   -288.69860917 Eh

Summary of corrections to the electronic energy:
(perhaps to be used in another calculation)
Total thermal correction                  0.00545826 Eh       3.43 kcal/mol
Non-thermal (ZPE) correction              0.15499357 Eh      97.26 kcal/mol
-----------------------------------------------------------------------
Total correction                          0.16045183 Eh     100.68 kcal/mol

--------
ENTHALPY
--------

The enthalpy is H = U + kB*T
                kB is Boltzmann's constant
Total free energy                 ...   -288.69860917 Eh
Thermal Enthalpy correction       ...      0.00094421 Eh       0.59 kcal/mol
-----------------------------------------------------------------------
Total Enthalpy                    ...   -288.69766497 Eh

-------
ENTROPY
-------

The entropy contributions are T*S = T*(S(el)+S(vib)+S(rot)+S(trans)
     S(el)   - electronic entropy
     S(vib)  - vibrational entropy
     S(rot)  - rotational entropy
     S(trans)- translational entropy
The entropies will be listed as mutliplied by the temperature to get
units of energy

Electronic entropy                ...      0.00000000 Eh      0.00 kcal/mol
Vibrational entropy               ...      0.00379178 Eh      2.38 kcal/mol
Rotational entropy                ...      0.01159933 Eh      7.28 kcal/mol
Translational entropy             ...      0.01881568 Eh     11.81 kcal/mol
-----------------------------------------------------------------------
Final entropy term                ...      0.03420679 Eh     21.47 kcal/mol

CAUTION: The rotational entropy is not quite correctly treated here
         because it includes a symmetry number that is not yet correctly
         implemented in ORCA!
For a nonlinear molecule the correct rotational entropy is:
    S(rot) = R*(ln(qrot/sn)+1.5)
    R    = 8.31441 J/mol/K = 1.987191683e-3 kcal/mol/K
    qrot = 144883.6073116
    sn is the rotational symmetry number. We have assumed 3 here
       if it is different for your molecule then you should correct
       the printed rotational entropy by manually evaluating the equation
       as given above

For convenience we print out the resulting values for sn=1 - 12:
 sn= 1  qrot/sn=  144883.6073 T*S(rot)=     7.93 kcal/mol T*S(tot)=    22.12 kcal/mol
 sn= 2  qrot/sn=   72441.8037 T*S(rot)=     7.52 kcal/mol T*S(tot)=    21.71 kcal/mol
 sn= 3  qrot/sn=   48294.5358 T*S(rot)=     7.28 kcal/mol T*S(tot)=    21.47 kcal/mol
 sn= 4  qrot/sn=   36220.9018 T*S(rot)=     7.11 kcal/mol T*S(tot)=    21.29 kcal/mol
 sn= 5  qrot/sn=   28976.7215 T*S(rot)=     6.98 kcal/mol T*S(tot)=    21.16 kcal/mol
 sn= 6  qrot/sn=   24147.2679 T*S(rot)=     6.87 kcal/mol T*S(tot)=    21.05 kcal/mol
 sn= 7  qrot/sn=   20697.6582 T*S(rot)=     6.78 kcal/mol T*S(tot)=    20.96 kcal/mol
 sn= 8  qrot/sn=   18110.4509 T*S(rot)=     6.70 kcal/mol T*S(tot)=    20.88 kcal/mol
 sn= 9  qrot/sn=   16098.1786 T*S(rot)=     6.63 kcal/mol T*S(tot)=    20.81 kcal/mol
 sn=10  qrot/sn=   14488.3607 T*S(rot)=     6.57 kcal/mol T*S(tot)=    20.75 kcal/mol
 sn=11  qrot/sn=   13171.2370 T*S(rot)=     6.51 kcal/mol T*S(tot)=    20.70 kcal/mol
 sn=12  qrot/sn=   12073.6339 T*S(rot)=     6.46 kcal/mol T*S(tot)=    20.64 kcal/mol

-------------------
GIBBS FREE ENTHALPY
-------------------

The Gibbs free enthalpy is G = H - T*S

Total enthalpy                    ...   -288.69766497 Eh
Total entropy correction          ...     -0.03420679 Eh    -21.47 kcal/mol
-----------------------------------------------------------------------
Final Gibbs free enthalpy         ...   -288.73187176 Eh

For completeness - the Gibbs free enthalpy minus the electronic energy
G-E(el)                           ...      0.12718925 Eh     79.81 kcal/mol

                             ****ORCA TERMINATED NORMALLY****
TOTAL RUN TIME: 0 days 0 hours 46 minutes 9 seconds 898 msec
