                         Program Version 3.0.3 - RELEASE   -
|  1> ! NORI PBE0 def2-TZVP UseSym TightOPT Freq TightSCF Grid3 FinalGrid5 XYZFile
|  2> % pal
|  3>     nprocs 8
|  4> end
|  5> %method
|  6>     SymThresh 5.0e-2
|  7> end
|  8> % geom
|  9>     MaxIter 10
| 10> end
| 11> % maxcore 2000
| 12> % output
| 13>     printlevel mini
| 14>     print[ P_Basis ] 0
| 15>     print[ P_SCFInfo ] 1
| 16>     print[ P_SCFIterInfo ] 1
| 17>     print[ P_OrbEn ] 0
| 18>     print[ P_Cartesian ] 0
| 19> end
| 20> % elprop
| 21>     Dipole false
| 22> end
| 23> *xyz 1 1
| 24>  C        0.6085694368     1.2116184146     0.6927216173
| 25>  C       -0.8199995016     0.7766890853     0.4376943520
| 26>  C       -0.8277751866     0.0347829836    -0.8758530955
| 27>  C        0.5962416907     0.0337208363    -1.3931300559
| 28>  C        1.2864988944     0.0558366675    -0.0344039044
| 29>  N        0.5980587639    -1.1237959009     0.6365974871
| 30>  C       -0.8163165321    -0.7214411645     0.4174290022
| 31>  H        0.8564551286     2.1643676076     0.2241087336
| 32>  H        0.8669993574     1.2709808334     1.7527495352
| 33>  H       -1.6779528278     1.3189692685     0.8066776826
| 34>  H       -1.6917843864     0.0033626819    -1.5231766391
| 35>  H        0.8424080605     0.9264924569    -1.9689562803
| 36>  H        0.8440638033    -0.8446544250    -1.9943972532
| 37>  H        2.3685407858    -0.0352452176     0.0109089128
| 38>  H        0.8345728739    -1.1936037307     1.6274850053
| 39>  H        0.8268370379    -2.0105169152     0.1846708803
| 40>  H       -1.5843773989    -1.3797034819     0.7941940199
| 41> *
| 42>
| 43>                          ****END OF INPUT****
 Total Charge           Charge          ....    1
 Multiplicity           Mult            ....    1
 Number of Electrons    NEL             ....   52
FINAL SINGLE POINT ENERGY      -288.906866171940
                    ***********************HURRAY********************
 Multiplicity           Mult            ....    1
 Number of Electrons    NEL             ....   52
 Basis Dimension        Dim             ....  277
FINAL SINGLE POINT ENERGY      -288.906866343995

VIBRATIONAL FREQUENCIES
-----------------------

   0:         0.00 cm**-1
   1:         0.00 cm**-1
   2:         0.00 cm**-1
   3:         0.00 cm**-1
   4:         0.00 cm**-1
   5:         0.00 cm**-1
   6:       427.91 cm**-1
   7:       428.40 cm**-1
   8:       446.91 cm**-1
   9:       655.26 cm**-1
  10:       685.15 cm**-1
  11:       782.92 cm**-1
  12:       830.88 cm**-1
  13:       830.90 cm**-1
  14:       872.66 cm**-1
  15:       921.64 cm**-1
  16:       926.65 cm**-1
  17:       936.84 cm**-1
  18:       946.34 cm**-1
  19:       961.57 cm**-1
  20:       977.53 cm**-1
  21:      1002.12 cm**-1
  22:      1025.70 cm**-1
  23:      1072.77 cm**-1
  24:      1086.13 cm**-1
  25:      1106.09 cm**-1
  26:      1111.30 cm**-1
  27:      1158.79 cm**-1
  28:      1177.29 cm**-1
  29:      1209.10 cm**-1
  30:      1234.66 cm**-1
  31:      1275.82 cm**-1
  32:      1299.88 cm**-1
  33:      1310.04 cm**-1
  34:      1315.96 cm**-1
  35:      1352.38 cm**-1
  36:      1359.20 cm**-1
  37:      1432.20 cm**-1
  38:      1481.60 cm**-1
  39:      1499.80 cm**-1
  40:      1645.80 cm**-1
  41:      3087.25 cm**-1
  42:      3089.58 cm**-1
  43:      3146.66 cm**-1
  44:      3150.58 cm**-1
  45:      3183.61 cm**-1
  46:      3244.65 cm**-1
  47:      3247.88 cm**-1
  48:      3258.16 cm**-1
  49:      3445.96 cm**-1
  50:      3510.78 cm**-1

IR SPECTRUM
-----------

 Mode    freq (cm**-1)   T**2         TX         TY         TZ
-------------------------------------------------------------------
   6:       427.91    0.439099  ( -0.410437   0.520229  -0.001454)
   7:       428.40    5.512599  ( -0.000257   0.000323   2.347892)
   8:       446.91    0.872111  ( -0.000004   0.000004  -0.933869)
   9:       655.26    2.555176  ( -1.594974   0.105995  -0.000002)
  10:       685.15    0.622486  ( -0.000005   0.000003   0.788978)
  11:       782.92    0.488577  (  0.476374  -0.511512   0.000006)
  12:       830.88   20.680227  (  0.004750  -0.001321   4.547549)
  13:       830.90   22.225122  ( -4.542253   1.262155   0.004753)
  14:       872.66    4.363441  (  1.744710  -1.148664  -0.000004)
  15:       921.64    0.614954  ( -0.538624   0.569946  -0.000001)
  16:       926.65    0.019448  ( -0.000011  -0.000014  -0.139456)
  17:       936.84    6.446328  ( -0.950027  -2.354523   0.000004)
  18:       946.34    0.194977  (  0.000006   0.000017   0.441561)
  19:       961.57    4.437329  ( -0.000000   0.000009   2.106497)
  20:       977.53    1.080373  ( -0.501562  -0.910389   0.000013)
  21:      1002.12    0.003098  (  0.000002  -0.000003  -0.055659)
  22:      1025.70    0.448376  ( -0.511088   0.432626   0.000005)
  23:      1072.77    0.116918  ( -0.000002   0.000007   0.341932)
  24:      1086.13    4.061541  ( -0.463129   1.961390   0.000007)
  25:      1106.09    0.343694  (  0.511159  -0.287071   0.000007)
  26:      1111.30    2.074905  ( -0.000002   0.000007  -1.440453)
  27:      1158.79    0.250289  (  0.000005  -0.000004  -0.500289)
  28:      1177.29    2.357988  (  1.005709  -1.160404   0.000008)
  29:      1209.10    0.165412  (  0.000001  -0.000007   0.406709)
  30:      1234.66   27.484956  (  1.622375  -4.985264   0.000009)
  31:      1275.82    5.063307  ( -0.000001   0.000004   2.250179)
  32:      1299.88    9.347533  ( -0.000041   0.000008   3.057374)
  33:      1310.04   13.548947  (  2.449823   2.747238   0.000038)
  34:      1315.96   15.504531  (  1.141716  -3.768423   0.000013)
  35:      1352.38   12.758643  (  0.565685  -3.526846  -0.000015)
  36:      1359.20    6.241920  ( -0.000007   0.000042  -2.498384)
  37:      1432.20   19.313819  (  0.136440  -4.392631  -0.000000)
  38:      1481.60   12.039549  (  0.000002  -0.000000   3.469805)
  39:      1499.80    8.172904  (  2.364649  -1.606654  -0.000004)
  40:      1645.80   65.066098  (  8.064723   0.162315   0.000000)
  41:      3087.25    7.087300  ( -0.000001  -0.000000   2.662198)
  42:      3089.58    2.754571  (  1.207130   1.139038   0.000001)
  43:      3146.66    1.395860  ( -0.000009   0.000002  -1.181465)
  44:      3150.58    0.100428  (  0.306360  -0.081062  -0.000032)
  45:      3183.61    0.078248  ( -0.276680  -0.041182  -0.000000)
  46:      3244.65    1.945148  (  0.000000  -0.000000   1.394686)
  47:      3247.88    3.175095  ( -1.773219  -0.175468  -0.000000)
  48:      3258.16    6.075555  (  0.112750   2.462284   0.000000)
  49:      3445.96   58.970992  (  7.673660  -0.293138   0.000000)
  50:      3510.78   68.611128  ( -0.000000  -0.000000   8.283183)

--------------------------
THERMOCHEMISTRY AT 298.15K
--------------------------

Temperature         ... 298.15 K
Pressure            ... 1.00 atm
Total Mass          ... 96.15 AMU

Throughout the following assumptions are being made:
  (1) The electronic state is orbitally nondegenerate
  (2) There are no thermally accessible electronically excited states
  (3) Hindered rotations indicated by low frequency modes) are not
      treated as such but are treated as vibrations and this may
      case some error
  (4) All equations used are the standard statistical mechanics
      equations for an ideal gas
  (5) All vibrations are strinctly harmonic

------------
INNER ENERGY
------------

The inner energy is: U= E(el) + E(ZPE) + E(vib) + E(rot) + E(trans)
    E(el)   - is the total energy from the electronic structure calculation
              = E(kin-el) + E(nuc-el) + E(el-el) + E(nuc-nuc)
    E(ZPE)  - the the zero temperature vibrational energy from the frequency calculation
    E(vib)  - the the finite temperature correction to E(ZPE) due to population
              of excietd vibrational states
    E(rot)  - is the rotational thermal energy
    E(trans)- is the translational thermal energy

Summary of contributions to the inner energy U:
Electronic energy                ...   -288.90686634 Eh
Zero point energy                ...      0.15754284 Eh      98.86 kcal/mol
Thermal vibrational correction   ...      0.00196324 Eh       1.23 kcal/mol
Thermal rotational correction    ...      0.00141627 Eh       0.89 kcal/mol
Thermal translational correction ...      0.00141627 Eh       0.89 kcal/mol
-----------------------------------------------------------------------
Total thermal energy                   -288.74452772 Eh

Summary of corrections to the electronic energy:
(perhaps to be used in another calculation)
Total thermal correction                  0.00479579 Eh       3.01 kcal/mol
Non-thermal (ZPE) correction              0.15754284 Eh      98.86 kcal/mol
-----------------------------------------------------------------------
Total correction                          0.16233862 Eh     101.87 kcal/mol

--------
ENTHALPY
--------

The enthalpy is H = U + kB*T
                kB is Boltzmann's constant
Total free energy                 ...   -288.74452772 Eh
Thermal Enthalpy correction       ...      0.00094421 Eh       0.59 kcal/mol
-----------------------------------------------------------------------
Total Enthalpy                    ...   -288.74358351 Eh

-------
ENTROPY
-------

The entropy contributions are T*S = T*(S(el)+S(vib)+S(rot)+S(trans)
     S(el)   - electronic entropy
     S(vib)  - vibrational entropy
     S(rot)  - rotational entropy
     S(trans)- translational entropy
The entropies will be listed as mutliplied by the temperature to get
units of energy

Electronic entropy                ...      0.00000000 Eh      0.00 kcal/mol
Vibrational entropy               ...      0.00259963 Eh      1.63 kcal/mol
Rotational entropy                ...      0.01144784 Eh      7.18 kcal/mol
Translational entropy             ...      0.01881568 Eh     11.81 kcal/mol
-----------------------------------------------------------------------
Final entropy term                ...      0.03286316 Eh     20.62 kcal/mol

CAUTION: The rotational entropy is not quite correctly treated here
         because it includes a symmetry number that is not yet correctly
         implemented in ORCA!
For a nonlinear molecule the correct rotational entropy is:
    S(rot) = R*(ln(qrot/sn)+1.5)
    R    = 8.31441 J/mol/K = 1.987191683e-3 kcal/mol/K
    qrot = 123406.7421881
    sn is the rotational symmetry number. We have assumed 3 here
       if it is different for your molecule then you should correct
       the printed rotational entropy by manually evaluating the equation
       as given above

For convenience we print out the resulting values for sn=1 - 12:
 sn= 1  qrot/sn=  123406.7422 T*S(rot)=     7.83 kcal/mol T*S(tot)=    21.27 kcal/mol
 sn= 2  qrot/sn=   61703.3711 T*S(rot)=     7.42 kcal/mol T*S(tot)=    20.86 kcal/mol
 sn= 3  qrot/sn=   41135.5807 T*S(rot)=     7.18 kcal/mol T*S(tot)=    20.62 kcal/mol
 sn= 4  qrot/sn=   30851.6855 T*S(rot)=     7.01 kcal/mol T*S(tot)=    20.45 kcal/mol
 sn= 5  qrot/sn=   24681.3484 T*S(rot)=     6.88 kcal/mol T*S(tot)=    20.32 kcal/mol
 sn= 6  qrot/sn=   20567.7904 T*S(rot)=     6.77 kcal/mol T*S(tot)=    20.21 kcal/mol
 sn= 7  qrot/sn=   17629.5346 T*S(rot)=     6.68 kcal/mol T*S(tot)=    20.12 kcal/mol
 sn= 8  qrot/sn=   15425.8428 T*S(rot)=     6.60 kcal/mol T*S(tot)=    20.04 kcal/mol
 sn= 9  qrot/sn=   13711.8602 T*S(rot)=     6.53 kcal/mol T*S(tot)=    19.97 kcal/mol
 sn=10  qrot/sn=   12340.6742 T*S(rot)=     6.47 kcal/mol T*S(tot)=    19.91 kcal/mol
 sn=11  qrot/sn=   11218.7947 T*S(rot)=     6.41 kcal/mol T*S(tot)=    19.85 kcal/mol
 sn=12  qrot/sn=   10283.8952 T*S(rot)=     6.36 kcal/mol T*S(tot)=    19.80 kcal/mol

-------------------
GIBBS FREE ENTHALPY
-------------------

The Gibbs free enthalpy is G = H - T*S

Total enthalpy                    ...   -288.74358351 Eh
Total entropy correction          ...     -0.03286316 Eh    -20.62 kcal/mol
-----------------------------------------------------------------------
Final Gibbs free enthalpy         ...   -288.77644667 Eh

For completeness - the Gibbs free enthalpy minus the electronic energy
G-E(el)                           ...      0.13041967 Eh     81.84 kcal/mol

                             ****ORCA TERMINATED NORMALLY****
TOTAL RUN TIME: 0 days 0 hours 41 minutes 51 seconds 456 msec
