                         Program Version 3.0.3 - RELEASE   -
|  1> ! NORI PBE0 def2-TZVP UseSym TightOPT Freq TightSCF Grid3 FinalGrid5 XYZFile
|  2> % pal
|  3>     nprocs 8
|  4> end
|  5> %method
|  6>     SymThresh 5.0e-2
|  7> end
|  8> % geom
|  9>     MaxIter 10
| 10> end
| 11> % maxcore 2000
| 12> % output
| 13>     printlevel mini
| 14>     print[ P_Basis ] 0
| 15>     print[ P_SCFInfo ] 1
| 16>     print[ P_SCFIterInfo ] 1
| 17>     print[ P_OrbEn ] 0
| 18>     print[ P_Cartesian ] 0
| 19> end
| 20> % elprop
| 21>     Dipole false
| 22> end
| 23> *xyz 1 1
| 24>  C        0.6349401345     1.2262389870     0.6812825386
| 25>  C       -0.7916667512     0.8381242832     0.3825197012
| 26>  C       -0.7956939520     0.0983406464    -0.8989587076
| 27>  C        0.6283900911     0.0297495437    -1.3913422176
| 28>  C        1.3007061132     0.0269715517    -0.0104419920
| 29>  C        0.5850095233    -1.1388306241     0.6651359168
| 30>  N       -0.7905320506    -0.6614078064     0.3937178814
| 31>  H        0.8825297160     2.1790281744     0.2111229668
| 32>  H        0.8455527570     1.2928098885     1.7493567845
| 33>  H       -1.6702783536     1.3171504640     0.7925368629
| 34>  H       -1.6775534761    -0.0143554150    -1.5149062540
| 35>  H        0.8749242830     0.9134719684    -1.9820904356
| 36>  H        0.8333324773    -0.8621464451    -1.9851209337
| 37>  H        2.3856174577    -0.0123601394     0.0088833372
| 38>  H        0.7457053877    -1.2093683172     1.7406747543
| 39>  H        0.7412255073    -2.1064127811     0.1887914590
| 40>  H       -1.6120488645    -1.1732339789     0.6920483378
| 41> *
| 42>
| 43>                          ****END OF INPUT****
 Total Charge           Charge          ....    1
 Multiplicity           Mult            ....    1
 Number of Electrons    NEL             ....   52
FINAL SINGLE POINT ENERGY      -288.907467778682

CARTESIAN COORDINATES (ANGSTROEM)
---------------------------------
  C     -0.845659   -0.146746    1.196618
  C      0.334606   -0.967243    0.739813
  C      0.334606   -0.967243   -0.739813
  C     -0.845659   -0.146746   -1.196618
  C     -0.874881    0.816106    0.000000
  C      0.561062    1.331658   -0.000000
  N      1.209530    0.000043    0.000000
  H     -1.741811   -0.765240    1.266181
  H     -0.679233    0.345137    2.155780
  H      0.844632   -1.714803    1.332067
  H      0.844632   -1.714803   -1.332067
  H     -1.741811   -0.765240   -1.266181
  H     -0.679233    0.345137   -2.155780
  H     -1.648161    1.578065    0.000000
  H      0.846986    1.881613    0.896298
  H      0.846986    1.881613   -0.896298
  H      2.215976   -0.114097   -0.000000

FINAL SINGLE POINT ENERGY      -288.907467926420
                    ***********************HURRAY********************
 Multiplicity           Mult            ....    1
 Number of Electrons    NEL             ....   52
 Basis Dimension        Dim             ....  277
FINAL SINGLE POINT ENERGY      -288.907467959337

VIBRATIONAL FREQUENCIES
-----------------------

   0:         0.00 cm**-1
   1:         0.00 cm**-1
   2:         0.00 cm**-1
   3:         0.00 cm**-1
   4:         0.00 cm**-1
   5:         0.00 cm**-1
   6:       426.84 cm**-1
   7:       432.28 cm**-1
   8:       446.55 cm**-1
   9:       650.76 cm**-1
  10:       683.04 cm**-1
  11:       807.66 cm**-1
  12:       810.93 cm**-1
  13:       829.01 cm**-1
  14:       915.14 cm**-1
  15:       925.44 cm**-1
  16:       929.24 cm**-1
  17:       929.70 cm**-1
  18:       942.26 cm**-1
  19:       945.43 cm**-1
  20:       973.60 cm**-1
  21:      1005.13 cm**-1
  22:      1027.37 cm**-1
  23:      1064.11 cm**-1
  24:      1072.44 cm**-1
  25:      1109.93 cm**-1
  26:      1150.41 cm**-1
  27:      1177.16 cm**-1
  28:      1178.71 cm**-1
  29:      1202.46 cm**-1
  30:      1265.72 cm**-1
  31:      1284.87 cm**-1
  32:      1286.23 cm**-1
  33:      1305.35 cm**-1
  34:      1319.24 cm**-1
  35:      1358.88 cm**-1
  36:      1373.09 cm**-1
  37:      1423.51 cm**-1
  38:      1474.58 cm**-1
  39:      1483.77 cm**-1
  40:      1511.22 cm**-1
  41:      3099.58 cm**-1
  42:      3101.07 cm**-1
  43:      3109.29 cm**-1
  44:      3154.39 cm**-1
  45:      3156.26 cm**-1
  46:      3175.15 cm**-1
  47:      3191.77 cm**-1
  48:      3236.29 cm**-1
  49:      3244.36 cm**-1
  50:      3583.34 cm**-1

IR SPECTRUM
-----------

 Mode    freq (cm**-1)   T**2         TX         TY         TZ
-------------------------------------------------------------------
   6:       426.84    0.035787  ( -0.072537   0.174715  -0.000000)
   7:       432.28    0.046985  (  0.000000   0.000002   0.216760)
   8:       446.55    0.646852  (  0.000000   0.000002   0.804271)
   9:       650.76    1.997121  ( -0.000000  -0.000002   1.413195)
  10:       683.04    2.116063  ( -1.408095  -0.365146  -0.000000)
  11:       807.66    3.659512  ( -1.150761  -1.528156   0.000000)
  12:       810.93    6.667050  (  0.000000  -0.000000   2.582063)
  13:       829.01   21.692860  (  3.564378   2.998011   0.000000)
  14:       915.14    0.842906  ( -0.917814   0.022872  -0.000000)
  15:       925.44    9.227521  (  0.000000   0.000001   3.037683)
  16:       929.24    2.303511  ( -1.226907   0.893426  -0.000000)
  17:       929.70   19.739718  ( -0.000000  -0.000003  -4.442940)
  18:       942.26    1.151124  ( -0.000000   0.000006  -1.072904)
  19:       945.43    8.173593  ( -1.146458   2.619013  -0.000000)
  20:       973.60    3.395304  (  0.186529  -1.833170   0.000000)
  21:      1005.13    3.397276  (  0.000000  -0.000003  -1.843170)
  22:      1027.37    0.873455  (  0.393292  -0.847807   0.000000)
  23:      1064.11    3.313032  (  0.000000   0.000002  -1.820174)
  24:      1072.44    8.177461  (  2.155496   1.879174  -0.000000)
  25:      1109.93    0.227259  ( -0.000000   0.000002   0.476716)
  26:      1150.41    1.059014  ( -1.016956  -0.157525  -0.000000)
  27:      1177.16    2.168385  (  0.137074  -1.466150   0.000000)
  28:      1178.71    0.125384  ( -0.000000   0.000001   0.354096)
  29:      1202.46    2.914146  (  0.000000  -0.000001   1.707087)
  30:      1265.72    6.595407  ( -0.000000  -0.000002  -2.568152)
  31:      1284.87    2.983069  (  1.223710  -1.218853   0.000000)
  32:      1286.23    1.536334  ( -0.000000   0.000003  -1.239489)
  33:      1305.35    5.819175  ( -2.301264   0.723437  -0.000000)
  34:      1319.24   12.858758  ( -2.071861  -2.926798  -0.000000)
  35:      1358.88   14.357673  ( -0.000000  -0.000004   3.789152)
  36:      1373.09   21.750504  (  1.310210   4.475919  -0.000000)
  37:      1423.51   23.111338  ( -0.088536   4.806610  -0.000000)
  38:      1474.58   12.147678  ( -0.000000   0.000005  -3.485352)
  39:      1483.77   13.452045  (  3.394728   1.388476  -0.000000)
  40:      1511.22    2.997441  (  0.302493   1.704682  -0.000000)
  41:      3099.58    2.039905  (  0.000000   0.000013   1.428252)
  42:      3101.07    0.089726  (  0.105119   0.280492  -0.000000)
  43:      3109.29    1.371610  (  0.509188   1.054674  -0.000000)
  44:      3154.39    0.940831  ( -0.000000  -0.000013  -0.969964)
  45:      3156.26    0.254621  ( -0.125440   0.488760  -0.000000)
  46:      3175.15    0.103248  (  0.000000  -0.000001  -0.321323)
  47:      3191.77    0.427121  (  0.597998  -0.263665   0.000000)
  48:      3236.29    3.154170  ( -0.000000   0.000000  -1.775998)
  49:      3244.36    4.147335  ( -0.744391   1.895578  -0.000000)
  50:      3583.34  127.713935  (-11.298940   0.218814  -0.000000)

--------------------------
THERMOCHEMISTRY AT 298.15K
--------------------------

Temperature         ... 298.15 K
Pressure            ... 1.00 atm
Total Mass          ... 96.15 AMU

Throughout the following assumptions are being made:
  (1) The electronic state is orbitally nondegenerate
  (2) There are no thermally accessible electronically excited states
  (3) Hindered rotations indicated by low frequency modes) are not
      treated as such but are treated as vibrations and this may
      case some error
  (4) All equations used are the standard statistical mechanics
      equations for an ideal gas
  (5) All vibrations are strinctly harmonic

------------
INNER ENERGY
------------

The inner energy is: U= E(el) + E(ZPE) + E(vib) + E(rot) + E(trans)
    E(el)   - is the total energy from the electronic structure calculation
              = E(kin-el) + E(nuc-el) + E(el-el) + E(nuc-nuc)
    E(ZPE)  - the the zero temperature vibrational energy from the frequency calculation
    E(vib)  - the the finite temperature correction to E(ZPE) due to population
              of excietd vibrational states
    E(rot)  - is the rotational thermal energy
    E(trans)- is the translational thermal energy

Summary of contributions to the inner energy U:
Electronic energy                ...   -288.90746796 Eh
Zero point energy                ...      0.15667763 Eh      98.32 kcal/mol
Thermal vibrational correction   ...      0.00195542 Eh       1.23 kcal/mol
Thermal rotational correction    ...      0.00141627 Eh       0.89 kcal/mol
Thermal translational correction ...      0.00141627 Eh       0.89 kcal/mol
-----------------------------------------------------------------------
Total thermal energy                   -288.74600236 Eh

Summary of corrections to the electronic energy:
(perhaps to be used in another calculation)
Total thermal correction                  0.00478797 Eh       3.00 kcal/mol
Non-thermal (ZPE) correction              0.15667763 Eh      98.32 kcal/mol
-----------------------------------------------------------------------
Total correction                          0.16146560 Eh     101.32 kcal/mol

--------
ENTHALPY
--------

The enthalpy is H = U + kB*T
                kB is Boltzmann's constant
Total free energy                 ...   -288.74600236 Eh
Thermal Enthalpy correction       ...      0.00094421 Eh       0.59 kcal/mol
-----------------------------------------------------------------------
Total Enthalpy                    ...   -288.74505815 Eh

-------
ENTROPY
-------

The entropy contributions are T*S = T*(S(el)+S(vib)+S(rot)+S(trans)
     S(el)   - electronic entropy
     S(vib)  - vibrational entropy
     S(rot)  - rotational entropy
     S(trans)- translational entropy
The entropies will be listed as mutliplied by the temperature to get
units of energy

Electronic entropy                ...      0.00000000 Eh      0.00 kcal/mol
Vibrational entropy               ...      0.00258877 Eh      1.62 kcal/mol
Rotational entropy                ...      0.01144073 Eh      7.18 kcal/mol
Translational entropy             ...      0.01881568 Eh     11.81 kcal/mol
-----------------------------------------------------------------------
Final entropy term                ...      0.03284519 Eh     20.61 kcal/mol

CAUTION: The rotational entropy is not quite correctly treated here
         because it includes a symmetry number that is not yet correctly
         implemented in ORCA!
For a nonlinear molecule the correct rotational entropy is:
    S(rot) = R*(ln(qrot/sn)+1.5)
    R    = 8.31441 J/mol/K = 1.987191683e-3 kcal/mol/K
    qrot = 122481.0050983
    sn is the rotational symmetry number. We have assumed 3 here
       if it is different for your molecule then you should correct
       the printed rotational entropy by manually evaluating the equation
       as given above

For convenience we print out the resulting values for sn=1 - 12:
 sn= 1  qrot/sn=  122481.0051 T*S(rot)=     7.83 kcal/mol T*S(tot)=    21.26 kcal/mol
 sn= 2  qrot/sn=   61240.5025 T*S(rot)=     7.42 kcal/mol T*S(tot)=    20.85 kcal/mol
 sn= 3  qrot/sn=   40827.0017 T*S(rot)=     7.18 kcal/mol T*S(tot)=    20.61 kcal/mol
 sn= 4  qrot/sn=   30620.2513 T*S(rot)=     7.01 kcal/mol T*S(tot)=    20.44 kcal/mol
 sn= 5  qrot/sn=   24496.2010 T*S(rot)=     6.88 kcal/mol T*S(tot)=    20.31 kcal/mol
 sn= 6  qrot/sn=   20413.5008 T*S(rot)=     6.77 kcal/mol T*S(tot)=    20.20 kcal/mol
 sn= 7  qrot/sn=   17497.2864 T*S(rot)=     6.68 kcal/mol T*S(tot)=    20.11 kcal/mol
 sn= 8  qrot/sn=   15310.1256 T*S(rot)=     6.60 kcal/mol T*S(tot)=    20.03 kcal/mol
 sn= 9  qrot/sn=   13609.0006 T*S(rot)=     6.53 kcal/mol T*S(tot)=    19.96 kcal/mol
 sn=10  qrot/sn=   12248.1005 T*S(rot)=     6.47 kcal/mol T*S(tot)=    19.90 kcal/mol
 sn=11  qrot/sn=   11134.6368 T*S(rot)=     6.41 kcal/mol T*S(tot)=    19.84 kcal/mol
 sn=12  qrot/sn=   10206.7504 T*S(rot)=     6.36 kcal/mol T*S(tot)=    19.79 kcal/mol

-------------------
GIBBS FREE ENTHALPY
-------------------

The Gibbs free enthalpy is G = H - T*S

Total enthalpy                    ...   -288.74505815 Eh
Total entropy correction          ...     -0.03284519 Eh    -20.61 kcal/mol
-----------------------------------------------------------------------
Final Gibbs free enthalpy         ...   -288.77790334 Eh

For completeness - the Gibbs free enthalpy minus the electronic energy
G-E(el)                           ...      0.12956462 Eh     81.30 kcal/mol

                             ****ORCA TERMINATED NORMALLY****
TOTAL RUN TIME: 0 days 0 hours 47 minutes 59 seconds 504 msec
