                         Program Version 3.0.3 - RELEASE   -
|  1> ! NORI PBE0 def2-TZVP UseSym TightOPT Freq TightSCF Grid3 FinalGrid5 XYZFile
|  2> % pal
|  3>     nprocs 8
|  4> end
|  5> %method
|  6>     SymThresh 5.0e-2
|  7> end
|  8> % geom
|  9>     MaxIter 10
| 10> end
| 11> % maxcore 2000
| 12> % output
| 13>     printlevel mini
| 14>     print[ P_Basis ] 0
| 15>     print[ P_SCFInfo ] 1
| 16>     print[ P_SCFIterInfo ] 1
| 17>     print[ P_OrbEn ] 0
| 18>     print[ P_Cartesian ] 0
| 19> end
| 20> % elprop
| 21>     Dipole false
| 22> end
| 23> *xyz 1 1
| 24>  C        1.7724466905    -0.0003805402    -0.5203285703
| 25>  C        0.8255174954     0.7625981141     0.3450282526
| 26>  C        0.8252204326    -0.7629517970     0.3450605826
| 27>  C       -0.5850033562    -1.0117457265    -0.1603194765
| 28>  C       -0.8231554618     0.0001086820    -1.2898422775
| 29>  C       -0.5846106208     1.0119167792    -0.1603614198
| 30>  N       -1.3494692757     0.0002522987     0.7296997468
| 31>  H        2.7983221609    -0.0005732897    -0.1734872047
| 32>  H        1.6838497561    -0.0003878460    -1.5980880178
| 33>  H        1.1938826419     1.3500125880     1.1760101936
| 34>  H        1.1933573716    -1.3504747232     1.1760669581
| 35>  H       -0.9854987877    -2.0225630533    -0.1644233624
| 36>  H       -0.1560192833    -0.0000382965    -2.1440755135
| 37>  H       -1.8574653379     0.0003032743    -1.6345293112
| 38>  H       -0.9847155710     2.0228883566    -0.1645059805
| 39>  H       -2.3602044494     0.0004465839     0.5847896858
| 40>  H       -1.1239944053     0.0002285956     1.7253157148
| 41> *
| 42>
| 43>                          ****END OF INPUT****
 Total Charge           Charge          ....    1
 Multiplicity           Mult            ....    1
 Number of Electrons    NEL             ....   52
FINAL SINGLE POINT ENERGY      -288.853915422112

CARTESIAN COORDINATES (ANGSTROEM)
---------------------------------
  C     -1.757342    0.572179    0.000000
  C     -0.497280    0.812863    0.762804
  C     -0.497280    0.812863   -0.762804
  C      0.438838   -0.356855   -1.011875
  C      0.049107   -1.443249   -0.000000
  C      0.438838   -0.356855    1.011875
  N      1.556452   -0.000062    0.000000
  H     -2.449127    1.405267   -0.000000
  H     -2.246669   -0.391565    0.000000
  H     -0.375198    1.713703    1.350017
  H     -0.375198    1.713703   -1.350017
  H      0.777625   -0.570449   -2.022600
  H     -0.966647   -1.820176   -0.000000
  H      0.748884   -2.279301    0.000000
  H      0.777625   -0.570449    2.022600
  H      2.340671   -0.653570   -0.000000
  H      1.886937    0.965558    0.000000

FINAL SINGLE POINT ENERGY      -288.853916218726
                    ***********************HURRAY********************
 Multiplicity           Mult            ....    1
 Number of Electrons    NEL             ....   52
 Basis Dimension        Dim             ....  277
FINAL SINGLE POINT ENERGY      -288.853916365362

VIBRATIONAL FREQUENCIES
-----------------------

   0:         0.00 cm**-1
   1:         0.00 cm**-1
   2:         0.00 cm**-1
   3:         0.00 cm**-1
   4:         0.00 cm**-1
   5:         0.00 cm**-1
   6:       350.75 cm**-1
   7:       412.21 cm**-1
   8:       536.99 cm**-1
   9:       549.95 cm**-1
  10:       601.99 cm**-1
  11:       783.27 cm**-1
  12:       792.92 cm**-1
  13:       793.12 cm**-1
  14:       813.79 cm**-1
  15:       833.07 cm**-1
  16:       907.14 cm**-1
  17:       928.79 cm**-1
  18:       950.06 cm**-1
  19:       990.68 cm**-1
  20:      1011.02 cm**-1
  21:      1024.00 cm**-1
  22:      1029.90 cm**-1
  23:      1071.59 cm**-1
  24:      1085.65 cm**-1
  25:      1103.65 cm**-1
  26:      1106.35 cm**-1
  27:      1111.72 cm**-1
  28:      1140.66 cm**-1
  29:      1155.94 cm**-1
  30:      1202.85 cm**-1
  31:      1248.56 cm**-1
  32:      1263.09 cm**-1
  33:      1277.40 cm**-1
  34:      1305.83 cm**-1
  35:      1333.36 cm**-1
  36:      1352.04 cm**-1
  37:      1391.43 cm**-1
  38:      1482.84 cm**-1
  39:      1529.67 cm**-1
  40:      1628.95 cm**-1
  41:      3120.89 cm**-1
  42:      3176.94 cm**-1
  43:      3177.52 cm**-1
  44:      3177.69 cm**-1
  45:      3212.53 cm**-1
  46:      3217.19 cm**-1
  47:      3218.72 cm**-1
  48:      3259.69 cm**-1
  49:      3440.11 cm**-1
  50:      3532.66 cm**-1

IR SPECTRUM
-----------

 Mode    freq (cm**-1)   T**2         TX         TY         TZ
-------------------------------------------------------------------
   6:       350.75    2.529159  ( -0.000001   0.000002   1.590333)
   7:       412.21    2.769402  ( -0.451202   1.601817  -0.000002)
   8:       536.99    3.040800  (  0.329406  -1.712394   0.000000)
   9:       549.95    1.314666  ( -1.141474   0.108182  -0.000000)
  10:       601.99    0.208406  (  0.000002  -0.000003   0.456515)
  11:       783.27   20.772998  ( -0.000026  -0.000000   4.557740)
  12:       792.92   11.136603  (  3.332923   0.168008   0.000317)
  13:       793.12    0.087833  ( -0.003249  -0.000164   0.296348)
  14:       813.79    1.838087  (  1.354875  -0.049002   0.000014)
  15:       833.07    7.956344  ( -2.816940  -0.145581  -0.000001)
  16:       907.14    0.335970  ( -0.000005  -0.000003  -0.579629)
  17:       928.79    0.777244  ( -0.292073   0.831828  -0.000004)
  18:       950.06    1.170357  ( -0.970597   0.477806  -0.000004)
  19:       990.68    7.885857  ( -0.463428  -2.769674  -0.000007)
  20:      1011.02    4.462975  (  0.000001  -0.000002  -2.112575)
  21:      1024.00    4.247985  (  1.983325  -0.560722   0.000044)
  22:      1029.90    4.225088  ( -0.000033   0.000001   2.055502)
  23:      1071.59    3.367863  ( -0.000003  -0.000006   1.835174)
  24:      1085.65    4.839888  ( -0.887742   2.012909  -0.000007)
  25:      1103.65    7.959033  ( -0.442286   2.786291  -0.000032)
  26:      1106.35    2.650271  (  0.000007   0.000034   1.627965)
  27:      1111.72    2.794234  (  0.000006  -0.000009  -1.671596)
  28:      1140.66   16.046365  (  0.000024  -0.000019  -4.005791)
  29:      1155.94   14.932058  ( -0.000014   0.000008   3.864202)
  30:      1202.85    0.990184  ( -0.508736   0.855203  -0.000012)
  31:      1248.56    2.714424  (  0.000027  -0.000017  -1.647551)
  32:      1263.09   46.315176  (  0.000065  -0.000050   6.805525)
  33:      1277.40    3.688798  ( -1.390378   1.325008   0.000180)
  34:      1305.83    0.461371  ( -0.000001   0.000017  -0.679243)
  35:      1333.36    5.624698  ( -2.368099  -0.129628  -0.000049)
  36:      1352.04   38.091231  ( -0.000027   0.000006   6.171809)
  37:      1391.43    6.559865  ( -2.346765   1.025943  -0.000002)
  38:      1482.84    3.115958  (  0.818946  -1.563741  -0.000000)
  39:      1529.67   25.180659  ( -3.220633  -3.848140   0.000001)
  40:      1628.95   68.867868  (  8.171752   1.445798   0.000000)
  41:      3120.89    1.564299  (  0.854120  -0.913661   0.000001)
  42:      3176.94    0.856700  (  0.156691  -0.912221  -0.000170)
  43:      3177.52    0.391099  ( -0.606841   0.151078   0.004377)
  44:      3177.69    1.812809  (  0.001992  -0.000605   1.346404)
  45:      3212.53    0.008672  (  0.000001   0.000000  -0.093125)
  46:      3217.19    0.074692  (  0.239563  -0.131537   0.000000)
  47:      3218.72    0.926059  (  0.381504  -0.883467   0.000002)
  48:      3259.69    0.928876  (  0.892684  -0.363306   0.000000)
  49:      3440.11   45.168064  (  6.432073   1.948461  -0.000000)
  50:      3532.66   49.363386  (  1.980408  -6.741021   0.000000)

--------------------------
THERMOCHEMISTRY AT 298.15K
--------------------------

Temperature         ... 298.15 K
Pressure            ... 1.00 atm
Total Mass          ... 96.15 AMU

Throughout the following assumptions are being made:
  (1) The electronic state is orbitally nondegenerate
  (2) There are no thermally accessible electronically excited states
  (3) Hindered rotations indicated by low frequency modes) are not
      treated as such but are treated as vibrations and this may
      case some error
  (4) All equations used are the standard statistical mechanics
      equations for an ideal gas
  (5) All vibrations are strinctly harmonic

------------
INNER ENERGY
------------

The inner energy is: U= E(el) + E(ZPE) + E(vib) + E(rot) + E(trans)
    E(el)   - is the total energy from the electronic structure calculation
              = E(kin-el) + E(nuc-el) + E(el-el) + E(nuc-nuc)
    E(ZPE)  - the the zero temperature vibrational energy from the frequency calculation
    E(vib)  - the the finite temperature correction to E(ZPE) due to population
              of excietd vibrational states
    E(rot)  - is the rotational thermal energy
    E(trans)- is the translational thermal energy

Summary of contributions to the inner energy U:
Electronic energy                ...   -288.85391637 Eh
Zero point energy                ...      0.15636237 Eh      98.12 kcal/mol
Thermal vibrational correction   ...      0.00215243 Eh       1.35 kcal/mol
Thermal rotational correction    ...      0.00141627 Eh       0.89 kcal/mol
Thermal translational correction ...      0.00141627 Eh       0.89 kcal/mol
-----------------------------------------------------------------------
Total thermal energy                   -288.69256903 Eh

Summary of corrections to the electronic energy:
(perhaps to be used in another calculation)
Total thermal correction                  0.00498497 Eh       3.13 kcal/mol
Non-thermal (ZPE) correction              0.15636237 Eh      98.12 kcal/mol
-----------------------------------------------------------------------
Total correction                          0.16134734 Eh     101.25 kcal/mol

--------
ENTHALPY
--------

The enthalpy is H = U + kB*T
                kB is Boltzmann's constant
Total free energy                 ...   -288.69256903 Eh
Thermal Enthalpy correction       ...      0.00094421 Eh       0.59 kcal/mol
-----------------------------------------------------------------------
Total Enthalpy                    ...   -288.69162482 Eh

-------
ENTROPY
-------

The entropy contributions are T*S = T*(S(el)+S(vib)+S(rot)+S(trans)
     S(el)   - electronic entropy
     S(vib)  - vibrational entropy
     S(rot)  - rotational entropy
     S(trans)- translational entropy
The entropies will be listed as mutliplied by the temperature to get
units of energy

Electronic entropy                ...      0.00000000 Eh      0.00 kcal/mol
Vibrational entropy               ...      0.00288721 Eh      1.81 kcal/mol
Rotational entropy                ...      0.01150644 Eh      7.22 kcal/mol
Translational entropy             ...      0.01881568 Eh     11.81 kcal/mol
-----------------------------------------------------------------------
Final entropy term                ...      0.03320934 Eh     20.84 kcal/mol

CAUTION: The rotational entropy is not quite correctly treated here
         because it includes a symmetry number that is not yet correctly
         implemented in ORCA!
For a nonlinear molecule the correct rotational entropy is:
    S(rot) = R*(ln(qrot/sn)+1.5)
    R    = 8.31441 J/mol/K = 1.987191683e-3 kcal/mol/K
    qrot = 131308.7796212
    sn is the rotational symmetry number. We have assumed 3 here
       if it is different for your molecule then you should correct
       the printed rotational entropy by manually evaluating the equation
       as given above

For convenience we print out the resulting values for sn=1 - 12:
 sn= 1  qrot/sn=  131308.7796 T*S(rot)=     7.87 kcal/mol T*S(tot)=    21.49 kcal/mol
 sn= 2  qrot/sn=   65654.3898 T*S(rot)=     7.46 kcal/mol T*S(tot)=    21.08 kcal/mol
 sn= 3  qrot/sn=   43769.5932 T*S(rot)=     7.22 kcal/mol T*S(tot)=    20.84 kcal/mol
 sn= 4  qrot/sn=   32827.1949 T*S(rot)=     7.05 kcal/mol T*S(tot)=    20.67 kcal/mol
 sn= 5  qrot/sn=   26261.7559 T*S(rot)=     6.92 kcal/mol T*S(tot)=    20.54 kcal/mol
 sn= 6  qrot/sn=   21884.7966 T*S(rot)=     6.81 kcal/mol T*S(tot)=    20.43 kcal/mol
 sn= 7  qrot/sn=   18758.3971 T*S(rot)=     6.72 kcal/mol T*S(tot)=    20.34 kcal/mol
 sn= 8  qrot/sn=   16413.5975 T*S(rot)=     6.64 kcal/mol T*S(tot)=    20.26 kcal/mol
 sn= 9  qrot/sn=   14589.8644 T*S(rot)=     6.57 kcal/mol T*S(tot)=    20.19 kcal/mol
 sn=10  qrot/sn=   13130.8780 T*S(rot)=     6.51 kcal/mol T*S(tot)=    20.13 kcal/mol
 sn=11  qrot/sn=   11937.1618 T*S(rot)=     6.45 kcal/mol T*S(tot)=    20.07 kcal/mol
 sn=12  qrot/sn=   10942.3983 T*S(rot)=     6.40 kcal/mol T*S(tot)=    20.02 kcal/mol

-------------------
GIBBS FREE ENTHALPY
-------------------

The Gibbs free enthalpy is G = H - T*S

Total enthalpy                    ...   -288.69162482 Eh
Total entropy correction          ...     -0.03320934 Eh    -20.84 kcal/mol
-----------------------------------------------------------------------
Final Gibbs free enthalpy         ...   -288.72483416 Eh

For completeness - the Gibbs free enthalpy minus the electronic energy
G-E(el)                           ...      0.12908221 Eh     81.00 kcal/mol

                             ****ORCA TERMINATED NORMALLY****
TOTAL RUN TIME: 0 days 0 hours 48 minutes 6 seconds 454 msec
