                         Program Version 3.0.3 - RELEASE   -
|  1> ! NORI PBE0 def2-TZVP UseSym TightOPT Freq TightSCF Grid3 FinalGrid5 XYZFile
|  2> % pal
|  3>     nprocs 8
|  4> end
|  5> %method
|  6>     SymThresh 5.0e-2
|  7> end
|  8> % geom
|  9>     MaxIter 10
| 10> end
| 11> % maxcore 2000
| 12> % output
| 13>     printlevel mini
| 14>     print[ P_Basis ] 0
| 15>     print[ P_SCFInfo ] 1
| 16>     print[ P_SCFIterInfo ] 1
| 17>     print[ P_OrbEn ] 0
| 18>     print[ P_Cartesian ] 0
| 19> end
| 20> % elprop
| 21>     Dipole false
| 22> end
| 23> *xyz 1 1
| 24>  C       -1.3819229443     0.6963531713     0.8410422485
| 25>  C       -1.3284540579    -0.3999045499    -0.1638199604
| 26>  N       -0.2636855864    -1.4370047541     0.0057069334
| 27>  C        1.0751259221    -0.8176735861    -0.2431536855
| 28>  C        1.5594014746     0.1858662941     0.7439463433
| 29>  C        0.8476184966     0.6414927586    -0.4911938983
| 30>  C       -0.6387023887     0.8999770221    -0.4421030002
| 31>  H       -2.3459386892     1.1783611385     0.9416701105
| 32>  H       -0.8428000409     0.6058502310     1.7752445923
| 33>  H       -2.2109560192    -0.7691721206    -0.6682961389
| 34>  H       -0.3110188119    -1.8846828497     0.9238953724
| 35>  H       -0.4146698010    -2.1729979948    -0.6854028075
| 36>  H        1.7472468217    -1.4568023490    -0.7996160009
| 37>  H        1.0826529037     0.2728645139     1.7114899436
| 38>  H        2.6342664014     0.3137148711     0.7776002702
| 39>  H        1.4087782563     1.1505869770    -1.2631276112
| 40>  H       -1.0432919370     1.5775812265    -1.1818727112
| 41> *
| 42>
| 43>                          ****END OF INPUT****
 Total Charge           Charge          ....    1
 Multiplicity           Mult            ....    1
 Number of Electrons    NEL             ....   52
FINAL SINGLE POINT ENERGY      -288.859468206914

CARTESIAN COORDINATES (ANGSTROEM)
---------------------------------
  C     -0.546331    0.729352    1.493813
  C      0.554522   -0.234386    1.220567
  N      1.387372   -0.000286   -0.000000
  C      0.554522   -0.234386   -1.220567
  C     -0.546331    0.729352   -1.493813
  C     -0.835648   -0.539610   -0.754818
  C     -0.835648   -0.539610    0.754818
  H     -0.858153    0.786842    2.529146
  H     -0.578884    1.680231    0.978121
  H      1.085097   -0.749373    2.009921
  H      1.808555    0.931425   -0.000000
  H      2.158791   -0.668844   -0.000000
  H      1.085097   -0.749373   -2.009921
  H     -0.578884    1.680231   -0.978121
  H     -0.858153    0.786842   -2.529146
  H     -1.410440   -1.313454   -1.245110
  H     -1.410440   -1.313454    1.245110

FINAL SINGLE POINT ENERGY      -288.859468573063
                    ***********************HURRAY********************
 Multiplicity           Mult            ....    1
 Number of Electrons    NEL             ....   52
 Basis Dimension        Dim             ....  277
FINAL SINGLE POINT ENERGY      -288.859468618555

VIBRATIONAL FREQUENCIES
-----------------------

   0:         0.00 cm**-1
   1:         0.00 cm**-1
   2:         0.00 cm**-1
   3:         0.00 cm**-1
   4:         0.00 cm**-1
   5:         0.00 cm**-1
   6:       255.89 cm**-1
   7:       259.21 cm**-1
   8:       435.24 cm**-1
   9:       484.26 cm**-1
  10:       672.35 cm**-1
  11:       684.15 cm**-1
  12:       733.57 cm**-1
  13:       790.63 cm**-1
  14:       819.69 cm**-1
  15:       828.77 cm**-1
  16:       855.29 cm**-1
  17:       880.31 cm**-1
  18:       945.92 cm**-1
  19:       981.30 cm**-1
  20:       985.27 cm**-1
  21:      1049.56 cm**-1
  22:      1053.99 cm**-1
  23:      1070.96 cm**-1
  24:      1083.41 cm**-1
  25:      1092.75 cm**-1
  26:      1108.13 cm**-1
  27:      1118.91 cm**-1
  28:      1125.07 cm**-1
  29:      1162.51 cm**-1
  30:      1202.46 cm**-1
  31:      1232.09 cm**-1
  32:      1283.35 cm**-1
  33:      1297.13 cm**-1
  34:      1347.54 cm**-1
  35:      1369.25 cm**-1
  36:      1414.67 cm**-1
  37:      1418.32 cm**-1
  38:      1485.72 cm**-1
  39:      1500.23 cm**-1
  40:      1645.05 cm**-1
  41:      3165.79 cm**-1
  42:      3173.51 cm**-1
  43:      3218.47 cm**-1
  44:      3221.54 cm**-1
  45:      3223.49 cm**-1
  46:      3229.90 cm**-1
  47:      3250.39 cm**-1
  48:      3256.10 cm**-1
  49:      3442.00 cm**-1
  50:      3499.13 cm**-1

IR SPECTRUM
-----------

 Mode    freq (cm**-1)   T**2         TX         TY         TZ
-------------------------------------------------------------------
   6:       255.89    1.307928  ( -0.000018   0.000048  -1.143647)
   7:       259.21    3.741992  (  0.699490  -1.803526  -0.000032)
   8:       435.24    4.444958  ( -0.673849   1.997720  -0.000001)
   9:       484.26    0.145405  (  0.000004  -0.000004   0.381321)
  10:       672.35    0.254186  ( -0.000004   0.000003   0.504168)
  11:       684.15    3.971598  ( -1.660431  -1.102074   0.000003)
  12:       733.57   14.055604  ( -3.629716  -0.938492  -0.000007)
  13:       790.63    1.839664  ( -0.000012  -0.000002   1.356342)
  14:       819.69   12.092716  (  1.607311  -3.083710   0.000027)
  15:       828.77    1.716197  (  0.000038  -0.000068  -1.310037)
  16:       855.29   14.624957  ( -0.564508   3.782365  -0.000002)
  17:       880.31    1.195677  (  0.720366  -0.822649   0.000004)
  18:       945.92    3.035219  ( -0.000008   0.000024   1.742188)
  19:       981.30    1.575275  (  1.133637  -0.538649   0.000052)
  20:       985.27    2.555904  (  0.000022  -0.000007  -1.598720)
  21:      1049.56    4.263612  (  1.949859   0.679457  -0.000102)
  22:      1053.99    2.735852  (  0.000097   0.000025   1.654041)
  23:      1070.96   10.074671  (  3.152980   0.365223  -0.000005)
  24:      1083.41    0.071505  (  0.000012  -0.000001   0.267405)
  25:      1092.75   18.585890  ( -3.897314  -1.843050  -0.000004)
  26:      1108.13    1.613152  (  0.000001   0.000001   1.270099)
  27:      1118.91    0.356563  (  0.515179  -0.301917  -0.000027)
  28:      1125.07    4.653855  (  0.000028  -0.000007   2.157280)
  29:      1162.51    5.151470  ( -1.257040   1.889794   0.000010)
  30:      1202.46    1.663695  ( -0.000003  -0.000001  -1.289843)
  31:      1232.09    1.424082  (  0.311222   1.152052  -0.000017)
  32:      1283.35    4.682087  (  0.000001  -0.000001   2.163813)
  33:      1297.13   28.705010  (  0.000001  -0.000009   5.357706)
  34:      1347.54   16.656146  (  0.000019   0.000059   4.081194)
  35:      1369.25    6.101479  (  1.402707   2.033198  -0.000114)
  36:      1414.67   17.084278  ( -0.000026  -0.000037   4.133313)
  37:      1418.32    1.726804  (  0.915464   0.942725   0.000199)
  38:      1485.72    0.032913  ( -0.000036   0.000099  -0.181419)
  39:      1500.23   25.091577  ( -1.862499   4.650019   0.000008)
  40:      1645.05   62.091007  (  7.510247   2.384786   0.000000)
  41:      3165.79    2.154850  (  0.000000   0.000000   1.467941)
  42:      3173.51    1.495954  (  1.132666   0.461544   0.000000)
  43:      3218.47    0.015517  ( -0.000000   0.000001  -0.124568)
  44:      3221.54    0.290906  (  0.517344  -0.152518  -0.000000)
  45:      3223.49    1.822356  ( -0.000000   0.000000   1.349947)
  46:      3229.90    2.153188  ( -0.863597  -1.186334  -0.000001)
  47:      3250.39    2.352579  ( -0.000001  -0.000001   1.533812)
  48:      3256.10    0.086136  ( -0.281982   0.081374   0.000001)
  49:      3442.00   59.225933  ( -7.209486  -2.692443  -0.000000)
  50:      3499.13   86.667273  ( -4.518468   8.139454   0.000000)

--------------------------
THERMOCHEMISTRY AT 298.15K
--------------------------

Temperature         ... 298.15 K
Pressure            ... 1.00 atm
Total Mass          ... 96.15 AMU

Throughout the following assumptions are being made:
  (1) The electronic state is orbitally nondegenerate
  (2) There are no thermally accessible electronically excited states
  (3) Hindered rotations indicated by low frequency modes) are not
      treated as such but are treated as vibrations and this may
      case some error
  (4) All equations used are the standard statistical mechanics
      equations for an ideal gas
  (5) All vibrations are strinctly harmonic

------------
INNER ENERGY
------------

The inner energy is: U= E(el) + E(ZPE) + E(vib) + E(rot) + E(trans)
    E(el)   - is the total energy from the electronic structure calculation
              = E(kin-el) + E(nuc-el) + E(el-el) + E(nuc-nuc)
    E(ZPE)  - the the zero temperature vibrational energy from the frequency calculation
    E(vib)  - the the finite temperature correction to E(ZPE) due to population
              of excietd vibrational states
    E(rot)  - is the rotational thermal energy
    E(trans)- is the translational thermal energy

Summary of contributions to the inner energy U:
Electronic energy                ...   -288.85946862 Eh
Zero point energy                ...      0.15572021 Eh      97.72 kcal/mol
Thermal vibrational correction   ...      0.00260746 Eh       1.64 kcal/mol
Thermal rotational correction    ...      0.00141627 Eh       0.89 kcal/mol
Thermal translational correction ...      0.00141627 Eh       0.89 kcal/mol
-----------------------------------------------------------------------
Total thermal energy                   -288.69830840 Eh

Summary of corrections to the electronic energy:
(perhaps to be used in another calculation)
Total thermal correction                  0.00544000 Eh       3.41 kcal/mol
Non-thermal (ZPE) correction              0.15572021 Eh      97.72 kcal/mol
-----------------------------------------------------------------------
Total correction                          0.16116022 Eh     101.13 kcal/mol

--------
ENTHALPY
--------

The enthalpy is H = U + kB*T
                kB is Boltzmann's constant
Total free energy                 ...   -288.69830840 Eh
Thermal Enthalpy correction       ...      0.00094421 Eh       0.59 kcal/mol
-----------------------------------------------------------------------
Total Enthalpy                    ...   -288.69736419 Eh

-------
ENTROPY
-------

The entropy contributions are T*S = T*(S(el)+S(vib)+S(rot)+S(trans)
     S(el)   - electronic entropy
     S(vib)  - vibrational entropy
     S(rot)  - rotational entropy
     S(trans)- translational entropy
The entropies will be listed as mutliplied by the temperature to get
units of energy

Electronic entropy                ...      0.00000000 Eh      0.00 kcal/mol
Vibrational entropy               ...      0.00374158 Eh      2.35 kcal/mol
Rotational entropy                ...      0.01160238 Eh      7.28 kcal/mol
Translational entropy             ...      0.01881568 Eh     11.81 kcal/mol
-----------------------------------------------------------------------
Final entropy term                ...      0.03415964 Eh     21.44 kcal/mol

CAUTION: The rotational entropy is not quite correctly treated here
         because it includes a symmetry number that is not yet correctly
         implemented in ORCA!
For a nonlinear molecule the correct rotational entropy is:
    S(rot) = R*(ln(qrot/sn)+1.5)
    R    = 8.31441 J/mol/K = 1.987191683e-3 kcal/mol/K
    qrot = 145352.6175798
    sn is the rotational symmetry number. We have assumed 3 here
       if it is different for your molecule then you should correct
       the printed rotational entropy by manually evaluating the equation
       as given above

For convenience we print out the resulting values for sn=1 - 12:
 sn= 1  qrot/sn=  145352.6176 T*S(rot)=     7.93 kcal/mol T*S(tot)=    22.09 kcal/mol
 sn= 2  qrot/sn=   72676.3088 T*S(rot)=     7.52 kcal/mol T*S(tot)=    21.68 kcal/mol
 sn= 3  qrot/sn=   48450.8725 T*S(rot)=     7.28 kcal/mol T*S(tot)=    21.44 kcal/mol
 sn= 4  qrot/sn=   36338.1544 T*S(rot)=     7.11 kcal/mol T*S(tot)=    21.27 kcal/mol
 sn= 5  qrot/sn=   29070.5235 T*S(rot)=     6.98 kcal/mol T*S(tot)=    21.13 kcal/mol
 sn= 6  qrot/sn=   24225.4363 T*S(rot)=     6.87 kcal/mol T*S(tot)=    21.02 kcal/mol
 sn= 7  qrot/sn=   20764.6597 T*S(rot)=     6.78 kcal/mol T*S(tot)=    20.93 kcal/mol
 sn= 8  qrot/sn=   18169.0772 T*S(rot)=     6.70 kcal/mol T*S(tot)=    20.85 kcal/mol
 sn= 9  qrot/sn=   16150.2908 T*S(rot)=     6.63 kcal/mol T*S(tot)=    20.78 kcal/mol
 sn=10  qrot/sn=   14535.2618 T*S(rot)=     6.57 kcal/mol T*S(tot)=    20.72 kcal/mol
 sn=11  qrot/sn=   13213.8743 T*S(rot)=     6.51 kcal/mol T*S(tot)=    20.67 kcal/mol
 sn=12  qrot/sn=   12112.7181 T*S(rot)=     6.46 kcal/mol T*S(tot)=    20.61 kcal/mol

-------------------
GIBBS FREE ENTHALPY
-------------------

The Gibbs free enthalpy is G = H - T*S

Total enthalpy                    ...   -288.69736419 Eh
Total entropy correction          ...     -0.03415964 Eh    -21.44 kcal/mol
-----------------------------------------------------------------------
Final Gibbs free enthalpy         ...   -288.73152384 Eh

For completeness - the Gibbs free enthalpy minus the electronic energy
G-E(el)                           ...      0.12794478 Eh     80.29 kcal/mol

                             ****ORCA TERMINATED NORMALLY****
TOTAL RUN TIME: 0 days 0 hours 45 minutes 41 seconds 560 msec
