                         Program Version 3.0.3 - RELEASE   -
|  1> ! NORI PBE0 def2-TZVP UseSym TightOPT Freq TightSCF Grid3 FinalGrid5 XYZFile
|  2> % pal
|  3>     nprocs 8
|  4> end
|  5> %method
|  6>     SymThresh 5.0e-2
|  7> end
|  8> % geom
|  9>     MaxIter 10
| 10> end
| 11> % maxcore 2000
| 12> % output
| 13>     printlevel mini
| 14>     print[ P_Basis ] 0
| 15>     print[ P_SCFInfo ] 1
| 16>     print[ P_SCFIterInfo ] 1
| 17>     print[ P_OrbEn ] 0
| 18>     print[ P_Cartesian ] 0
| 19> end
| 20> % elprop
| 21>     Dipole false
| 22> end
| 23> *xyz 1 1
| 24>  C       -0.4175757564    -0.9902621490    -0.4851445977
| 25>  C        0.8788821065    -1.1179313744    -1.2187112486
| 26>  C        0.7947879762    -0.2536602955     0.0019694708
| 27>  C        1.5061627659    -0.6319916164     1.2638313983
| 28>  C        0.7802390478    -0.4111986264     2.6050044587
| 29>  N        1.2837061130    -1.7596336586     3.0877111719
| 30>  C        1.6290781830    -2.1154537293     1.6529586137
| 31>  H       -0.7751676838    -1.8556687220     0.0628521806
| 32>  H       -1.2113108014    -0.4068090675    -0.9331672044
| 33>  H        0.9842875921    -0.6318597077    -2.1791898567
| 34>  H        1.4079797082    -2.0617897704    -1.1456185290
| 35>  H        0.8004086105     0.8162830528    -0.1786609379
| 36>  H        2.4928884739    -0.1614678193     1.2875671927
| 37>  H       -0.3043758898    -0.4575608020     2.5142706555
| 38>  H        1.0785095669     0.4081890100     3.2554829353
| 39>  H        2.1101178623    -1.6789797184     3.6782299857
| 40>  H        0.6116656867    -2.3606050940     3.5626320022
| 41>  H        2.5929464957    -2.6111429079     1.5636070725
| 42>  H        0.8378199426    -2.7498670041     1.2559052364
| 43> *
| 44>
| 45>                          ****END OF INPUT****
 Total Charge           Charge          ....    1
 Multiplicity           Mult            ....    1
 Number of Electrons    NEL             ....   54
FINAL SINGLE POINT ENERGY      -290.072065755499
FINAL SINGLE POINT ENERGY      -290.072067274290

CARTESIAN COORDINATES (ANGSTROEM)
---------------------------------
  C      1.160520   -0.000022   -1.665107
  C     -0.007196    0.826953   -2.101070
  C     -0.227346   -0.383862   -1.247180
  C     -0.699245   -0.252614    0.167662
  C     -0.073263   -1.174428    1.231982
  N      0.001929    0.000004    2.190742
  C     -0.225192    0.938070    1.019124
  H      1.840252    0.429538   -0.936713
  H      1.653368   -0.625811   -2.397406
  H     -0.319626    0.782930   -3.135767
  H     -0.128782    1.804879   -1.648372
  H     -0.650960   -1.245081   -1.753220
  H     -1.790287   -0.321101    0.203441
  H      0.940751   -1.483779    0.982155
  H     -0.644502   -2.009487    1.631112
  H     -0.771772    0.012055    2.853564
  H      0.869032    0.115639    2.713045
  H     -0.923060    1.739094    1.250812
  H      0.736538    1.348781    0.715734

FINAL SINGLE POINT ENERGY      -290.072067895927
                    ***********************HURRAY********************
 Multiplicity           Mult            ....    1
 Number of Electrons    NEL             ....   54
 Basis Dimension        Dim             ....  289
FINAL SINGLE POINT ENERGY      -290.072067971810

VIBRATIONAL FREQUENCIES
-----------------------

   0:         0.00 cm**-1
   1:         0.00 cm**-1
   2:         0.00 cm**-1
   3:         0.00 cm**-1
   4:         0.00 cm**-1
   5:         0.00 cm**-1
   6:        89.21 cm**-1
   7:       108.66 cm**-1
   8:       189.10 cm**-1
   9:       259.14 cm**-1
  10:       418.83 cm**-1
  11:       505.84 cm**-1
  12:       620.75 cm**-1
  13:       770.05 cm**-1
  14:       790.05 cm**-1
  15:       817.51 cm**-1
  16:       845.04 cm**-1
  17:       881.14 cm**-1
  18:       896.26 cm**-1
  19:       905.69 cm**-1
  20:       951.37 cm**-1
  21:       973.37 cm**-1
  22:       989.28 cm**-1
  23:      1041.21 cm**-1
  24:      1058.01 cm**-1
  25:      1081.04 cm**-1
  26:      1091.42 cm**-1
  27:      1122.95 cm**-1
  28:      1141.15 cm**-1
  29:      1173.88 cm**-1
  30:      1193.20 cm**-1
  31:      1246.23 cm**-1
  32:      1254.33 cm**-1
  33:      1289.99 cm**-1
  34:      1293.18 cm**-1
  35:      1319.88 cm**-1
  36:      1326.71 cm**-1
  37:      1329.28 cm**-1
  38:      1401.56 cm**-1
  39:      1421.98 cm**-1
  40:      1466.06 cm**-1
  41:      1482.01 cm**-1
  42:      1500.79 cm**-1
  43:      1518.51 cm**-1
  44:      1649.17 cm**-1
  45:      3081.37 cm**-1
  46:      3118.01 cm**-1
  47:      3122.88 cm**-1
  48:      3146.19 cm**-1
  49:      3153.59 cm**-1
  50:      3173.79 cm**-1
  51:      3193.38 cm**-1
  52:      3194.47 cm**-1
  53:      3233.32 cm**-1
  54:      3247.38 cm**-1
  55:      3472.24 cm**-1
  56:      3539.56 cm**-1

IR SPECTRUM
-----------

 Mode    freq (cm**-1)   T**2         TX         TY         TZ
-------------------------------------------------------------------
   6:        89.21    2.413339  ( -0.985123  -0.533583   1.076179)
   7:       108.66    3.014653  (  1.663276  -0.258034  -0.426127)
   8:       189.10    1.635159  (  0.089741  -0.797300   0.995700)
   9:       259.14    3.117877  (  0.157555  -0.267619  -1.738227)
  10:       418.83    1.092450  (  0.928825   0.075262   0.473360)
  11:       505.84    1.873748  (  0.359800   0.038249  -1.320162)
  12:       620.75    4.849468  ( -2.044795  -0.807439  -0.127755)
  13:       770.05    0.838831  (  0.731894  -0.497920  -0.235028)
  14:       790.05    1.895799  (  0.745312  -0.888023  -0.742781)
  15:       817.51    5.833847  ( -0.560059   2.169452  -0.902031)
  16:       845.04    5.044600  (  2.046850  -0.493875   0.781724)
  17:       881.14    8.655177  ( -2.570737  -1.414435   0.214155)
  18:       896.26    8.583430  ( -0.403888   1.090948  -2.688891)
  19:       905.69    2.155656  (  0.032934  -1.272708   0.731290)
  20:       951.37    5.259307  ( -2.012679   0.771582   0.783001)
  21:       973.37    6.082241  ( -1.532435  -1.428092  -1.301706)
  22:       989.28    0.951769  ( -0.141815   0.865908  -0.426452)
  23:      1041.21    4.955339  ( -1.185550  -1.390444   1.271407)
  24:      1058.01    9.241958  (  1.734665   2.028642  -1.455166)
  25:      1081.04    3.980845  (  0.564640  -0.615235   1.812047)
  26:      1091.42    2.933672  ( -1.613836   0.573478   0.018118)
  27:      1122.95    2.082422  (  0.943901   0.003752   1.091540)
  28:      1141.15    0.470747  ( -0.327464   0.598459  -0.073222)
  29:      1173.88    0.966704  ( -0.251489   0.689224  -0.654544)
  30:      1193.20    1.421352  ( -0.895277   0.580335  -0.532017)
  31:      1246.23   22.446189  (  0.826569  -4.659000  -0.238093)
  32:      1254.33   16.791033  ( -0.255629  -3.814608   1.474604)
  33:      1289.99    4.223702  (  1.401889  -1.387622  -0.576988)
  34:      1293.18   10.333672  ( -0.384400  -3.082803   0.825974)
  35:      1319.88    0.500979  ( -0.216954   0.652830   0.166505)
  36:      1326.71   30.413452  (  0.595688  -5.469171   0.383111)
  37:      1329.28    4.535426  (  1.434298   1.489847   0.508498)
  38:      1401.56    3.296841  (  0.792458   0.458614  -1.567968)
  39:      1421.98    2.861393  (  1.153281   1.027972  -0.688918)
  40:      1466.06    9.575206  ( -1.713418   2.509455  -0.584845)
  41:      1482.01    8.207743  (  0.119170   2.862297   0.028203)
  42:      1500.79    9.806055  (  2.725149  -0.358827   1.500287)
  43:      1518.51    4.175867  ( -1.209028  -1.639077   0.165970)
  44:      1649.17   63.159722  ( -0.640583  -0.736359  -7.887151)
  45:      3081.37    5.966963  (  2.072225   0.237399  -1.271412)
  46:      3118.01    1.217069  (  0.281157  -0.985364   0.408751)
  47:      3122.88    0.883490  (  0.723321   0.507187   0.321027)
  48:      3146.19    9.083930  (  2.169489   0.004171   2.092184)
  49:      3153.59    6.505816  (  0.099101  -2.158478  -1.355347)
  50:      3173.79    1.155602  ( -0.656503  -0.844901   0.103667)
  51:      3193.38    0.321687  ( -0.088187   0.550609  -0.103637)
  52:      3194.47    0.009865  ( -0.047262   0.023650   0.084094)
  53:      3233.32    0.637443  ( -0.398210  -0.235680  -0.650636)
  54:      3247.38    2.465027  ( -0.239603  -0.851364  -1.297227)
  55:      3472.24   71.561381  (  0.823474   0.749543   8.385789)
  56:      3539.56   86.191039  (  9.131700   0.513160  -1.593660)

--------------------------
THERMOCHEMISTRY AT 298.15K
--------------------------

Temperature         ... 298.15 K
Pressure            ... 1.00 atm
Total Mass          ... 98.17 AMU

Throughout the following assumptions are being made:
  (1) The electronic state is orbitally nondegenerate
  (2) There are no thermally accessible electronically excited states
  (3) Hindered rotations indicated by low frequency modes) are not
      treated as such but are treated as vibrations and this may
      case some error
  (4) All equations used are the standard statistical mechanics
      equations for an ideal gas
  (5) All vibrations are strinctly harmonic

------------
INNER ENERGY
------------

The inner energy is: U= E(el) + E(ZPE) + E(vib) + E(rot) + E(trans)
    E(el)   - is the total energy from the electronic structure calculation
              = E(kin-el) + E(nuc-el) + E(el-el) + E(nuc-nuc)
    E(ZPE)  - the the zero temperature vibrational energy from the frequency calculation
    E(vib)  - the the finite temperature correction to E(ZPE) due to population
              of excietd vibrational states
    E(rot)  - is the rotational thermal energy
    E(trans)- is the translational thermal energy

Summary of contributions to the inner energy U:
Electronic energy                ...   -290.07206797 Eh
Zero point energy                ...      0.17790205 Eh     111.63 kcal/mol
Thermal vibrational correction   ...      0.00409512 Eh       2.57 kcal/mol
Thermal rotational correction    ...      0.00141627 Eh       0.89 kcal/mol
Thermal translational correction ...      0.00141627 Eh       0.89 kcal/mol
-----------------------------------------------------------------------
Total thermal energy                   -289.88723826 Eh

Summary of corrections to the electronic energy:
(perhaps to be used in another calculation)
Total thermal correction                  0.00692767 Eh       4.35 kcal/mol
Non-thermal (ZPE) correction              0.17790205 Eh     111.63 kcal/mol
-----------------------------------------------------------------------
Total correction                          0.18482971 Eh     115.98 kcal/mol

--------
ENTHALPY
--------

The enthalpy is H = U + kB*T
                kB is Boltzmann's constant
Total free energy                 ...   -289.88723826 Eh
Thermal Enthalpy correction       ...      0.00094421 Eh       0.59 kcal/mol
-----------------------------------------------------------------------
Total Enthalpy                    ...   -289.88629405 Eh

-------
ENTROPY
-------

The entropy contributions are T*S = T*(S(el)+S(vib)+S(rot)+S(trans)
     S(el)   - electronic entropy
     S(vib)  - vibrational entropy
     S(rot)  - rotational entropy
     S(trans)- translational entropy
The entropies will be listed as mutliplied by the temperature to get
units of energy

Electronic entropy                ...      0.00000000 Eh      0.00 kcal/mol
Vibrational entropy               ...      0.00720290 Eh      4.52 kcal/mol
Rotational entropy                ...      0.01194807 Eh      7.50 kcal/mol
Translational entropy             ...      0.01884507 Eh     11.83 kcal/mol
-----------------------------------------------------------------------
Final entropy term                ...      0.03799604 Eh     23.84 kcal/mol

CAUTION: The rotational entropy is not quite correctly treated here
         because it includes a symmetry number that is not yet correctly
         implemented in ORCA!
For a nonlinear molecule the correct rotational entropy is:
    S(rot) = R*(ln(qrot/sn)+1.5)
    R    = 8.31441 J/mol/K = 1.987191683e-3 kcal/mol/K
    qrot = 209617.2053963
    sn is the rotational symmetry number. We have assumed 3 here
       if it is different for your molecule then you should correct
       the printed rotational entropy by manually evaluating the equation
       as given above

For convenience we print out the resulting values for sn=1 - 12:
 sn= 1  qrot/sn=  209617.2054 T*S(rot)=     8.15 kcal/mol T*S(tot)=    24.49 kcal/mol
 sn= 2  qrot/sn=  104808.6027 T*S(rot)=     7.74 kcal/mol T*S(tot)=    24.08 kcal/mol
 sn= 3  qrot/sn=   69872.4018 T*S(rot)=     7.50 kcal/mol T*S(tot)=    23.84 kcal/mol
 sn= 4  qrot/sn=   52404.3013 T*S(rot)=     7.33 kcal/mol T*S(tot)=    23.67 kcal/mol
 sn= 5  qrot/sn=   41923.4411 T*S(rot)=     7.19 kcal/mol T*S(tot)=    23.54 kcal/mol
 sn= 6  qrot/sn=   34936.2009 T*S(rot)=     7.09 kcal/mol T*S(tot)=    23.43 kcal/mol
 sn= 7  qrot/sn=   29945.3151 T*S(rot)=     7.00 kcal/mol T*S(tot)=    23.34 kcal/mol
 sn= 8  qrot/sn=   26202.1507 T*S(rot)=     6.92 kcal/mol T*S(tot)=    23.26 kcal/mol
 sn= 9  qrot/sn=   23290.8006 T*S(rot)=     6.85 kcal/mol T*S(tot)=    23.19 kcal/mol
 sn=10  qrot/sn=   20961.7205 T*S(rot)=     6.78 kcal/mol T*S(tot)=    23.13 kcal/mol
 sn=11  qrot/sn=   19056.1096 T*S(rot)=     6.73 kcal/mol T*S(tot)=    23.07 kcal/mol
 sn=12  qrot/sn=   17468.1004 T*S(rot)=     6.68 kcal/mol T*S(tot)=    23.02 kcal/mol

-------------------
GIBBS FREE ENTHALPY
-------------------

The Gibbs free enthalpy is G = H - T*S

Total enthalpy                    ...   -289.88629405 Eh
Total entropy correction          ...     -0.03799604 Eh    -23.84 kcal/mol
-----------------------------------------------------------------------
Final Gibbs free enthalpy         ...   -289.92429009 Eh

For completeness - the Gibbs free enthalpy minus the electronic energy
G-E(el)                           ...      0.14777788 Eh     92.73 kcal/mol

                             ****ORCA TERMINATED NORMALLY****
TOTAL RUN TIME: 0 days 0 hours 52 minutes 8 seconds 922 msec
