                         Program Version 3.0.3 - RELEASE   -
|  1> ! NORI PBE0 def2-TZVP UseSym TightOPT Freq TightSCF Grid3 FinalGrid5 XYZFile
|  2> % pal
|  3>     nprocs 8
|  4> end
|  5> %method
|  6>     SymThresh 5.0e-2
|  7> end
|  8> % geom
|  9>     MaxIter 10
| 10> end
| 11> % maxcore 2000
| 12> % output
| 13>     printlevel mini
| 14>     print[ P_Basis ] 0
| 15>     print[ P_SCFInfo ] 1
| 16>     print[ P_SCFIterInfo ] 1
| 17>     print[ P_OrbEn ] 0
| 18>     print[ P_Cartesian ] 0
| 19> end
| 20> % elprop
| 21>     Dipole false
| 22> end
| 23> *xyz 1 1
| 24>  C        1.2475357641     0.2857619606     0.1477612028
| 25>  C        0.9010749964     1.6252575212     0.7449906035
| 26>  C       -0.4931357932     2.1524987557     0.6145672205
| 27>  C        0.0104786064     1.7114631781     1.9513974465
| 28>  C        2.4205083029    -0.3147568358     0.8649438906
| 29>  C        2.2690987490    -1.2418313120     1.9943098513
| 30>  N        2.6732682047    -1.7816961710     0.6716787949
| 31>  H        1.4944775977     0.3927304223    -0.9138143736
| 32>  H        0.3828917950    -0.3851122328     0.2202002485
| 33>  H        1.6946410258     2.3630598194     0.6758832342
| 34>  H       -1.2273815127     1.5295709990     0.1183867909
| 35>  H       -0.6141171454     3.2123084983     0.4337758674
| 36>  H       -0.3963507943     0.7919000941     2.3567548142
| 37>  H        0.2305711912     2.4657641514     2.6957176944
| 38>  H        3.3491883294     0.2453057142     0.8244970380
| 39>  H        3.0400622120    -1.3125398945     2.7509896217
| 40>  H        1.2751602228    -1.5431236889     2.2987862747
| 41>  H        3.6254067323    -2.1091983810     0.5538397857
| 42>  H        1.9864515159    -2.3098825982     0.1441039938
| 43> *
| 44>
| 45>                          ****END OF INPUT****
 Total Charge           Charge          ....    1
 Multiplicity           Mult            ....    1
 Number of Electrons    NEL             ....   54
FINAL SINGLE POINT ENERGY      -290.065820243270
FINAL SINGLE POINT ENERGY      -290.065821820831

CARTESIAN COORDINATES (ANGSTROEM)
---------------------------------
  C      0.845826    0.003703    0.083182
  C      0.389682    0.414490   -1.293227
  C      0.734393   -0.443182   -2.469747
  C     -0.683323   -0.361371   -2.002217
  C     -0.056148    0.592134    1.127321
  C     -1.218833   -0.126840    1.664213
  N     -0.000060   -0.002809    2.503937
  H      1.871168    0.343217    0.263480
  H      0.841088   -1.089992    0.161881
  H      0.406190    1.485991   -1.466894
  H      1.276487   -1.363077   -2.285971
  H      1.001718    0.054355   -3.392380
  H     -1.096222   -1.235306   -1.510738
  H     -1.395439    0.185881   -2.605644
  H     -0.096765    1.675697    1.175734
  H     -2.071634    0.419775    2.045396
  H     -1.412853   -1.138219    1.329718
  H     -0.029131    0.610679    3.310520
  H      0.573373   -0.829397    2.633634

FINAL SINGLE POINT ENERGY      -290.065822753575
                    ***********************HURRAY********************
 Multiplicity           Mult            ....    1
 Number of Electrons    NEL             ....   54
 Basis Dimension        Dim             ....  289
FINAL SINGLE POINT ENERGY      -290.065823098001

VIBRATIONAL FREQUENCIES
-----------------------

   0:         0.00 cm**-1
   1:         0.00 cm**-1
   2:         0.00 cm**-1
   3:         0.00 cm**-1
   4:         0.00 cm**-1
   5:         0.00 cm**-1
   6:        72.33 cm**-1
   7:        86.13 cm**-1
   8:       156.14 cm**-1
   9:       306.67 cm**-1
  10:       343.46 cm**-1
  11:       378.66 cm**-1
  12:       449.70 cm**-1
  13:       778.68 cm**-1
  14:       788.43 cm**-1
  15:       810.53 cm**-1
  16:       834.01 cm**-1
  17:       860.00 cm**-1
  18:       868.68 cm**-1
  19:       882.17 cm**-1
  20:       912.54 cm**-1
  21:       952.77 cm**-1
  22:       991.94 cm**-1
  23:      1014.31 cm**-1
  24:      1038.95 cm**-1
  25:      1060.64 cm**-1
  26:      1087.91 cm**-1
  27:      1093.28 cm**-1
  28:      1134.61 cm**-1
  29:      1157.34 cm**-1
  30:      1187.13 cm**-1
  31:      1196.77 cm**-1
  32:      1223.39 cm**-1
  33:      1242.18 cm**-1
  34:      1250.23 cm**-1
  35:      1264.25 cm**-1
  36:      1294.29 cm**-1
  37:      1330.81 cm**-1
  38:      1420.31 cm**-1
  39:      1432.30 cm**-1
  40:      1463.16 cm**-1
  41:      1476.82 cm**-1
  42:      1496.91 cm**-1
  43:      1513.82 cm**-1
  44:      1632.47 cm**-1
  45:      3037.99 cm**-1
  46:      3089.70 cm**-1
  47:      3149.75 cm**-1
  48:      3160.49 cm**-1
  49:      3164.67 cm**-1
  50:      3172.71 cm**-1
  51:      3190.85 cm**-1
  52:      3236.72 cm**-1
  53:      3252.17 cm**-1
  54:      3274.12 cm**-1
  55:      3515.30 cm**-1
  56:      3619.88 cm**-1

IR SPECTRUM
-----------

 Mode    freq (cm**-1)   T**2         TX         TY         TZ
-------------------------------------------------------------------
   6:        72.33    0.791029  ( -0.181057  -0.786682  -0.373336)
   7:        86.13    2.384968  ( -0.479545  -0.513501  -1.375253)
   8:       156.14    1.715392  (  0.859625  -0.986083   0.063851)
   9:       306.67    0.052570  (  0.132377   0.027128   0.185232)
  10:       343.46    3.746784  (  0.767788   0.480424  -1.710695)
  11:       378.66    0.130564  ( -0.288711  -0.088792   0.198308)
  12:       449.70    1.748342  (  1.101426   0.311952  -0.661731)
  13:       778.68    2.994917  ( -0.394557  -0.449949  -1.623819)
  14:       788.43    6.320681  (  0.386877   0.636486   2.401227)
  15:       810.53    6.013629  ( -0.949270  -1.942623   1.157036)
  16:       834.01   14.879491  (  0.463082  -0.737767  -3.757758)
  17:       860.00   22.861051  (  3.174900  -0.139038   3.572356)
  18:       868.68    2.843547  ( -1.284485   1.083309  -0.141728)
  19:       882.17    9.500446  (  1.057037  -0.645146  -2.822570)
  20:       912.54    0.508323  ( -0.016371   0.693238  -0.165757)
  21:       952.77    5.898217  (  1.351119   1.339138  -1.509770)
  22:       991.94   25.426547  ( -0.469607  -1.390064  -4.824286)
  23:      1014.31   83.300374  (  6.303855   5.316154  -3.911558)
  24:      1038.95    9.839488  (  3.030846   0.048989  -0.806882)
  25:      1060.64   14.199233  ( -2.552328  -2.533800  -1.124596)
  26:      1087.91    0.647552  (  0.453929  -0.494078  -0.444284)
  27:      1093.28    6.031213  (  2.311862   0.034354  -0.827844)
  28:      1134.61    1.941476  (  0.811586  -0.015534  -1.132503)
  29:      1157.34    1.516426  ( -0.131034   1.213409  -0.163996)
  30:      1187.13    2.103546  (  0.202299   0.982501  -1.047527)
  31:      1196.77    1.088603  (  0.899142   0.379057  -0.369407)
  32:      1223.39    0.753855  ( -0.278369  -0.816132  -0.101458)
  33:      1242.18    0.958816  ( -0.341503  -0.903481  -0.160981)
  34:      1250.23    5.089495  ( -1.393191   1.091774   1.398765)
  35:      1264.25    2.637792  (  0.174127  -0.043015   1.614194)
  36:      1294.29    3.417134  ( -0.908755   0.790526   1.402272)
  37:      1330.81    0.435791  (  0.107549   0.451605   0.469337)
  38:      1420.31    1.115113  (  0.177905  -0.894976  -0.531489)
  39:      1432.30    4.221320  ( -0.758509  -0.086952  -1.907465)
  40:      1463.16    8.279945  (  2.666590  -0.978124  -0.460993)
  41:      1476.82    6.312663  ( -0.866329   2.127885  -1.016977)
  42:      1496.91   10.872769  ( -2.720771  -1.517213   1.080851)
  43:      1513.82    4.355520  (  0.647327   1.969076   0.243366)
  44:      1632.47   70.691611  (  3.269946  -2.265644   7.407153)
  45:      3037.99   10.512365  (  1.252565  -1.860930   2.341023)
  46:      3089.70    4.922794  ( -1.561365  -1.502670  -0.476359)
  47:      3149.75    8.474775  ( -2.299129  -1.285637   1.239322)
  48:      3160.49    3.569964  ( -0.904014   1.644686   0.218479)
  49:      3164.67    3.452577  ( -0.426228  -1.797537  -0.199415)
  50:      3172.71    2.046826  ( -1.416970  -0.197535   0.001796)
  51:      3190.85    0.505637  (  0.081262   0.537240  -0.458701)
  52:      3236.72    1.040902  ( -0.116240  -0.671263   0.759471)
  53:      3252.17    2.166684  ( -0.156447   1.185212  -0.858768)
  54:      3274.12    4.433898  ( -0.782804   1.843369   0.650467)
  55:      3515.30  116.500624  ( -4.375240   1.451184  -9.759711)
  56:      3619.88  122.127140  ( -3.658454   9.080551   5.127031)

--------------------------
THERMOCHEMISTRY AT 298.15K
--------------------------

Temperature         ... 298.15 K
Pressure            ... 1.00 atm
Total Mass          ... 98.17 AMU

Throughout the following assumptions are being made:
  (1) The electronic state is orbitally nondegenerate
  (2) There are no thermally accessible electronically excited states
  (3) Hindered rotations indicated by low frequency modes) are not
      treated as such but are treated as vibrations and this may
      case some error
  (4) All equations used are the standard statistical mechanics
      equations for an ideal gas
  (5) All vibrations are strinctly harmonic

------------
INNER ENERGY
------------

The inner energy is: U= E(el) + E(ZPE) + E(vib) + E(rot) + E(trans)
    E(el)   - is the total energy from the electronic structure calculation
              = E(kin-el) + E(nuc-el) + E(el-el) + E(nuc-nuc)
    E(ZPE)  - the the zero temperature vibrational energy from the frequency calculation
    E(vib)  - the the finite temperature correction to E(ZPE) due to population
              of excietd vibrational states
    E(rot)  - is the rotational thermal energy
    E(trans)- is the translational thermal energy

Summary of contributions to the inner energy U:
Electronic energy                ...   -290.06582310 Eh
Zero point energy                ...      0.17621414 Eh     110.58 kcal/mol
Thermal vibrational correction   ...      0.00452272 Eh       2.84 kcal/mol
Thermal rotational correction    ...      0.00141627 Eh       0.89 kcal/mol
Thermal translational correction ...      0.00141627 Eh       0.89 kcal/mol
-----------------------------------------------------------------------
Total thermal energy                   -289.88225369 Eh

Summary of corrections to the electronic energy:
(perhaps to be used in another calculation)
Total thermal correction                  0.00735526 Eh       4.62 kcal/mol
Non-thermal (ZPE) correction              0.17621414 Eh     110.58 kcal/mol
-----------------------------------------------------------------------
Total correction                          0.18356941 Eh     115.19 kcal/mol

--------
ENTHALPY
--------

The enthalpy is H = U + kB*T
                kB is Boltzmann's constant
Total free energy                 ...   -289.88225369 Eh
Thermal Enthalpy correction       ...      0.00094421 Eh       0.59 kcal/mol
-----------------------------------------------------------------------
Total Enthalpy                    ...   -289.88130948 Eh

-------
ENTROPY
-------

The entropy contributions are T*S = T*(S(el)+S(vib)+S(rot)+S(trans)
     S(el)   - electronic entropy
     S(vib)  - vibrational entropy
     S(rot)  - rotational entropy
     S(trans)- translational entropy
The entropies will be listed as mutliplied by the temperature to get
units of energy

Electronic entropy                ...      0.00000000 Eh      0.00 kcal/mol
Vibrational entropy               ...      0.00823115 Eh      5.17 kcal/mol
Rotational entropy                ...      0.01208961 Eh      7.59 kcal/mol
Translational entropy             ...      0.01884507 Eh     11.83 kcal/mol
-----------------------------------------------------------------------
Final entropy term                ...      0.03916583 Eh     24.58 kcal/mol

CAUTION: The rotational entropy is not quite correctly treated here
         because it includes a symmetry number that is not yet correctly
         implemented in ORCA!
For a nonlinear molecule the correct rotational entropy is:
    S(rot) = R*(ln(qrot/sn)+1.5)
    R    = 8.31441 J/mol/K = 1.987191683e-3 kcal/mol/K
    qrot = 243518.0548107
    sn is the rotational symmetry number. We have assumed 3 here
       if it is different for your molecule then you should correct
       the printed rotational entropy by manually evaluating the equation
       as given above

For convenience we print out the resulting values for sn=1 - 12:
 sn= 1  qrot/sn=  243518.0548 T*S(rot)=     8.24 kcal/mol T*S(tot)=    25.23 kcal/mol
 sn= 2  qrot/sn=  121759.0274 T*S(rot)=     7.83 kcal/mol T*S(tot)=    24.82 kcal/mol
 sn= 3  qrot/sn=   81172.6849 T*S(rot)=     7.59 kcal/mol T*S(tot)=    24.58 kcal/mol
 sn= 4  qrot/sn=   60879.5137 T*S(rot)=     7.42 kcal/mol T*S(tot)=    24.41 kcal/mol
 sn= 5  qrot/sn=   48703.6110 T*S(rot)=     7.28 kcal/mol T*S(tot)=    24.27 kcal/mol
 sn= 6  qrot/sn=   40586.3425 T*S(rot)=     7.18 kcal/mol T*S(tot)=    24.17 kcal/mol
 sn= 7  qrot/sn=   34788.2935 T*S(rot)=     7.08 kcal/mol T*S(tot)=    24.07 kcal/mol
 sn= 8  qrot/sn=   30439.7569 T*S(rot)=     7.01 kcal/mol T*S(tot)=    24.00 kcal/mol
 sn= 9  qrot/sn=   27057.5616 T*S(rot)=     6.94 kcal/mol T*S(tot)=    23.93 kcal/mol
 sn=10  qrot/sn=   24351.8055 T*S(rot)=     6.87 kcal/mol T*S(tot)=    23.86 kcal/mol
 sn=11  qrot/sn=   22138.0050 T*S(rot)=     6.82 kcal/mol T*S(tot)=    23.81 kcal/mol
 sn=12  qrot/sn=   20293.1712 T*S(rot)=     6.76 kcal/mol T*S(tot)=    23.76 kcal/mol

-------------------
GIBBS FREE ENTHALPY
-------------------

The Gibbs free enthalpy is G = H - T*S

Total enthalpy                    ...   -289.88130948 Eh
Total entropy correction          ...     -0.03916583 Eh    -24.58 kcal/mol
-----------------------------------------------------------------------
Final Gibbs free enthalpy         ...   -289.92047531 Eh

For completeness - the Gibbs free enthalpy minus the electronic energy
G-E(el)                           ...      0.14534779 Eh     91.21 kcal/mol

                             ****ORCA TERMINATED NORMALLY****
TOTAL RUN TIME: 0 days 0 hours 53 minutes 49 seconds 320 msec
