                         Program Version 3.0.3 - RELEASE   -
|  1> ! NORI PBE0 def2-TZVP UseSym TightOPT Freq TightSCF Grid3 FinalGrid5 XYZFile
|  2> % pal
|  3>     nprocs 8
|  4> end
|  5> %method
|  6>     SymThresh 5.0e-2
|  7> end
|  8> % geom
|  9>     MaxIter 10
| 10> end
| 11> % maxcore 2000
| 12> % output
| 13>     printlevel mini
| 14>     print[ P_Basis ] 0
| 15>     print[ P_SCFInfo ] 1
| 16>     print[ P_SCFIterInfo ] 1
| 17>     print[ P_OrbEn ] 0
| 18>     print[ P_Cartesian ] 0
| 19> end
| 20> % elprop
| 21>     Dipole false
| 22> end
| 23> *xyz 1 1
| 24>  C        0.9378726841     0.3071409013     0.1161598936
| 25>  C        0.8503796959     1.6397830977     0.7799125205
| 26>  C        1.7662331125     2.7617485851     0.3737284757
| 27>  C        0.3273126813     2.7990825742    -0.0162336931
| 28>  N        2.0013159689    -0.5376631267     0.7278155196
| 29>  C        2.5698640906    -1.7085024597     0.0316128937
| 30>  C        3.3967638575    -0.5106258478     0.2489144264
| 31>  H        1.1838052751     0.3980737027    -0.9444089005
| 32>  H        0.0087530761    -0.2619436892     0.2060554160
| 33>  H        0.5428471797     1.6080001806     1.8210417749
| 34>  H        2.1095995129     3.4340580213     1.1490876142
| 35>  H        2.4912827097     2.5787585734    -0.4108826200
| 36>  H        0.0788472456     2.6299465047    -1.0571010661
| 37>  H       -0.3311256687     3.4898318165     0.4928028913
| 38>  H        1.8998386474    -0.6414920413     1.7329970480
| 39>  H        2.7176323907    -2.5827407247     0.6524722543
| 40>  H        2.1407878566    -1.8853081375    -0.9464226365
| 41>  H        3.5621406720     0.1718728851    -0.5738173712
| 42>  H        4.1488890120    -0.5112108156     1.0270955593
| 43> *
| 44>
| 45>                          ****END OF INPUT****
 Total Charge           Charge          ....    1
 Multiplicity           Mult            ....    1
 Number of Electrons    NEL             ....   54
FINAL SINGLE POINT ENERGY      -290.062590332040
FINAL SINGLE POINT ENERGY      -290.062591942094

CARTESIAN COORDINATES (ANGSTROEM)
---------------------------------
  C      0.861299    0.002558    0.080589
  C      0.335442   -0.927043   -0.960053
  C     -0.743056   -0.485050   -1.910933
  C      0.656564   -0.644331   -2.398698
  N      0.000426    0.000142    1.296202
  C      0.045880    1.089790    2.290556
  C     -1.147122    0.915052    1.446213
  H      0.893676    1.034455   -0.276167
  H      1.862792   -0.276629    0.417597
  H      0.340138   -1.975109   -0.674684
  H     -1.480743   -1.218585   -2.208097
  H     -1.129015    0.524003   -1.822893
  H      1.220818    0.251961   -2.626359
  H      0.893488   -1.491841   -3.027342
  H     -0.144932   -0.928328    1.680883
  H      0.024321    0.768209    3.323655
  H      0.755408    1.870627    2.048289
  H     -1.295041    1.571313    0.599320
  H     -2.039181    0.467196    1.864179

FINAL SINGLE POINT ENERGY      -290.062592719200
                    ***********************HURRAY********************
 Multiplicity           Mult            ....    1
 Number of Electrons    NEL             ....   54
 Basis Dimension        Dim             ....  289
FINAL SINGLE POINT ENERGY      -290.062592850794

VIBRATIONAL FREQUENCIES
-----------------------

   0:         0.00 cm**-1
   1:         0.00 cm**-1
   2:         0.00 cm**-1
   3:         0.00 cm**-1
   4:         0.00 cm**-1
   5:         0.00 cm**-1
   6:        64.51 cm**-1
   7:        96.85 cm**-1
   8:       160.64 cm**-1
   9:       292.79 cm**-1
  10:       345.98 cm**-1
  11:       374.81 cm**-1
  12:       459.07 cm**-1
  13:       775.19 cm**-1
  14:       784.28 cm**-1
  15:       812.27 cm**-1
  16:       837.20 cm**-1
  17:       853.24 cm**-1
  18:       876.87 cm**-1
  19:       920.51 cm**-1
  20:       935.76 cm**-1
  21:       985.35 cm**-1
  22:      1000.12 cm**-1
  23:      1051.56 cm**-1
  24:      1067.73 cm**-1
  25:      1097.90 cm**-1
  26:      1123.24 cm**-1
  27:      1134.89 cm**-1
  28:      1148.93 cm**-1
  29:      1154.77 cm**-1
  30:      1174.77 cm**-1
  31:      1197.75 cm**-1
  32:      1217.06 cm**-1
  33:      1235.84 cm**-1
  34:      1244.25 cm**-1
  35:      1274.93 cm**-1
  36:      1315.58 cm**-1
  37:      1366.28 cm**-1
  38:      1434.69 cm**-1
  39:      1459.39 cm**-1
  40:      1465.53 cm**-1
  41:      1474.70 cm**-1
  42:      1483.82 cm**-1
  43:      1510.22 cm**-1
  44:      1523.47 cm**-1
  45:      3076.96 cm**-1
  46:      3131.07 cm**-1
  47:      3154.63 cm**-1
  48:      3161.65 cm**-1
  49:      3164.17 cm**-1
  50:      3173.16 cm**-1
  51:      3178.74 cm**-1
  52:      3241.59 cm**-1
  53:      3256.77 cm**-1
  54:      3271.62 cm**-1
  55:      3283.11 cm**-1
  56:      3540.35 cm**-1

IR SPECTRUM
-----------

 Mode    freq (cm**-1)   T**2         TX         TY         TZ
-------------------------------------------------------------------
   6:        64.51    1.076773  (  0.781463  -0.389103   0.560971)
   7:        96.85    0.806967  (  0.090067  -0.474179  -0.757634)
   8:       160.64    0.745273  ( -0.041317  -0.036322  -0.861537)
   9:       292.79    0.766113  (  0.866331  -0.062708   0.107938)
  10:       345.98    1.917334  (  0.195094  -0.959523  -0.979075)
  11:       374.81    1.407125  (  0.321299   0.569301  -0.989842)
  12:       459.07    1.401301  (  0.940263  -0.495423  -0.521309)
  13:       775.19    0.687527  ( -0.693159  -0.129786  -0.436134)
  14:       784.28    0.938708  (  0.188726  -0.323214  -0.893657)
  15:       812.27    8.345204  (  1.569712  -2.210628   0.997162)
  16:       837.20    7.334206  (  0.252582  -0.233529  -2.686238)
  17:       853.24    4.855232  (  1.455947   0.370504  -1.611886)
  18:       876.87    2.339664  (  0.275335  -0.312137   1.471878)
  19:       920.51    1.022183  ( -0.000306  -0.325773  -0.957107)
  20:       935.76   19.721142  ( -3.771571  -0.129846  -2.340841)
  21:       985.35   11.169448  ( -0.305281   1.352624  -3.040832)
  22:      1000.12   93.672628  (  3.496826  -5.694521  -7.001233)
  23:      1051.56   15.565327  (  2.057863  -0.603890   3.311472)
  24:      1067.73    2.201430  (  0.158537   0.844838  -1.209357)
  25:      1097.90    4.957714  ( -1.959850   0.391397   0.981586)
  26:      1123.24    1.402525  (  0.939563  -0.497187  -0.522065)
  27:      1134.89    0.821245  (  0.229935   0.068299  -0.873905)
  28:      1148.93    2.301052  (  0.911408   1.196956  -0.194123)
  29:      1154.77   11.284035  (  1.996471  -0.329384   2.681351)
  30:      1174.77    0.932808  (  0.643642   0.205183   0.690241)
  31:      1197.75    0.831178  ( -0.442120   0.464221   0.648234)
  32:      1217.06   11.523343  (  2.648675  -0.195596   2.114144)
  33:      1235.84    1.847343  (  0.934734   0.013979  -0.986620)
  34:      1244.25    6.290175  ( -0.075992  -0.026262  -2.506733)
  35:      1274.93   14.376223  ( -0.979494   2.961622   2.155367)
  36:      1315.58    3.365090  ( -0.073054  -1.280311   1.311700)
  37:      1366.28    5.455696  (  0.707009   0.047404   2.225665)
  38:      1434.69    1.440690  (  0.510690  -0.214655   1.064805)
  39:      1459.39   41.312177  ( -1.968035   3.002593   5.331364)
  40:      1465.53   15.336596  (  3.296310  -0.419783  -2.072370)
  41:      1474.70   20.217453  ( -3.014773  -2.261217  -2.452651)
  42:      1483.82    6.181075  (  1.529426  -1.718914   0.941947)
  43:      1510.22    1.730736  (  0.793675  -0.919125  -0.505989)
  44:      1523.47    7.055784  ( -1.355552  -1.304803   1.875035)
  45:      3076.96    4.128787  (  1.234252   1.140749   1.141973)
  46:      3131.07    0.562418  ( -0.666093   0.338836   0.062671)
  47:      3154.63    5.761343  ( -1.660593   1.546808   0.781766)
  48:      3161.65    3.719391  (  0.188977  -1.343460   1.370691)
  49:      3164.17    1.421697  ( -0.739390  -0.929637   0.103801)
  50:      3173.16    3.090409  ( -0.876369  -0.696467  -1.355478)
  51:      3178.74    1.799850  ( -1.305605   0.229424   0.206424)
  52:      3241.59    0.767635  ( -0.242774   0.768059   0.344645)
  53:      3256.77    0.488180  (  0.059045   0.695247   0.036404)
  54:      3271.62    0.769082  ( -0.368645  -0.537059   0.587154)
  55:      3283.11    8.780369  ( -1.235465  -1.708965   2.081690)
  56:      3540.35   77.984473  (  0.495253   8.344028  -2.848928)

--------------------------
THERMOCHEMISTRY AT 298.15K
--------------------------

Temperature         ... 298.15 K
Pressure            ... 1.00 atm
Total Mass          ... 98.17 AMU

Throughout the following assumptions are being made:
  (1) The electronic state is orbitally nondegenerate
  (2) There are no thermally accessible electronically excited states
  (3) Hindered rotations indicated by low frequency modes) are not
      treated as such but are treated as vibrations and this may
      case some error
  (4) All equations used are the standard statistical mechanics
      equations for an ideal gas
  (5) All vibrations are strinctly harmonic

------------
INNER ENERGY
------------

The inner energy is: U= E(el) + E(ZPE) + E(vib) + E(rot) + E(trans)
    E(el)   - is the total energy from the electronic structure calculation
              = E(kin-el) + E(nuc-el) + E(el-el) + E(nuc-nuc)
    E(ZPE)  - the the zero temperature vibrational energy from the frequency calculation
    E(vib)  - the the finite temperature correction to E(ZPE) due to population
              of excietd vibrational states
    E(rot)  - is the rotational thermal energy
    E(trans)- is the translational thermal energy

Summary of contributions to the inner energy U:
Electronic energy                ...   -290.06259285 Eh
Zero point energy                ...      0.17625401 Eh     110.60 kcal/mol
Thermal vibrational correction   ...      0.00448266 Eh       2.81 kcal/mol
Thermal rotational correction    ...      0.00141627 Eh       0.89 kcal/mol
Thermal translational correction ...      0.00141627 Eh       0.89 kcal/mol
-----------------------------------------------------------------------
Total thermal energy                   -289.87902364 Eh

Summary of corrections to the electronic energy:
(perhaps to be used in another calculation)
Total thermal correction                  0.00731520 Eh       4.59 kcal/mol
Non-thermal (ZPE) correction              0.17625401 Eh     110.60 kcal/mol
-----------------------------------------------------------------------
Total correction                          0.18356921 Eh     115.19 kcal/mol

--------
ENTHALPY
--------

The enthalpy is H = U + kB*T
                kB is Boltzmann's constant
Total free energy                 ...   -289.87902364 Eh
Thermal Enthalpy correction       ...      0.00094421 Eh       0.59 kcal/mol
-----------------------------------------------------------------------
Total Enthalpy                    ...   -289.87807943 Eh

-------
ENTROPY
-------

The entropy contributions are T*S = T*(S(el)+S(vib)+S(rot)+S(trans)
     S(el)   - electronic entropy
     S(vib)  - vibrational entropy
     S(rot)  - rotational entropy
     S(trans)- translational entropy
The entropies will be listed as mutliplied by the temperature to get
units of energy

Electronic entropy                ...      0.00000000 Eh      0.00 kcal/mol
Vibrational entropy               ...      0.00818138 Eh      5.13 kcal/mol
Rotational entropy                ...      0.01205270 Eh      7.56 kcal/mol
Translational entropy             ...      0.01884507 Eh     11.83 kcal/mol
-----------------------------------------------------------------------
Final entropy term                ...      0.03907915 Eh     24.52 kcal/mol

CAUTION: The rotational entropy is not quite correctly treated here
         because it includes a symmetry number that is not yet correctly
         implemented in ORCA!
For a nonlinear molecule the correct rotational entropy is:
    S(rot) = R*(ln(qrot/sn)+1.5)
    R    = 8.31441 J/mol/K = 1.987191683e-3 kcal/mol/K
    qrot = 234181.9117899
    sn is the rotational symmetry number. We have assumed 3 here
       if it is different for your molecule then you should correct
       the printed rotational entropy by manually evaluating the equation
       as given above

For convenience we print out the resulting values for sn=1 - 12:
 sn= 1  qrot/sn=  234181.9118 T*S(rot)=     8.21 kcal/mol T*S(tot)=    25.17 kcal/mol
 sn= 2  qrot/sn=  117090.9559 T*S(rot)=     7.80 kcal/mol T*S(tot)=    24.76 kcal/mol
 sn= 3  qrot/sn=   78060.6373 T*S(rot)=     7.56 kcal/mol T*S(tot)=    24.52 kcal/mol
 sn= 4  qrot/sn=   58545.4779 T*S(rot)=     7.39 kcal/mol T*S(tot)=    24.35 kcal/mol
 sn= 5  qrot/sn=   46836.3824 T*S(rot)=     7.26 kcal/mol T*S(tot)=    24.22 kcal/mol
 sn= 6  qrot/sn=   39030.3186 T*S(rot)=     7.15 kcal/mol T*S(tot)=    24.11 kcal/mol
 sn= 7  qrot/sn=   33454.5588 T*S(rot)=     7.06 kcal/mol T*S(tot)=    24.02 kcal/mol
 sn= 8  qrot/sn=   29272.7390 T*S(rot)=     6.98 kcal/mol T*S(tot)=    23.94 kcal/mol
 sn= 9  qrot/sn=   26020.2124 T*S(rot)=     6.91 kcal/mol T*S(tot)=    23.87 kcal/mol
 sn=10  qrot/sn=   23418.1912 T*S(rot)=     6.85 kcal/mol T*S(tot)=    23.81 kcal/mol
 sn=11  qrot/sn=   21289.2647 T*S(rot)=     6.79 kcal/mol T*S(tot)=    23.75 kcal/mol
 sn=12  qrot/sn=   19515.1593 T*S(rot)=     6.74 kcal/mol T*S(tot)=    23.70 kcal/mol

-------------------
GIBBS FREE ENTHALPY
-------------------

The Gibbs free enthalpy is G = H - T*S

Total enthalpy                    ...   -289.87807943 Eh
Total entropy correction          ...     -0.03907915 Eh    -24.52 kcal/mol
-----------------------------------------------------------------------
Final Gibbs free enthalpy         ...   -289.91715858 Eh

For completeness - the Gibbs free enthalpy minus the electronic energy
G-E(el)                           ...      0.14543427 Eh     91.26 kcal/mol

                             ****ORCA TERMINATED NORMALLY****
TOTAL RUN TIME: 0 days 0 hours 54 minutes 45 seconds 289 msec
