                         Program Version 3.0.3 - RELEASE   -
|  1> ! NORI PBE0 def2-TZVP UseSym TightOPT Freq TightSCF Grid3 FinalGrid5 XYZFile
|  2> % pal
|  3>     nprocs 8
|  4> end
|  5> %method
|  6>     SymThresh 5.0e-2
|  7> end
|  8> % geom
|  9>     MaxIter 10
| 10> end
| 11> % maxcore 2000
| 12> % output
| 13>     printlevel mini
| 14>     print[ P_Basis ] 0
| 15>     print[ P_SCFInfo ] 1
| 16>     print[ P_SCFIterInfo ] 1
| 17>     print[ P_OrbEn ] 0
| 18>     print[ P_Cartesian ] 0
| 19> end
| 20> % elprop
| 21>     Dipole false
| 22> end
| 23> *xyz 1 1
| 24>  C       -0.1582318125     0.4531532679    -0.6117124081
| 25>  C       -0.8318852838    -0.7985706795    -0.1344404913
| 26>  C        0.6453663512    -0.7634179463    -0.3194189162
| 27>  N        1.5058471038    -0.7821075114     0.8841681759
| 28>  C        2.8903732235    -0.3099819391     0.6613377650
| 29>  C        3.2007493280     1.1309047713     0.8600981641
| 30>  C        3.6964081650     0.1100234768     1.8404349973
| 31>  H       -0.2539614141     0.7431269545    -1.6493597638
| 32>  H       -0.1062237288     1.2883059515     0.0776517204
| 33>  H       -1.4027773479    -1.3944592364    -0.8341525698
| 34>  H       -1.2274287346    -0.8000496251     0.8755685655
| 35>  H        1.1055993187    -1.3190402338    -1.1260119093
| 36>  H        1.5338236241    -1.7348422612     1.2587334626
| 37>  H        1.0720649690    -0.2087786345     1.6114799068
| 38>  H        3.3557471737    -0.8604998737    -0.1458783593
| 39>  H        2.4060285537     1.7924625076     1.1852211562
| 40>  H        3.8982851750     1.5850299370     0.1688848827
| 41>  H        4.7439959520    -0.1600436749     1.8423199197
| 42>  H        3.2320093838     0.0902047494     2.8202757016
| 43> *
| 44>
| 45>                          ****END OF INPUT****
 Total Charge           Charge          ....    1
 Multiplicity           Mult            ....    1
 Number of Electrons    NEL             ....   54
FINAL SINGLE POINT ENERGY      -290.064225381011
FINAL SINGLE POINT ENERGY      -290.064227660563
FINAL SINGLE POINT ENERGY      -290.064229777934

CARTESIAN COORDINATES (ANGSTROEM)
---------------------------------
  C     -0.968586    0.243112    1.855235
  C      0.380907    0.238979    2.508692
  C      0.155109   -0.516186    1.245261
  N      0.769550   -0.005849    0.000000
  C      0.155134   -0.516196   -1.245270
  C     -0.968605    0.243043   -1.855237
  C      0.380894    0.239009   -2.508684
  H     -1.772076   -0.332885    2.294508
  H     -1.290958    1.161744    1.378814
  H      0.533180   -0.341025    3.409112
  H      0.959979    1.155177    2.467839
  H      0.148692   -1.598417    1.251930
  H      1.767094   -0.237965    0.000009
  H      0.720794    1.015822   -0.000002
  H      0.148779   -1.598426   -1.251959
  H     -1.291041    1.161642   -1.378799
  H     -1.772053   -0.333000   -2.294527
  H      0.533212   -0.340966   -3.409114
  H      0.959904    1.155246   -2.467808

FINAL SINGLE POINT ENERGY      -290.064230091909
                    ***********************HURRAY********************
 Multiplicity           Mult            ....    1
 Number of Electrons    NEL             ....   54
 Basis Dimension        Dim             ....  289
FINAL SINGLE POINT ENERGY      -290.064169773323

VIBRATIONAL FREQUENCIES
-----------------------

   0:         0.00 cm**-1
   1:         0.00 cm**-1
   2:         0.00 cm**-1
   3:         0.00 cm**-1
   4:         0.00 cm**-1
   5:         0.00 cm**-1
   6:        53.17 cm**-1
   7:        91.03 cm**-1
   8:       166.69 cm**-1
   9:       318.34 cm**-1
  10:       338.39 cm**-1
  11:       382.28 cm**-1
  12:       456.09 cm**-1
  13:       744.64 cm**-1
  14:       758.52 cm**-1
  15:       793.01 cm**-1
  16:       829.39 cm**-1
  17:       843.82 cm**-1
  18:       863.23 cm**-1
  19:       884.87 cm**-1
  20:       963.87 cm**-1
  21:       970.00 cm**-1
  22:       986.69 cm**-1
  23:      1069.64 cm**-1
  24:      1076.94 cm**-1
  25:      1079.10 cm**-1
  26:      1095.53 cm**-1
  27:      1105.79 cm**-1
  28:      1106.89 cm**-1
  29:      1126.36 cm**-1
  30:      1133.52 cm**-1
  31:      1189.14 cm**-1
  32:      1194.19 cm**-1
  33:      1227.28 cm**-1
  34:      1244.03 cm**-1
  35:      1257.97 cm**-1
  36:      1294.55 cm**-1
  37:      1386.48 cm**-1
  38:      1427.80 cm**-1
  39:      1444.90 cm**-1
  40:      1463.47 cm**-1
  41:      1463.76 cm**-1
  42:      1507.33 cm**-1
  43:      1517.57 cm**-1
  44:      1637.07 cm**-1
  45:      3156.08 cm**-1
  46:      3156.38 cm**-1
  47:      3160.98 cm**-1
  48:      3163.73 cm**-1
  49:      3211.70 cm**-1
  50:      3214.50 cm**-1
  51:      3244.71 cm**-1
  52:      3245.35 cm**-1
  53:      3256.08 cm**-1
  54:      3257.03 cm**-1
  55:      3415.69 cm**-1
  56:      3470.43 cm**-1

IR SPECTRUM
-----------

 Mode    freq (cm**-1)   T**2         TX         TY         TZ
-------------------------------------------------------------------
   6:        53.17    0.008256  (  0.000493  -0.005589   0.090692)
   7:        91.03    3.498106  ( -1.217414   1.419860   0.002531)
   8:       166.69    1.776942  (  0.611372   1.184541   0.005441)
   9:       318.34    0.050992  (  0.009038  -0.005739   0.225559)
  10:       338.39    2.533798  ( -1.487584   0.566394   0.009431)
  11:       382.28    7.399979  (  0.008644  -0.002607   2.720275)
  12:       456.09    4.993224  (  2.075499  -0.827926  -0.008048)
  13:       744.64    0.271528  ( -0.514452  -0.081713   0.013770)
  14:       758.52    0.453904  ( -0.033329  -0.004445  -0.672884)
  15:       793.01   13.026720  (  2.530893  -2.573114   0.019553)
  16:       829.39   12.635674  ( -0.019798   0.019813   3.554559)
  17:       843.82    5.069753  (  0.009658   0.003900  -2.251587)
  18:       863.23   11.027735  (  3.197072   0.898034   0.000274)
  19:       884.87    3.108713  ( -0.587432   1.662419  -0.000018)
  20:       963.87    1.459661  (  0.028156  -0.020712   1.207659)
  21:       970.00   13.962550  ( -2.164527   3.045807   0.020786)
  22:       986.69    5.757420  (  0.000079   0.009503  -2.399444)
  23:      1069.64   15.156195  ( -0.067954  -0.003516  -3.892501)
  24:      1076.94    5.247903  ( -1.823661  -1.383668   0.087344)
  25:      1079.10   25.719852  (  3.944479  -3.187408  -0.037001)
  26:      1095.53    0.414954  (  0.033578   0.015568  -0.643105)
  27:      1105.79    1.743842  (  1.244528   0.252251   0.362437)
  28:      1106.89   11.924921  (  0.128958   0.024831  -3.450750)
  29:      1126.36    7.521383  ( -0.003201   0.019243   2.742445)
  30:      1133.52    0.298432  ( -0.464340   0.287633  -0.009350)
  31:      1189.14    0.389982  ( -0.006186  -0.011072   0.624356)
  32:      1194.19    2.023182  (  1.324392  -0.518810   0.002064)
  33:      1227.28    2.968001  (  0.207005  -1.710297  -0.005823)
  34:      1244.03    0.593124  (  0.001436  -0.008285   0.770099)
  35:      1257.97    2.760508  (  0.037308  -1.661058   0.001601)
  36:      1294.55    1.744390  ( -0.003523   0.004230   1.320742)
  37:      1386.48   36.417649  (  0.007285   0.005300   6.034697)
  38:      1427.80    0.890807  (  0.923472  -0.194879   0.005417)
  39:      1444.90   27.050079  ( -0.023806  -0.013115  -5.200898)
  40:      1463.47    0.061302  ( -0.082025  -0.042284  -0.229752)
  41:      1463.76   19.755958  ( -4.439284  -0.212679   0.059000)
  42:      1507.33    8.080802  (  0.006451   0.000298  -2.842668)
  43:      1517.57    9.313458  ( -1.177825   2.815348  -0.000078)
  44:      1637.07   49.890830  ( -4.264182  -5.630948  -0.001682)
  45:      3156.08    0.761806  ( -0.010444   0.007027   0.872724)
  46:      3156.38    0.789028  (  0.726809   0.510459   0.014420)
  47:      3160.98    6.555709  ( -0.004243  -0.007384  -2.560398)
  48:      3163.73    1.536582  (  0.770492   0.970314  -0.037625)
  49:      3211.70    0.452931  (  0.008323  -0.004825   0.672933)
  50:      3214.50    0.864505  ( -0.361314  -0.856707  -0.003201)
  51:      3244.71    0.310481  ( -0.009472   0.016963   0.556869)
  52:      3245.35    0.213108  (  0.416172  -0.198420   0.023207)
  53:      3256.08    0.467195  (  0.034988  -0.009149   0.682559)
  54:      3257.03    1.327209  ( -0.483829  -1.045484   0.009015)
  55:      3415.69   36.948423  (  5.974259   1.120993  -0.004630)
  56:      3470.43   49.101844  (  3.710763  -5.944078  -0.003800)

--------------------------
THERMOCHEMISTRY AT 298.15K
--------------------------

Temperature         ... 298.15 K
Pressure            ... 1.00 atm
Total Mass          ... 98.17 AMU

Throughout the following assumptions are being made:
  (1) The electronic state is orbitally nondegenerate
  (2) There are no thermally accessible electronically excited states
  (3) Hindered rotations indicated by low frequency modes) are not
      treated as such but are treated as vibrations and this may
      case some error
  (4) All equations used are the standard statistical mechanics
      equations for an ideal gas
  (5) All vibrations are strinctly harmonic

------------
INNER ENERGY
------------

The inner energy is: U= E(el) + E(ZPE) + E(vib) + E(rot) + E(trans)
    E(el)   - is the total energy from the electronic structure calculation
              = E(kin-el) + E(nuc-el) + E(el-el) + E(nuc-nuc)
    E(ZPE)  - the the zero temperature vibrational energy from the frequency calculation
    E(vib)  - the the finite temperature correction to E(ZPE) due to population
              of excietd vibrational states
    E(rot)  - is the rotational thermal energy
    E(trans)- is the translational thermal energy

Summary of contributions to the inner energy U:
Electronic energy                ...   -290.06416977 Eh
Zero point energy                ...      0.17643496 Eh     110.71 kcal/mol
Thermal vibrational correction   ...      0.00453270 Eh       2.84 kcal/mol
Thermal rotational correction    ...      0.00141627 Eh       0.89 kcal/mol
Thermal translational correction ...      0.00141627 Eh       0.89 kcal/mol
-----------------------------------------------------------------------
Total thermal energy                   -289.88036957 Eh

Summary of corrections to the electronic energy:
(perhaps to be used in another calculation)
Total thermal correction                  0.00736524 Eh       4.62 kcal/mol
Non-thermal (ZPE) correction              0.17643496 Eh     110.71 kcal/mol
-----------------------------------------------------------------------
Total correction                          0.18380020 Eh     115.34 kcal/mol

--------
ENTHALPY
--------

The enthalpy is H = U + kB*T
                kB is Boltzmann's constant
Total free energy                 ...   -289.88036957 Eh
Thermal Enthalpy correction       ...      0.00094421 Eh       0.59 kcal/mol
-----------------------------------------------------------------------
Total Enthalpy                    ...   -289.87942536 Eh

-------
ENTROPY
-------

The entropy contributions are T*S = T*(S(el)+S(vib)+S(rot)+S(trans)
     S(el)   - electronic entropy
     S(vib)  - vibrational entropy
     S(rot)  - rotational entropy
     S(trans)- translational entropy
The entropies will be listed as mutliplied by the temperature to get
units of energy

Electronic entropy                ...      0.00000000 Eh      0.00 kcal/mol
Vibrational entropy               ...      0.00839771 Eh      5.27 kcal/mol
Rotational entropy                ...      0.01204995 Eh      7.56 kcal/mol
Translational entropy             ...      0.01884507 Eh     11.83 kcal/mol
-----------------------------------------------------------------------
Final entropy term                ...      0.03929273 Eh     24.66 kcal/mol

CAUTION: The rotational entropy is not quite correctly treated here
         because it includes a symmetry number that is not yet correctly
         implemented in ORCA!
For a nonlinear molecule the correct rotational entropy is:
    S(rot) = R*(ln(qrot/sn)+1.5)
    R    = 8.31441 J/mol/K = 1.987191683e-3 kcal/mol/K
    qrot = 233500.9250063
    sn is the rotational symmetry number. We have assumed 3 here
       if it is different for your molecule then you should correct
       the printed rotational entropy by manually evaluating the equation
       as given above

For convenience we print out the resulting values for sn=1 - 12:
 sn= 1  qrot/sn=  233500.9250 T*S(rot)=     8.21 kcal/mol T*S(tot)=    25.31 kcal/mol
 sn= 2  qrot/sn=  116750.4625 T*S(rot)=     7.80 kcal/mol T*S(tot)=    24.90 kcal/mol
 sn= 3  qrot/sn=   77833.6417 T*S(rot)=     7.56 kcal/mol T*S(tot)=    24.66 kcal/mol
 sn= 4  qrot/sn=   58375.2313 T*S(rot)=     7.39 kcal/mol T*S(tot)=    24.49 kcal/mol
 sn= 5  qrot/sn=   46700.1850 T*S(rot)=     7.26 kcal/mol T*S(tot)=    24.35 kcal/mol
 sn= 6  qrot/sn=   38916.8208 T*S(rot)=     7.15 kcal/mol T*S(tot)=    24.25 kcal/mol
 sn= 7  qrot/sn=   33357.2750 T*S(rot)=     7.06 kcal/mol T*S(tot)=    24.15 kcal/mol
 sn= 8  qrot/sn=   29187.6156 T*S(rot)=     6.98 kcal/mol T*S(tot)=    24.08 kcal/mol
 sn= 9  qrot/sn=   25944.5472 T*S(rot)=     6.91 kcal/mol T*S(tot)=    24.01 kcal/mol
 sn=10  qrot/sn=   23350.0925 T*S(rot)=     6.85 kcal/mol T*S(tot)=    23.94 kcal/mol
 sn=11  qrot/sn=   21227.3568 T*S(rot)=     6.79 kcal/mol T*S(tot)=    23.89 kcal/mol
 sn=12  qrot/sn=   19458.4104 T*S(rot)=     6.74 kcal/mol T*S(tot)=    23.84 kcal/mol

-------------------
GIBBS FREE ENTHALPY
-------------------

The Gibbs free enthalpy is G = H - T*S

Total enthalpy                    ...   -289.87942536 Eh
Total entropy correction          ...     -0.03929273 Eh    -24.66 kcal/mol
-----------------------------------------------------------------------
Final Gibbs free enthalpy         ...   -289.91871810 Eh

For completeness - the Gibbs free enthalpy minus the electronic energy
G-E(el)                           ...      0.14545168 Eh     91.27 kcal/mol

                             ****ORCA TERMINATED NORMALLY****
TOTAL RUN TIME: 0 days 0 hours 59 minutes 36 seconds 957 msec
