                         Program Version 3.0.3 - RELEASE   -
|  1> ! NORI PBE0 def2-TZVP UseSym TightOPT Freq TightSCF Grid3 FinalGrid5 XYZFile
|  2> % pal
|  3>     nprocs 8
|  4> end
|  5> %method
|  6>     SymThresh 5.0e-2
|  7> end
|  8> % geom
|  9>     MaxIter 10
| 10> end
| 11> % maxcore 2000
| 12> % output
| 13>     printlevel mini
| 14>     print[ P_Basis ] 0
| 15>     print[ P_SCFInfo ] 1
| 16>     print[ P_SCFIterInfo ] 1
| 17>     print[ P_OrbEn ] 0
| 18>     print[ P_Cartesian ] 0
| 19> end
| 20> % elprop
| 21>     Dipole false
| 22> end
| 23> *xyz 1 1
| 24>  C       -1.2573806345    -0.7873205049    -0.5395280511
| 25>  C       -1.2441711439     0.7644594641    -0.5415919513
| 26>  C       -0.0496392208     1.1001356103     0.3435659676
| 27>  C       -0.0318412288    -0.0304540801     1.3598512303
| 28>  C       -0.0236271947    -1.1376097224     0.3014338498
| 29>  C        1.2259792731    -0.7754742663    -0.4919820696
| 30>  N        1.1886510379     0.7521286254    -0.4692444719
| 31>  H       -1.2133647175    -1.2134773156    -1.5425445602
| 32>  H       -2.1617999234    -1.1702578939    -0.0664925416
| 33>  H       -2.1465068437     1.1832597214    -0.0956270384
| 34>  H       -1.1610087509     1.2017020979    -1.5399935003
| 35>  H        0.0263869340     2.1271230314     0.6953186050
| 36>  H       -0.9340298231    -0.0297211618     1.9713463423
| 37>  H        0.8400920992    -0.0252442295     2.0188651786
| 38>  H        0.0080525123    -2.1600297966     0.6724033860
| 39>  H        2.1488771885    -1.0963155450    -0.0106375039
| 40>  H        1.2213819115    -1.1137243874    -1.5266674337
| 41>  H        1.1377293520     1.1480029244    -1.4069019389
| 42>  H        2.0273491729     1.1274174285    -0.0285934987
| 43> *
| 44>
| 45>                          ****END OF INPUT****
 Total Charge           Charge          ....    1
 Multiplicity           Mult            ....    1
 Number of Electrons    NEL             ....   54
FINAL SINGLE POINT ENERGY      -290.137405146968
FINAL SINGLE POINT ENERGY      -290.137406518571

CARTESIAN COORDINATES (ANGSTROEM)
---------------------------------
  C      0.940804    0.000425   -1.257759
  C      0.693711    1.306248   -0.456878
  C     -0.510664    0.956508    0.409239
  C     -1.306134   -0.005997   -0.458887
  C     -0.122828   -0.950432   -0.695118
  C      0.253387   -1.312779    0.736576
  N      0.000343   -0.000108    1.476351
  H      1.953077   -0.387541   -1.136134
  H      0.783157    0.159777   -2.324485
  H      0.434871    2.143389   -1.105562
  H      1.554527    1.628634    0.135071
  H     -1.027687    1.786897    0.886717
  H     -1.656246    0.477765   -1.370381
  H     -2.159106   -0.464081    0.047572
  H     -0.322164   -1.831657   -1.301876
  H     -0.393529   -2.073413    1.171273
  H      1.294073   -1.601991    0.874180
  H      0.844697    0.359464    1.919696
  H     -0.694550   -0.127367    2.210810

FINAL SINGLE POINT ENERGY      -290.137406884972
                    ***********************HURRAY********************
 Multiplicity           Mult            ....    1
 Number of Electrons    NEL             ....   54
 Basis Dimension        Dim             ....  289
FINAL SINGLE POINT ENERGY      -290.137406949694

VIBRATIONAL FREQUENCIES
-----------------------

   0:         0.00 cm**-1
   1:         0.00 cm**-1
   2:         0.00 cm**-1
   3:         0.00 cm**-1
   4:         0.00 cm**-1
   5:         0.00 cm**-1
   6:       162.94 cm**-1
   7:       335.87 cm**-1
   8:       404.17 cm**-1
   9:       453.20 cm**-1
  10:       552.36 cm**-1
  11:       758.04 cm**-1
  12:       781.21 cm**-1
  13:       805.83 cm**-1
  14:       828.19 cm**-1
  15:       840.06 cm**-1
  16:       879.20 cm**-1
  17:       909.85 cm**-1
  18:       932.51 cm**-1
  19:       954.05 cm**-1
  20:       959.28 cm**-1
  21:       972.41 cm**-1
  22:       979.72 cm**-1
  23:      1008.62 cm**-1
  24:      1051.90 cm**-1
  25:      1098.31 cm**-1
  26:      1147.35 cm**-1
  27:      1161.09 cm**-1
  28:      1186.19 cm**-1
  29:      1210.06 cm**-1
  30:      1258.08 cm**-1
  31:      1264.50 cm**-1
  32:      1290.74 cm**-1
  33:      1304.80 cm**-1
  34:      1322.17 cm**-1
  35:      1327.61 cm**-1
  36:      1352.40 cm**-1
  37:      1361.41 cm**-1
  38:      1377.02 cm**-1
  39:      1387.25 cm**-1
  40:      1482.04 cm**-1
  41:      1487.54 cm**-1
  42:      1497.54 cm**-1
  43:      1514.34 cm**-1
  44:      1649.54 cm**-1
  45:      3078.98 cm**-1
  46:      3088.76 cm**-1
  47:      3097.12 cm**-1
  48:      3113.25 cm**-1
  49:      3132.20 cm**-1
  50:      3148.42 cm**-1
  51:      3155.31 cm**-1
  52:      3156.89 cm**-1
  53:      3159.36 cm**-1
  54:      3175.63 cm**-1
  55:      3470.32 cm**-1
  56:      3530.78 cm**-1

IR SPECTRUM
-----------

 Mode    freq (cm**-1)   T**2         TX         TY         TZ
-------------------------------------------------------------------
   6:       162.94    2.359370  (  1.386612  -0.059528  -0.658128)
   7:       335.87    1.385493  ( -1.004188  -0.314409   0.527490)
   8:       404.17    3.184480  (  1.084547   0.730339  -1.214430)
   9:       453.20    0.915155  (  0.798741  -0.028766   0.525680)
  10:       552.36    2.049875  ( -0.224075  -0.292573  -1.383498)
  11:       758.04    0.926262  ( -0.785895  -0.530807   0.163939)
  12:       781.21    1.049836  ( -0.338298  -0.481368  -0.838854)
  13:       805.83    2.364286  (  0.686986   1.014321  -0.929242)
  14:       828.19    4.671258  ( -0.084044   0.776084   2.015413)
  15:       840.06    1.051653  ( -0.888452  -0.479067  -0.181108)
  16:       879.20    3.591440  (  1.001919   0.915719   1.322519)
  17:       909.85    4.782517  ( -2.094028   0.612797   0.148469)
  18:       932.51    6.442474  (  0.713733  -2.432065   0.134614)
  19:       954.05    0.503138  ( -0.220040  -0.630150   0.240066)
  20:       959.28    2.858566  (  1.540833  -0.150177   0.679594)
  21:       972.41    2.077421  ( -0.423401  -0.742792   1.160351)
  22:       979.72    0.890942  ( -0.159065   0.880797   0.299727)
  23:      1008.62    3.421746  ( -0.081401   1.806794  -0.388092)
  24:      1051.90    1.675295  ( -0.257915  -0.993273   0.788786)
  25:      1098.31    0.497363  ( -0.122568  -0.666017  -0.196878)
  26:      1147.35    1.077302  ( -0.049069  -0.295999   0.993619)
  27:      1161.09    2.059811  ( -0.855237  -1.152232   0.027271)
  28:      1186.19    5.287580  ( -2.261617  -0.214406  -0.355946)
  29:      1210.06    3.039859  (  0.478876  -0.763155   1.492693)
  30:      1258.08   15.362297  (  0.611398  -3.518617   1.614875)
  31:      1264.50   14.577654  ( -0.681901  -3.419883   1.554691)
  32:      1290.74    1.869407  ( -0.405590   1.091175   0.717105)
  33:      1304.80   10.860481  ( -2.508585   2.072956  -0.519938)
  34:      1322.17    0.569796  ( -0.040672   0.068654   0.750619)
  35:      1327.61    0.404121  ( -0.192539   0.295141   0.529095)
  36:      1352.40    3.245667  (  0.255699   1.056191  -1.436923)
  37:      1361.41    5.265126  ( -1.438031   1.759192  -0.320059)
  38:      1377.02    4.129494  ( -1.717022   0.891003  -0.622449)
  39:      1387.25   32.691174  ( -2.094186   5.301380   0.448252)
  40:      1482.04   10.376397  ( -2.574551  -1.416905  -1.319267)
  41:      1487.54   12.066161  ( -3.461561   0.281436  -0.067433)
  42:      1497.54   14.754549  ( -0.191968  -2.875612   2.539400)
  43:      1514.34    4.205829  (  1.065876  -0.570821  -1.656472)
  44:      1649.54   70.873474  ( -1.222558  -0.988643  -8.270515)
  45:      3078.98    9.765512  (  1.364280   1.959276   2.016306)
  46:      3088.76    6.903882  ( -2.282912  -0.428313   1.228309)
  47:      3097.12    6.584810  (  2.198343  -0.688457  -1.130541)
  48:      3113.25    2.685600  ( -0.247975   1.307517  -0.956299)
  49:      3132.20    0.100795  ( -0.037650   0.217260  -0.228419)
  50:      3148.42    4.927692  ( -1.753789   0.505798  -1.263362)
  51:      3155.31    1.801603  (  0.007429  -1.335022  -0.138798)
  52:      3156.89    2.203967  ( -0.828942  -0.312848   1.191196)
  53:      3159.36    0.494934  (  0.337475  -0.438549  -0.434418)
  54:      3175.63    0.799768  (  0.857181   0.202977  -0.154301)
  55:      3470.32   54.781911  (  0.649770   1.377264   7.243125)
  56:      3530.78   66.531491  (  7.571992   2.348603  -1.918462)

--------------------------
THERMOCHEMISTRY AT 298.15K
--------------------------

Temperature         ... 298.15 K
Pressure            ... 1.00 atm
Total Mass          ... 98.17 AMU

Throughout the following assumptions are being made:
  (1) The electronic state is orbitally nondegenerate
  (2) There are no thermally accessible electronically excited states
  (3) Hindered rotations indicated by low frequency modes) are not
      treated as such but are treated as vibrations and this may
      case some error
  (4) All equations used are the standard statistical mechanics
      equations for an ideal gas
  (5) All vibrations are strinctly harmonic

------------
INNER ENERGY
------------

The inner energy is: U= E(el) + E(ZPE) + E(vib) + E(rot) + E(trans)
    E(el)   - is the total energy from the electronic structure calculation
              = E(kin-el) + E(nuc-el) + E(el-el) + E(nuc-nuc)
    E(ZPE)  - the the zero temperature vibrational energy from the frequency calculation
    E(vib)  - the the finite temperature correction to E(ZPE) due to population
              of excietd vibrational states
    E(rot)  - is the rotational thermal energy
    E(trans)- is the translational thermal energy

Summary of contributions to the inner energy U:
Electronic energy                ...   -290.13740695 Eh
Zero point energy                ...      0.18124287 Eh     113.73 kcal/mol
Thermal vibrational correction   ...      0.00275994 Eh       1.73 kcal/mol
Thermal rotational correction    ...      0.00141627 Eh       0.89 kcal/mol
Thermal translational correction ...      0.00141627 Eh       0.89 kcal/mol
-----------------------------------------------------------------------
Total thermal energy                   -289.95057159 Eh

Summary of corrections to the electronic energy:
(perhaps to be used in another calculation)
Total thermal correction                  0.00559248 Eh       3.51 kcal/mol
Non-thermal (ZPE) correction              0.18124287 Eh     113.73 kcal/mol
-----------------------------------------------------------------------
Total correction                          0.18683536 Eh     117.24 kcal/mol

--------
ENTHALPY
--------

The enthalpy is H = U + kB*T
                kB is Boltzmann's constant
Total free energy                 ...   -289.95057159 Eh
Thermal Enthalpy correction       ...      0.00094421 Eh       0.59 kcal/mol
-----------------------------------------------------------------------
Total Enthalpy                    ...   -289.94962738 Eh

-------
ENTROPY
-------

The entropy contributions are T*S = T*(S(el)+S(vib)+S(rot)+S(trans)
     S(el)   - electronic entropy
     S(vib)  - vibrational entropy
     S(rot)  - rotational entropy
     S(trans)- translational entropy
The entropies will be listed as mutliplied by the temperature to get
units of energy

Electronic entropy                ...      0.00000000 Eh      0.00 kcal/mol
Vibrational entropy               ...      0.00408967 Eh      2.57 kcal/mol
Rotational entropy                ...      0.01162993 Eh      7.30 kcal/mol
Translational entropy             ...      0.01884507 Eh     11.83 kcal/mol
-----------------------------------------------------------------------
Final entropy term                ...      0.03456467 Eh     21.69 kcal/mol

CAUTION: The rotational entropy is not quite correctly treated here
         because it includes a symmetry number that is not yet correctly
         implemented in ORCA!
For a nonlinear molecule the correct rotational entropy is:
    S(rot) = R*(ln(qrot/sn)+1.5)
    R    = 8.31441 J/mol/K = 1.987191683e-3 kcal/mol/K
    qrot = 149655.4459038
    sn is the rotational symmetry number. We have assumed 3 here
       if it is different for your molecule then you should correct
       the printed rotational entropy by manually evaluating the equation
       as given above

For convenience we print out the resulting values for sn=1 - 12:
 sn= 1  qrot/sn=  149655.4459 T*S(rot)=     7.95 kcal/mol T*S(tot)=    22.34 kcal/mol
 sn= 2  qrot/sn=   74827.7230 T*S(rot)=     7.54 kcal/mol T*S(tot)=    21.93 kcal/mol
 sn= 3  qrot/sn=   49885.1486 T*S(rot)=     7.30 kcal/mol T*S(tot)=    21.69 kcal/mol
 sn= 4  qrot/sn=   37413.8615 T*S(rot)=     7.13 kcal/mol T*S(tot)=    21.52 kcal/mol
 sn= 5  qrot/sn=   29931.0892 T*S(rot)=     7.00 kcal/mol T*S(tot)=    21.39 kcal/mol
 sn= 6  qrot/sn=   24942.5743 T*S(rot)=     6.89 kcal/mol T*S(tot)=    21.28 kcal/mol
 sn= 7  qrot/sn=   21379.3494 T*S(rot)=     6.80 kcal/mol T*S(tot)=    21.19 kcal/mol
 sn= 8  qrot/sn=   18706.9307 T*S(rot)=     6.72 kcal/mol T*S(tot)=    21.11 kcal/mol
 sn= 9  qrot/sn=   16628.3829 T*S(rot)=     6.65 kcal/mol T*S(tot)=    21.04 kcal/mol
 sn=10  qrot/sn=   14965.5446 T*S(rot)=     6.58 kcal/mol T*S(tot)=    20.98 kcal/mol
 sn=11  qrot/sn=   13605.0405 T*S(rot)=     6.53 kcal/mol T*S(tot)=    20.92 kcal/mol
 sn=12  qrot/sn=   12471.2872 T*S(rot)=     6.48 kcal/mol T*S(tot)=    20.87 kcal/mol

-------------------
GIBBS FREE ENTHALPY
-------------------

The Gibbs free enthalpy is G = H - T*S

Total enthalpy                    ...   -289.94962738 Eh
Total entropy correction          ...     -0.03456467 Eh    -21.69 kcal/mol
-----------------------------------------------------------------------
Final Gibbs free enthalpy         ...   -289.98419206 Eh

For completeness - the Gibbs free enthalpy minus the electronic energy
G-E(el)                           ...      0.15321489 Eh     96.14 kcal/mol

                             ****ORCA TERMINATED NORMALLY****
TOTAL RUN TIME: 0 days 1 hours 0 minutes 3 seconds 273 msec
