                         Program Version 3.0.3 - RELEASE   -
|  1> ! NORI PBE0 def2-TZVP UseSym TightOPT Freq TightSCF Grid3 FinalGrid5 XYZFile
|  2> % pal
|  3>     nprocs 8
|  4> end
|  5> %method
|  6>     SymThresh 5.0e-2
|  7> end
|  8> % geom
|  9>     MaxIter 10
| 10> end
| 11> % maxcore 2000
| 12> % output
| 13>     printlevel mini
| 14>     print[ P_Basis ] 0
| 15>     print[ P_SCFInfo ] 1
| 16>     print[ P_SCFIterInfo ] 1
| 17>     print[ P_OrbEn ] 0
| 18>     print[ P_Cartesian ] 0
| 19> end
| 20> % elprop
| 21>     Dipole false
| 22> end
| 23> *xyz 1 1
| 24>  C       -1.6866427870     0.8246596942     0.5827905951
| 25>  C       -1.1142791659    -0.2584962678    -0.2616198624
| 26>  C       -0.2790140980    -1.3495243000     0.3626929962
| 27>  C        1.1284067166    -1.3573498246    -0.2120167660
| 28>  N        1.7413020568     0.0385677187    -0.2128599803
| 29>  C        0.8800877468     1.1138031329     0.4214494070
| 30>  C       -0.4621536812     1.1083647099    -0.2338050885
| 31>  H       -1.5801299510     0.7510065933     1.6593107339
| 32>  H       -2.6062604427     1.2896679551     0.2550386465
| 33>  H       -1.6511437116    -0.5236546209    -1.1648817911
| 34>  H       -0.7117437733    -2.3349747642     0.1785600885
| 35>  H       -0.2390160422    -1.2399215044     1.4495719534
| 36>  H        1.7984296753    -2.0019680162     0.3558905844
| 37>  H        1.1264744502    -1.6938982010    -1.2480448159
| 38>  H        1.9241332423     0.3174328668    -1.1758713830
| 39>  H        2.6491954171     0.0145744531     0.2502921730
| 40>  H        0.8344311539     0.8816535147     1.4848954998
| 41>  H        1.4178608970     2.0550055692     0.2993835472
| 42>  H       -0.5722277032     1.7519712912    -1.0987865377
| 43> *
| 44>
| 45>                          ****END OF INPUT****
 Total Charge           Charge          ....    1
 Multiplicity           Mult            ....    1
 Number of Electrons    NEL             ....   54
FINAL SINGLE POINT ENERGY      -290.105093160724
FINAL SINGLE POINT ENERGY      -290.105094420034

CARTESIAN COORDINATES (ANGSTROEM)
---------------------------------
  C      0.877854   -0.000385   -1.817690
  C     -0.368873   -0.439425   -1.133981
  C     -1.246332    0.568893   -0.433091
  C     -1.365596    0.251543    1.048622
  N     -0.000161    0.000627    1.678809
  C      1.179160    0.193526    0.744427
  C      0.976587   -0.650326   -0.470927
  H      1.079134    1.062384   -1.890449
  H      1.223755   -0.580154   -2.662789
  H     -0.865589   -1.321966   -1.519795
  H     -2.255910    0.572669   -0.847999
  H     -0.863497    1.583186   -0.569409
  H     -1.831403    1.064129    1.605104
  H     -1.950672   -0.653221    1.209967
  H      0.032174   -0.958228    2.022823
  H      0.114588    0.597304    2.497567
  H      1.221050    1.258710    0.520024
  H      2.071612   -0.071851    1.311646
  H      1.380316   -1.655043   -0.425350

FINAL SINGLE POINT ENERGY      -290.105094974248
                    ***********************HURRAY********************
 Multiplicity           Mult            ....    1
 Number of Electrons    NEL             ....   54
 Basis Dimension        Dim             ....  289
FINAL SINGLE POINT ENERGY      -290.105095193275

VIBRATIONAL FREQUENCIES
-----------------------

   0:         0.00 cm**-1
   1:         0.00 cm**-1
   2:         0.00 cm**-1
   3:         0.00 cm**-1
   4:         0.00 cm**-1
   5:         0.00 cm**-1
   6:        87.55 cm**-1
   7:       229.22 cm**-1
   8:       305.59 cm**-1
   9:       424.27 cm**-1
  10:       463.56 cm**-1
  11:       475.00 cm**-1
  12:       610.42 cm**-1
  13:       783.46 cm**-1
  14:       786.38 cm**-1
  15:       799.85 cm**-1
  16:       831.28 cm**-1
  17:       881.80 cm**-1
  18:       919.22 cm**-1
  19:       949.12 cm**-1
  20:       969.44 cm**-1
  21:       994.50 cm**-1
  22:      1007.71 cm**-1
  23:      1030.24 cm**-1
  24:      1081.81 cm**-1
  25:      1086.59 cm**-1
  26:      1132.43 cm**-1
  27:      1141.09 cm**-1
  28:      1186.95 cm**-1
  29:      1228.48 cm**-1
  30:      1243.79 cm**-1
  31:      1263.41 cm**-1
  32:      1295.20 cm**-1
  33:      1323.34 cm**-1
  34:      1355.90 cm**-1
  35:      1390.87 cm**-1
  36:      1399.77 cm**-1
  37:      1410.57 cm**-1
  38:      1420.36 cm**-1
  39:      1445.59 cm**-1
  40:      1476.76 cm**-1
  41:      1491.89 cm**-1
  42:      1500.96 cm**-1
  43:      1503.87 cm**-1
  44:      1651.41 cm**-1
  45:      3079.39 cm**-1
  46:      3105.76 cm**-1
  47:      3107.45 cm**-1
  48:      3128.17 cm**-1
  49:      3156.96 cm**-1
  50:      3161.18 cm**-1
  51:      3164.73 cm**-1
  52:      3186.78 cm**-1
  53:      3193.23 cm**-1
  54:      3252.02 cm**-1
  55:      3468.90 cm**-1
  56:      3522.46 cm**-1

IR SPECTRUM
-----------

 Mode    freq (cm**-1)   T**2         TX         TY         TZ
-------------------------------------------------------------------
   6:        87.55    3.623482  (  0.226845   1.786027   0.618169)
   7:       229.22    1.435660  ( -0.176126  -1.004397  -0.629147)
   8:       305.59    0.503359  ( -0.600340   0.332705   0.179604)
   9:       424.27    0.880352  ( -0.104028  -0.885195  -0.293188)
  10:       463.56    5.368121  ( -0.286474  -0.033669  -2.298895)
  11:       475.00    1.358784  (  0.771117  -0.606337  -0.629697)
  12:       610.42    4.943157  ( -2.144964   0.276512  -0.515583)
  13:       783.46    8.165639  (  1.808975  -1.496292   1.629220)
  14:       786.38    7.634706  ( -1.159000  -1.556314  -1.967056)
  15:       799.85    3.708413  ( -0.832117   1.136078   1.313515)
  16:       831.28    5.347655  ( -0.600651  -1.649060   1.505813)
  17:       881.80    3.943474  (  0.131320   0.395158   1.941669)
  18:       919.22    9.533165  (  2.536488  -0.227976  -1.745686)
  19:       949.12    3.010048  ( -1.719405  -0.075021   0.219239)
  20:       969.44    4.732895  (  1.874049  -1.090642   0.177020)
  21:       994.50    3.848742  (  0.819577  -1.254829  -1.265874)
  22:      1007.71    3.230555  ( -0.286407   0.843766   1.560956)
  23:      1030.24    8.138110  ( -2.841274  -0.068838   0.246034)
  24:      1081.81   15.338357  ( -3.207352   0.607160  -2.163933)
  25:      1086.59    1.045571  ( -0.646924  -0.327846   0.720817)
  26:      1132.43    0.608312  (  0.723338   0.274233  -0.099453)
  27:      1141.09    1.047406  ( -0.838563  -0.372622   0.453179)
  28:      1186.95    3.153844  ( -1.597203  -0.366268  -0.684569)
  29:      1228.48    0.207873  (  0.265967  -0.350000   0.120972)
  30:      1243.79    3.961704  (  1.512053   0.530370  -1.180723)
  31:      1263.41    7.443863  ( -2.031234  -1.385275  -1.182778)
  32:      1295.20    7.773691  (  2.285159   0.732616  -1.419512)
  33:      1323.34    3.053387  (  1.100801  -0.811060  -1.088029)
  34:      1355.90    5.460855  ( -2.018696   1.159703   0.202020)
  35:      1390.87    0.503470  (  0.005503   0.344514  -0.620282)
  36:      1399.77   12.465753  ( -3.431163   0.298243   0.777124)
  37:      1410.57   12.566397  ( -3.019525   0.172170   1.849115)
  38:      1420.36   15.364183  (  3.907899   0.200965   0.228303)
  39:      1445.59   10.993339  (  1.325448  -0.559161   2.987284)
  40:      1476.76    8.014809  (  1.648289  -1.248234   1.933873)
  41:      1491.89    1.662909  ( -0.584060  -1.145729  -0.095327)
  42:      1500.96   13.348864  (  2.628700   1.931173  -1.646018)
  43:      1503.87   17.981290  ( -0.786647  -4.080978  -0.841482)
  44:      1651.41   65.504113  (  0.500140  -2.648614   7.631436)
  45:      3079.39    3.894261  ( -0.176473   1.965110   0.038239)
  46:      3105.76    2.482023  ( -1.252387  -0.491079   0.819994)
  47:      3107.45    3.730625  ( -0.219157  -1.203527  -1.494697)
  48:      3128.17    1.594567  (  1.043640   0.390744  -0.593887)
  49:      3156.96    1.772343  ( -0.421917  -1.243862   0.217111)
  50:      3161.18    0.189688  ( -0.036168   0.380894  -0.208087)
  51:      3164.73    1.305034  (  0.108448  -1.091850  -0.318020)
  52:      3186.78    0.523752  (  0.588182   0.000225   0.421657)
  53:      3193.23    0.867082  ( -0.107682  -0.876533   0.295256)
  54:      3252.02    0.152076  ( -0.162408  -0.262580   0.238225)
  55:      3468.90   57.624708  ( -0.942750   1.551276  -7.370853)
  56:      3522.46   69.039283  (  0.491962   8.064260   1.940351)

--------------------------
THERMOCHEMISTRY AT 298.15K
--------------------------

Temperature         ... 298.15 K
Pressure            ... 1.00 atm
Total Mass          ... 98.17 AMU

Throughout the following assumptions are being made:
  (1) The electronic state is orbitally nondegenerate
  (2) There are no thermally accessible electronically excited states
  (3) Hindered rotations indicated by low frequency modes) are not
      treated as such but are treated as vibrations and this may
      case some error
  (4) All equations used are the standard statistical mechanics
      equations for an ideal gas
  (5) All vibrations are strinctly harmonic

------------
INNER ENERGY
------------

The inner energy is: U= E(el) + E(ZPE) + E(vib) + E(rot) + E(trans)
    E(el)   - is the total energy from the electronic structure calculation
              = E(kin-el) + E(nuc-el) + E(el-el) + E(nuc-nuc)
    E(ZPE)  - the the zero temperature vibrational energy from the frequency calculation
    E(vib)  - the the finite temperature correction to E(ZPE) due to population
              of excietd vibrational states
    E(rot)  - is the rotational thermal energy
    E(trans)- is the translational thermal energy

Summary of contributions to the inner energy U:
Electronic energy                ...   -290.10509519 Eh
Zero point energy                ...      0.18021835 Eh     113.09 kcal/mol
Thermal vibrational correction   ...      0.00348403 Eh       2.19 kcal/mol
Thermal rotational correction    ...      0.00141627 Eh       0.89 kcal/mol
Thermal translational correction ...      0.00141627 Eh       0.89 kcal/mol
-----------------------------------------------------------------------
Total thermal energy                   -289.91856027 Eh

Summary of corrections to the electronic energy:
(perhaps to be used in another calculation)
Total thermal correction                  0.00631657 Eh       3.96 kcal/mol
Non-thermal (ZPE) correction              0.18021835 Eh     113.09 kcal/mol
-----------------------------------------------------------------------
Total correction                          0.18653492 Eh     117.05 kcal/mol

--------
ENTHALPY
--------

The enthalpy is H = U + kB*T
                kB is Boltzmann's constant
Total free energy                 ...   -289.91856027 Eh
Thermal Enthalpy correction       ...      0.00094421 Eh       0.59 kcal/mol
-----------------------------------------------------------------------
Total Enthalpy                    ...   -289.91761606 Eh

-------
ENTROPY
-------

The entropy contributions are T*S = T*(S(el)+S(vib)+S(rot)+S(trans)
     S(el)   - electronic entropy
     S(vib)  - vibrational entropy
     S(rot)  - rotational entropy
     S(trans)- translational entropy
The entropies will be listed as mutliplied by the temperature to get
units of energy

Electronic entropy                ...      0.00000000 Eh      0.00 kcal/mol
Vibrational entropy               ...      0.00569004 Eh      3.57 kcal/mol
Rotational entropy                ...      0.01180871 Eh      7.41 kcal/mol
Translational entropy             ...      0.01884507 Eh     11.83 kcal/mol
-----------------------------------------------------------------------
Final entropy term                ...      0.03634383 Eh     22.81 kcal/mol

CAUTION: The rotational entropy is not quite correctly treated here
         because it includes a symmetry number that is not yet correctly
         implemented in ORCA!
For a nonlinear molecule the correct rotational entropy is:
    S(rot) = R*(ln(qrot/sn)+1.5)
    R    = 8.31441 J/mol/K = 1.987191683e-3 kcal/mol/K
    qrot = 180854.2086332
    sn is the rotational symmetry number. We have assumed 3 here
       if it is different for your molecule then you should correct
       the printed rotational entropy by manually evaluating the equation
       as given above

For convenience we print out the resulting values for sn=1 - 12:
 sn= 1  qrot/sn=  180854.2086 T*S(rot)=     8.06 kcal/mol T*S(tot)=    23.46 kcal/mol
 sn= 2  qrot/sn=   90427.1043 T*S(rot)=     7.65 kcal/mol T*S(tot)=    23.05 kcal/mol
 sn= 3  qrot/sn=   60284.7362 T*S(rot)=     7.41 kcal/mol T*S(tot)=    22.81 kcal/mol
 sn= 4  qrot/sn=   45213.5522 T*S(rot)=     7.24 kcal/mol T*S(tot)=    22.64 kcal/mol
 sn= 5  qrot/sn=   36170.8417 T*S(rot)=     7.11 kcal/mol T*S(tot)=    22.50 kcal/mol
 sn= 6  qrot/sn=   30142.3681 T*S(rot)=     7.00 kcal/mol T*S(tot)=    22.40 kcal/mol
 sn= 7  qrot/sn=   25836.3155 T*S(rot)=     6.91 kcal/mol T*S(tot)=    22.30 kcal/mol
 sn= 8  qrot/sn=   22606.7761 T*S(rot)=     6.83 kcal/mol T*S(tot)=    22.22 kcal/mol
 sn= 9  qrot/sn=   20094.9121 T*S(rot)=     6.76 kcal/mol T*S(tot)=    22.16 kcal/mol
 sn=10  qrot/sn=   18085.4209 T*S(rot)=     6.70 kcal/mol T*S(tot)=    22.09 kcal/mol
 sn=11  qrot/sn=   16441.2917 T*S(rot)=     6.64 kcal/mol T*S(tot)=    22.04 kcal/mol
 sn=12  qrot/sn=   15071.1841 T*S(rot)=     6.59 kcal/mol T*S(tot)=    21.98 kcal/mol

-------------------
GIBBS FREE ENTHALPY
-------------------

The Gibbs free enthalpy is G = H - T*S

Total enthalpy                    ...   -289.91761606 Eh
Total entropy correction          ...     -0.03634383 Eh    -22.81 kcal/mol
-----------------------------------------------------------------------
Final Gibbs free enthalpy         ...   -289.95395989 Eh

For completeness - the Gibbs free enthalpy minus the electronic energy
G-E(el)                           ...      0.15113530 Eh     94.84 kcal/mol

                             ****ORCA TERMINATED NORMALLY****
TOTAL RUN TIME: 0 days 0 hours 56 minutes 15 seconds 967 msec
