                         Program Version 3.0.3 - RELEASE   -
|  1> ! NORI PBE0 def2-TZVP UseSym TightOPT Freq TightSCF Grid3 FinalGrid5 XYZFile
|  2> % pal
|  3>     nprocs 8
|  4> end
|  5> %method
|  6>     SymThresh 5.0e-2
|  7> end
|  8> % geom
|  9>     MaxIter 10
| 10> end
| 11> % maxcore 2000
| 12> % output
| 13>     printlevel mini
| 14>     print[ P_Basis ] 0
| 15>     print[ P_SCFInfo ] 1
| 16>     print[ P_SCFIterInfo ] 1
| 17>     print[ P_OrbEn ] 0
| 18>     print[ P_Cartesian ] 0
| 19> end
| 20> % elprop
| 21>     Dipole false
| 22> end
| 23> *xyz 1 1
| 24>  C        2.0512269288     0.1147597093    -0.4356535951
| 25>  C        1.5696361075     0.0029964018     0.9772776687
| 26>  C        0.5877546095     0.0764622026    -0.1621184159
| 27>  C       -0.3381247032     1.2576254992    -0.3438425923
| 28>  C       -1.6927341488     0.7492688224     0.1543717400
| 29>  N       -1.5574299076    -0.7692843425     0.1802600775
| 30>  C       -0.2562471429    -1.1113158482    -0.5050650045
| 31>  H        2.4694940048     1.0592556483    -0.7606672777
| 32>  H        2.5113334548    -0.7556811624    -0.8874411172
| 33>  H        1.6646092735     0.8718110214     1.6171325345
| 34>  H        1.7073393902    -0.9460896645     1.4825827282
| 35>  H       -0.0161299107     2.1366071934     0.2128663657
| 36>  H       -0.4041591862     1.5357452514    -1.3984491307
| 37>  H       -2.5252198834     1.0032783369    -0.4988611081
| 38>  H       -1.9301155003     1.0709747656     1.1661423714
| 39>  H       -2.3557734151    -1.2298702831    -0.2540868243
| 40>  H       -1.5192797249    -1.0889106322     1.1469254924
| 41>  H        0.1061772845    -2.0726977032    -0.1437835629
| 42>  H       -0.4680075304    -1.1776652162    -1.5746703497
| 43> *
| 44>
| 45>                          ****END OF INPUT****
 Total Charge           Charge          ....    1
 Multiplicity           Mult            ....    1
 Number of Electrons    NEL             ....   54
FINAL SINGLE POINT ENERGY      -290.105585382383

CARTESIAN COORDINATES (ANGSTROEM)
---------------------------------
  C      0.879942    0.000109   -1.897439
  C      0.427853    1.280324   -1.266539
  C      0.237185   -0.032888   -0.554410
  C     -1.136704   -0.604683   -0.287785
  C     -1.378799   -0.316417    1.195479
  N      0.000034   -0.000137    1.764528
  C      1.010195   -0.331609    0.692275
  H      0.307735   -0.390203   -2.729669
  H      1.944738   -0.188154   -1.961100
  H     -0.451496    1.764778   -1.672686
  H      1.190684    1.960375   -0.905135
  H     -1.909718   -0.154692   -0.909685
  H     -1.146753   -1.682290   -0.469646
  H     -1.786549   -1.161126    1.747171
  H     -2.008966    0.553422    1.370070
  H      0.178185   -0.503356    2.632499
  H      0.056853    0.994197    1.980218
  H      1.913152    0.258013    0.845101
  H      1.244306   -1.393902    0.793477

FINAL SINGLE POINT ENERGY      -290.105586059497
                    ***********************HURRAY********************
 Multiplicity           Mult            ....    1
 Number of Electrons    NEL             ....   54
 Basis Dimension        Dim             ....  289
FINAL SINGLE POINT ENERGY      -290.105586353571

VIBRATIONAL FREQUENCIES
-----------------------

   0:         0.00 cm**-1
   1:         0.00 cm**-1
   2:         0.00 cm**-1
   3:         0.00 cm**-1
   4:         0.00 cm**-1
   5:         0.00 cm**-1
   6:        41.78 cm**-1
   7:       142.61 cm**-1
   8:       270.63 cm**-1
   9:       333.35 cm**-1
  10:       380.95 cm**-1
  11:       524.51 cm**-1
  12:       640.44 cm**-1
  13:       727.16 cm**-1
  14:       789.12 cm**-1
  15:       826.11 cm**-1
  16:       852.55 cm**-1
  17:       865.81 cm**-1
  18:       905.86 cm**-1
  19:       934.07 cm**-1
  20:       940.33 cm**-1
  21:       966.36 cm**-1
  22:      1008.80 cm**-1
  23:      1027.92 cm**-1
  24:      1051.99 cm**-1
  25:      1064.49 cm**-1
  26:      1073.42 cm**-1
  27:      1104.31 cm**-1
  28:      1191.59 cm**-1
  29:      1203.89 cm**-1
  30:      1227.25 cm**-1
  31:      1248.91 cm**-1
  32:      1299.25 cm**-1
  33:      1308.62 cm**-1
  34:      1336.67 cm**-1
  35:      1354.77 cm**-1
  36:      1383.03 cm**-1
  37:      1389.14 cm**-1
  38:      1428.53 cm**-1
  39:      1461.95 cm**-1
  40:      1487.56 cm**-1
  41:      1495.25 cm**-1
  42:      1509.34 cm**-1
  43:      1515.36 cm**-1
  44:      1649.05 cm**-1
  45:      3080.45 cm**-1
  46:      3089.12 cm**-1
  47:      3121.43 cm**-1
  48:      3146.43 cm**-1
  49:      3150.54 cm**-1
  50:      3159.95 cm**-1
  51:      3163.10 cm**-1
  52:      3181.51 cm**-1
  53:      3236.06 cm**-1
  54:      3250.16 cm**-1
  55:      3475.07 cm**-1
  56:      3532.92 cm**-1

IR SPECTRUM
-----------

 Mode    freq (cm**-1)   T**2         TX         TY         TZ
-------------------------------------------------------------------
   6:        41.78    1.688123  ( -0.132362   1.196919  -0.487840)
   7:       142.61    5.671684  (  0.231607   1.764085  -1.583050)
   8:       270.63    0.290440  (  0.495317  -0.036766  -0.209161)
   9:       333.35    0.799747  (  0.525624   0.123864   0.712828)
  10:       380.95    0.822991  (  0.290738  -0.534414  -0.672951)
  11:       524.51    1.407344  (  0.148149  -0.924254  -0.728801)
  12:       640.44    3.279020  ( -0.170270  -0.656772   1.678892)
  13:       727.16    6.195192  ( -0.146375  -1.846181   1.662944)
  14:       789.12    0.430960  (  0.550164   0.068283   0.351592)
  15:       826.11    1.354403  ( -0.250417   1.053783   0.425718)
  16:       852.55    3.356096  (  0.434722   1.625475   0.724531)
  17:       865.81    5.500220  ( -1.226158   0.802757  -1.830939)
  18:       905.86    7.940551  (  1.645366  -0.320909  -2.265026)
  19:       934.07    4.341255  (  1.140000   0.211013  -1.731221)
  20:       940.33    0.419830  (  0.465561   0.269227  -0.361386)
  21:       966.36    1.773394  (  1.216578   0.155407  -0.518826)
  22:      1008.80   15.501093  (  0.563659  -2.149320   3.250201)
  23:      1027.92   11.087469  ( -2.487277  -1.916801   1.107607)
  24:      1051.99    3.103466  (  0.900788   0.492159  -1.431722)
  25:      1064.49    1.884536  (  0.637384   0.419381  -1.141226)
  26:      1073.42    2.407892  ( -0.508597   0.689482  -1.293768)
  27:      1104.31    3.162532  ( -0.428150   1.657439   0.481784)
  28:      1191.59    0.119146  ( -0.024086   0.215316  -0.268710)
  29:      1203.89    1.671323  ( -0.387465   0.974929  -0.755452)
  30:      1227.25    1.002594  ( -0.694810  -0.047040   0.719459)
  31:      1248.91   17.065751  ( -4.019368   0.617281   0.727596)
  32:      1299.25    1.242817  (  1.063910   0.088912   0.320946)
  33:      1308.62   12.017922  ( -2.745258  -1.450552   1.541875)
  34:      1336.67    0.789648  (  0.484160   0.740930   0.079122)
  35:      1354.77   13.557864  (  3.502458  -0.637127  -0.940596)
  36:      1383.03   15.200557  ( -3.363055  -0.789215   1.807639)
  37:      1389.14    7.781233  (  2.781204  -0.113095  -0.182612)
  38:      1428.53    6.131973  (  1.346602  -1.090568   1.768982)
  39:      1461.95   10.838953  ( -1.037209   2.712900   1.550266)
  40:      1487.56   12.446934  ( -2.172755  -0.378728  -2.753658)
  41:      1495.25    8.448848  (  2.600927  -1.182814  -0.533834)
  42:      1509.34    4.569605  ( -1.668056  -1.021339   0.862590)
  43:      1515.36    0.570635  (  0.740997   0.127550   0.072729)
  44:      1649.05   69.846292  (  1.047000   3.494968   7.518995)
  45:      3080.45    5.170144  ( -1.066782  -1.952543  -0.468716)
  46:      3089.12    6.001777  ( -0.752544   1.874854  -1.385776)
  47:      3121.43    2.198269  (  0.857664   0.004213  -1.209406)
  48:      3146.43    0.357077  ( -0.254612   0.526614  -0.122178)
  49:      3150.54    2.483236  (  0.025223   1.457956   0.597464)
  50:      3159.95    0.552447  ( -0.445735   0.554212   0.215909)
  51:      3163.10    0.590245  ( -0.443988  -0.517792   0.353571)
  52:      3181.51    0.324536  (  0.153278   0.502869  -0.219464)
  53:      3236.06    0.478253  ( -0.538904  -0.276315  -0.333895)
  54:      3250.16    0.298442  ( -0.529542  -0.101390  -0.088019)
  55:      3475.07   62.138360  ( -1.448596  -2.645844  -7.282818)
  56:      3532.92   74.052541  (  0.771192  -7.786784   3.581032)

--------------------------
THERMOCHEMISTRY AT 298.15K
--------------------------

Temperature         ... 298.15 K
Pressure            ... 1.00 atm
Total Mass          ... 98.17 AMU

Throughout the following assumptions are being made:
  (1) The electronic state is orbitally nondegenerate
  (2) There are no thermally accessible electronically excited states
  (3) Hindered rotations indicated by low frequency modes) are not
      treated as such but are treated as vibrations and this may
      case some error
  (4) All equations used are the standard statistical mechanics
      equations for an ideal gas
  (5) All vibrations are strinctly harmonic

------------
INNER ENERGY
------------

The inner energy is: U= E(el) + E(ZPE) + E(vib) + E(rot) + E(trans)
    E(el)   - is the total energy from the electronic structure calculation
              = E(kin-el) + E(nuc-el) + E(el-el) + E(nuc-nuc)
    E(ZPE)  - the the zero temperature vibrational energy from the frequency calculation
    E(vib)  - the the finite temperature correction to E(ZPE) due to population
              of excietd vibrational states
    E(rot)  - is the rotational thermal energy
    E(trans)- is the translational thermal energy

Summary of contributions to the inner energy U:
Electronic energy                ...   -290.10558635 Eh
Zero point energy                ...      0.17894880 Eh     112.29 kcal/mol
Thermal vibrational correction   ...      0.00392360 Eh       2.46 kcal/mol
Thermal rotational correction    ...      0.00141627 Eh       0.89 kcal/mol
Thermal translational correction ...      0.00141627 Eh       0.89 kcal/mol
-----------------------------------------------------------------------
Total thermal energy                   -289.91988141 Eh

Summary of corrections to the electronic energy:
(perhaps to be used in another calculation)
Total thermal correction                  0.00675614 Eh       4.24 kcal/mol
Non-thermal (ZPE) correction              0.17894880 Eh     112.29 kcal/mol
-----------------------------------------------------------------------
Total correction                          0.18570494 Eh     116.53 kcal/mol

--------
ENTHALPY
--------

The enthalpy is H = U + kB*T
                kB is Boltzmann's constant
Total free energy                 ...   -289.91988141 Eh
Thermal Enthalpy correction       ...      0.00094421 Eh       0.59 kcal/mol
-----------------------------------------------------------------------
Total Enthalpy                    ...   -289.91893720 Eh

-------
ENTROPY
-------

The entropy contributions are T*S = T*(S(el)+S(vib)+S(rot)+S(trans)
     S(el)   - electronic entropy
     S(vib)  - vibrational entropy
     S(rot)  - rotational entropy
     S(trans)- translational entropy
The entropies will be listed as mutliplied by the temperature to get
units of energy

Electronic entropy                ...      0.00000000 Eh      0.00 kcal/mol
Vibrational entropy               ...      0.00718214 Eh      4.51 kcal/mol
Rotational entropy                ...      0.01184482 Eh      7.43 kcal/mol
Translational entropy             ...      0.01884507 Eh     11.83 kcal/mol
-----------------------------------------------------------------------
Final entropy term                ...      0.03787202 Eh     23.77 kcal/mol

CAUTION: The rotational entropy is not quite correctly treated here
         because it includes a symmetry number that is not yet correctly
         implemented in ORCA!
For a nonlinear molecule the correct rotational entropy is:
    S(rot) = R*(ln(qrot/sn)+1.5)
    R    = 8.31441 J/mol/K = 1.987191683e-3 kcal/mol/K
    qrot = 187903.3783490
    sn is the rotational symmetry number. We have assumed 3 here
       if it is different for your molecule then you should correct
       the printed rotational entropy by manually evaluating the equation
       as given above

For convenience we print out the resulting values for sn=1 - 12:
 sn= 1  qrot/sn=  187903.3783 T*S(rot)=     8.08 kcal/mol T*S(tot)=    24.42 kcal/mol
 sn= 2  qrot/sn=   93951.6892 T*S(rot)=     7.67 kcal/mol T*S(tot)=    24.01 kcal/mol
 sn= 3  qrot/sn=   62634.4594 T*S(rot)=     7.43 kcal/mol T*S(tot)=    23.77 kcal/mol
 sn= 4  qrot/sn=   46975.8446 T*S(rot)=     7.26 kcal/mol T*S(tot)=    23.59 kcal/mol
 sn= 5  qrot/sn=   37580.6757 T*S(rot)=     7.13 kcal/mol T*S(tot)=    23.46 kcal/mol
 sn= 6  qrot/sn=   31317.2297 T*S(rot)=     7.02 kcal/mol T*S(tot)=    23.35 kcal/mol
 sn= 7  qrot/sn=   26843.3398 T*S(rot)=     6.93 kcal/mol T*S(tot)=    23.26 kcal/mol
 sn= 8  qrot/sn=   23487.9223 T*S(rot)=     6.85 kcal/mol T*S(tot)=    23.18 kcal/mol
 sn= 9  qrot/sn=   20878.1531 T*S(rot)=     6.78 kcal/mol T*S(tot)=    23.11 kcal/mol
 sn=10  qrot/sn=   18790.3378 T*S(rot)=     6.72 kcal/mol T*S(tot)=    23.05 kcal/mol
 sn=11  qrot/sn=   17082.1253 T*S(rot)=     6.66 kcal/mol T*S(tot)=    23.00 kcal/mol
 sn=12  qrot/sn=   15658.6149 T*S(rot)=     6.61 kcal/mol T*S(tot)=    22.94 kcal/mol

-------------------
GIBBS FREE ENTHALPY
-------------------

The Gibbs free enthalpy is G = H - T*S

Total enthalpy                    ...   -289.91893720 Eh
Total entropy correction          ...     -0.03787202 Eh    -23.77 kcal/mol
-----------------------------------------------------------------------
Final Gibbs free enthalpy         ...   -289.95680922 Eh

For completeness - the Gibbs free enthalpy minus the electronic energy
G-E(el)                           ...      0.14877713 Eh     93.36 kcal/mol

                             ****ORCA TERMINATED NORMALLY****
TOTAL RUN TIME: 0 days 0 hours 50 minutes 28 seconds 959 msec
