                         Program Version 3.0.3 - RELEASE   -
|  1> ! NORI PBE0 def2-TZVP UseSym TightOPT Freq TightSCF Grid3 FinalGrid5 XYZFile
|  2> % pal
|  3>     nprocs 8
|  4> end
|  5> %method
|  6>     SymThresh 5.0e-2
|  7> end
|  8> % geom
|  9>     MaxIter 10
| 10> end
| 11> % maxcore 2000
| 12> % output
| 13>     printlevel mini
| 14>     print[ P_Basis ] 0
| 15>     print[ P_SCFInfo ] 1
| 16>     print[ P_SCFIterInfo ] 1
| 17>     print[ P_OrbEn ] 0
| 18>     print[ P_Cartesian ] 0
| 19> end
| 20> % elprop
| 21>     Dipole false
| 22> end
| 23> *xyz 1 1
| 24>  C       -1.2460265430    -0.7816182128    -0.5326958956
| 25>  C       -1.2549339718     0.7694933748    -0.5271399643
| 26>  C       -0.0053331512     1.1240610617     0.2725253123
| 27>  C        1.2568893236     0.7841418903    -0.5136461273
| 28>  C        1.2657235763    -0.7670319321    -0.5195687872
| 29>  C        0.0078082948    -1.1273719339     0.2643039650
| 30>  N       -0.0042124571    -0.0053600146     1.2837930081
| 31>  H       -1.1878107902    -1.2053539418    -1.5338133872
| 32>  H       -2.1419132691    -1.1888541905    -0.0606995066
| 33>  H       -2.1554903152     1.1629309879    -0.0522823030
| 34>  H       -1.2017635132     1.2012412347    -1.5250990295
| 35>  H       -0.0135517791     2.0947239755     0.7648883641
| 36>  H        1.2094241617     1.2155513823    -1.5120385176
| 37>  H        2.1478033744     1.1875368663    -0.0290905528
| 38>  H        2.1614148420    -1.1639483560    -0.0384776293
| 39>  H        1.2226498719    -1.1913057975    -1.5211963988
| 40>  H        0.0108378861    -2.1015743823     0.7496842225
| 41>  H        0.8220302063    -0.0026457180     1.8823638042
| 42>  H       -0.8368257472    -0.0125162939     1.8733994231
| 43> *
| 44>
| 45>                          ****END OF INPUT****
 Total Charge           Charge          ....    1
 Multiplicity           Mult            ....    1
 Number of Electrons    NEL             ....   54
FINAL SINGLE POINT ENERGY      -290.140797339071

CARTESIAN COORDINATES (ANGSTROEM)
---------------------------------
  C     -1.256158    0.775510    0.505842
  C     -1.256158   -0.775510    0.505842
  C     -0.000000   -1.125583   -0.285565
  C      1.256158   -0.775510    0.505842
  C      1.256158    0.775510    0.505842
  C      0.000000    1.125583   -0.285565
  N      0.000000   -0.000000   -1.301804
  H     -1.206027    1.203785    1.505665
  H     -2.151796    1.175647    0.027254
  H     -2.151796   -1.175647    0.027254
  H     -1.206027   -1.203785    1.505665
  H     -0.000000   -2.098298   -0.774120
  H      1.206027   -1.203785    1.505665
  H      2.151796   -1.175647    0.027254
  H      2.151796    1.175647    0.027254
  H      1.206027    1.203785    1.505665
  H     -0.000000    2.098298   -0.774120
  H      0.829528   -0.000000   -1.895985
  H     -0.829528   -0.000000   -1.895985

FINAL SINGLE POINT ENERGY      -290.140798557831
                    ***********************HURRAY********************
 Multiplicity           Mult            ....    1
 Number of Electrons    NEL             ....   54
 Basis Dimension        Dim             ....  289
FINAL SINGLE POINT ENERGY      -290.140798866002

VIBRATIONAL FREQUENCIES
-----------------------

   0:         0.00 cm**-1
   1:         0.00 cm**-1
   2:         0.00 cm**-1
   3:         0.00 cm**-1
   4:         0.00 cm**-1
   5:         0.00 cm**-1
   6:       144.24 cm**-1
   7:       326.77 cm**-1
   8:       400.90 cm**-1
   9:       457.95 cm**-1
  10:       566.61 cm**-1
  11:       733.54 cm**-1
  12:       770.16 cm**-1
  13:       797.86 cm**-1
  14:       810.97 cm**-1
  15:       842.02 cm**-1
  16:       898.99 cm**-1
  17:       911.46 cm**-1
  18:       926.13 cm**-1
  19:       962.81 cm**-1
  20:       966.99 cm**-1
  21:       978.61 cm**-1
  22:       999.52 cm**-1
  23:      1029.39 cm**-1
  24:      1060.20 cm**-1
  25:      1104.08 cm**-1
  26:      1141.57 cm**-1
  27:      1176.67 cm**-1
  28:      1189.45 cm**-1
  29:      1190.69 cm**-1
  30:      1238.19 cm**-1
  31:      1267.03 cm**-1
  32:      1267.38 cm**-1
  33:      1315.05 cm**-1
  34:      1319.87 cm**-1
  35:      1324.77 cm**-1
  36:      1361.65 cm**-1
  37:      1370.95 cm**-1
  38:      1374.22 cm**-1
  39:      1377.52 cm**-1
  40:      1481.91 cm**-1
  41:      1495.72 cm**-1
  42:      1498.68 cm**-1
  43:      1516.24 cm**-1
  44:      1648.28 cm**-1
  45:      3092.06 cm**-1
  46:      3092.92 cm**-1
  47:      3100.19 cm**-1
  48:      3100.64 cm**-1
  49:      3145.56 cm**-1
  50:      3149.66 cm**-1
  51:      3156.10 cm**-1
  52:      3158.52 cm**-1
  53:      3159.03 cm**-1
  54:      3164.86 cm**-1
  55:      3455.57 cm**-1
  56:      3527.74 cm**-1

IR SPECTRUM
-----------

 Mode    freq (cm**-1)   T**2         TX         TY         TZ
-------------------------------------------------------------------
   6:       144.24    0.000000  ( -0.000006  -0.000013   0.000009)
   7:       326.77    2.744064  (  0.000010   1.656522  -0.000010)
   8:       400.90    1.533330  (  0.000003   0.000004   1.238277)
   9:       457.95    5.701193  ( -2.387717   0.000006   0.000003)
  10:       566.61    0.000000  ( -0.000005  -0.000000  -0.000002)
  11:       733.54    1.227170  ( -0.000002  -1.107777  -0.000000)
  12:       770.16    0.341244  (  0.000002   0.000003   0.584161)
  13:       797.86    0.393068  (  0.626951  -0.000010   0.000006)
  14:       810.97    0.128346  (  0.000007  -0.000005   0.358254)
  15:       842.02    1.826342  ( -0.000002  -1.351422  -0.000003)
  16:       898.99   12.340127  ( -0.000002   0.000002   3.512852)
  17:       911.46    0.713559  ( -0.000001  -0.000000   0.844724)
  18:       926.13    0.648820  (  0.805494  -0.000001   0.000004)
  19:       962.81    0.000000  ( -0.000024   0.000016   0.000010)
  20:       966.99    0.822163  ( -0.000013  -0.906732   0.000000)
  21:       978.61    7.904304  (  2.811459  -0.000002   0.000005)
  22:       999.52    0.000000  ( -0.000007  -0.000003  -0.000002)
  23:      1029.39    0.008694  (  0.000002   0.000001   0.093241)
  24:      1060.20    1.390555  (  1.179218  -0.000000   0.000001)
  25:      1104.08    1.749892  ( -0.000001  -1.322835   0.000000)
  26:      1141.57    2.679219  ( -1.636832   0.000000   0.000008)
  27:      1176.67    0.000000  ( -0.000001  -0.000000  -0.000001)
  28:      1189.45   16.228190  (  0.000001   4.028423   0.000003)
  29:      1190.69    0.000736  (  0.000019  -0.000117  -0.027122)
  30:      1238.19    0.000000  (  0.000004   0.000016   0.000014)
  31:      1267.03   15.080052  ( -3.883304  -0.000035  -0.000010)
  32:      1267.38   24.563162  ( -0.000036   4.956124  -0.000014)
  33:      1315.05    5.770416  (  0.000001  -0.000006   2.402169)
  34:      1319.87    0.000000  ( -0.000004   0.000046   0.000003)
  35:      1324.77    7.540700  ( -0.000005  -2.746034  -0.000005)
  36:      1361.65    0.014677  (  0.000001   0.000009  -0.121150)
  37:      1370.95    0.000000  (  0.000006   0.000017   0.000005)
  38:      1374.22    0.192500  (  0.438748  -0.000012   0.000005)
  39:      1377.52   34.570095  ( -0.000000   5.879634   0.000005)
  40:      1481.91    0.000000  ( -0.000002  -0.000035   0.000003)
  41:      1495.72    9.318102  ( -0.000010  -3.052557   0.000002)
  42:      1498.68   18.770199  ( -4.332459   0.000000   0.000056)
  43:      1516.24   17.952725  ( -0.000044  -0.000006  -4.237066)
  44:      1648.28   73.071544  (  0.000001   0.000005   8.548189)
  45:      3092.06    7.704319  (  0.000003   2.775666   0.000001)
  46:      3092.92    0.000000  ( -0.000004   0.000044  -0.000002)
  47:      3100.19    0.488029  (  0.000125   0.000000   0.698591)
  48:      3100.64    9.431200  (  3.071026  -0.000000  -0.000018)
  49:      3145.56    0.000000  (  0.000010   0.000005   0.000017)
  50:      3149.66    0.892870  (  0.000009   0.944918   0.000017)
  51:      3156.10    1.405857  (  0.000002  -1.185688   0.000005)
  52:      3158.52    0.526846  (  0.000048  -0.000000  -0.725842)
  53:      3159.03    2.920714  (  1.709010   0.000000   0.000013)
  54:      3164.86    1.083912  ( -0.000002   0.000001  -1.041111)
  55:      3455.57   54.638076  ( -0.000000   0.000003  -7.391757)
  56:      3527.74   55.632486  (  7.458719  -0.000003  -0.000001)

--------------------------
THERMOCHEMISTRY AT 298.15K
--------------------------

Temperature         ... 298.15 K
Pressure            ... 1.00 atm
Total Mass          ... 98.17 AMU

Throughout the following assumptions are being made:
  (1) The electronic state is orbitally nondegenerate
  (2) There are no thermally accessible electronically excited states
  (3) Hindered rotations indicated by low frequency modes) are not
      treated as such but are treated as vibrations and this may
      case some error
  (4) All equations used are the standard statistical mechanics
      equations for an ideal gas
  (5) All vibrations are strinctly harmonic

------------
INNER ENERGY
------------

The inner energy is: U= E(el) + E(ZPE) + E(vib) + E(rot) + E(trans)
    E(el)   - is the total energy from the electronic structure calculation
              = E(kin-el) + E(nuc-el) + E(el-el) + E(nuc-nuc)
    E(ZPE)  - the the zero temperature vibrational energy from the frequency calculation
    E(vib)  - the the finite temperature correction to E(ZPE) due to population
              of excietd vibrational states
    E(rot)  - is the rotational thermal energy
    E(trans)- is the translational thermal energy

Summary of contributions to the inner energy U:
Electronic energy                ...   -290.14079887 Eh
Zero point energy                ...      0.18122349 Eh     113.72 kcal/mol
Thermal vibrational correction   ...      0.00279900 Eh       1.76 kcal/mol
Thermal rotational correction    ...      0.00141627 Eh       0.89 kcal/mol
Thermal translational correction ...      0.00141627 Eh       0.89 kcal/mol
-----------------------------------------------------------------------
Total thermal energy                   -289.95394384 Eh

Summary of corrections to the electronic energy:
(perhaps to be used in another calculation)
Total thermal correction                  0.00563154 Eh       3.53 kcal/mol
Non-thermal (ZPE) correction              0.18122349 Eh     113.72 kcal/mol
-----------------------------------------------------------------------
Total correction                          0.18685503 Eh     117.25 kcal/mol

--------
ENTHALPY
--------

The enthalpy is H = U + kB*T
                kB is Boltzmann's constant
Total free energy                 ...   -289.95394384 Eh
Thermal Enthalpy correction       ...      0.00094421 Eh       0.59 kcal/mol
-----------------------------------------------------------------------
Total Enthalpy                    ...   -289.95299963 Eh

-------
ENTROPY
-------

The entropy contributions are T*S = T*(S(el)+S(vib)+S(rot)+S(trans)
     S(el)   - electronic entropy
     S(vib)  - vibrational entropy
     S(rot)  - rotational entropy
     S(trans)- translational entropy
The entropies will be listed as mutliplied by the temperature to get
units of energy

Electronic entropy                ...      0.00000000 Eh      0.00 kcal/mol
Vibrational entropy               ...      0.00421506 Eh      2.64 kcal/mol
Rotational entropy                ...      0.01163243 Eh      7.30 kcal/mol
Translational entropy             ...      0.01884507 Eh     11.83 kcal/mol
-----------------------------------------------------------------------
Final entropy term                ...      0.03469256 Eh     21.77 kcal/mol

CAUTION: The rotational entropy is not quite correctly treated here
         because it includes a symmetry number that is not yet correctly
         implemented in ORCA!
For a nonlinear molecule the correct rotational entropy is:
    S(rot) = R*(ln(qrot/sn)+1.5)
    R    = 8.31441 J/mol/K = 1.987191683e-3 kcal/mol/K
    qrot = 150052.7733359
    sn is the rotational symmetry number. We have assumed 3 here
       if it is different for your molecule then you should correct
       the printed rotational entropy by manually evaluating the equation
       as given above

For convenience we print out the resulting values for sn=1 - 12:
 sn= 1  qrot/sn=  150052.7733 T*S(rot)=     7.95 kcal/mol T*S(tot)=    22.42 kcal/mol
 sn= 2  qrot/sn=   75026.3867 T*S(rot)=     7.54 kcal/mol T*S(tot)=    22.01 kcal/mol
 sn= 3  qrot/sn=   50017.5911 T*S(rot)=     7.30 kcal/mol T*S(tot)=    21.77 kcal/mol
 sn= 4  qrot/sn=   37513.1933 T*S(rot)=     7.13 kcal/mol T*S(tot)=    21.60 kcal/mol
 sn= 5  qrot/sn=   30010.5547 T*S(rot)=     7.00 kcal/mol T*S(tot)=    21.47 kcal/mol
 sn= 6  qrot/sn=   25008.7956 T*S(rot)=     6.89 kcal/mol T*S(tot)=    21.36 kcal/mol
 sn= 7  qrot/sn=   21436.1105 T*S(rot)=     6.80 kcal/mol T*S(tot)=    21.27 kcal/mol
 sn= 8  qrot/sn=   18756.5967 T*S(rot)=     6.72 kcal/mol T*S(tot)=    21.19 kcal/mol
 sn= 9  qrot/sn=   16672.5304 T*S(rot)=     6.65 kcal/mol T*S(tot)=    21.12 kcal/mol
 sn=10  qrot/sn=   15005.2773 T*S(rot)=     6.59 kcal/mol T*S(tot)=    21.06 kcal/mol
 sn=11  qrot/sn=   13641.1612 T*S(rot)=     6.53 kcal/mol T*S(tot)=    21.00 kcal/mol
 sn=12  qrot/sn=   12504.3978 T*S(rot)=     6.48 kcal/mol T*S(tot)=    20.95 kcal/mol

-------------------
GIBBS FREE ENTHALPY
-------------------

The Gibbs free enthalpy is G = H - T*S

Total enthalpy                    ...   -289.95299963 Eh
Total entropy correction          ...     -0.03469256 Eh    -21.77 kcal/mol
-----------------------------------------------------------------------
Final Gibbs free enthalpy         ...   -289.98769219 Eh

For completeness - the Gibbs free enthalpy minus the electronic energy
G-E(el)                           ...      0.15310667 Eh     96.08 kcal/mol

                             ****ORCA TERMINATED NORMALLY****
TOTAL RUN TIME: 0 days 1 hours 9 minutes 29 seconds 244 msec
