                         Program Version 3.0.3 - RELEASE   -
|  1> ! NORI PBE0 def2-TZVP UseSym TightOPT Freq TightSCF Grid3 FinalGrid5 XYZFile
|  2> % pal
|  3>     nprocs 8
|  4> end
|  5> %method
|  6>     SymThresh 5.0e-2
|  7> end
|  8> % geom
|  9>     MaxIter 10
| 10> end
| 11> % maxcore 2000
| 12> % output
| 13>     printlevel mini
| 14>     print[ P_Basis ] 0
| 15>     print[ P_SCFInfo ] 1
| 16>     print[ P_SCFIterInfo ] 1
| 17>     print[ P_OrbEn ] 0
| 18>     print[ P_Cartesian ] 0
| 19> end
| 20> % elprop
| 21>     Dipole false
| 22> end
| 23> *xyz 1 1
| 24>  C       -1.1989850633    -0.1076197542     0.9320553428
| 25>  C       -0.5897256274    -1.0547405395    -0.1076949782
| 26>  C        0.8906701742    -1.2744992284     0.1384608641
| 27>  C        1.6695623810     0.0477879743     0.0292250678
| 28>  C        0.8207090994     1.2885561897     0.3542755908
| 29>  C       -0.6469780829     1.0326751193     0.0686924268
| 30>  N       -0.7408505026     0.0798286215    -1.1309508350
| 31>  H       -0.8111525207    -0.1828878678     1.9453612241
| 32>  H       -2.2894288305    -0.1390861284     0.9496134094
| 33>  H       -1.1341317446    -1.9519285191    -0.3967919603
| 34>  H        1.2946804070    -2.0081181906    -0.5627739042
| 35>  H        0.9785983507    -1.7159868733     1.1342174765
| 36>  H        2.0545920858     0.1437836735    -0.9907898597
| 37>  H        2.5581329217     0.0187574432     0.6587211383
| 38>  H        0.8901970652     1.5619625636     1.4096700436
| 39>  H        1.1800296486     2.1497871839    -0.2132453483
| 40>  H       -1.2409682321     1.9347457250    -0.0676655697
| 41>  H       -1.6645498484     0.0900516619    -1.5600119616
| 42>  H       -0.0302916812     0.1610809454    -1.8579181672
| 43> *
| 44>
| 45>                          ****END OF INPUT****
 Total Charge           Charge          ....    1
 Multiplicity           Mult            ....    1
 Number of Electrons    NEL             ....   54
FINAL SINGLE POINT ENERGY      -290.114014978811

CARTESIAN COORDINATES (ANGSTROEM)
---------------------------------
  C     -0.082978   -1.532844   -0.000000
  C      0.388536   -0.518326    1.047859
  C     -0.650848    0.560341    1.286404
  C     -0.920036    1.359336    0.000000
  C     -0.650848    0.560341   -1.286404
  C      0.388536   -0.518326   -1.047859
  N      1.383352    0.000360   -0.000000
  H     -1.143108   -1.775483    0.000000
  H      0.506706   -2.450479    0.000000
  H      0.881445   -0.873499    1.951001
  H     -0.333991    1.231956    2.087279
  H     -1.550229    0.053404    1.644359
  H     -0.281975    2.248630    0.000000
  H     -1.937598    1.748501   -0.000000
  H     -1.550229    0.053404   -1.644359
  H     -0.333991    1.231956   -2.087279
  H      0.881445   -0.873499   -1.951001
  H      2.253247   -0.529160   -0.000000
  H      1.595427    0.997685   -0.000000

FINAL SINGLE POINT ENERGY      -290.114015746014
                    ***********************HURRAY********************
 Multiplicity           Mult            ....    1
 Number of Electrons    NEL             ....   54
 Basis Dimension        Dim             ....  289
FINAL SINGLE POINT ENERGY      -290.114016232186

VIBRATIONAL FREQUENCIES
-----------------------

   0:         0.00 cm**-1
   1:         0.00 cm**-1
   2:         0.00 cm**-1
   3:         0.00 cm**-1
   4:         0.00 cm**-1
   5:         0.00 cm**-1
   6:       167.00 cm**-1
   7:       296.86 cm**-1
   8:       384.80 cm**-1
   9:       403.28 cm**-1
  10:       489.17 cm**-1
  11:       584.18 cm**-1
  12:       757.25 cm**-1
  13:       803.77 cm**-1
  14:       812.17 cm**-1
  15:       829.46 cm**-1
  16:       845.72 cm**-1
  17:       897.65 cm**-1
  18:       907.64 cm**-1
  19:       926.73 cm**-1
  20:       967.41 cm**-1
  21:       986.14 cm**-1
  22:      1061.66 cm**-1
  23:      1086.09 cm**-1
  24:      1090.24 cm**-1
  25:      1108.19 cm**-1
  26:      1124.07 cm**-1
  27:      1140.30 cm**-1
  28:      1165.56 cm**-1
  29:      1225.85 cm**-1
  30:      1251.77 cm**-1
  31:      1263.93 cm**-1
  32:      1282.82 cm**-1
  33:      1307.91 cm**-1
  34:      1343.93 cm**-1
  35:      1349.45 cm**-1
  36:      1359.70 cm**-1
  37:      1367.22 cm**-1
  38:      1389.53 cm**-1
  39:      1396.74 cm**-1
  40:      1482.59 cm**-1
  41:      1487.92 cm**-1
  42:      1500.68 cm**-1
  43:      1511.23 cm**-1
  44:      1634.11 cm**-1
  45:      3058.12 cm**-1
  46:      3079.48 cm**-1
  47:      3079.86 cm**-1
  48:      3106.13 cm**-1
  49:      3122.11 cm**-1
  50:      3122.56 cm**-1
  51:      3140.12 cm**-1
  52:      3150.99 cm**-1
  53:      3151.06 cm**-1
  54:      3177.90 cm**-1
  55:      3464.20 cm**-1
  56:      3544.62 cm**-1

IR SPECTRUM
-----------

 Mode    freq (cm**-1)   T**2         TX         TY         TZ
-------------------------------------------------------------------
   6:       167.00    0.568480  (  0.620592  -0.428189   0.000005)
   7:       296.86    1.762590  ( -0.000002   0.000003   1.327626)
   8:       384.80    6.214196  ( -1.168494   2.202003   0.000002)
   9:       403.28    2.861250  (  1.513561  -0.755237   0.000001)
  10:       489.17    0.212793  ( -0.000009   0.000003   0.461295)
  11:       584.18    1.630702  ( -0.833538   0.967427   0.000004)
  12:       757.25    0.971052  ( -0.262258  -0.949881  -0.000006)
  13:       803.77    1.652798  ( -0.000009  -0.000006  -1.285612)
  14:       812.17   11.572127  ( -3.297074  -0.837515  -0.000002)
  15:       829.46    0.149524  ( -0.093956   0.375095  -0.000028)
  16:       845.72    2.864351  ( -0.000026   0.000009   1.692440)
  17:       897.65    4.104291  ( -0.000016  -0.000001  -2.025905)
  18:       907.64    3.470007  (  0.544412   1.781466  -0.000010)
  19:       926.73    3.556350  ( -1.728297   0.754547   0.000004)
  20:       967.41    0.265116  ( -0.243073   0.453907  -0.000002)
  21:       986.14    0.159496  (  0.000003   0.000005  -0.399369)
  22:      1061.66    0.082966  (  0.000006  -0.000008  -0.288038)
  23:      1086.09    3.985260  ( -0.768446  -1.842485   0.000054)
  24:      1090.24    1.343477  ( -0.000028  -0.000083  -1.159084)
  25:      1108.19    6.651629  (  1.691315  -1.947071   0.000015)
  26:      1124.07    3.890761  (  0.035257   1.972186   0.000008)
  27:      1140.30    0.822414  (  0.000021  -0.000026  -0.906870)
  28:      1165.56    1.269121  (  0.000004   0.000001   1.126553)
  29:      1225.85   42.602106  ( -0.000001  -0.000001   6.527029)
  30:      1251.77    0.387511  (  0.246300  -0.571706  -0.000029)
  31:      1263.93    7.980387  ( -0.000007   0.000000   2.824958)
  32:      1282.82    2.448414  (  0.000000  -0.000000   1.564741)
  33:      1307.91   35.204709  ( -0.000007  -0.000005   5.933356)
  34:      1343.93    5.199269  ( -2.033188   1.032190  -0.000032)
  35:      1349.45    0.060278  ( -0.000018   0.000016   0.245515)
  36:      1359.70    7.784545  (  0.000020  -0.000015   2.790080)
  37:      1367.22    3.984749  (  1.619820  -1.166590  -0.000037)
  38:      1389.53    1.041846  ( -0.560453   0.853076  -0.000031)
  39:      1396.74    2.493207  ( -0.000038   0.000015   1.578989)
  40:      1482.59    0.944208  ( -0.241361   0.941251   0.000262)
  41:      1487.92    9.689130  ( -0.000049  -0.000106   3.112737)
  42:      1500.68   20.704644  (  2.266199   3.945756   0.000044)
  43:      1511.23   12.683207  ( -3.131998   1.695226  -0.000040)
  44:      1634.11   73.038454  ( -8.101595  -2.720773  -0.000008)
  45:      3058.12    8.518187  ( -1.570400  -2.460087   0.000018)
  46:      3079.48    7.855460  (  0.000014  -0.000130  -2.802759)
  47:      3079.86    0.005453  ( -0.022598   0.070215  -0.003512)
  48:      3106.13    1.754562  (  0.361128  -1.274421  -0.000001)
  49:      3122.11    6.975721  ( -0.189906  -2.634323  -0.000976)
  50:      3122.56    0.848846  ( -0.000191  -0.002847   0.921324)
  51:      3140.12    1.371967  ( -1.037268  -0.544097   0.000011)
  52:      3150.99    5.783842  (  0.000160  -0.000111   2.404962)
  53:      3151.06    1.288953  (  0.997986  -0.541273  -0.000410)
  54:      3177.90    0.854762  (  0.837600  -0.391393  -0.000001)
  55:      3464.20   44.294757  (  6.061462   2.748352  -0.000001)
  56:      3544.62   69.750250  (  5.280522  -6.470420   0.000001)

--------------------------
THERMOCHEMISTRY AT 298.15K
--------------------------

Temperature         ... 298.15 K
Pressure            ... 1.00 atm
Total Mass          ... 98.17 AMU

Throughout the following assumptions are being made:
  (1) The electronic state is orbitally nondegenerate
  (2) There are no thermally accessible electronically excited states
  (3) Hindered rotations indicated by low frequency modes) are not
      treated as such but are treated as vibrations and this may
      case some error
  (4) All equations used are the standard statistical mechanics
      equations for an ideal gas
  (5) All vibrations are strinctly harmonic

------------
INNER ENERGY
------------

The inner energy is: U= E(el) + E(ZPE) + E(vib) + E(rot) + E(trans)
    E(el)   - is the total energy from the electronic structure calculation
              = E(kin-el) + E(nuc-el) + E(el-el) + E(nuc-nuc)
    E(ZPE)  - the the zero temperature vibrational energy from the frequency calculation
    E(vib)  - the the finite temperature correction to E(ZPE) due to population
              of excietd vibrational states
    E(rot)  - is the rotational thermal energy
    E(trans)- is the translational thermal energy

Summary of contributions to the inner energy U:
Electronic energy                ...   -290.11401623 Eh
Zero point energy                ...      0.18040322 Eh     113.20 kcal/mol
Thermal vibrational correction   ...      0.00299418 Eh       1.88 kcal/mol
Thermal rotational correction    ...      0.00141627 Eh       0.89 kcal/mol
Thermal translational correction ...      0.00141627 Eh       0.89 kcal/mol
-----------------------------------------------------------------------
Total thermal energy                   -289.92778629 Eh

Summary of corrections to the electronic energy:
(perhaps to be used in another calculation)
Total thermal correction                  0.00582672 Eh       3.66 kcal/mol
Non-thermal (ZPE) correction              0.18040322 Eh     113.20 kcal/mol
-----------------------------------------------------------------------
Total correction                          0.18622994 Eh     116.86 kcal/mol

--------
ENTHALPY
--------

The enthalpy is H = U + kB*T
                kB is Boltzmann's constant
Total free energy                 ...   -289.92778629 Eh
Thermal Enthalpy correction       ...      0.00094421 Eh       0.59 kcal/mol
-----------------------------------------------------------------------
Total Enthalpy                    ...   -289.92684208 Eh

-------
ENTROPY
-------

The entropy contributions are T*S = T*(S(el)+S(vib)+S(rot)+S(trans)
     S(el)   - electronic entropy
     S(vib)  - vibrational entropy
     S(rot)  - rotational entropy
     S(trans)- translational entropy
The entropies will be listed as mutliplied by the temperature to get
units of energy

Electronic entropy                ...      0.00000000 Eh      0.00 kcal/mol
Vibrational entropy               ...      0.00447011 Eh      2.81 kcal/mol
Rotational entropy                ...      0.01167757 Eh      7.33 kcal/mol
Translational entropy             ...      0.01884507 Eh     11.83 kcal/mol
-----------------------------------------------------------------------
Final entropy term                ...      0.03499276 Eh     21.96 kcal/mol

CAUTION: The rotational entropy is not quite correctly treated here
         because it includes a symmetry number that is not yet correctly
         implemented in ORCA!
For a nonlinear molecule the correct rotational entropy is:
    S(rot) = R*(ln(qrot/sn)+1.5)
    R    = 8.31441 J/mol/K = 1.987191683e-3 kcal/mol/K
    qrot = 157401.0317252
    sn is the rotational symmetry number. We have assumed 3 here
       if it is different for your molecule then you should correct
       the printed rotational entropy by manually evaluating the equation
       as given above

For convenience we print out the resulting values for sn=1 - 12:
 sn= 1  qrot/sn=  157401.0317 T*S(rot)=     7.98 kcal/mol T*S(tot)=    22.61 kcal/mol
 sn= 2  qrot/sn=   78700.5159 T*S(rot)=     7.57 kcal/mol T*S(tot)=    22.20 kcal/mol
 sn= 3  qrot/sn=   52467.0106 T*S(rot)=     7.33 kcal/mol T*S(tot)=    21.96 kcal/mol
 sn= 4  qrot/sn=   39350.2579 T*S(rot)=     7.16 kcal/mol T*S(tot)=    21.79 kcal/mol
 sn= 5  qrot/sn=   31480.2063 T*S(rot)=     7.03 kcal/mol T*S(tot)=    21.66 kcal/mol
 sn= 6  qrot/sn=   26233.5053 T*S(rot)=     6.92 kcal/mol T*S(tot)=    21.55 kcal/mol
 sn= 7  qrot/sn=   22485.8617 T*S(rot)=     6.83 kcal/mol T*S(tot)=    21.46 kcal/mol
 sn= 8  qrot/sn=   19675.1290 T*S(rot)=     6.75 kcal/mol T*S(tot)=    21.38 kcal/mol
 sn= 9  qrot/sn=   17489.0035 T*S(rot)=     6.68 kcal/mol T*S(tot)=    21.31 kcal/mol
 sn=10  qrot/sn=   15740.1032 T*S(rot)=     6.61 kcal/mol T*S(tot)=    21.24 kcal/mol
 sn=11  qrot/sn=   14309.1847 T*S(rot)=     6.56 kcal/mol T*S(tot)=    21.19 kcal/mol
 sn=12  qrot/sn=   13116.7526 T*S(rot)=     6.51 kcal/mol T*S(tot)=    21.14 kcal/mol

-------------------
GIBBS FREE ENTHALPY
-------------------

The Gibbs free enthalpy is G = H - T*S

Total enthalpy                    ...   -289.92684208 Eh
Total entropy correction          ...     -0.03499276 Eh    -21.96 kcal/mol
-----------------------------------------------------------------------
Final Gibbs free enthalpy         ...   -289.96183484 Eh

For completeness - the Gibbs free enthalpy minus the electronic energy
G-E(el)                           ...      0.15218140 Eh     95.50 kcal/mol

                             ****ORCA TERMINATED NORMALLY****
TOTAL RUN TIME: 0 days 0 hours 57 minutes 19 seconds 417 msec
