                         Program Version 3.0.3 - RELEASE   -
|  1> ! NORI PBE0 def2-TZVP UseSym TightOPT Freq TightSCF Grid3 FinalGrid5 XYZFile
|  2> % pal
|  3>     nprocs 8
|  4> end
|  5> %method
|  6>     SymThresh 5.0e-2
|  7> end
|  8> % geom
|  9>     MaxIter 10
| 10> end
| 11> % maxcore 2000
| 12> % output
| 13>     printlevel mini
| 14>     print[ P_Basis ] 0
| 15>     print[ P_SCFInfo ] 1
| 16>     print[ P_SCFIterInfo ] 1
| 17>     print[ P_OrbEn ] 0
| 18>     print[ P_Cartesian ] 0
| 19> end
| 20> % elprop
| 21>     Dipole false
| 22> end
| 23> *xyz 1 1
| 24>  C       -1.8113752504     0.6840419219     0.3785118051
| 25>  C       -1.8023810138    -0.7156970983    -0.3305445845
| 26>  C       -0.3264121707    -0.7236495990     0.0859940037
| 27>  N        0.9835255734    -1.1047489522    -0.5336429566
| 28>  C        1.9269392865     0.0016119684     0.0110231680
| 29>  C        1.0319445343     1.1045893011     0.6517093932
| 30>  C       -0.3003625971     0.7614449687     0.0225628824
| 31>  H       -1.9959652496     0.5894543266     1.4488620892
| 32>  H       -2.4574647103     1.4496197320    -0.0431583321
| 33>  H       -2.4380577709    -1.5070717806     0.0599349187
| 34>  H       -1.9493782319    -0.6077364835    -1.4058766018
| 35>  H       -0.2506857522    -1.0565061851     1.1243718442
| 36>  H        1.3186433818    -2.0353510297    -0.2869383491
| 37>  H        0.9355277522    -1.0569955509    -1.5509837053
| 38>  H        2.5048771723     0.3676303046    -0.8353071338
| 39>  H        2.6045062619    -0.4723019882     0.7184799964
| 40>  H        1.0131563181     0.9981487200     1.7377560904
| 41>  H        1.4257352468     2.0908055354     0.4086265510
| 42>  H       -0.2714927806     1.0512218887    -1.0368910789
| 43> *
| 44>
| 45>                          ****END OF INPUT****
 Total Charge           Charge          ....    1
 Multiplicity           Mult            ....    1
 Number of Electrons    NEL             ....   54
FINAL SINGLE POINT ENERGY      -290.078219324655

CARTESIAN COORDINATES (ANGSTROEM)
---------------------------------
  C      0.893867   -0.000763   -1.749845
  C      1.879169   -0.030645   -0.529494
  C      0.613841   -0.384495    0.261496
  N      0.000105   -0.000673    1.573323
  C     -1.509945    0.050516    1.215461
  C     -1.624406   -0.007409   -0.337476
  C     -0.210001    0.369417   -0.720310
  H      0.762065   -0.992969   -2.182480
  H      1.098537    0.722067   -2.535067
  H      2.691058   -0.753980   -0.526727
  H      2.260819    0.968052   -0.313522
  H      0.422572   -1.456822    0.167539
  H      0.180621   -0.651784    2.336711
  H      0.321781    0.918843    1.873552
  H     -1.900844    0.976867    1.631921
  H     -1.988880   -0.787862    1.717121
  H     -1.883461   -1.015723   -0.663866
  H     -2.401114    0.675885   -0.679112
  H     -0.068533    1.441559   -0.523650

FINAL SINGLE POINT ENERGY      -290.078220426837
                    ***********************HURRAY********************
 Multiplicity           Mult            ....    1
 Number of Electrons    NEL             ....   54
 Basis Dimension        Dim             ....  289
FINAL SINGLE POINT ENERGY      -290.078220617924

VIBRATIONAL FREQUENCIES
-----------------------

   0:         0.00 cm**-1
   1:         0.00 cm**-1
   2:         0.00 cm**-1
   3:         0.00 cm**-1
   4:         0.00 cm**-1
   5:         0.00 cm**-1
   6:       132.91 cm**-1
   7:       255.93 cm**-1
   8:       298.08 cm**-1
   9:       397.24 cm**-1
  10:       486.27 cm**-1
  11:       607.84 cm**-1
  12:       642.40 cm**-1
  13:       780.27 cm**-1
  14:       795.29 cm**-1
  15:       813.36 cm**-1
  16:       841.43 cm**-1
  17:       887.05 cm**-1
  18:       904.21 cm**-1
  19:       924.92 cm**-1
  20:       958.87 cm**-1
  21:      1001.45 cm**-1
  22:      1031.05 cm**-1
  23:      1055.67 cm**-1
  24:      1090.78 cm**-1
  25:      1118.24 cm**-1
  26:      1185.18 cm**-1
  27:      1191.69 cm**-1
  28:      1202.29 cm**-1
  29:      1221.32 cm**-1
  30:      1250.06 cm**-1
  31:      1258.12 cm**-1
  32:      1275.30 cm**-1
  33:      1284.75 cm**-1
  34:      1301.39 cm**-1
  35:      1320.40 cm**-1
  36:      1346.43 cm**-1
  37:      1363.71 cm**-1
  38:      1412.59 cm**-1
  39:      1444.99 cm**-1
  40:      1480.36 cm**-1
  41:      1487.59 cm**-1
  42:      1499.59 cm**-1
  43:      1503.82 cm**-1
  44:      1650.53 cm**-1
  45:      3016.54 cm**-1
  46:      3088.70 cm**-1
  47:      3098.95 cm**-1
  48:      3105.78 cm**-1
  49:      3110.35 cm**-1
  50:      3123.49 cm**-1
  51:      3154.99 cm**-1
  52:      3178.39 cm**-1
  53:      3186.79 cm**-1
  54:      3187.73 cm**-1
  55:      3467.01 cm**-1
  56:      3529.55 cm**-1

IR SPECTRUM
-----------

 Mode    freq (cm**-1)   T**2         TX         TY         TZ
-------------------------------------------------------------------
   6:       132.91    0.788994  ( -0.047889  -0.865055   0.195906)
   7:       255.93    1.732929  ( -0.152864  -1.278823   0.272348)
   8:       298.08    1.405343  ( -0.724353  -0.927783   0.140978)
   9:       397.24    2.824477  (  1.311211  -0.946993   0.456514)
  10:       486.27    0.331284  (  0.369316  -0.282823   0.338971)
  11:       607.84    2.732528  (  0.850843   0.170581  -1.406946)
  12:       642.40    1.782060  ( -0.248538  -0.274859  -1.282475)
  13:       780.27    6.195688  (  0.712711  -2.127030   1.078645)
  14:       795.29    2.722668  (  0.869313   1.347913  -0.387420)
  15:       813.36    7.211912  (  2.629443  -0.301160   0.455239)
  16:       841.43    4.128400  ( -1.557979   0.391854   1.244007)
  17:       887.05    5.862025  ( -0.640923  -0.726310   2.218945)
  18:       904.21    2.028675  (  0.624192   1.164171  -0.532697)
  19:       924.92    1.374203  (  0.952203   0.015917  -0.683563)
  20:       958.87    6.850460  (  1.792332  -0.671933   1.785081)
  21:      1001.45    2.317349  ( -0.959419   1.124622   0.363440)
  22:      1031.05   13.915421  (  2.556000  -1.226059  -2.424678)
  23:      1055.67    3.247382  ( -0.001610   1.086891  -1.437375)
  24:      1090.78    0.716187  ( -0.329019   0.294608   0.721900)
  25:      1118.24    1.862225  ( -0.210048   0.310189  -1.312207)
  26:      1185.18    1.284929  ( -1.058616   0.404566  -0.024233)
  27:      1191.69    3.217857  (  1.221377  -0.538199  -1.198514)
  28:      1202.29    3.316878  ( -0.272273   1.321457  -1.223314)
  29:      1221.32    1.852234  (  0.993070  -0.031008  -0.930099)
  30:      1250.06    3.439389  (  0.969875  -0.149415   1.573660)
  31:      1258.12    7.702137  ( -2.438301  -0.435627   1.251820)
  32:      1275.30    4.597709  ( -2.025554   0.570005  -0.412230)
  33:      1284.75   29.988159  (  4.909057  -1.052725  -2.186570)
  34:      1301.39    7.500661  ( -0.926255  -1.347311   2.197150)
  35:      1320.40    5.877662  (  1.656680  -1.637893  -0.671104)
  36:      1346.43    7.962059  ( -2.538908   0.873989   0.867266)
  37:      1363.71    6.488364  ( -2.358731   0.462672   0.843023)
  38:      1412.59    0.214553  ( -0.117853  -0.062675  -0.443548)
  39:      1444.99    8.297616  ( -1.508698  -0.977887   2.250596)
  40:      1480.36    8.850315  (  1.438305   1.831021   1.851744)
  41:      1487.59    6.535171  (  0.065964  -1.053924  -2.328103)
  42:      1499.59    8.556292  ( -1.740669  -0.132003   2.347113)
  43:      1503.82    8.801633  ( -2.661005  -1.305254  -0.130372)
  44:      1650.53   62.452932  (  2.716629   2.509146   6.984056)
  45:      3016.54    7.735897  ( -0.541444  -2.499498  -1.093273)
  46:      3088.70    1.551762  (  0.030703  -1.088813   0.604405)
  47:      3098.95    4.609062  (  1.528974   1.405547   0.543818)
  48:      3105.78    4.010602  ( -1.859464  -0.727244   0.155283)
  49:      3110.35    8.642590  ( -0.799368  -1.907938  -2.088869)
  50:      3123.49    1.580031  ( -0.596370   0.031827   1.106057)
  51:      3154.99    1.862586  (  0.726517  -1.065447  -0.446745)
  52:      3178.39    3.626183  ( -1.613968   0.626067   0.793304)
  53:      3186.79    0.022397  (  0.026319   0.014284   0.146631)
  54:      3187.73    3.379467  ( -0.359575   1.762662  -0.378410)
  55:      3467.01   56.375402  (  3.161363   0.782619   6.765256)
  56:      3529.55   66.324404  ( -0.627729  -7.891006   1.913737)

--------------------------
THERMOCHEMISTRY AT 298.15K
--------------------------

Temperature         ... 298.15 K
Pressure            ... 1.00 atm
Total Mass          ... 98.17 AMU

Throughout the following assumptions are being made:
  (1) The electronic state is orbitally nondegenerate
  (2) There are no thermally accessible electronically excited states
  (3) Hindered rotations indicated by low frequency modes) are not
      treated as such but are treated as vibrations and this may
      case some error
  (4) All equations used are the standard statistical mechanics
      equations for an ideal gas
  (5) All vibrations are strinctly harmonic

------------
INNER ENERGY
------------

The inner energy is: U= E(el) + E(ZPE) + E(vib) + E(rot) + E(trans)
    E(el)   - is the total energy from the electronic structure calculation
              = E(kin-el) + E(nuc-el) + E(el-el) + E(nuc-nuc)
    E(ZPE)  - the the zero temperature vibrational energy from the frequency calculation
    E(vib)  - the the finite temperature correction to E(ZPE) due to population
              of excietd vibrational states
    E(rot)  - is the rotational thermal energy
    E(trans)- is the translational thermal energy

Summary of contributions to the inner energy U:
Electronic energy                ...   -290.07822062 Eh
Zero point energy                ...      0.17986499 Eh     112.87 kcal/mol
Thermal vibrational correction   ...      0.00326473 Eh       2.05 kcal/mol
Thermal rotational correction    ...      0.00141627 Eh       0.89 kcal/mol
Thermal translational correction ...      0.00141627 Eh       0.89 kcal/mol
-----------------------------------------------------------------------
Total thermal energy                   -289.89225835 Eh

Summary of corrections to the electronic energy:
(perhaps to be used in another calculation)
Total thermal correction                  0.00609727 Eh       3.83 kcal/mol
Non-thermal (ZPE) correction              0.17986499 Eh     112.87 kcal/mol
-----------------------------------------------------------------------
Total correction                          0.18596226 Eh     116.69 kcal/mol

--------
ENTHALPY
--------

The enthalpy is H = U + kB*T
                kB is Boltzmann's constant
Total free energy                 ...   -289.89225835 Eh
Thermal Enthalpy correction       ...      0.00094421 Eh       0.59 kcal/mol
-----------------------------------------------------------------------
Total Enthalpy                    ...   -289.89131415 Eh

-------
ENTROPY
-------

The entropy contributions are T*S = T*(S(el)+S(vib)+S(rot)+S(trans)
     S(el)   - electronic entropy
     S(vib)  - vibrational entropy
     S(rot)  - rotational entropy
     S(trans)- translational entropy
The entropies will be listed as mutliplied by the temperature to get
units of energy

Electronic entropy                ...      0.00000000 Eh      0.00 kcal/mol
Vibrational entropy               ...      0.00507491 Eh      3.18 kcal/mol
Rotational entropy                ...      0.01181850 Eh      7.42 kcal/mol
Translational entropy             ...      0.01884507 Eh     11.83 kcal/mol
-----------------------------------------------------------------------
Final entropy term                ...      0.03573848 Eh     22.43 kcal/mol

CAUTION: The rotational entropy is not quite correctly treated here
         because it includes a symmetry number that is not yet correctly
         implemented in ORCA!
For a nonlinear molecule the correct rotational entropy is:
    S(rot) = R*(ln(qrot/sn)+1.5)
    R    = 8.31441 J/mol/K = 1.987191683e-3 kcal/mol/K
    qrot = 182739.2718832
    sn is the rotational symmetry number. We have assumed 3 here
       if it is different for your molecule then you should correct
       the printed rotational entropy by manually evaluating the equation
       as given above

For convenience we print out the resulting values for sn=1 - 12:
 sn= 1  qrot/sn=  182739.2719 T*S(rot)=     8.07 kcal/mol T*S(tot)=    23.08 kcal/mol
 sn= 2  qrot/sn=   91369.6359 T*S(rot)=     7.66 kcal/mol T*S(tot)=    22.67 kcal/mol
 sn= 3  qrot/sn=   60913.0906 T*S(rot)=     7.42 kcal/mol T*S(tot)=    22.43 kcal/mol
 sn= 4  qrot/sn=   45684.8180 T*S(rot)=     7.25 kcal/mol T*S(tot)=    22.26 kcal/mol
 sn= 5  qrot/sn=   36547.8544 T*S(rot)=     7.11 kcal/mol T*S(tot)=    22.12 kcal/mol
 sn= 6  qrot/sn=   30456.5453 T*S(rot)=     7.01 kcal/mol T*S(tot)=    22.02 kcal/mol
 sn= 7  qrot/sn=   26105.6103 T*S(rot)=     6.91 kcal/mol T*S(tot)=    21.92 kcal/mol
 sn= 8  qrot/sn=   22842.4090 T*S(rot)=     6.84 kcal/mol T*S(tot)=    21.85 kcal/mol
 sn= 9  qrot/sn=   20304.3635 T*S(rot)=     6.77 kcal/mol T*S(tot)=    21.78 kcal/mol
 sn=10  qrot/sn=   18273.9272 T*S(rot)=     6.70 kcal/mol T*S(tot)=    21.71 kcal/mol
 sn=11  qrot/sn=   16612.6611 T*S(rot)=     6.65 kcal/mol T*S(tot)=    21.66 kcal/mol
 sn=12  qrot/sn=   15228.2727 T*S(rot)=     6.59 kcal/mol T*S(tot)=    21.60 kcal/mol

-------------------
GIBBS FREE ENTHALPY
-------------------

The Gibbs free enthalpy is G = H - T*S

Total enthalpy                    ...   -289.89131415 Eh
Total entropy correction          ...     -0.03573848 Eh    -22.43 kcal/mol
-----------------------------------------------------------------------
Final Gibbs free enthalpy         ...   -289.92705263 Eh

For completeness - the Gibbs free enthalpy minus the electronic energy
G-E(el)                           ...      0.15116799 Eh     94.86 kcal/mol

                             ****ORCA TERMINATED NORMALLY****
TOTAL RUN TIME: 0 days 0 hours 53 minutes 36 seconds 884 msec
