                         Program Version 3.0.3 - RELEASE   -
|  1> ! NORI PBE0 def2-TZVP UseSym TightOPT Freq TightSCF Grid3 FinalGrid5 XYZFile
|  2> % pal
|  3>     nprocs 8
|  4> end
|  5> %method
|  6>     SymThresh 5.0e-2
|  7> end
|  8> % geom
|  9>     MaxIter 10
| 10> end
| 11> % maxcore 2000
| 12> % output
| 13>     printlevel mini
| 14>     print[ P_Basis ] 0
| 15>     print[ P_SCFInfo ] 1
| 16>     print[ P_SCFIterInfo ] 1
| 17>     print[ P_OrbEn ] 0
| 18>     print[ P_Cartesian ] 0
| 19> end
| 20> % elprop
| 21>     Dipole false
| 22> end
| 23> *xyz 1 1
| 24>  C       -0.8200356538     0.0184101964    -1.1770527047
| 25>  C       -0.6185360301     1.0633120256    -0.0510775077
| 26>  C       -1.1659756469    -0.0096543404     0.9169675355
| 27>  C       -0.6462795608    -1.0426567438    -0.0837767924
| 28>  N        0.8281472081    -1.2351185315     0.1991568744
| 29>  C        1.6540610538     0.0024017865    -0.0717275519
| 30>  C        0.8665531937     1.2719600916     0.2282346820
| 31>  H       -1.8527811915     0.0016387077    -1.5227889568
| 32>  H       -0.1620368010     0.0121816985    -2.0474140194
| 33>  H       -1.1530462379     2.0084913868    -0.1211900609
| 34>  H       -0.7850513306    -0.0387670837     1.9418588506
| 35>  H       -2.2550587881    -0.0279213689     0.9415953078
| 36>  H       -1.0959576712    -2.0317559071    -0.1670086705
| 37>  H        1.1942074029    -2.0031413724    -0.3643137889
| 38>  H        0.9276899007    -1.5204720797     1.1745823883
| 39>  H        1.9170462618    -0.0494191925    -1.1264840191
| 40>  H        2.5732929296    -0.0834550423     0.5063968859
| 41>  H        1.2782113232     2.0637430255    -0.4015687104
| 42>  H        1.0063496378     1.5877327436     1.2648402582
| 43> *
| 44>
| 45>                          ****END OF INPUT****
 Total Charge           Charge          ....    1
 Multiplicity           Mult            ....    1
 Number of Electrons    NEL             ....   54
FINAL SINGLE POINT ENERGY      -290.106786687382

CARTESIAN COORDINATES (ANGSTROEM)
---------------------------------
  C      1.306767    0.000074   -0.653730
  C     -0.116810   -0.044058   -1.263323
  C     -0.289082   -1.393730   -0.531022
  C      0.741260   -0.873784    0.472356
  N     -0.000311    0.000087    1.461274
  C     -0.581282    1.247994    0.835519
  C     -1.015996    0.996571   -0.602996
  H      2.008160   -0.592126   -1.240318
  H      1.774432    0.956282   -0.414371
  H     -0.215822   -0.034510   -2.346746
  H     -1.281042   -1.671215   -0.163386
  H      0.126685   -2.227203   -1.096008
  H      1.372785   -1.553105    1.044066
  H      0.623690    0.274456    2.220724
  H     -0.741023   -0.560769    1.885255
  H      0.214106    1.990040    0.875148
  H     -1.391009    1.591250    1.478735
  H     -0.963067    1.952944   -1.128124
  H     -2.057214    0.667847   -0.649159

FINAL SINGLE POINT ENERGY      -290.106787527652
                    ***********************HURRAY********************
 Multiplicity           Mult            ....    1
 Number of Electrons    NEL             ....   54
 Basis Dimension        Dim             ....  289
FINAL SINGLE POINT ENERGY      -290.106787970919

VIBRATIONAL FREQUENCIES
-----------------------

   0:         0.00 cm**-1
   1:         0.00 cm**-1
   2:         0.00 cm**-1
   3:         0.00 cm**-1
   4:         0.00 cm**-1
   5:         0.00 cm**-1
   6:       210.02 cm**-1
   7:       287.29 cm**-1
   8:       413.61 cm**-1
   9:       425.71 cm**-1
  10:       471.91 cm**-1
  11:       573.96 cm**-1
  12:       776.19 cm**-1
  13:       791.45 cm**-1
  14:       829.85 cm**-1
  15:       837.09 cm**-1
  16:       856.69 cm**-1
  17:       907.33 cm**-1
  18:       932.53 cm**-1
  19:       936.05 cm**-1
  20:       955.13 cm**-1
  21:       970.23 cm**-1
  22:      1028.28 cm**-1
  23:      1081.84 cm**-1
  24:      1106.42 cm**-1
  25:      1112.66 cm**-1
  26:      1124.29 cm**-1
  27:      1145.71 cm**-1
  28:      1167.01 cm**-1
  29:      1250.10 cm**-1
  30:      1255.23 cm**-1
  31:      1271.46 cm**-1
  32:      1277.53 cm**-1
  33:      1298.63 cm**-1
  34:      1337.75 cm**-1
  35:      1354.00 cm**-1
  36:      1370.26 cm**-1
  37:      1383.85 cm**-1
  38:      1425.49 cm**-1
  39:      1429.60 cm**-1
  40:      1468.58 cm**-1
  41:      1491.51 cm**-1
  42:      1494.64 cm**-1
  43:      1514.97 cm**-1
  44:      1649.19 cm**-1
  45:      3073.20 cm**-1
  46:      3075.68 cm**-1
  47:      3097.55 cm**-1
  48:      3113.13 cm**-1
  49:      3121.28 cm**-1
  50:      3135.88 cm**-1
  51:      3147.23 cm**-1
  52:      3154.47 cm**-1
  53:      3159.58 cm**-1
  54:      3168.37 cm**-1
  55:      3447.44 cm**-1
  56:      3502.98 cm**-1

IR SPECTRUM
-----------

 Mode    freq (cm**-1)   T**2         TX         TY         TZ
-------------------------------------------------------------------
   6:       210.02    1.877018  ( -1.115363  -0.279177  -0.745012)
   7:       287.29    2.191519  (  1.101480   0.875023   0.461080)
   8:       413.61    2.039789  ( -0.763288  -1.130110  -0.424302)
   9:       425.71    0.942622  ( -0.864008   0.040345  -0.441004)
  10:       471.91    5.194469  ( -0.054084  -0.028723  -2.278315)
  11:       573.96    1.666966  (  1.240608  -0.256687   0.248934)
  12:       776.19    3.509368  ( -1.611898  -0.821583   0.485958)
  13:       791.45    2.713272  (  0.436477   0.113894   1.584231)
  14:       829.85    0.844275  ( -0.617778  -0.509285  -0.450837)
  15:       837.09    1.578930  ( -0.254923   0.308378  -1.191154)
  16:       856.69    1.423441  ( -0.780484  -0.840566  -0.328230)
  17:       907.33    2.116384  ( -0.897951   1.123302  -0.219682)
  18:       932.53    0.486744  (  0.601885  -0.148097   0.320228)
  19:       936.05    0.548258  ( -0.321454  -0.588701  -0.313620)
  20:       955.13    1.689808  (  0.752684   0.978443   0.407338)
  21:       970.23    3.551568  ( -1.542606   0.702507   0.823661)
  22:      1028.28   12.417384  (  1.890087  -2.914835  -0.590501)
  23:      1081.84    0.949978  (  0.899835  -0.352388  -0.126877)
  24:      1106.42    2.062596  (  1.222775  -0.036995  -0.752362)
  25:      1112.66    2.069392  (  0.596688   1.249840   0.388915)
  26:      1124.29    5.143879  ( -1.084589  -1.974455  -0.262816)
  27:      1145.71    0.316662  ( -0.082307   0.460758   0.312394)
  28:      1167.01    3.431725  (  1.361281  -0.450268   1.172987)
  29:      1250.10    0.552084  (  0.225835   0.707564  -0.020856)
  30:      1255.23    4.949755  ( -0.138766  -2.087981  -0.755534)
  31:      1271.46    4.530316  ( -1.514666   0.696960   1.323008)
  32:      1277.53    2.725324  ( -0.434951   1.277572   0.950763)
  33:      1298.63   11.640357  ( -1.565143   2.155361  -2.131925)
  34:      1337.75   16.093440  ( -1.786066   2.828179   2.214680)
  35:      1354.00    2.568940  ( -0.329665   1.159088   1.056777)
  36:      1370.26    5.267830  (  0.679509  -0.010666  -2.192255)
  37:      1383.85    4.098580  ( -1.600853   1.117819  -0.535100)
  38:      1425.49   27.430617  (  3.352845  -3.965896   0.678764)
  39:      1429.60   15.007434  ( -2.373440   3.027224   0.458398)
  40:      1468.58   11.752853  ( -2.882558  -1.522487   1.061012)
  41:      1491.51    9.646746  (  2.847434  -0.027614   1.240204)
  42:      1494.64   13.539966  (  0.502986   2.677112   2.473872)
  43:      1514.97    6.995640  (  0.788045   2.524111   0.059061)
  44:      1649.19   63.519535  (  1.149192   1.654655  -7.711096)
  45:      3073.20    8.106897  ( -1.772747  -1.786761   1.331071)
  46:      3075.68   10.554095  (  3.246449   0.077549  -0.093017)
  47:      3097.55    6.467441  (  1.661830   1.895151   0.337882)
  48:      3113.13    1.551523  ( -0.232335  -0.821542  -0.906980)
  49:      3121.28    3.798407  ( -1.089426  -1.432980  -0.747078)
  50:      3135.88    6.692563  ( -1.155693   0.959824  -2.106104)
  51:      3147.23    5.788738  (  0.848891  -0.682483   2.145306)
  52:      3154.47    2.924759  (  1.465492   0.710771  -0.521437)
  53:      3159.58    2.626976  ( -0.103702   1.465203   0.685129)
  54:      3168.37    1.652766  ( -1.142672  -0.585360   0.066480)
  55:      3447.44   48.351698  (  0.818247   1.763163  -6.676333)
  56:      3502.98   64.666482  ( -6.582637  -3.729734  -2.724787)

--------------------------
THERMOCHEMISTRY AT 298.15K
--------------------------

Temperature         ... 298.15 K
Pressure            ... 1.00 atm
Total Mass          ... 98.17 AMU

Throughout the following assumptions are being made:
  (1) The electronic state is orbitally nondegenerate
  (2) There are no thermally accessible electronically excited states
  (3) Hindered rotations indicated by low frequency modes) are not
      treated as such but are treated as vibrations and this may
      case some error
  (4) All equations used are the standard statistical mechanics
      equations for an ideal gas
  (5) All vibrations are strinctly harmonic

------------
INNER ENERGY
------------

The inner energy is: U= E(el) + E(ZPE) + E(vib) + E(rot) + E(trans)
    E(el)   - is the total energy from the electronic structure calculation
              = E(kin-el) + E(nuc-el) + E(el-el) + E(nuc-nuc)
    E(ZPE)  - the the zero temperature vibrational energy from the frequency calculation
    E(vib)  - the the finite temperature correction to E(ZPE) due to population
              of excietd vibrational states
    E(rot)  - is the rotational thermal energy
    E(trans)- is the translational thermal energy

Summary of contributions to the inner energy U:
Electronic energy                ...   -290.10678797 Eh
Zero point energy                ...      0.18091124 Eh     113.52 kcal/mol
Thermal vibrational correction   ...      0.00288962 Eh       1.81 kcal/mol
Thermal rotational correction    ...      0.00141627 Eh       0.89 kcal/mol
Thermal translational correction ...      0.00141627 Eh       0.89 kcal/mol
-----------------------------------------------------------------------
Total thermal energy                   -289.92015456 Eh

Summary of corrections to the electronic energy:
(perhaps to be used in another calculation)
Total thermal correction                  0.00572217 Eh       3.59 kcal/mol
Non-thermal (ZPE) correction              0.18091124 Eh     113.52 kcal/mol
-----------------------------------------------------------------------
Total correction                          0.18663341 Eh     117.11 kcal/mol

--------
ENTHALPY
--------

The enthalpy is H = U + kB*T
                kB is Boltzmann's constant
Total free energy                 ...   -289.92015456 Eh
Thermal Enthalpy correction       ...      0.00094421 Eh       0.59 kcal/mol
-----------------------------------------------------------------------
Total Enthalpy                    ...   -289.91921035 Eh

-------
ENTROPY
-------

The entropy contributions are T*S = T*(S(el)+S(vib)+S(rot)+S(trans)
     S(el)   - electronic entropy
     S(vib)  - vibrational entropy
     S(rot)  - rotational entropy
     S(trans)- translational entropy
The entropies will be listed as mutliplied by the temperature to get
units of energy

Electronic entropy                ...      0.00000000 Eh      0.00 kcal/mol
Vibrational entropy               ...      0.00421433 Eh      2.64 kcal/mol
Rotational entropy                ...      0.01167186 Eh      7.32 kcal/mol
Translational entropy             ...      0.01884507 Eh     11.83 kcal/mol
-----------------------------------------------------------------------
Final entropy term                ...      0.03473125 Eh     21.79 kcal/mol

CAUTION: The rotational entropy is not quite correctly treated here
         because it includes a symmetry number that is not yet correctly
         implemented in ORCA!
For a nonlinear molecule the correct rotational entropy is:
    S(rot) = R*(ln(qrot/sn)+1.5)
    R    = 8.31441 J/mol/K = 1.987191683e-3 kcal/mol/K
    qrot = 156450.6709002
    sn is the rotational symmetry number. We have assumed 3 here
       if it is different for your molecule then you should correct
       the printed rotational entropy by manually evaluating the equation
       as given above

For convenience we print out the resulting values for sn=1 - 12:
 sn= 1  qrot/sn=  156450.6709 T*S(rot)=     7.98 kcal/mol T*S(tot)=    22.45 kcal/mol
 sn= 2  qrot/sn=   78225.3355 T*S(rot)=     7.56 kcal/mol T*S(tot)=    22.03 kcal/mol
 sn= 3  qrot/sn=   52150.2236 T*S(rot)=     7.32 kcal/mol T*S(tot)=    21.79 kcal/mol
 sn= 4  qrot/sn=   39112.6677 T*S(rot)=     7.15 kcal/mol T*S(tot)=    21.62 kcal/mol
 sn= 5  qrot/sn=   31290.1342 T*S(rot)=     7.02 kcal/mol T*S(tot)=    21.49 kcal/mol
 sn= 6  qrot/sn=   26075.1118 T*S(rot)=     6.91 kcal/mol T*S(tot)=    21.38 kcal/mol
 sn= 7  qrot/sn=   22350.0958 T*S(rot)=     6.82 kcal/mol T*S(tot)=    21.29 kcal/mol
 sn= 8  qrot/sn=   19556.3339 T*S(rot)=     6.74 kcal/mol T*S(tot)=    21.21 kcal/mol
 sn= 9  qrot/sn=   17383.4079 T*S(rot)=     6.67 kcal/mol T*S(tot)=    21.14 kcal/mol
 sn=10  qrot/sn=   15645.0671 T*S(rot)=     6.61 kcal/mol T*S(tot)=    21.08 kcal/mol
 sn=11  qrot/sn=   14222.7883 T*S(rot)=     6.55 kcal/mol T*S(tot)=    21.02 kcal/mol
 sn=12  qrot/sn=   13037.5559 T*S(rot)=     6.50 kcal/mol T*S(tot)=    20.97 kcal/mol

-------------------
GIBBS FREE ENTHALPY
-------------------

The Gibbs free enthalpy is G = H - T*S

Total enthalpy                    ...   -289.91921035 Eh
Total entropy correction          ...     -0.03473125 Eh    -21.79 kcal/mol
-----------------------------------------------------------------------
Final Gibbs free enthalpy         ...   -289.95394161 Eh

For completeness - the Gibbs free enthalpy minus the electronic energy
G-E(el)                           ...      0.15284637 Eh     95.91 kcal/mol

                             ****ORCA TERMINATED NORMALLY****
TOTAL RUN TIME: 0 days 0 hours 55 minutes 9 seconds 610 msec
