                         Program Version 3.0.3 - RELEASE   -
|  1> ! NORI PBE0 def2-TZVP UseSym TightOPT Freq TightSCF Grid3 FinalGrid5 XYZFile
|  2> % pal
|  3>     nprocs 8
|  4> end
|  5> %method
|  6>     SymThresh 5.0e-2
|  7> end
|  8> % geom
|  9>     MaxIter 10
| 10> end
| 11> % maxcore 2000
| 12> % output
| 13>     printlevel mini
| 14>     print[ P_Basis ] 0
| 15>     print[ P_SCFInfo ] 1
| 16>     print[ P_SCFIterInfo ] 1
| 17>     print[ P_OrbEn ] 0
| 18>     print[ P_Cartesian ] 0
| 19> end
| 20> % elprop
| 21>     Dipole false
| 22> end
| 23> *xyz 1 1
| 24>  C       -1.7905800564     0.7961355836     0.3525303986
| 25>  C       -1.7737483838    -0.6209717547    -0.2706011616
| 26>  N       -0.2859120960    -0.6575225303     0.0610258378
| 27>  C        1.0017202337    -1.0552524142    -0.5568091065
| 28>  C        1.9334764588     0.0666196138    -0.0016925970
| 29>  C        1.0283925290     1.1852235529     0.6176006049
| 30>  C       -0.2933975782     0.8304470822    -0.0107143438
| 31>  H       -1.9800112527     0.7679021449     1.4268336787
| 32>  H       -2.4277346544     1.5390362250    -0.1183131046
| 33>  H       -2.3353296142    -1.4274466802     0.1938872665
| 34>  H       -1.9010170196    -0.6238903615    -1.3517027918
| 35>  H       -0.2345780219    -0.9012118790     1.0522933908
| 36>  H        1.2865573656    -2.0622950046    -0.2592347458
| 37>  H        0.8896304805    -1.0160245294    -1.6397053969
| 38>  H        2.5425843768     0.4644787090    -0.8122900667
| 39>  H        2.6167042530    -0.3346725684     0.7459096085
| 40>  H        0.9922056361     1.1133156228     1.7077679664
| 41>  H        1.3776625196     2.1823207582     0.3574310513
| 42>  H       -0.2388351759     1.0541384299    -1.0819964888
| 43> *
| 44>
| 45>                          ****END OF INPUT****
 Total Charge           Charge          ....    1
 Multiplicity           Mult            ....    1
 Number of Electrons    NEL             ....   54
FINAL SINGLE POINT ENERGY      -290.087478268178

CARTESIAN COORDINATES (ANGSTROEM)
---------------------------------
  C      1.941661   -0.000054   -0.065076
  C      1.329084    0.586319    1.229885
  N      0.000028    0.000014    0.766575
  C     -1.430400    0.377181    0.668196
  C     -1.806526   -0.312055   -0.680449
  C     -0.478568   -0.744962   -1.390010
  C      0.511294    0.097776   -0.629701
  H      2.287809   -1.025719    0.074582
  H      2.707970    0.586684   -0.563013
  H      1.645952    0.213352    2.200479
  H      1.262357    1.672862    1.227925
  H      0.035988   -0.989340    1.021728
  H     -1.992372    0.016874    1.527630
  H     -1.496770    1.463215    0.622140
  H     -2.367433    0.386947   -1.299519
  H     -2.449500   -1.173902   -0.506477
  H     -0.285649   -1.812876   -1.261520
  H     -0.498740   -0.532487   -2.457075
  H      0.357512    1.147199   -0.906013

FINAL SINGLE POINT ENERGY      -290.087479132744
                    ***********************HURRAY********************
 Multiplicity           Mult            ....    1
 Number of Electrons    NEL             ....   54
 Basis Dimension        Dim             ....  289
FINAL SINGLE POINT ENERGY      -290.087479345239

VIBRATIONAL FREQUENCIES
-----------------------

   0:         0.00 cm**-1
   1:         0.00 cm**-1
   2:         0.00 cm**-1
   3:         0.00 cm**-1
   4:         0.00 cm**-1
   5:         0.00 cm**-1
   6:       136.10 cm**-1
   7:       246.44 cm**-1
   8:       300.90 cm**-1
   9:       400.87 cm**-1
  10:       489.81 cm**-1
  11:       607.55 cm**-1
  12:       655.01 cm**-1
  13:       772.74 cm**-1
  14:       813.64 cm**-1
  15:       833.82 cm**-1
  16:       882.69 cm**-1
  17:       907.58 cm**-1
  18:       942.22 cm**-1
  19:       944.15 cm**-1
  20:       994.96 cm**-1
  21:      1009.23 cm**-1
  22:      1031.36 cm**-1
  23:      1080.44 cm**-1
  24:      1108.37 cm**-1
  25:      1114.20 cm**-1
  26:      1174.58 cm**-1
  27:      1189.14 cm**-1
  28:      1201.47 cm**-1
  29:      1245.72 cm**-1
  30:      1260.62 cm**-1
  31:      1275.34 cm**-1
  32:      1282.73 cm**-1
  33:      1290.93 cm**-1
  34:      1318.03 cm**-1
  35:      1331.46 cm**-1
  36:      1336.37 cm**-1
  37:      1373.73 cm**-1
  38:      1424.82 cm**-1
  39:      1475.20 cm**-1
  40:      1486.63 cm**-1
  41:      1491.53 cm**-1
  42:      1501.76 cm**-1
  43:      1506.93 cm**-1
  44:      1514.87 cm**-1
  45:      3059.25 cm**-1
  46:      3088.33 cm**-1
  47:      3105.99 cm**-1
  48:      3111.74 cm**-1
  49:      3118.68 cm**-1
  50:      3126.53 cm**-1
  51:      3154.33 cm**-1
  52:      3167.16 cm**-1
  53:      3183.34 cm**-1
  54:      3192.81 cm**-1
  55:      3204.58 cm**-1
  56:      3441.83 cm**-1

IR SPECTRUM
-----------

 Mode    freq (cm**-1)   T**2         TX         TY         TZ
-------------------------------------------------------------------
   6:       136.10    0.150813  (  0.299745  -0.242227   0.047871)
   7:       246.44    0.456983  (  0.603996   0.258460   0.159279)
   8:       300.90    0.665820  (  0.295506   0.082383  -0.756114)
   9:       400.87    0.704905  ( -0.657458  -0.408897  -0.324740)
  10:       489.81    1.802382  (  0.324581   0.454493   1.220846)
  11:       607.55    2.972301  (  1.685757   0.158361   0.324723)
  12:       655.01    2.256005  ( -1.255099   0.337308  -0.752965)
  13:       772.74    4.229940  ( -0.004217  -1.443252   1.465246)
  14:       813.64    0.517065  ( -0.421535   0.010276  -0.582467)
  15:       833.82    0.353907  ( -0.119696  -0.014258   0.582561)
  16:       882.69    1.762130  ( -0.955436  -0.203591  -0.898789)
  17:       907.58    0.605055  ( -0.496729   0.109493   0.588496)
  18:       942.22    0.917863  ( -0.692464   0.408465  -0.521069)
  19:       944.15    7.464645  (  2.374157   0.839434   1.059893)
  20:       994.96    0.811356  ( -0.685321  -0.372103  -0.450811)
  21:      1009.23    6.061164  ( -0.609107  -0.288064  -2.367947)
  22:      1031.36    6.708215  ( -0.978207   0.106070   2.395845)
  23:      1080.44    2.404272  ( -1.312423  -0.193498   0.802730)
  24:      1108.37   14.881036  (  2.643156  -0.066594  -2.808973)
  25:      1114.20   24.315939  ( -4.382403  -0.945302  -2.053506)
  26:      1174.58    3.349915  (  1.652628   0.496758   0.609892)
  27:      1189.14    2.131159  (  1.011101   0.939842  -0.474900)
  28:      1201.47    6.473307  (  0.947886   0.449110   2.317999)
  29:      1245.72    8.765741  ( -2.154674  -0.639502  -1.927215)
  30:      1260.62    0.626602  ( -0.368718   0.014011   0.700324)
  31:      1275.34    1.788817  ( -0.764880  -0.947939  -0.552437)
  32:      1282.73    6.165611  (  0.904211  -0.173032  -2.306095)
  33:      1290.93    1.221094  (  0.602130  -0.621859  -0.686895)
  34:      1318.03   26.278481  (  0.450767   1.494884  -4.882685)
  35:      1331.46    4.464543  ( -1.663143   1.165472  -0.583243)
  36:      1336.37    2.234471  (  0.717225   0.419668   1.242553)
  37:      1373.73    5.251302  (  0.152987   1.180693   1.958025)
  38:      1424.82    4.624068  ( -0.284548  -0.797502  -1.976636)
  39:      1475.20   27.449957  (  5.195388  -0.676686  -0.000678)
  40:      1486.63    2.232911  (  1.354097  -0.084290   0.626281)
  41:      1491.53    4.904185  ( -0.874023  -1.700362  -1.117604)
  42:      1501.76   20.086429  (  0.146610   3.879847   2.238688)
  43:      1506.93    4.705850  (  0.161903  -1.242833  -1.770594)
  44:      1514.87    2.892528  (  0.871730  -1.101797  -0.958466)
  45:      3059.25    0.641171  (  0.040270  -0.790513  -0.120992)
  46:      3088.33    5.738926  (  0.810897  -2.243737  -0.216827)
  47:      3105.99    2.921891  ( -0.745420   1.519706  -0.238190)
  48:      3111.74    2.091751  (  1.176023   0.642577   0.543889)
  49:      3118.68    1.802226  (  0.899753  -0.627404  -0.773973)
  50:      3126.53    0.971512  ( -0.220547  -0.638382  -0.717872)
  51:      3154.33    0.167840  (  0.049592   0.337532   0.226832)
  52:      3167.16    0.613888  (  0.269486  -0.687267   0.262544)
  53:      3183.34    0.774996  ( -0.598532  -0.550941   0.336483)
  54:      3192.81    0.140267  ( -0.254458  -0.210236  -0.176974)
  55:      3204.58    0.454985  (  0.408522   0.208267   0.494692)
  56:      3441.83   32.989218  ( -0.285090  -5.245207   2.322875)

--------------------------
THERMOCHEMISTRY AT 298.15K
--------------------------

Temperature         ... 298.15 K
Pressure            ... 1.00 atm
Total Mass          ... 98.17 AMU

Throughout the following assumptions are being made:
  (1) The electronic state is orbitally nondegenerate
  (2) There are no thermally accessible electronically excited states
  (3) Hindered rotations indicated by low frequency modes) are not
      treated as such but are treated as vibrations and this may
      case some error
  (4) All equations used are the standard statistical mechanics
      equations for an ideal gas
  (5) All vibrations are strinctly harmonic

------------
INNER ENERGY
------------

The inner energy is: U= E(el) + E(ZPE) + E(vib) + E(rot) + E(trans)
    E(el)   - is the total energy from the electronic structure calculation
              = E(kin-el) + E(nuc-el) + E(el-el) + E(nuc-nuc)
    E(ZPE)  - the the zero temperature vibrational energy from the frequency calculation
    E(vib)  - the the finite temperature correction to E(ZPE) due to population
              of excietd vibrational states
    E(rot)  - is the rotational thermal energy
    E(trans)- is the translational thermal energy

Summary of contributions to the inner energy U:
Electronic energy                ...   -290.08747935 Eh
Zero point energy                ...      0.17976685 Eh     112.81 kcal/mol
Thermal vibrational correction   ...      0.00321001 Eh       2.01 kcal/mol
Thermal rotational correction    ...      0.00141627 Eh       0.89 kcal/mol
Thermal translational correction ...      0.00141627 Eh       0.89 kcal/mol
-----------------------------------------------------------------------
Total thermal energy                   -289.90166994 Eh

Summary of corrections to the electronic energy:
(perhaps to be used in another calculation)
Total thermal correction                  0.00604255 Eh       3.79 kcal/mol
Non-thermal (ZPE) correction              0.17976685 Eh     112.81 kcal/mol
-----------------------------------------------------------------------
Total correction                          0.18580940 Eh     116.60 kcal/mol

--------
ENTHALPY
--------

The enthalpy is H = U + kB*T
                kB is Boltzmann's constant
Total free energy                 ...   -289.90166994 Eh
Thermal Enthalpy correction       ...      0.00094421 Eh       0.59 kcal/mol
-----------------------------------------------------------------------
Total Enthalpy                    ...   -289.90072573 Eh

-------
ENTROPY
-------

The entropy contributions are T*S = T*(S(el)+S(vib)+S(rot)+S(trans)
     S(el)   - electronic entropy
     S(vib)  - vibrational entropy
     S(rot)  - rotational entropy
     S(trans)- translational entropy
The entropies will be listed as mutliplied by the temperature to get
units of energy

Electronic entropy                ...      0.00000000 Eh      0.00 kcal/mol
Vibrational entropy               ...      0.00499823 Eh      3.14 kcal/mol
Rotational entropy                ...      0.01179229 Eh      7.40 kcal/mol
Translational entropy             ...      0.01884507 Eh     11.83 kcal/mol
-----------------------------------------------------------------------
Final entropy term                ...      0.03563558 Eh     22.36 kcal/mol

CAUTION: The rotational entropy is not quite correctly treated here
         because it includes a symmetry number that is not yet correctly
         implemented in ORCA!
For a nonlinear molecule the correct rotational entropy is:
    S(rot) = R*(ln(qrot/sn)+1.5)
    R    = 8.31441 J/mol/K = 1.987191683e-3 kcal/mol/K
    qrot = 177734.5978530
    sn is the rotational symmetry number. We have assumed 3 here
       if it is different for your molecule then you should correct
       the printed rotational entropy by manually evaluating the equation
       as given above

For convenience we print out the resulting values for sn=1 - 12:
 sn= 1  qrot/sn=  177734.5979 T*S(rot)=     8.05 kcal/mol T*S(tot)=    23.01 kcal/mol
 sn= 2  qrot/sn=   88867.2989 T*S(rot)=     7.64 kcal/mol T*S(tot)=    22.60 kcal/mol
 sn= 3  qrot/sn=   59244.8660 T*S(rot)=     7.40 kcal/mol T*S(tot)=    22.36 kcal/mol
 sn= 4  qrot/sn=   44433.6495 T*S(rot)=     7.23 kcal/mol T*S(tot)=    22.19 kcal/mol
 sn= 5  qrot/sn=   35546.9196 T*S(rot)=     7.10 kcal/mol T*S(tot)=    22.06 kcal/mol
 sn= 6  qrot/sn=   29622.4330 T*S(rot)=     6.99 kcal/mol T*S(tot)=    21.95 kcal/mol
 sn= 7  qrot/sn=   25390.6568 T*S(rot)=     6.90 kcal/mol T*S(tot)=    21.86 kcal/mol
 sn= 8  qrot/sn=   22216.8247 T*S(rot)=     6.82 kcal/mol T*S(tot)=    21.78 kcal/mol
 sn= 9  qrot/sn=   19748.2887 T*S(rot)=     6.75 kcal/mol T*S(tot)=    21.71 kcal/mol
 sn=10  qrot/sn=   17773.4598 T*S(rot)=     6.69 kcal/mol T*S(tot)=    21.65 kcal/mol
 sn=11  qrot/sn=   16157.6907 T*S(rot)=     6.63 kcal/mol T*S(tot)=    21.59 kcal/mol
 sn=12  qrot/sn=   14811.2165 T*S(rot)=     6.58 kcal/mol T*S(tot)=    21.54 kcal/mol

-------------------
GIBBS FREE ENTHALPY
-------------------

The Gibbs free enthalpy is G = H - T*S

Total enthalpy                    ...   -289.90072573 Eh
Total entropy correction          ...     -0.03563558 Eh    -22.36 kcal/mol
-----------------------------------------------------------------------
Final Gibbs free enthalpy         ...   -289.93636132 Eh

For completeness - the Gibbs free enthalpy minus the electronic energy
G-E(el)                           ...      0.15111803 Eh     94.83 kcal/mol

                             ****ORCA TERMINATED NORMALLY****
TOTAL RUN TIME: 0 days 0 hours 53 minutes 18 seconds 265 msec
