                         Program Version 3.0.3 - RELEASE   -
|  1> ! NORI PBE0 def2-TZVP UseSym TightOPT Freq TightSCF Grid3 FinalGrid5 XYZFile
|  2> % pal
|  3>     nprocs 8
|  4> end
|  5> %method
|  6>     SymThresh 5.0e-2
|  7> end
|  8> % geom
|  9>     MaxIter 10
| 10> end
| 11> % maxcore 2000
| 12> % output
| 13>     printlevel mini
| 14>     print[ P_Basis ] 0
| 15>     print[ P_SCFInfo ] 1
| 16>     print[ P_SCFIterInfo ] 1
| 17>     print[ P_OrbEn ] 0
| 18>     print[ P_Cartesian ] 0
| 19> end
| 20> % elprop
| 21>     Dipole false
| 22> end
| 23> *xyz 1 1
| 24>  C       -0.8260640216     0.0496556474    -1.1513948802
| 25>  C       -0.6137096724     1.1108328836    -0.0560519512
| 26>  C       -1.1558585871     0.0456016836     0.9073040013
| 27>  N       -0.6283748280    -0.9861129519    -0.0622893227
| 28>  C        0.8229471045    -1.2555501628     0.2030114976
| 29>  C        1.6461028325     0.0061783634    -0.0557258274
| 30>  C        0.8751998475     1.3092752309     0.2112079035
| 31>  H       -1.8540228067    -0.0101298067    -1.5049939159
| 32>  H       -0.1262780335    -0.0413344514    -1.9793441545
| 33>  H       -1.1730217072     2.0390784540    -0.1383852675
| 34>  H       -0.7296133053    -0.0443619575     1.9058015771
| 35>  H       -2.2432354170    -0.0148937794     0.9376266347
| 36>  H       -1.1542371125    -1.8546051378    -0.1429663908
| 37>  H        1.1316395758    -2.0730452287    -0.4498534945
| 38>  H        0.8818958466    -1.6006321061     1.2364666245
| 39>  H        1.9800228235    -0.0055805777    -1.0945410054
| 40>  H        2.5537637838    -0.0423592173     0.5460180010
| 41>  H        1.0040567455     1.6478132368     1.2421073294
| 42>  H        1.2744169314     2.0977398774    -0.4289073589
| 43> *
| 44>
| 45>                          ****END OF INPUT****
 Total Charge           Charge          ....    1
 Multiplicity           Mult            ....    1
 Number of Electrons    NEL             ....   54
FINAL SINGLE POINT ENERGY      -290.104702385035

CARTESIAN COORDINATES (ANGSTROEM)
---------------------------------
  C      1.341724    0.000285    0.487593
  C      0.682009   -0.898509   -0.574407
  C     -0.244259   -1.351177    0.562848
  N     -0.000086   -0.000009    1.193318
  C     -0.939033    1.019179    0.619679
  C     -0.659961    1.207998   -0.871065
  C     -0.120397   -0.055384   -1.561047
  H      2.063026   -0.523646    1.112872
  H      1.703709    0.992602    0.227716
  H      1.299911   -1.658027   -1.045971
  H     -1.295844   -1.545687    0.355418
  H      0.179938   -2.125527    1.200934
  H      0.007862    0.039697    2.210920
  H     -0.795245    1.948323    1.172527
  H     -1.945888    0.650891    0.823637
  H      0.064272    2.015996   -0.987703
  H     -1.572931    1.558436   -1.353277
  H     -0.929311   -0.667177   -1.968150
  H      0.504605    0.238479   -2.406052

FINAL SINGLE POINT ENERGY      -290.104703103936
                    ***********************HURRAY********************
 Multiplicity           Mult            ....    1
 Number of Electrons    NEL             ....   54
 Basis Dimension        Dim             ....  289
FINAL SINGLE POINT ENERGY      -290.104703458559

VIBRATIONAL FREQUENCIES
-----------------------

   0:         0.00 cm**-1
   1:         0.00 cm**-1
   2:         0.00 cm**-1
   3:         0.00 cm**-1
   4:         0.00 cm**-1
   5:         0.00 cm**-1
   6:       199.40 cm**-1
   7:       297.52 cm**-1
   8:       412.98 cm**-1
   9:       426.59 cm**-1
  10:       482.21 cm**-1
  11:       589.56 cm**-1
  12:       774.63 cm**-1
  13:       811.51 cm**-1
  14:       836.06 cm**-1
  15:       839.60 cm**-1
  16:       871.27 cm**-1
  17:       922.97 cm**-1
  18:       924.73 cm**-1
  19:       955.26 cm**-1
  20:       967.94 cm**-1
  21:       975.52 cm**-1
  22:      1065.85 cm**-1
  23:      1106.26 cm**-1
  24:      1114.12 cm**-1
  25:      1122.29 cm**-1
  26:      1131.77 cm**-1
  27:      1184.36 cm**-1
  28:      1188.15 cm**-1
  29:      1250.78 cm**-1
  30:      1270.79 cm**-1
  31:      1282.74 cm**-1
  32:      1299.03 cm**-1
  33:      1312.89 cm**-1
  34:      1349.76 cm**-1
  35:      1349.89 cm**-1
  36:      1366.27 cm**-1
  37:      1382.95 cm**-1
  38:      1392.32 cm**-1
  39:      1435.74 cm**-1
  40:      1478.14 cm**-1
  41:      1493.33 cm**-1
  42:      1498.39 cm**-1
  43:      1500.78 cm**-1
  44:      1527.91 cm**-1
  45:      3077.98 cm**-1
  46:      3090.01 cm**-1
  47:      3092.14 cm**-1
  48:      3107.19 cm**-1
  49:      3120.51 cm**-1
  50:      3124.46 cm**-1
  51:      3136.79 cm**-1
  52:      3151.35 cm**-1
  53:      3167.61 cm**-1
  54:      3181.06 cm**-1
  55:      3192.10 cm**-1
  56:      3497.25 cm**-1

IR SPECTRUM
-----------

 Mode    freq (cm**-1)   T**2         TX         TY         TZ
-------------------------------------------------------------------
   6:       199.40    0.100277  ( -0.096451   0.153291  -0.259762)
   7:       297.52    0.309275  (  0.427129   0.260037  -0.243345)
   8:       412.98    0.015475  (  0.074358  -0.069340   0.071681)
   9:       426.59    0.209350  ( -0.002861   0.450669   0.078992)
  10:       482.21    0.788726  (  0.236307  -0.286056   0.806881)
  11:       589.56    1.904881  (  1.212777  -0.031613   0.658069)
  12:       774.63    2.703422  (  0.577803   1.502084  -0.336614)
  13:       811.51    1.522769  (  0.111435  -0.001997  -1.228962)
  14:       836.06    1.232939  ( -0.787894  -0.511920   0.591692)
  15:       839.60    2.003149  ( -0.316008   0.936410   1.013126)
  16:       871.27    1.135782  ( -0.661674  -0.813698  -0.189379)
  17:       922.97    2.312913  (  1.456869   0.170672   0.401645)
  18:       924.73    2.511701  ( -1.252023  -0.556003   0.796869)
  19:       955.26    1.087201  ( -0.880750  -0.179709  -0.528380)
  20:       967.94    8.448741  ( -1.606349   2.415556  -0.182963)
  21:       975.52    1.568386  ( -0.698895   1.039194   0.002876)
  22:      1065.85    2.393191  (  0.872453  -1.273561  -0.100294)
  23:      1106.26    3.933975  ( -1.446004   1.357531  -0.012506)
  24:      1114.12    3.946632  ( -0.895421  -1.721508   0.425748)
  25:      1122.29    3.521684  (  1.697042  -0.793886   0.107132)
  26:      1131.77    0.299906  (  0.314630  -0.212302   0.394769)
  27:      1184.36    0.522922  ( -0.509945  -0.204183  -0.470306)
  28:      1188.15    0.879907  ( -0.496546  -0.657062   0.449019)
  29:      1250.78   18.201198  (  3.595057   2.173216   0.744244)
  30:      1270.79    5.310316  ( -0.066519  -1.028902   2.060886)
  31:      1282.74    0.531696  (  0.529141   0.143520  -0.480737)
  32:      1299.03    0.488950  (  0.288159  -0.562182   0.299777)
  33:      1312.89    5.707629  ( -1.380620   1.661147  -1.020836)
  34:      1349.76    5.439268  (  1.238893   1.908662   0.511292)
  35:      1349.89   17.325712  ( -3.409479  -2.361776   0.350968)
  36:      1366.27    6.320765  (  0.425434  -2.452387   0.354358)
  37:      1382.95   11.829348  (  1.664746  -2.643982  -1.437821)
  38:      1392.32    2.635203  (  0.990942  -0.891198  -0.926824)
  39:      1435.74   14.414759  ( -2.643720   2.653421  -0.620372)
  40:      1478.14    3.621303  ( -1.766364  -0.573766  -0.414794)
  41:      1493.33   14.663658  (  1.651200   2.706448   2.147635)
  42:      1498.39    7.615720  ( -2.009715   1.518321  -1.127593)
  43:      1500.78   22.859969  ( -2.850961  -2.367535   3.021055)
  44:      1527.91    3.643160  ( -0.468152   1.107467   1.482400)
  45:      3077.98    7.589462  ( -0.712322  -1.334618  -2.302358)
  46:      3090.01    2.655717  ( -0.496367  -1.551078  -0.059107)
  47:      3092.14    3.975167  (  1.207690  -0.353855  -1.546427)
  48:      3107.19    2.725574  ( -1.101290  -1.095215   0.559676)
  49:      3120.51    1.866171  ( -0.986101  -0.751938  -0.573031)
  50:      3124.46    2.463021  ( -0.683724  -1.206582   0.734645)
  51:      3136.79    1.552747  ( -1.211877  -0.162231   0.240377)
  52:      3151.35    1.959863  (  0.963835   1.014884   0.029933)
  53:      3167.61    1.178621  (  0.603198  -0.742029  -0.513971)
  54:      3181.06    0.891444  (  0.886745   0.120281   0.301097)
  55:      3192.10    0.998219  (  0.537678   0.812929  -0.219698)
  56:      3497.25   58.241960  ( -0.066584  -0.230610  -7.627866)

--------------------------
THERMOCHEMISTRY AT 298.15K
--------------------------

Temperature         ... 298.15 K
Pressure            ... 1.00 atm
Total Mass          ... 98.17 AMU

Throughout the following assumptions are being made:
  (1) The electronic state is orbitally nondegenerate
  (2) There are no thermally accessible electronically excited states
  (3) Hindered rotations indicated by low frequency modes) are not
      treated as such but are treated as vibrations and this may
      case some error
  (4) All equations used are the standard statistical mechanics
      equations for an ideal gas
  (5) All vibrations are strinctly harmonic

------------
INNER ENERGY
------------

The inner energy is: U= E(el) + E(ZPE) + E(vib) + E(rot) + E(trans)
    E(el)   - is the total energy from the electronic structure calculation
              = E(kin-el) + E(nuc-el) + E(el-el) + E(nuc-nuc)
    E(ZPE)  - the the zero temperature vibrational energy from the frequency calculation
    E(vib)  - the the finite temperature correction to E(ZPE) due to population
              of excietd vibrational states
    E(rot)  - is the rotational thermal energy
    E(trans)- is the translational thermal energy

Summary of contributions to the inner energy U:
Electronic energy                ...   -290.10470346 Eh
Zero point energy                ...      0.18072864 Eh     113.41 kcal/mol
Thermal vibrational correction   ...      0.00284249 Eh       1.78 kcal/mol
Thermal rotational correction    ...      0.00141627 Eh       0.89 kcal/mol
Thermal translational correction ...      0.00141627 Eh       0.89 kcal/mol
-----------------------------------------------------------------------
Total thermal energy                   -289.91829978 Eh

Summary of corrections to the electronic energy:
(perhaps to be used in another calculation)
Total thermal correction                  0.00567504 Eh       3.56 kcal/mol
Non-thermal (ZPE) correction              0.18072864 Eh     113.41 kcal/mol
-----------------------------------------------------------------------
Total correction                          0.18640368 Eh     116.97 kcal/mol

--------
ENTHALPY
--------

The enthalpy is H = U + kB*T
                kB is Boltzmann's constant
Total free energy                 ...   -289.91829978 Eh
Thermal Enthalpy correction       ...      0.00094421 Eh       0.59 kcal/mol
-----------------------------------------------------------------------
Total Enthalpy                    ...   -289.91735557 Eh

-------
ENTROPY
-------

The entropy contributions are T*S = T*(S(el)+S(vib)+S(rot)+S(trans)
     S(el)   - electronic entropy
     S(vib)  - vibrational entropy
     S(rot)  - rotational entropy
     S(trans)- translational entropy
The entropies will be listed as mutliplied by the temperature to get
units of energy

Electronic entropy                ...      0.00000000 Eh      0.00 kcal/mol
Vibrational entropy               ...      0.00416187 Eh      2.61 kcal/mol
Rotational entropy                ...      0.01166094 Eh      7.32 kcal/mol
Translational entropy             ...      0.01884507 Eh     11.83 kcal/mol
-----------------------------------------------------------------------
Final entropy term                ...      0.03466789 Eh     21.75 kcal/mol

CAUTION: The rotational entropy is not quite correctly treated here
         because it includes a symmetry number that is not yet correctly
         implemented in ORCA!
For a nonlinear molecule the correct rotational entropy is:
    S(rot) = R*(ln(qrot/sn)+1.5)
    R    = 8.31441 J/mol/K = 1.987191683e-3 kcal/mol/K
    qrot = 154653.1277290
    sn is the rotational symmetry number. We have assumed 3 here
       if it is different for your molecule then you should correct
       the printed rotational entropy by manually evaluating the equation
       as given above

For convenience we print out the resulting values for sn=1 - 12:
 sn= 1  qrot/sn=  154653.1277 T*S(rot)=     7.97 kcal/mol T*S(tot)=    22.41 kcal/mol
 sn= 2  qrot/sn=   77326.5639 T*S(rot)=     7.56 kcal/mol T*S(tot)=    21.99 kcal/mol
 sn= 3  qrot/sn=   51551.0426 T*S(rot)=     7.32 kcal/mol T*S(tot)=    21.75 kcal/mol
 sn= 4  qrot/sn=   38663.2819 T*S(rot)=     7.15 kcal/mol T*S(tot)=    21.58 kcal/mol
 sn= 5  qrot/sn=   30930.6255 T*S(rot)=     7.01 kcal/mol T*S(tot)=    21.45 kcal/mol
 sn= 6  qrot/sn=   25775.5213 T*S(rot)=     6.91 kcal/mol T*S(tot)=    21.34 kcal/mol
 sn= 7  qrot/sn=   22093.3040 T*S(rot)=     6.82 kcal/mol T*S(tot)=    21.25 kcal/mol
 sn= 8  qrot/sn=   19331.6410 T*S(rot)=     6.74 kcal/mol T*S(tot)=    21.17 kcal/mol
 sn= 9  qrot/sn=   17183.6809 T*S(rot)=     6.67 kcal/mol T*S(tot)=    21.10 kcal/mol
 sn=10  qrot/sn=   15465.3128 T*S(rot)=     6.60 kcal/mol T*S(tot)=    21.04 kcal/mol
 sn=11  qrot/sn=   14059.3752 T*S(rot)=     6.55 kcal/mol T*S(tot)=    20.98 kcal/mol
 sn=12  qrot/sn=   12887.7606 T*S(rot)=     6.50 kcal/mol T*S(tot)=    20.93 kcal/mol

-------------------
GIBBS FREE ENTHALPY
-------------------

The Gibbs free enthalpy is G = H - T*S

Total enthalpy                    ...   -289.91735557 Eh
Total entropy correction          ...     -0.03466789 Eh    -21.75 kcal/mol
-----------------------------------------------------------------------
Final Gibbs free enthalpy         ...   -289.95202346 Eh

For completeness - the Gibbs free enthalpy minus the electronic energy
G-E(el)                           ...      0.15268000 Eh     95.81 kcal/mol

                             ****ORCA TERMINATED NORMALLY****
TOTAL RUN TIME: 0 days 0 hours 57 minutes 29 seconds 386 msec
