                         Program Version 3.0.3 - RELEASE   -
|  1> ! NORI PBE0 def2-TZVP UseSym TightOPT Freq TightSCF Grid3 FinalGrid5 XYZFile
|  2> % pal
|  3>     nprocs 8
|  4> end
|  5> %method
|  6>     SymThresh 5.0e-2
|  7> end
|  8> % geom
|  9>     MaxIter 10
| 10> end
| 11> % maxcore 2000
| 12> % output
| 13>     printlevel mini
| 14>     print[ P_Basis ] 0
| 15>     print[ P_SCFInfo ] 1
| 16>     print[ P_SCFIterInfo ] 1
| 17>     print[ P_OrbEn ] 0
| 18>     print[ P_Cartesian ] 0
| 19> end
| 20> % elprop
| 21>     Dipole false
| 22> end
| 23> *xyz 1 1
| 24>  C       -1.7958193938     0.6528210723     0.3689780366
| 25>  N       -1.7604410750    -0.7395287910    -0.2925574371
| 26>  C       -0.2608082531    -0.7387459581     0.0592795026
| 27>  C        1.0101925293    -1.1239943468    -0.6354083830
| 28>  C        1.9250119196    -0.0085473080     0.0090694746
| 29>  C        1.0191089466     1.1071484389     0.6591802115
| 30>  C       -0.3014204097     0.7571139856     0.0152939122
| 31>  H       -2.0154585900     0.5136011681     1.4265575074
| 32>  H       -2.5146122219     1.3217244810    -0.0987417862
| 33>  H       -2.3467713733    -1.4729548519     0.1037782630
| 34>  H       -1.9347769733    -0.6792500358    -1.2957586468
| 35>  H       -0.2560959829    -1.0775165807     1.0991037519
| 36>  H        1.3688016076    -2.1299386572    -0.4247813903
| 37>  H        0.9433955048    -0.9932904702    -1.7173365981
| 38>  H        2.5651632356     0.4192634340    -0.7613868509
| 39>  H        2.5801005453    -0.4480406080     0.7601947924
| 40>  H        0.9814049494     0.9934987117     1.7447773660
| 41>  H        1.3826855183     2.1081145581     0.4359034236
| 42>  H       -0.2610404834     1.0588417580    -1.0397951494
| 43> *
| 44>
| 45>                          ****END OF INPUT****
 Total Charge           Charge          ....    1
 Multiplicity           Mult            ....    1
 Number of Electrons    NEL             ....   54
FINAL SINGLE POINT ENERGY      -290.075946072678
FINAL SINGLE POINT ENERGY      -290.075947254539

CARTESIAN COORDINATES (ANGSTROEM)
---------------------------------
  C      1.418656   -0.001098    1.273317
  N      0.000134    0.001060    1.876731
  C     -0.478797   -0.336856    0.452636
  C     -1.594333    0.107522   -0.444597
  C     -0.800851   -0.008216   -1.806218
  C      0.745901   -0.103809   -1.510708
  C      0.748594    0.344380   -0.068348
  H      1.811400   -1.014302    1.349809
  H      2.080598    0.716279    1.752702
  H     -0.204456   -0.662601    2.622572
  H     -0.274323    0.936158    2.178200
  H     -0.346727   -1.421770    0.404044
  H     -2.483726   -0.519926   -0.426197
  H     -1.888253    1.141092   -0.254321
  H     -1.019594    0.862121   -2.423479
  H     -1.133622   -0.884138   -2.361498
  H      1.098427   -1.131887   -1.614479
  H      1.328303    0.523405   -2.182671
  H      0.562721    1.426765   -0.043268

FINAL SINGLE POINT ENERGY      -290.075947557774
                    ***********************HURRAY********************
 Multiplicity           Mult            ....    1
 Number of Electrons    NEL             ....   54
 Basis Dimension        Dim             ....  289
FINAL SINGLE POINT ENERGY      -290.075947677625

VIBRATIONAL FREQUENCIES
-----------------------

   0:         0.00 cm**-1
   1:         0.00 cm**-1
   2:         0.00 cm**-1
   3:         0.00 cm**-1
   4:         0.00 cm**-1
   5:         0.00 cm**-1
   6:       136.30 cm**-1
   7:       249.57 cm**-1
   8:       295.43 cm**-1
   9:       398.77 cm**-1
  10:       489.27 cm**-1
  11:       595.56 cm**-1
  12:       650.46 cm**-1
  13:       752.96 cm**-1
  14:       766.29 cm**-1
  15:       853.11 cm**-1
  16:       860.79 cm**-1
  17:       878.73 cm**-1
  18:       898.15 cm**-1
  19:       907.19 cm**-1
  20:       962.45 cm**-1
  21:       993.01 cm**-1
  22:      1019.09 cm**-1
  23:      1047.30 cm**-1
  24:      1078.09 cm**-1
  25:      1148.16 cm**-1
  26:      1173.69 cm**-1
  27:      1182.04 cm**-1
  28:      1222.98 cm**-1
  29:      1234.73 cm**-1
  30:      1247.06 cm**-1
  31:      1258.99 cm**-1
  32:      1281.65 cm**-1
  33:      1293.85 cm**-1
  34:      1300.98 cm**-1
  35:      1305.79 cm**-1
  36:      1326.86 cm**-1
  37:      1363.38 cm**-1
  38:      1425.83 cm**-1
  39:      1434.38 cm**-1
  40:      1480.68 cm**-1
  41:      1493.00 cm**-1
  42:      1500.16 cm**-1
  43:      1511.45 cm**-1
  44:      1635.33 cm**-1
  45:      3026.20 cm**-1
  46:      3082.93 cm**-1
  47:      3092.84 cm**-1
  48:      3097.44 cm**-1
  49:      3110.16 cm**-1
  50:      3119.68 cm**-1
  51:      3149.45 cm**-1
  52:      3160.01 cm**-1
  53:      3169.99 cm**-1
  54:      3198.30 cm**-1
  55:      3461.08 cm**-1
  56:      3539.39 cm**-1

IR SPECTRUM
-----------

 Mode    freq (cm**-1)   T**2         TX         TY         TZ
-------------------------------------------------------------------
   6:       136.30    0.667732  ( -0.017921  -0.811141  -0.097271)
   7:       249.57    2.675435  (  0.014525  -1.585670   0.401090)
   8:       295.43    1.288479  (  0.806493  -0.782230  -0.161753)
   9:       398.77    2.584629  (  1.432257   0.602287  -0.412941)
  10:       489.27    1.700822  (  0.115556   0.376678  -1.243215)
  11:       595.56    0.681488  (  0.236463  -0.135924   0.779165)
  12:       650.46    1.779732  ( -0.159873  -1.109069   0.723974)
  13:       752.96   15.572379  (  2.803234  -0.480678   2.735545)
  14:       766.29    7.547995  ( -1.898110  -1.869431  -0.671119)
  15:       853.11    3.052984  ( -1.566441  -0.744530   0.211948)
  16:       860.79    1.385536  ( -0.246118  -0.961884  -0.632252)
  17:       878.73   13.543263  (  0.534675   0.805780  -3.550789)
  18:       898.15    2.660260  ( -0.242406   1.025863  -1.244630)
  19:       907.19    0.535403  (  0.148562  -0.576692  -0.425156)
  20:       962.45    5.555284  ( -0.049180  -0.379693  -2.325661)
  21:       993.01    3.837875  ( -1.578176  -0.818425  -0.823052)
  22:      1019.09    1.300357  ( -1.025526   0.498384  -0.016362)
  23:      1047.30    8.357766  ( -1.328066  -0.372323  -2.540745)
  24:      1078.09    2.739351  ( -0.380651  -0.976802   1.280747)
  25:      1148.16    4.129518  ( -1.589898  -0.453708   1.181478)
  26:      1173.69    0.438123  ( -0.322094  -0.521578   0.249670)
  27:      1182.04    2.822065  (  1.285566  -0.167545   1.068323)
  28:      1222.98   47.727336  ( -6.055718  -0.303757  -3.311094)
  29:      1234.73    4.030217  (  1.288347   1.217389   0.942520)
  30:      1247.06    0.042622  (  0.201028  -0.038118   0.027509)
  31:      1258.99   13.191705  ( -3.335510  -1.132273  -0.885459)
  32:      1281.65    7.499658  ( -1.386148  -0.161164  -2.356327)
  33:      1293.85    9.044949  (  2.299094   1.915418  -0.300486)
  34:      1300.98    0.967110  ( -0.223582  -0.494017  -0.820408)
  35:      1305.79    8.331934  (  2.711964   0.653500   0.741704)
  36:      1326.86    1.613964  (  0.118476  -0.219102  -1.245761)
  37:      1363.38    1.848991  ( -0.932636  -0.713909   0.685210)
  38:      1425.83    0.962644  ( -0.741397  -0.052782  -0.640459)
  39:      1434.38    6.699483  (  1.106847  -0.677146   2.239609)
  40:      1480.68    1.630107  (  0.495127   0.381913   1.113148)
  41:      1493.00    6.362685  (  1.103425  -0.792618   2.125299)
  42:      1500.16   19.819263  ( -3.466508   2.793151  -0.029938)
  43:      1511.45    3.157949  ( -0.796712   0.186516  -1.577470)
  44:      1635.33   61.567712  ( -2.899498   2.388040   6.888969)
  45:      3026.20    4.606105  (  0.377720  -1.869806  -0.983493)
  46:      3082.93    1.489090  (  0.273447   0.561402  -1.048401)
  47:      3092.84    5.509379  ( -1.626006   1.625084   0.473905)
  48:      3097.44   11.462588  (  2.189754  -2.236003  -1.291454)
  49:      3110.16    5.533943  ( -1.126591  -0.081494  -2.063515)
  50:      3119.68    2.394990  ( -1.033995   0.601101  -0.982100)
  51:      3149.45    1.643361  (  1.057200   0.232275  -0.686831)
  52:      3160.01    2.132064  (  0.575473  -0.051284   1.340994)
  53:      3169.99    6.632333  (  0.918230   2.396531  -0.214070)
  54:      3198.30    0.607849  (  0.673109   0.171648   0.353992)
  55:      3461.08   61.990207  ( -2.939861   1.328619   7.182075)
  56:      3539.39   70.636680  ( -0.324165   8.048353  -2.399084)

--------------------------
THERMOCHEMISTRY AT 298.15K
--------------------------

Temperature         ... 298.15 K
Pressure            ... 1.00 atm
Total Mass          ... 98.17 AMU

Throughout the following assumptions are being made:
  (1) The electronic state is orbitally nondegenerate
  (2) There are no thermally accessible electronically excited states
  (3) Hindered rotations indicated by low frequency modes) are not
      treated as such but are treated as vibrations and this may
      case some error
  (4) All equations used are the standard statistical mechanics
      equations for an ideal gas
  (5) All vibrations are strinctly harmonic

------------
INNER ENERGY
------------

The inner energy is: U= E(el) + E(ZPE) + E(vib) + E(rot) + E(trans)
    E(el)   - is the total energy from the electronic structure calculation
              = E(kin-el) + E(nuc-el) + E(el-el) + E(nuc-nuc)
    E(ZPE)  - the the zero temperature vibrational energy from the frequency calculation
    E(vib)  - the the finite temperature correction to E(ZPE) due to population
              of excietd vibrational states
    E(rot)  - is the rotational thermal energy
    E(trans)- is the translational thermal energy

Summary of contributions to the inner energy U:
Electronic energy                ...   -290.07594768 Eh
Zero point energy                ...      0.17965845 Eh     112.74 kcal/mol
Thermal vibrational correction   ...      0.00328112 Eh       2.06 kcal/mol
Thermal rotational correction    ...      0.00141627 Eh       0.89 kcal/mol
Thermal translational correction ...      0.00141627 Eh       0.89 kcal/mol
-----------------------------------------------------------------------
Total thermal energy                   -289.89017557 Eh

Summary of corrections to the electronic energy:
(perhaps to be used in another calculation)
Total thermal correction                  0.00611366 Eh       3.84 kcal/mol
Non-thermal (ZPE) correction              0.17965845 Eh     112.74 kcal/mol
-----------------------------------------------------------------------
Total correction                          0.18577211 Eh     116.57 kcal/mol

--------
ENTHALPY
--------

The enthalpy is H = U + kB*T
                kB is Boltzmann's constant
Total free energy                 ...   -289.89017557 Eh
Thermal Enthalpy correction       ...      0.00094421 Eh       0.59 kcal/mol
-----------------------------------------------------------------------
Total Enthalpy                    ...   -289.88923136 Eh

-------
ENTROPY
-------

The entropy contributions are T*S = T*(S(el)+S(vib)+S(rot)+S(trans)
     S(el)   - electronic entropy
     S(vib)  - vibrational entropy
     S(rot)  - rotational entropy
     S(trans)- translational entropy
The entropies will be listed as mutliplied by the temperature to get
units of energy

Electronic entropy                ...      0.00000000 Eh      0.00 kcal/mol
Vibrational entropy               ...      0.00509318 Eh      3.20 kcal/mol
Rotational entropy                ...      0.01182544 Eh      7.42 kcal/mol
Translational entropy             ...      0.01884507 Eh     11.83 kcal/mol
-----------------------------------------------------------------------
Final entropy term                ...      0.03576369 Eh     22.44 kcal/mol

CAUTION: The rotational entropy is not quite correctly treated here
         because it includes a symmetry number that is not yet correctly
         implemented in ORCA!
For a nonlinear molecule the correct rotational entropy is:
    S(rot) = R*(ln(qrot/sn)+1.5)
    R    = 8.31441 J/mol/K = 1.987191683e-3 kcal/mol/K
    qrot = 184086.3414696
    sn is the rotational symmetry number. We have assumed 3 here
       if it is different for your molecule then you should correct
       the printed rotational entropy by manually evaluating the equation
       as given above

For convenience we print out the resulting values for sn=1 - 12:
 sn= 1  qrot/sn=  184086.3415 T*S(rot)=     8.07 kcal/mol T*S(tot)=    23.09 kcal/mol
 sn= 2  qrot/sn=   92043.1707 T*S(rot)=     7.66 kcal/mol T*S(tot)=    22.68 kcal/mol
 sn= 3  qrot/sn=   61362.1138 T*S(rot)=     7.42 kcal/mol T*S(tot)=    22.44 kcal/mol
 sn= 4  qrot/sn=   46021.5854 T*S(rot)=     7.25 kcal/mol T*S(tot)=    22.27 kcal/mol
 sn= 5  qrot/sn=   36817.2683 T*S(rot)=     7.12 kcal/mol T*S(tot)=    22.14 kcal/mol
 sn= 6  qrot/sn=   30681.0569 T*S(rot)=     7.01 kcal/mol T*S(tot)=    22.03 kcal/mol
 sn= 7  qrot/sn=   26298.0488 T*S(rot)=     6.92 kcal/mol T*S(tot)=    21.94 kcal/mol
 sn= 8  qrot/sn=   23010.7927 T*S(rot)=     6.84 kcal/mol T*S(tot)=    21.86 kcal/mol
 sn= 9  qrot/sn=   20454.0379 T*S(rot)=     6.77 kcal/mol T*S(tot)=    21.79 kcal/mol
 sn=10  qrot/sn=   18408.6341 T*S(rot)=     6.71 kcal/mol T*S(tot)=    21.73 kcal/mol
 sn=11  qrot/sn=   16735.1220 T*S(rot)=     6.65 kcal/mol T*S(tot)=    21.67 kcal/mol
 sn=12  qrot/sn=   15340.5285 T*S(rot)=     6.60 kcal/mol T*S(tot)=    21.62 kcal/mol

-------------------
GIBBS FREE ENTHALPY
-------------------

The Gibbs free enthalpy is G = H - T*S

Total enthalpy                    ...   -289.88923136 Eh
Total entropy correction          ...     -0.03576369 Eh    -22.44 kcal/mol
-----------------------------------------------------------------------
Final Gibbs free enthalpy         ...   -289.92499505 Eh

For completeness - the Gibbs free enthalpy minus the electronic energy
G-E(el)                           ...      0.15095263 Eh     94.72 kcal/mol

                             ****ORCA TERMINATED NORMALLY****
TOTAL RUN TIME: 0 days 0 hours 57 minutes 17 seconds 734 msec
