                         Program Version 3.0.3 - RELEASE   -
|  1> ! NORI PBE0 def2-TZVP UseSym TightOPT Freq TightSCF Grid3 FinalGrid5 XYZFile
|  2> % pal
|  3>     nprocs 8
|  4> end
|  5> %method
|  6>     SymThresh 5.0e-2
|  7> end
|  8> % geom
|  9>     MaxIter 10
| 10> end
| 11> % maxcore 2000
| 12> % output
| 13>     printlevel mini
| 14>     print[ P_Basis ] 0
| 15>     print[ P_SCFInfo ] 1
| 16>     print[ P_SCFIterInfo ] 1
| 17>     print[ P_OrbEn ] 0
| 18>     print[ P_Cartesian ] 0
| 19> end
| 20> % elprop
| 21>     Dipole false
| 22> end
| 23> *xyz 1 1
| 24>  C       -1.7964267918     0.6754511048     0.3984213390
| 25>  C       -1.8040736166    -0.7119471953    -0.3177242707
| 26>  C       -0.3030478693    -0.7719348149     0.0394521279
| 27>  C        0.9996951770    -1.1251444569    -0.6189294840
| 28>  N        1.8966656604    -0.0164731888    -0.0025853024
| 29>  C        1.0131109198     1.0978346101     0.6249159459
| 30>  C       -0.3054712990     0.7392778611     0.0016719804
| 31>  H       -1.9434844177     0.5674294734     1.4738461674
| 32>  H       -2.4460917665     1.4581108716     0.0133196245
| 33>  H       -2.4412750425    -1.4960858820     0.0847028104
| 34>  H       -1.9799008701    -0.6047188801    -1.3888558258
| 35>  H       -0.2500651567    -1.0861327355     1.0895906695
| 36>  H        1.4485247261    -2.0863530642    -0.3725576522
| 37>  H        1.0000667489    -0.9808144203    -1.6990782531
| 38>  H        2.5068133211     0.3787395361    -0.7159175084
| 39>  H        2.5080209175    -0.4171832299     0.7066277372
| 40>  H        1.0415303311     0.9643985858     1.7060910039
| 41>  H        1.4539322800     2.0569654636     0.3573505259
| 42>  H       -0.2815332519     1.0529803615    -1.0495516355
| 43> *
| 44>
| 45>                          ****END OF INPUT****
 Total Charge           Charge          ....    1
 Multiplicity           Mult            ....    1
 Number of Electrons    NEL             ....   54
FINAL SINGLE POINT ENERGY      -290.077635257241

CARTESIAN COORDINATES (ANGSTROEM)
---------------------------------
  C      0.780497    0.004162    1.808637
  C     -0.780497   -0.004162    1.808637
  C     -0.660808   -0.367285    0.312685
  C     -1.273522    0.035257   -0.998244
  N      0.000000    0.000000   -1.888544
  C      1.273522   -0.035257   -0.998244
  C      0.660808    0.367285    0.312685
  H      1.182370   -0.997148    1.969843
  H      1.292345    0.715831    2.452095
  H     -1.292345   -0.715831    2.452095
  H     -1.182370    0.997148    1.969843
  H     -0.451296   -1.444071    0.274393
  H     -2.004951   -0.637995   -1.443061
  H     -1.651804    1.056742   -1.012711
  H      0.022559    0.814681   -2.499531
  H     -0.022559   -0.814681   -2.499531
  H      1.651804   -1.056742   -1.012711
  H      2.004951    0.637995   -1.443062
  H      0.451296    1.444071    0.274393

FINAL SINGLE POINT ENERGY      -290.077636258280
                    ***********************HURRAY********************
 Multiplicity           Mult            ....    1
 Number of Electrons    NEL             ....   54
 Basis Dimension        Dim             ....  289
FINAL SINGLE POINT ENERGY      -290.077636392471

VIBRATIONAL FREQUENCIES
-----------------------

   0:         0.00 cm**-1
   1:         0.00 cm**-1
   2:         0.00 cm**-1
   3:         0.00 cm**-1
   4:         0.00 cm**-1
   5:         0.00 cm**-1
   6:       142.98 cm**-1
   7:       255.41 cm**-1
   8:       298.05 cm**-1
   9:       403.14 cm**-1
  10:       489.98 cm**-1
  11:       615.46 cm**-1
  12:       638.09 cm**-1
  13:       779.50 cm**-1
  14:       790.88 cm**-1
  15:       799.15 cm**-1
  16:       839.14 cm**-1
  17:       847.16 cm**-1
  18:       918.26 cm**-1
  19:       931.00 cm**-1
  20:       944.85 cm**-1
  21:       999.42 cm**-1
  22:      1051.17 cm**-1
  23:      1070.85 cm**-1
  24:      1078.85 cm**-1
  25:      1151.02 cm**-1
  26:      1190.70 cm**-1
  27:      1197.79 cm**-1
  28:      1215.77 cm**-1
  29:      1228.85 cm**-1
  30:      1248.55 cm**-1
  31:      1257.42 cm**-1
  32:      1276.87 cm**-1
  33:      1294.72 cm**-1
  34:      1312.36 cm**-1
  35:      1321.25 cm**-1
  36:      1358.05 cm**-1
  37:      1363.91 cm**-1
  38:      1420.65 cm**-1
  39:      1428.99 cm**-1
  40:      1482.09 cm**-1
  41:      1496.85 cm**-1
  42:      1497.87 cm**-1
  43:      1501.46 cm**-1
  44:      1643.32 cm**-1
  45:      3025.66 cm**-1
  46:      3041.60 cm**-1
  47:      3101.31 cm**-1
  48:      3104.24 cm**-1
  49:      3110.45 cm**-1
  50:      3110.86 cm**-1
  51:      3171.98 cm**-1
  52:      3176.09 cm**-1
  53:      3176.61 cm**-1
  54:      3180.42 cm**-1
  55:      3483.57 cm**-1
  56:      3542.14 cm**-1

IR SPECTRUM
-----------

 Mode    freq (cm**-1)   T**2         TX         TY         TZ
-------------------------------------------------------------------
   6:       142.98    5.500726  (  0.041699   2.344992  -0.000001)
   7:       255.41    0.173128  ( -0.000018   0.000004   0.416086)
   8:       298.05    0.734700  (  0.610029  -0.602134   0.000007)
   9:       403.14    3.569278  (  1.630185   0.954869   0.000004)
  10:       489.98    0.487068  (  0.000005  -0.000001   0.697903)
  11:       615.46    0.096077  ( -0.000003   0.000009   0.309963)
  12:       638.09    0.174447  ( -0.037652   0.415967   0.000004)
  13:       779.50    8.555709  ( -0.283537  -2.911240   0.000099)
  14:       790.88    5.111883  (  0.000001   0.000117   2.260947)
  15:       799.15    6.392896  ( -2.484721  -0.468037   0.000002)
  16:       839.14    2.002140  (  0.000072   0.000019   1.414970)
  17:       847.16    6.523486  (  2.553891  -0.033539  -0.000016)
  18:       918.26    0.067789  ( -0.000008  -0.000005   0.260363)
  19:       931.00    3.205360  ( -0.000022   0.000003   1.790352)
  20:       944.85    0.698713  (  0.209957   0.809093  -0.000016)
  21:       999.42    0.762679  (  0.873150   0.016962   0.000003)
  22:      1051.17    0.309519  ( -0.000009  -0.000006   0.556344)
  23:      1070.85    4.978492  ( -1.893041  -1.181053  -0.000004)
  24:      1078.85    1.933734  ( -0.000001   0.000001  -1.390588)
  25:      1151.02    0.467820  (  0.593886  -0.339294   0.000007)
  26:      1190.70    6.925677  (  0.000008   0.000001  -2.631668)
  27:      1197.79    0.919888  ( -0.000007  -0.000015  -0.959108)
  28:      1215.77   10.306898  (  0.729346  -3.126492   0.000005)
  29:      1228.85    0.347995  (  0.000014   0.000006   0.589911)
  30:      1248.55    0.226397  ( -0.000017  -0.000000  -0.475812)
  31:      1257.42    1.630620  (  1.270980  -0.123414  -0.000005)
  32:      1276.87   26.366062  (  5.029898   1.032566   0.000002)
  33:      1294.72    0.411895  (  0.000006  -0.000002   0.641791)
  34:      1312.36    3.415004  (  1.765375  -0.546309  -0.000001)
  35:      1321.25    0.757978  ( -0.000016   0.000001   0.870619)
  36:      1358.05   38.426449  (  6.172187   0.574936  -0.000003)
  37:      1363.91    2.864987  (  0.000018   0.000002   1.692627)
  38:      1420.65    0.026305  ( -0.132124  -0.094068   0.000000)
  39:      1428.99    0.042657  ( -0.000014   0.000010  -0.206535)
  40:      1482.09    8.106269  (  2.212578  -1.791862   0.000044)
  41:      1496.85    2.193858  ( -0.000032   0.000030  -1.481168)
  42:      1497.87   12.898696  ( -2.743966   2.317186   0.000073)
  43:      1501.46    0.683012  ( -0.000060   0.000060  -0.826445)
  44:      1643.32   60.523861  ( -0.000001   0.000001   7.779708)
  45:      3025.66    0.842062  (  0.000000   0.000000   0.917639)
  46:      3041.60   12.189358  ( -0.633500   3.433371   0.000000)
  47:      3101.31    5.915112  (  0.000144  -0.000103  -2.432100)
  48:      3104.24   12.107022  (  2.779431  -2.093271   0.000119)
  49:      3110.45    5.348813  (  2.060581  -1.050151   0.000002)
  50:      3110.86    3.132768  (  0.000011  -0.000002  -1.769963)
  51:      3171.98    5.522147  ( -0.000021  -0.000130   2.349925)
  52:      3176.09    0.557653  (  0.000007  -0.000012  -0.746761)
  53:      3176.61    0.411657  ( -0.238900  -0.595470   0.000038)
  54:      3180.42    7.968617  (  0.987050   2.644683   0.000119)
  55:      3483.57   70.053465  ( -0.000000   0.000007   8.369795)
  56:      3542.14   79.038729  ( -0.151757  -8.889077   0.000007)

--------------------------
THERMOCHEMISTRY AT 298.15K
--------------------------

Temperature         ... 298.15 K
Pressure            ... 1.00 atm
Total Mass          ... 98.17 AMU

Throughout the following assumptions are being made:
  (1) The electronic state is orbitally nondegenerate
  (2) There are no thermally accessible electronically excited states
  (3) Hindered rotations indicated by low frequency modes) are not
      treated as such but are treated as vibrations and this may
      case some error
  (4) All equations used are the standard statistical mechanics
      equations for an ideal gas
  (5) All vibrations are strinctly harmonic

------------
INNER ENERGY
------------

The inner energy is: U= E(el) + E(ZPE) + E(vib) + E(rot) + E(trans)
    E(el)   - is the total energy from the electronic structure calculation
              = E(kin-el) + E(nuc-el) + E(el-el) + E(nuc-nuc)
    E(ZPE)  - the the zero temperature vibrational energy from the frequency calculation
    E(vib)  - the the finite temperature correction to E(ZPE) due to population
              of excietd vibrational states
    E(rot)  - is the rotational thermal energy
    E(trans)- is the translational thermal energy

Summary of contributions to the inner energy U:
Electronic energy                ...   -290.07763639 Eh
Zero point energy                ...      0.17999068 Eh     112.95 kcal/mol
Thermal vibrational correction   ...      0.00324193 Eh       2.03 kcal/mol
Thermal rotational correction    ...      0.00141627 Eh       0.89 kcal/mol
Thermal translational correction ...      0.00141627 Eh       0.89 kcal/mol
-----------------------------------------------------------------------
Total thermal energy                   -289.89157124 Eh

Summary of corrections to the electronic energy:
(perhaps to be used in another calculation)
Total thermal correction                  0.00607447 Eh       3.81 kcal/mol
Non-thermal (ZPE) correction              0.17999068 Eh     112.95 kcal/mol
-----------------------------------------------------------------------
Total correction                          0.18606515 Eh     116.76 kcal/mol

--------
ENTHALPY
--------

The enthalpy is H = U + kB*T
                kB is Boltzmann's constant
Total free energy                 ...   -289.89157124 Eh
Thermal Enthalpy correction       ...      0.00094421 Eh       0.59 kcal/mol
-----------------------------------------------------------------------
Total Enthalpy                    ...   -289.89062703 Eh

-------
ENTROPY
-------

The entropy contributions are T*S = T*(S(el)+S(vib)+S(rot)+S(trans)
     S(el)   - electronic entropy
     S(vib)  - vibrational entropy
     S(rot)  - rotational entropy
     S(trans)- translational entropy
The entropies will be listed as mutliplied by the temperature to get
units of energy

Electronic entropy                ...      0.00000000 Eh      0.00 kcal/mol
Vibrational entropy               ...      0.00499971 Eh      3.14 kcal/mol
Rotational entropy                ...      0.01182124 Eh      7.42 kcal/mol
Translational entropy             ...      0.01884507 Eh     11.83 kcal/mol
-----------------------------------------------------------------------
Final entropy term                ...      0.03566603 Eh     22.38 kcal/mol

CAUTION: The rotational entropy is not quite correctly treated here
         because it includes a symmetry number that is not yet correctly
         implemented in ORCA!
For a nonlinear molecule the correct rotational entropy is:
    S(rot) = R*(ln(qrot/sn)+1.5)
    R    = 8.31441 J/mol/K = 1.987191683e-3 kcal/mol/K
    qrot = 183269.4285869
    sn is the rotational symmetry number. We have assumed 3 here
       if it is different for your molecule then you should correct
       the printed rotational entropy by manually evaluating the equation
       as given above

For convenience we print out the resulting values for sn=1 - 12:
 sn= 1  qrot/sn=  183269.4286 T*S(rot)=     8.07 kcal/mol T*S(tot)=    23.03 kcal/mol
 sn= 2  qrot/sn=   91634.7143 T*S(rot)=     7.66 kcal/mol T*S(tot)=    22.62 kcal/mol
 sn= 3  qrot/sn=   61089.8095 T*S(rot)=     7.42 kcal/mol T*S(tot)=    22.38 kcal/mol
 sn= 4  qrot/sn=   45817.3571 T*S(rot)=     7.25 kcal/mol T*S(tot)=    22.21 kcal/mol
 sn= 5  qrot/sn=   36653.8857 T*S(rot)=     7.12 kcal/mol T*S(tot)=    22.08 kcal/mol
 sn= 6  qrot/sn=   30544.9048 T*S(rot)=     7.01 kcal/mol T*S(tot)=    21.97 kcal/mol
 sn= 7  qrot/sn=   26181.3469 T*S(rot)=     6.92 kcal/mol T*S(tot)=    21.88 kcal/mol
 sn= 8  qrot/sn=   22908.6786 T*S(rot)=     6.84 kcal/mol T*S(tot)=    21.80 kcal/mol
 sn= 9  qrot/sn=   20363.2698 T*S(rot)=     6.77 kcal/mol T*S(tot)=    21.73 kcal/mol
 sn=10  qrot/sn=   18326.9429 T*S(rot)=     6.70 kcal/mol T*S(tot)=    21.67 kcal/mol
 sn=11  qrot/sn=   16660.8571 T*S(rot)=     6.65 kcal/mol T*S(tot)=    21.61 kcal/mol
 sn=12  qrot/sn=   15272.4524 T*S(rot)=     6.60 kcal/mol T*S(tot)=    21.56 kcal/mol

-------------------
GIBBS FREE ENTHALPY
-------------------

The Gibbs free enthalpy is G = H - T*S

Total enthalpy                    ...   -289.89062703 Eh
Total entropy correction          ...     -0.03566603 Eh    -22.38 kcal/mol
-----------------------------------------------------------------------
Final Gibbs free enthalpy         ...   -289.92629306 Eh

For completeness - the Gibbs free enthalpy minus the electronic energy
G-E(el)                           ...      0.15134334 Eh     94.97 kcal/mol

                             ****ORCA TERMINATED NORMALLY****
TOTAL RUN TIME: 0 days 0 hours 51 minutes 43 seconds 448 msec
