                         Program Version 3.0.3 - RELEASE   -
|  1> ! NORI PBE0 def2-TZVP UseSym TightOPT Freq TightSCF Grid3 FinalGrid5 XYZFile
|  2> % pal
|  3>     nprocs 8
|  4> end
|  5> %method
|  6>     SymThresh 5.0e-2
|  7> end
|  8> % geom
|  9>     MaxIter 10
| 10> end
| 11> % maxcore 2000
| 12> % output
| 13>     printlevel mini
| 14>     print[ P_Basis ] 0
| 15>     print[ P_SCFInfo ] 1
| 16>     print[ P_SCFIterInfo ] 1
| 17>     print[ P_OrbEn ] 0
| 18>     print[ P_Cartesian ] 0
| 19> end
| 20> % elprop
| 21>     Dipole false
| 22> end
| 23> *xyz 1 1
| 24>  C        0.3281877649     1.4780937046     0.4728490016
| 25>  C        1.2932082885     0.3766991633    -0.0282158817
| 26>  C        0.3687786966    -0.5414122335    -0.8546520480
| 27>  N       -0.5492351375     0.4985300795    -1.4567365323
| 28>  C       -1.0257242805     1.0497469506    -0.1310808087
| 29>  C       -1.4381987768    -0.2450001421     0.5219402806
| 30>  C       -0.6084392051    -1.1915067007     0.0918082184
| 31>  H        0.2552978900     1.5302243354     1.5574426172
| 32>  H        0.6231192843     2.4652344526     0.1128738173
| 33>  H        2.0892383271     0.7919916639    -0.6490473865
| 34>  H        1.7622009959    -0.1866075388     0.7757427618
| 35>  H        0.8420265975    -1.1632787793    -1.6104262554
| 36>  H       -1.3102599638     0.0743609780    -1.9895337618
| 37>  H       -0.0609755978     1.1880700963    -2.0307376155
| 38>  H       -1.7774863215     1.8259491203    -0.2520496840
| 39>  H       -2.2060644895    -0.3196105642     1.2790734446
| 40>  H       -0.5395740722    -2.2204345860     0.4151698325
| 41> *
| 42>
| 43>                          ****END OF INPUT****
 Total Charge           Charge          ....    1
 Multiplicity           Mult            ....    1
 Number of Electrons    NEL             ....   52
FINAL SINGLE POINT ENERGY      -288.899067403989
                    ***********************HURRAY********************
 Multiplicity           Mult            ....    1
 Number of Electrons    NEL             ....   52
 Basis Dimension        Dim             ....  277
FINAL SINGLE POINT ENERGY      -288.899067824371

VIBRATIONAL FREQUENCIES
-----------------------

   0:         0.00 cm**-1
   1:         0.00 cm**-1
   2:         0.00 cm**-1
   3:         0.00 cm**-1
   4:         0.00 cm**-1
   5:         0.00 cm**-1
   6:       249.12 cm**-1
   7:       382.87 cm**-1
   8:       483.62 cm**-1
   9:       487.38 cm**-1
  10:       691.71 cm**-1
  11:       741.07 cm**-1
  12:       777.60 cm**-1
  13:       792.50 cm**-1
  14:       810.31 cm**-1
  15:       865.05 cm**-1
  16:       898.79 cm**-1
  17:       910.90 cm**-1
  18:       959.58 cm**-1
  19:       966.88 cm**-1
  20:       981.71 cm**-1
  21:       987.05 cm**-1
  22:       998.86 cm**-1
  23:      1056.52 cm**-1
  24:      1057.81 cm**-1
  25:      1125.03 cm**-1
  26:      1159.09 cm**-1
  27:      1184.09 cm**-1
  28:      1212.40 cm**-1
  29:      1227.49 cm**-1
  30:      1239.45 cm**-1
  31:      1297.93 cm**-1
  32:      1318.64 cm**-1
  33:      1339.21 cm**-1
  34:      1343.54 cm**-1
  35:      1352.45 cm**-1
  36:      1390.86 cm**-1
  37:      1486.94 cm**-1
  38:      1502.77 cm**-1
  39:      1622.95 cm**-1
  40:      1667.66 cm**-1
  41:      3094.46 cm**-1
  42:      3102.63 cm**-1
  43:      3158.83 cm**-1
  44:      3169.58 cm**-1
  45:      3172.14 cm**-1
  46:      3174.61 cm**-1
  47:      3246.54 cm**-1
  48:      3265.75 cm**-1
  49:      3440.30 cm**-1
  50:      3518.85 cm**-1

IR SPECTRUM
-----------

 Mode    freq (cm**-1)   T**2         TX         TY         TZ
-------------------------------------------------------------------
   6:       249.12    0.364713  ( -0.000000   0.000004  -0.603915)
   7:       382.87    0.756868  (  0.167109  -0.853781  -0.000005)
   8:       483.62    0.083743  ( -0.000007  -0.000060  -0.289384)
   9:       487.38    9.227562  (  0.334407   3.019227  -0.000007)
  10:       691.71    0.459861  (  0.000000  -0.000000  -0.678130)
  11:       741.07   44.303557  (  4.819506   4.590851   0.000000)
  12:       777.60    0.000010  (  0.000005   0.000008   0.003219)
  13:       792.50    9.970629  (  2.327697   2.133648   0.000005)
  14:       810.31    0.918960  ( -0.048808   0.957381  -0.000007)
  15:       865.05    3.636213  ( -0.000014  -0.000002   1.906886)
  16:       898.79   20.958768  (  4.410397   1.227665  -0.000001)
  17:       910.90    0.795574  (  0.633193   0.628205  -0.000001)
  18:       959.58    0.986479  (  0.000003  -0.000001  -0.993216)
  19:       966.88    2.546998  ( -0.608567   1.475345  -0.000011)
  20:       981.71    1.352866  (  0.000002   0.000004   1.163128)
  21:       987.05    1.354337  ( -0.000003  -0.000021  -1.163760)
  22:       998.86    1.271930  (  0.787438  -0.807385   0.000016)
  23:      1056.52    7.000725  ( -1.044981  -2.430790  -0.000000)
  24:      1057.81    0.007979  ( -0.000025  -0.000044  -0.089327)
  25:      1125.03    3.982857  ( -0.403081  -1.954580  -0.000008)
  26:      1159.09    8.907955  (  1.856909  -2.336631   0.000008)
  27:      1184.09    0.292497  ( -0.000025  -0.000004   0.540830)
  28:      1212.40   17.548311  ( -0.000066  -0.000046   4.189070)
  29:      1227.49    4.927246  ( -1.632816  -1.503715  -0.000142)
  30:      1239.45    4.254013  (  0.000010   0.000015   2.062526)
  31:      1297.93    0.801197  ( -0.000000  -0.000002  -0.895096)
  32:      1318.64    0.060778  (  0.000005  -0.000012  -0.246532)
  33:      1339.21   26.232136  (  0.000005   0.000065  -5.121732)
  34:      1343.54    0.520243  (  0.225131   0.685244   0.000383)
  35:      1352.45    1.004434  (  0.988159   0.167259  -0.000019)
  36:      1390.86   56.048595  (  0.000004  -0.000003  -7.486561)
  37:      1486.94    3.715985  (  0.000021   0.000020   1.927689)
  38:      1502.77   14.648771  ( -2.776789  -2.634048   0.000014)
  39:      1622.95   85.080411  ( -9.215613   0.391013  -0.000001)
  40:      1667.66    1.430757  (  1.195607   0.035800  -0.000001)
  41:      3094.46    2.796319  (  0.000004  -0.000011   1.672220)
  42:      3102.63    3.808777  ( -0.763753   1.795956   0.000009)
  43:      3158.83    0.027754  ( -0.000000   0.000001   0.166596)
  44:      3169.58    0.812642  ( -0.149310  -0.889016   0.000031)
  45:      3172.14    0.700044  (  0.000067  -0.000132  -0.836686)
  46:      3174.61    0.171991  ( -0.246335   0.333632  -0.000245)
  47:      3246.54    5.948610  ( -0.000000  -0.000000   2.438977)
  48:      3265.75    7.294499  (  1.654521  -2.134727   0.000000)
  49:      3440.30   51.040777  ( -7.134895  -0.366131   0.000000)
  50:      3518.85   57.401648  (  1.022607   7.507058   0.000000)

--------------------------
THERMOCHEMISTRY AT 298.15K
--------------------------

Temperature         ... 298.15 K
Pressure            ... 1.00 atm
Total Mass          ... 96.15 AMU

Throughout the following assumptions are being made:
  (1) The electronic state is orbitally nondegenerate
  (2) There are no thermally accessible electronically excited states
  (3) Hindered rotations indicated by low frequency modes) are not
      treated as such but are treated as vibrations and this may
      case some error
  (4) All equations used are the standard statistical mechanics
      equations for an ideal gas
  (5) All vibrations are strinctly harmonic

------------
INNER ENERGY
------------

The inner energy is: U= E(el) + E(ZPE) + E(vib) + E(rot) + E(trans)
    E(el)   - is the total energy from the electronic structure calculation
              = E(kin-el) + E(nuc-el) + E(el-el) + E(nuc-nuc)
    E(ZPE)  - the the zero temperature vibrational energy from the frequency calculation
    E(vib)  - the the finite temperature correction to E(ZPE) due to population
              of excietd vibrational states
    E(rot)  - is the rotational thermal energy
    E(trans)- is the translational thermal energy

Summary of contributions to the inner energy U:
Electronic energy                ...   -288.89906782 Eh
Zero point energy                ...      0.15699658 Eh      98.52 kcal/mol
Thermal vibrational correction   ...      0.00234384 Eh       1.47 kcal/mol
Thermal rotational correction    ...      0.00141627 Eh       0.89 kcal/mol
Thermal translational correction ...      0.00141627 Eh       0.89 kcal/mol
-----------------------------------------------------------------------
Total thermal energy                   -288.73689486 Eh

Summary of corrections to the electronic energy:
(perhaps to be used in another calculation)
Total thermal correction                  0.00517639 Eh       3.25 kcal/mol
Non-thermal (ZPE) correction              0.15699658 Eh      98.52 kcal/mol
-----------------------------------------------------------------------
Total correction                          0.16217297 Eh     101.76 kcal/mol

--------
ENTHALPY
--------

The enthalpy is H = U + kB*T
                kB is Boltzmann's constant
Total free energy                 ...   -288.73689486 Eh
Thermal Enthalpy correction       ...      0.00094421 Eh       0.59 kcal/mol
-----------------------------------------------------------------------
Total Enthalpy                    ...   -288.73595065 Eh

-------
ENTROPY
-------

The entropy contributions are T*S = T*(S(el)+S(vib)+S(rot)+S(trans)
     S(el)   - electronic entropy
     S(vib)  - vibrational entropy
     S(rot)  - rotational entropy
     S(trans)- translational entropy
The entropies will be listed as mutliplied by the temperature to get
units of energy

Electronic entropy                ...      0.00000000 Eh      0.00 kcal/mol
Vibrational entropy               ...      0.00327919 Eh      2.06 kcal/mol
Rotational entropy                ...      0.01153219 Eh      7.24 kcal/mol
Translational entropy             ...      0.01881568 Eh     11.81 kcal/mol
-----------------------------------------------------------------------
Final entropy term                ...      0.03362706 Eh     21.10 kcal/mol

CAUTION: The rotational entropy is not quite correctly treated here
         because it includes a symmetry number that is not yet correctly
         implemented in ORCA!
For a nonlinear molecule the correct rotational entropy is:
    S(rot) = R*(ln(qrot/sn)+1.5)
    R    = 8.31441 J/mol/K = 1.987191683e-3 kcal/mol/K
    qrot = 134938.7804452
    sn is the rotational symmetry number. We have assumed 3 here
       if it is different for your molecule then you should correct
       the printed rotational entropy by manually evaluating the equation
       as given above

For convenience we print out the resulting values for sn=1 - 12:
 sn= 1  qrot/sn=  134938.7804 T*S(rot)=     7.89 kcal/mol T*S(tot)=    21.75 kcal/mol
 sn= 2  qrot/sn=   67469.3902 T*S(rot)=     7.48 kcal/mol T*S(tot)=    21.34 kcal/mol
 sn= 3  qrot/sn=   44979.5935 T*S(rot)=     7.24 kcal/mol T*S(tot)=    21.10 kcal/mol
 sn= 4  qrot/sn=   33734.6951 T*S(rot)=     7.07 kcal/mol T*S(tot)=    20.93 kcal/mol
 sn= 5  qrot/sn=   26987.7561 T*S(rot)=     6.93 kcal/mol T*S(tot)=    20.80 kcal/mol
 sn= 6  qrot/sn=   22489.7967 T*S(rot)=     6.83 kcal/mol T*S(tot)=    20.69 kcal/mol
 sn= 7  qrot/sn=   19276.9686 T*S(rot)=     6.73 kcal/mol T*S(tot)=    20.60 kcal/mol
 sn= 8  qrot/sn=   16867.3476 T*S(rot)=     6.66 kcal/mol T*S(tot)=    20.52 kcal/mol
 sn= 9  qrot/sn=   14993.1978 T*S(rot)=     6.59 kcal/mol T*S(tot)=    20.45 kcal/mol
 sn=10  qrot/sn=   13493.8780 T*S(rot)=     6.52 kcal/mol T*S(tot)=    20.39 kcal/mol
 sn=11  qrot/sn=   12267.1619 T*S(rot)=     6.47 kcal/mol T*S(tot)=    20.33 kcal/mol
 sn=12  qrot/sn=   11244.8984 T*S(rot)=     6.42 kcal/mol T*S(tot)=    20.28 kcal/mol

-------------------
GIBBS FREE ENTHALPY
-------------------

The Gibbs free enthalpy is G = H - T*S

Total enthalpy                    ...   -288.73595065 Eh
Total entropy correction          ...     -0.03362706 Eh    -21.10 kcal/mol
-----------------------------------------------------------------------
Final Gibbs free enthalpy         ...   -288.76957771 Eh

For completeness - the Gibbs free enthalpy minus the electronic energy
G-E(el)                           ...      0.12949011 Eh     81.26 kcal/mol

                             ****ORCA TERMINATED NORMALLY****
TOTAL RUN TIME: 0 days 0 hours 45 minutes 11 seconds 981 msec
