                         Program Version 3.0.3 - RELEASE   -
|  1> ! NORI PBE0 def2-TZVP UseSym TightOPT Freq TightSCF Grid3 FinalGrid5 XYZFile
|  2> % pal
|  3>     nprocs 8
|  4> end
|  5> %method
|  6>     SymThresh 5.0e-2
|  7> end
|  8> % geom
|  9>     MaxIter 10
| 10> end
| 11> % maxcore 2000
| 12> % output
| 13>     printlevel mini
| 14>     print[ P_Basis ] 0
| 15>     print[ P_SCFInfo ] 1
| 16>     print[ P_SCFIterInfo ] 1
| 17>     print[ P_OrbEn ] 0
| 18>     print[ P_Cartesian ] 0
| 19> end
| 20> % elprop
| 21>     Dipole false
| 22> end
| 23> *xyz 1 1
| 24>  C       -0.3176066383    -0.9239706463     1.1995798358
| 25>  C        0.7873953060    -1.3343583721     0.1965750953
| 26>  C        0.8905082975    -0.1019680281    -0.7253140204
| 27>  N        0.6573521364     0.9935110550     0.2913618596
| 28>  C       -0.7025798169     0.4934729341     0.7263121824
| 29>  C       -1.3484091388     0.3717037447    -0.6304760106
| 30>  C       -0.4007237773     0.0170999199    -1.4936275597
| 31>  H        0.0570845005    -0.9065679933     2.2245533569
| 32>  H       -1.1885318021    -1.5762469431     1.1776172564
| 33>  H        1.7364594532    -1.5248739551     0.7010972877
| 34>  H        0.5393909346    -2.2199586031    -0.3847338086
| 35>  H        1.8237039365     0.0283504390    -1.2676037398
| 36>  H        0.6055259494     1.9160096389    -0.1435752769
| 37>  H        1.3465592316     0.9994810690     1.0453526978
| 38>  H       -1.1689552004     1.1469573406     1.4597060784
| 39>  H       -2.4121217454     0.4598843087    -0.8013526062
| 40>  H       -0.5090216263    -0.2527459086    -2.5345926281
| 41> *
| 42>
| 43>                          ****END OF INPUT****
 Total Charge           Charge          ....    1
 Multiplicity           Mult            ....    1
 Number of Electrons    NEL             ....   52
FINAL SINGLE POINT ENERGY      -288.899067044558
                    ***********************HURRAY********************
 Multiplicity           Mult            ....    1
 Number of Electrons    NEL             ....   52
 Basis Dimension        Dim             ....  277
FINAL SINGLE POINT ENERGY      -288.899067768741

VIBRATIONAL FREQUENCIES
-----------------------

   0:         0.00 cm**-1
   1:         0.00 cm**-1
   2:         0.00 cm**-1
   3:         0.00 cm**-1
   4:         0.00 cm**-1
   5:         0.00 cm**-1
   6:       249.19 cm**-1
   7:       382.83 cm**-1
   8:       483.48 cm**-1
   9:       487.38 cm**-1
  10:       691.71 cm**-1
  11:       740.97 cm**-1
  12:       777.39 cm**-1
  13:       792.49 cm**-1
  14:       810.33 cm**-1
  15:       865.11 cm**-1
  16:       898.49 cm**-1
  17:       910.84 cm**-1
  18:       959.79 cm**-1
  19:       967.03 cm**-1
  20:       981.74 cm**-1
  21:       986.90 cm**-1
  22:       999.07 cm**-1
  23:      1056.46 cm**-1
  24:      1057.75 cm**-1
  25:      1125.07 cm**-1
  26:      1159.25 cm**-1
  27:      1183.99 cm**-1
  28:      1212.39 cm**-1
  29:      1227.44 cm**-1
  30:      1239.42 cm**-1
  31:      1298.05 cm**-1
  32:      1318.65 cm**-1
  33:      1339.02 cm**-1
  34:      1343.46 cm**-1
  35:      1352.60 cm**-1
  36:      1390.97 cm**-1
  37:      1486.99 cm**-1
  38:      1502.79 cm**-1
  39:      1623.09 cm**-1
  40:      1667.84 cm**-1
  41:      3094.25 cm**-1
  42:      3102.46 cm**-1
  43:      3158.89 cm**-1
  44:      3169.60 cm**-1
  45:      3172.03 cm**-1
  46:      3174.51 cm**-1
  47:      3246.51 cm**-1
  48:      3265.73 cm**-1
  49:      3440.45 cm**-1
  50:      3519.03 cm**-1

IR SPECTRUM
-----------

 Mode    freq (cm**-1)   T**2         TX         TY         TZ
-------------------------------------------------------------------
   6:       249.19    0.365706  (  0.000003  -0.000000  -0.604736)
   7:       382.83    0.760280  (  0.168859  -0.855434  -0.000000)
   8:       483.48    0.083628  ( -0.000001   0.000000   0.289185)
   9:       487.38    9.212739  ( -0.338764  -3.016285   0.000000)
  10:       691.71    0.457992  ( -0.000001   0.000000   0.676751)
  11:       740.97   44.234238  (  4.814786   4.588254  -0.000000)
  12:       777.39    0.000041  ( -0.000002   0.000000  -0.006425)
  13:       792.49   10.012652  (  2.332435   2.138316   0.000000)
  14:       810.33    0.914404  ( -0.048419   0.955018   0.000000)
  15:       865.11    3.632244  ( -0.000005   0.000000   1.905845)
  16:       898.49   20.980247  (  4.411439   1.232662   0.000000)
  17:       910.84    0.812973  (  0.646132   0.628877   0.000000)
  18:       959.79    0.990925  (  0.000004  -0.000000   0.995452)
  19:       967.03    2.564924  ( -0.618969   1.477092   0.000000)
  20:       981.74    1.351033  ( -0.000001   0.000000   1.162339)
  21:       986.90    1.351201  (  0.000002  -0.000000  -1.162412)
  22:       999.07    1.269390  (  0.789674  -0.803621  -0.000000)
  23:      1056.46    7.000242  ( -1.044413  -2.430935   0.000000)
  24:      1057.75    0.007687  ( -0.000004  -0.000000  -0.087677)
  25:      1125.07    3.980896  ( -0.395368  -1.955653  -0.000000)
  26:      1159.25    8.898838  (  1.853358  -2.337500   0.000000)
  27:      1183.99    0.300098  (  0.000005   0.000000   0.547812)
  28:      1212.39   17.608063  (  0.000004   0.000000   4.196196)
  29:      1227.44    4.929586  ( -1.633648  -1.503589   0.000000)
  30:      1239.42    4.226500  ( -0.000013   0.000000   2.055845)
  31:      1298.05    0.816313  ( -0.000001   0.000000  -0.903501)
  32:      1318.65    0.051314  ( -0.000006  -0.000000   0.226525)
  33:      1339.02   26.376954  ( -0.000003  -0.000000   5.135850)
  34:      1343.46    0.520850  (  0.219206   0.687604  -0.000000)
  35:      1352.60    1.020655  (  0.995730   0.170813   0.000000)
  36:      1390.97   55.866063  ( -0.000001  -0.000000   7.474360)
  37:      1486.99    3.701374  ( -0.000008  -0.000000   1.923896)
  38:      1502.79   14.623788  ( -2.767089  -2.639508  -0.000000)
  39:      1623.09   85.067352  ( -9.214326   0.404413  -0.000000)
  40:      1667.84    1.414720  ( -1.188928  -0.034216   0.000000)
  41:      3094.25    2.797996  ( -0.000004  -0.000000  -1.672721)
  42:      3102.46    3.833113  ( -0.769566   1.800245   0.000000)
  43:      3158.89    0.027638  ( -0.000007  -0.000000  -0.166247)
  44:      3169.60    0.808876  ( -0.152801  -0.886300   0.000000)
  45:      3172.03    0.703026  (  0.000000  -0.000000  -0.838467)
  46:      3174.51    0.173200  ( -0.247219   0.334788   0.000000)
  47:      3246.51    5.938907  ( -0.000000  -0.000000   2.436987)
  48:      3265.73    7.289132  (  1.653699  -2.134107   0.000000)
  49:      3440.45   50.984652  ( -7.132009  -0.345098   0.000000)
  50:      3519.03   57.454334  (  1.066841   7.504411   0.000000)

--------------------------
THERMOCHEMISTRY AT 298.15K
--------------------------

Temperature         ... 298.15 K
Pressure            ... 1.00 atm
Total Mass          ... 96.15 AMU

Throughout the following assumptions are being made:
  (1) The electronic state is orbitally nondegenerate
  (2) There are no thermally accessible electronically excited states
  (3) Hindered rotations indicated by low frequency modes) are not
      treated as such but are treated as vibrations and this may
      case some error
  (4) All equations used are the standard statistical mechanics
      equations for an ideal gas
  (5) All vibrations are strinctly harmonic

------------
INNER ENERGY
------------

The inner energy is: U= E(el) + E(ZPE) + E(vib) + E(rot) + E(trans)
    E(el)   - is the total energy from the electronic structure calculation
              = E(kin-el) + E(nuc-el) + E(el-el) + E(nuc-nuc)
    E(ZPE)  - the the zero temperature vibrational energy from the frequency calculation
    E(vib)  - the the finite temperature correction to E(ZPE) due to population
              of excietd vibrational states
    E(rot)  - is the rotational thermal energy
    E(trans)- is the translational thermal energy

Summary of contributions to the inner energy U:
Electronic energy                ...   -288.89906777 Eh
Zero point energy                ...      0.15699632 Eh      98.52 kcal/mol
Thermal vibrational correction   ...      0.00234399 Eh       1.47 kcal/mol
Thermal rotational correction    ...      0.00141627 Eh       0.89 kcal/mol
Thermal translational correction ...      0.00141627 Eh       0.89 kcal/mol
-----------------------------------------------------------------------
Total thermal energy                   -288.73689492 Eh

Summary of corrections to the electronic energy:
(perhaps to be used in another calculation)
Total thermal correction                  0.00517653 Eh       3.25 kcal/mol
Non-thermal (ZPE) correction              0.15699632 Eh      98.52 kcal/mol
-----------------------------------------------------------------------
Total correction                          0.16217285 Eh     101.76 kcal/mol

--------
ENTHALPY
--------

The enthalpy is H = U + kB*T
                kB is Boltzmann's constant
Total free energy                 ...   -288.73689492 Eh
Thermal Enthalpy correction       ...      0.00094421 Eh       0.59 kcal/mol
-----------------------------------------------------------------------
Total Enthalpy                    ...   -288.73595071 Eh

-------
ENTROPY
-------

The entropy contributions are T*S = T*(S(el)+S(vib)+S(rot)+S(trans)
     S(el)   - electronic entropy
     S(vib)  - vibrational entropy
     S(rot)  - rotational entropy
     S(trans)- translational entropy
The entropies will be listed as mutliplied by the temperature to get
units of energy

Electronic entropy                ...      0.00000000 Eh      0.00 kcal/mol
Vibrational entropy               ...      0.00327934 Eh      2.06 kcal/mol
Rotational entropy                ...      0.01153222 Eh      7.24 kcal/mol
Translational entropy             ...      0.01881568 Eh     11.81 kcal/mol
-----------------------------------------------------------------------
Final entropy term                ...      0.03362725 Eh     21.10 kcal/mol

CAUTION: The rotational entropy is not quite correctly treated here
         because it includes a symmetry number that is not yet correctly
         implemented in ORCA!
For a nonlinear molecule the correct rotational entropy is:
    S(rot) = R*(ln(qrot/sn)+1.5)
    R    = 8.31441 J/mol/K = 1.987191683e-3 kcal/mol/K
    qrot = 134943.3586198
    sn is the rotational symmetry number. We have assumed 3 here
       if it is different for your molecule then you should correct
       the printed rotational entropy by manually evaluating the equation
       as given above

For convenience we print out the resulting values for sn=1 - 12:
 sn= 1  qrot/sn=  134943.3586 T*S(rot)=     7.89 kcal/mol T*S(tot)=    21.75 kcal/mol
 sn= 2  qrot/sn=   67471.6793 T*S(rot)=     7.48 kcal/mol T*S(tot)=    21.34 kcal/mol
 sn= 3  qrot/sn=   44981.1195 T*S(rot)=     7.24 kcal/mol T*S(tot)=    21.10 kcal/mol
 sn= 4  qrot/sn=   33735.8397 T*S(rot)=     7.07 kcal/mol T*S(tot)=    20.93 kcal/mol
 sn= 5  qrot/sn=   26988.6717 T*S(rot)=     6.93 kcal/mol T*S(tot)=    20.80 kcal/mol
 sn= 6  qrot/sn=   22490.5598 T*S(rot)=     6.83 kcal/mol T*S(tot)=    20.69 kcal/mol
 sn= 7  qrot/sn=   19277.6227 T*S(rot)=     6.73 kcal/mol T*S(tot)=    20.60 kcal/mol
 sn= 8  qrot/sn=   16867.9198 T*S(rot)=     6.66 kcal/mol T*S(tot)=    20.52 kcal/mol
 sn= 9  qrot/sn=   14993.7065 T*S(rot)=     6.59 kcal/mol T*S(tot)=    20.45 kcal/mol
 sn=10  qrot/sn=   13494.3359 T*S(rot)=     6.52 kcal/mol T*S(tot)=    20.39 kcal/mol
 sn=11  qrot/sn=   12267.5781 T*S(rot)=     6.47 kcal/mol T*S(tot)=    20.33 kcal/mol
 sn=12  qrot/sn=   11245.2799 T*S(rot)=     6.42 kcal/mol T*S(tot)=    20.28 kcal/mol

-------------------
GIBBS FREE ENTHALPY
-------------------

The Gibbs free enthalpy is G = H - T*S

Total enthalpy                    ...   -288.73595071 Eh
Total entropy correction          ...     -0.03362725 Eh    -21.10 kcal/mol
-----------------------------------------------------------------------
Final Gibbs free enthalpy         ...   -288.76957796 Eh

For completeness - the Gibbs free enthalpy minus the electronic energy
G-E(el)                           ...      0.12948981 Eh     81.26 kcal/mol

                             ****ORCA TERMINATED NORMALLY****
TOTAL RUN TIME: 0 days 0 hours 46 minutes 48 seconds 311 msec
