                         Program Version 3.0.3 - RELEASE   -
|  1> ! NORI PBE0 def2-TZVP UseSym TightOPT Freq TightSCF Grid3 FinalGrid5 XYZFile
|  2> % pal
|  3>     nprocs 8
|  4> end
|  5> %method
|  6>     SymThresh 5.0e-2
|  7> end
|  8> % geom
|  9>     MaxIter 10
| 10> end
| 11> % maxcore 2000
| 12> % output
| 13>     printlevel mini
| 14>     print[ P_Basis ] 0
| 15>     print[ P_SCFInfo ] 1
| 16>     print[ P_SCFIterInfo ] 1
| 17>     print[ P_OrbEn ] 0
| 18>     print[ P_Cartesian ] 0
| 19> end
| 20> % elprop
| 21>     Dipole false
| 22> end
| 23> *xyz 1 1
| 24>  C       -0.3536797429    -0.9818288054    -0.5360190327
| 25>  N        0.9802600116    -1.1729888394    -1.1523155815
| 26>  C        0.8065460190    -0.2990500945     0.0565108001
| 27>  C        1.4755802867    -0.7473814211     1.3153929226
| 28>  C        0.7937474195    -0.3774643896     2.6519709718
| 29>  C        1.2831208333    -1.7283555425     3.2064153874
| 30>  C        1.4524737909    -2.2275117007     1.7559905709
| 31>  H       -0.7453052106    -1.8758368626    -0.0688051431
| 32>  H       -1.0469129492    -0.4249826080    -1.1529603938
| 33>  H        1.1680416731    -0.7530503931    -2.0554400634
| 34>  H        1.4366463672    -2.0669719268    -1.0009431272
| 35>  H        0.9195033385     0.7492952444    -0.2025575274
| 36>  H        2.5037332786    -0.3758872761     1.3086058910
| 37>  H       -0.2945053872    -0.3570404645     2.5530026705
| 38>  H        1.1220108233     0.5370487697     3.1432368511
| 39>  H        2.2460649499    -1.6324365726     3.7087587412
| 40>  H        0.6044615723    -2.2854768238     3.8492599186
| 41>  H        2.3264886348    -2.8375609697     1.5239016235
| 42>  H        0.5527442912    -2.7574493235     1.4272745203
| 43> *
| 44>
| 45>                          ****END OF INPUT****
 Total Charge           Charge          ....    1
 Multiplicity           Mult            ....    1
 Number of Electrons    NEL             ....   54
FINAL SINGLE POINT ENERGY      -290.069579751557
FINAL SINGLE POINT ENERGY      -290.069581798216
FINAL SINGLE POINT ENERGY      -290.069582804469

CARTESIAN COORDINATES (ANGSTROEM)
---------------------------------
  C      1.325575    0.000293    1.500378
  N     -0.001645    0.002823    2.160395
  C      0.242565    0.801611    0.912084
  C     -0.517835    0.396209   -0.309045
  C      0.158724    0.633505   -1.678484
  C     -0.517566   -0.660382   -2.167672
  C     -0.693623   -1.089247   -0.695715
  H      1.587951   -0.953131    1.060880
  H      2.102265    0.487565    2.075126
  H     -0.105214    0.477309    3.050097
  H     -0.571628   -0.830923    2.059453
  H      0.270151    1.864787    1.131044
  H     -1.491634    0.893011   -0.286221
  H      1.243377    0.517553   -1.613135
  H     -0.066876    1.566534   -2.192529
  H     -1.479106   -0.457773   -2.640023
  H      0.060119   -1.318871   -2.813010
  H     -1.627438   -1.576969   -0.413201
  H      0.144889   -1.717066   -0.379314

FINAL SINGLE POINT ENERGY      -290.069583134239
                    ***********************HURRAY********************
 Multiplicity           Mult            ....    1
 Number of Electrons    NEL             ....   54
 Basis Dimension        Dim             ....  289
FINAL SINGLE POINT ENERGY      -290.069583402744

VIBRATIONAL FREQUENCIES
-----------------------

   0:         0.00 cm**-1
   1:         0.00 cm**-1
   2:         0.00 cm**-1
   3:         0.00 cm**-1
   4:         0.00 cm**-1
   5:         0.00 cm**-1
   6:        68.30 cm**-1
   7:       137.46 cm**-1
   8:       181.78 cm**-1
   9:       273.39 cm**-1
  10:       409.41 cm**-1
  11:       513.15 cm**-1
  12:       590.04 cm**-1
  13:       743.91 cm**-1
  14:       788.62 cm**-1
  15:       800.14 cm**-1
  16:       863.36 cm**-1
  17:       877.60 cm**-1
  18:       888.32 cm**-1
  19:       925.05 cm**-1
  20:       960.82 cm**-1
  21:       973.02 cm**-1
  22:       981.18 cm**-1
  23:      1017.23 cm**-1
  24:      1021.12 cm**-1
  25:      1071.36 cm**-1
  26:      1124.06 cm**-1
  27:      1162.21 cm**-1
  28:      1167.61 cm**-1
  29:      1191.83 cm**-1
  30:      1217.41 cm**-1
  31:      1247.91 cm**-1
  32:      1253.44 cm**-1
  33:      1261.04 cm**-1
  34:      1264.22 cm**-1
  35:      1276.13 cm**-1
  36:      1286.22 cm**-1
  37:      1301.78 cm**-1
  38:      1389.82 cm**-1
  39:      1421.95 cm**-1
  40:      1470.37 cm**-1
  41:      1482.06 cm**-1
  42:      1494.81 cm**-1
  43:      1508.23 cm**-1
  44:      1625.18 cm**-1
  45:      3060.73 cm**-1
  46:      3076.81 cm**-1
  47:      3087.12 cm**-1
  48:      3102.85 cm**-1
  49:      3128.95 cm**-1
  50:      3150.92 cm**-1
  51:      3167.92 cm**-1
  52:      3176.53 cm**-1
  53:      3184.13 cm**-1
  54:      3276.26 cm**-1
  55:      3510.18 cm**-1
  56:      3617.73 cm**-1

IR SPECTRUM
-----------

 Mode    freq (cm**-1)   T**2         TX         TY         TZ
-------------------------------------------------------------------
   6:        68.30    3.014411  ( -0.256611   1.269307   1.156470)
   7:       137.46    0.469325  ( -0.551186  -0.389440  -0.117711)
   8:       181.78    3.771610  ( -0.994167  -0.804442  -1.461545)
   9:       273.39    1.506722  ( -0.357933   0.064382  -1.172374)
  10:       409.41    3.436862  (  0.899614  -0.553962   1.523378)
  11:       513.15    0.755257  (  0.644213  -0.013675   0.583146)
  12:       590.04    2.141081  (  1.042866  -0.870365   0.544038)
  13:       743.91    1.746147  (  0.819536   0.140598   1.027006)
  14:       788.62    1.078292  ( -0.124135   0.504527   0.899074)
  15:       800.14   19.489348  (  1.614907   0.463779  -4.082442)
  16:       863.36    7.953968  (  2.343024   0.850533  -1.319394)
  17:       877.60    4.700730  ( -0.108956   0.928030  -1.956430)
  18:       888.32    8.060455  (  0.171651  -1.204342  -2.565259)
  19:       925.05    8.248761  (  0.984125   1.171966  -2.430382)
  20:       960.82    4.329799  ( -0.696170  -1.569013   1.176156)
  21:       973.02    1.112075  (  0.207054  -0.663814  -0.792815)
  22:       981.18    7.263104  ( -0.089974  -1.367644   2.320465)
  23:      1017.23   50.873378  (  4.914757  -4.306051   2.859452)
  24:      1021.12   41.369337  (  4.109238  -3.109861   3.848671)
  25:      1071.36    1.118303  (  0.871594  -0.581575  -0.142815)
  26:      1124.06    3.704920  ( -1.567639   0.680196   0.885867)
  27:      1162.21    1.185557  (  0.524126   0.885583   0.355796)
  28:      1167.61    7.418374  (  0.879363  -0.410081   2.544981)
  29:      1191.83    1.011633  ( -0.154481   0.830809  -0.545458)
  30:      1217.41    1.064957  (  0.457511   0.896904   0.226283)
  31:      1247.91    3.075218  ( -0.135841  -0.408386  -1.699996)
  32:      1253.44    1.133412  (  1.056460   0.054578   0.119690)
  33:      1261.04    1.207339  (  0.838542   0.479519  -0.523687)
  34:      1264.22    1.634625  ( -0.940857  -0.865618   0.010878)
  35:      1276.13    2.244787  (  1.065317   0.872699  -0.590156)
  36:      1286.22    6.957377  (  0.289244   2.253712   1.339589)
  37:      1301.78    1.544440  ( -0.399252  -0.392466   1.109508)
  38:      1389.82    0.797494  ( -0.535541   0.485639  -0.524256)
  39:      1421.95    9.485145  (  0.237836  -1.735271  -2.533261)
  40:      1470.37    4.340813  (  1.313823   1.424346  -0.765453)
  41:      1482.06    4.469863  (  1.735905   0.698192   0.984391)
  42:      1494.81   18.662515  (  3.611498  -1.355286   1.944942)
  43:      1508.23    3.256409  ( -1.526085   0.946723  -0.176600)
  44:      1625.18   80.759098  (  3.866362   3.015378  -7.531125)
  45:      3060.73   20.837350  (  1.207228  -3.050722   3.173807)
  46:      3076.81    8.486943  (  2.076893   2.025875  -0.263228)
  47:      3087.12    7.176356  (  2.605257  -0.520854  -0.343078)
  48:      3102.85    9.575929  (  0.919816   0.950831   2.797461)
  49:      3128.95   14.018686  ( -3.440788  -1.439691  -0.327035)
  50:      3150.92    8.099119  (  0.366479  -1.762312   2.204330)
  51:      3167.92   10.343672  ( -2.455585   1.984469   0.612912)
  52:      3176.53    1.396150  (  1.160112  -0.145721   0.170457)
  53:      3184.13    0.785956  ( -0.055348   0.543173  -0.698467)
  54:      3276.26    5.039213  ( -0.836719  -1.635326  -1.290281)
  55:      3510.18   91.807724  (  5.493039   2.802008  -7.333689)
  56:      3617.73  135.409219  ( -2.420412  -7.869455  -8.223290)

--------------------------
THERMOCHEMISTRY AT 298.15K
--------------------------

Temperature         ... 298.15 K
Pressure            ... 1.00 atm
Total Mass          ... 98.17 AMU

Throughout the following assumptions are being made:
  (1) The electronic state is orbitally nondegenerate
  (2) There are no thermally accessible electronically excited states
  (3) Hindered rotations indicated by low frequency modes) are not
      treated as such but are treated as vibrations and this may
      case some error
  (4) All equations used are the standard statistical mechanics
      equations for an ideal gas
  (5) All vibrations are strinctly harmonic

------------
INNER ENERGY
------------

The inner energy is: U= E(el) + E(ZPE) + E(vib) + E(rot) + E(trans)
    E(el)   - is the total energy from the electronic structure calculation
              = E(kin-el) + E(nuc-el) + E(el-el) + E(nuc-nuc)
    E(ZPE)  - the the zero temperature vibrational energy from the frequency calculation
    E(vib)  - the the finite temperature correction to E(ZPE) due to population
              of excietd vibrational states
    E(rot)  - is the rotational thermal energy
    E(trans)- is the translational thermal energy

Summary of contributions to the inner energy U:
Electronic energy                ...   -290.06958340 Eh
Zero point energy                ...      0.17717693 Eh     111.18 kcal/mol
Thermal vibrational correction   ...      0.00411068 Eh       2.58 kcal/mol
Thermal rotational correction    ...      0.00141627 Eh       0.89 kcal/mol
Thermal translational correction ...      0.00141627 Eh       0.89 kcal/mol
-----------------------------------------------------------------------
Total thermal energy                   -289.88546325 Eh

Summary of corrections to the electronic energy:
(perhaps to be used in another calculation)
Total thermal correction                  0.00694323 Eh       4.36 kcal/mol
Non-thermal (ZPE) correction              0.17717693 Eh     111.18 kcal/mol
-----------------------------------------------------------------------
Total correction                          0.18412015 Eh     115.54 kcal/mol

--------
ENTHALPY
--------

The enthalpy is H = U + kB*T
                kB is Boltzmann's constant
Total free energy                 ...   -289.88546325 Eh
Thermal Enthalpy correction       ...      0.00094421 Eh       0.59 kcal/mol
-----------------------------------------------------------------------
Total Enthalpy                    ...   -289.88451904 Eh

-------
ENTROPY
-------

The entropy contributions are T*S = T*(S(el)+S(vib)+S(rot)+S(trans)
     S(el)   - electronic entropy
     S(vib)  - vibrational entropy
     S(rot)  - rotational entropy
     S(trans)- translational entropy
The entropies will be listed as mutliplied by the temperature to get
units of energy

Electronic entropy                ...      0.00000000 Eh      0.00 kcal/mol
Vibrational entropy               ...      0.00727741 Eh      4.57 kcal/mol
Rotational entropy                ...      0.01195494 Eh      7.50 kcal/mol
Translational entropy             ...      0.01884507 Eh     11.83 kcal/mol
-----------------------------------------------------------------------
Final entropy term                ...      0.03807742 Eh     23.89 kcal/mol

CAUTION: The rotational entropy is not quite correctly treated here
         because it includes a symmetry number that is not yet correctly
         implemented in ORCA!
For a nonlinear molecule the correct rotational entropy is:
    S(rot) = R*(ln(qrot/sn)+1.5)
    R    = 8.31441 J/mol/K = 1.987191683e-3 kcal/mol/K
    qrot = 211149.0222577
    sn is the rotational symmetry number. We have assumed 3 here
       if it is different for your molecule then you should correct
       the printed rotational entropy by manually evaluating the equation
       as given above

For convenience we print out the resulting values for sn=1 - 12:
 sn= 1  qrot/sn=  211149.0223 T*S(rot)=     8.15 kcal/mol T*S(tot)=    24.54 kcal/mol
 sn= 2  qrot/sn=  105574.5111 T*S(rot)=     7.74 kcal/mol T*S(tot)=    24.13 kcal/mol
 sn= 3  qrot/sn=   70383.0074 T*S(rot)=     7.50 kcal/mol T*S(tot)=    23.89 kcal/mol
 sn= 4  qrot/sn=   52787.2556 T*S(rot)=     7.33 kcal/mol T*S(tot)=    23.72 kcal/mol
 sn= 5  qrot/sn=   42229.8045 T*S(rot)=     7.20 kcal/mol T*S(tot)=    23.59 kcal/mol
 sn= 6  qrot/sn=   35191.5037 T*S(rot)=     7.09 kcal/mol T*S(tot)=    23.48 kcal/mol
 sn= 7  qrot/sn=   30164.1460 T*S(rot)=     7.00 kcal/mol T*S(tot)=    23.39 kcal/mol
 sn= 8  qrot/sn=   26393.6278 T*S(rot)=     6.92 kcal/mol T*S(tot)=    23.31 kcal/mol
 sn= 9  qrot/sn=   23461.0025 T*S(rot)=     6.85 kcal/mol T*S(tot)=    23.24 kcal/mol
 sn=10  qrot/sn=   21114.9022 T*S(rot)=     6.79 kcal/mol T*S(tot)=    23.18 kcal/mol
 sn=11  qrot/sn=   19195.3657 T*S(rot)=     6.73 kcal/mol T*S(tot)=    23.12 kcal/mol
 sn=12  qrot/sn=   17595.7519 T*S(rot)=     6.68 kcal/mol T*S(tot)=    23.07 kcal/mol

-------------------
GIBBS FREE ENTHALPY
-------------------

The Gibbs free enthalpy is G = H - T*S

Total enthalpy                    ...   -289.88451904 Eh
Total entropy correction          ...     -0.03807742 Eh    -23.89 kcal/mol
-----------------------------------------------------------------------
Final Gibbs free enthalpy         ...   -289.92259646 Eh

For completeness - the Gibbs free enthalpy minus the electronic energy
G-E(el)                           ...      0.14698694 Eh     92.24 kcal/mol

                             ****ORCA TERMINATED NORMALLY****
TOTAL RUN TIME: 0 days 1 hours 4 minutes 27 seconds 443 msec
