                         Program Version 3.0.3 - RELEASE   -
|  1> ! NORI PBE0 def2-TZVP UseSym TightOPT Freq TightSCF Grid3 FinalGrid5 XYZFile
|  2> % pal
|  3>     nprocs 8
|  4> end
|  5> %method
|  6>     SymThresh 5.0e-2
|  7> end
|  8> % geom
|  9>     MaxIter 10
| 10> end
| 11> % maxcore 2000
| 12> % output
| 13>     printlevel mini
| 14>     print[ P_Basis ] 0
| 15>     print[ P_SCFInfo ] 1
| 16>     print[ P_SCFIterInfo ] 1
| 17>     print[ P_OrbEn ] 0
| 18>     print[ P_Cartesian ] 0
| 19> end
| 20> % elprop
| 21>     Dipole false
| 22> end
| 23> *xyz 1 1
| 24>  C        0.3633037066    -1.7651951576    -1.1859849035
| 25>  C        0.6169819448    -0.3187824698    -1.0931010792
| 26>  N        0.2253668227    -1.0756206563     0.1138517026
| 27>  C        1.1667078255    -1.3141805088     1.2267742227
| 28>  C        1.1785745915    -0.3022467350     2.3754392419
| 29>  C        1.3880259558    -1.5050449358     3.3215491976
| 30>  C        0.8229422606    -2.4276626558     2.2195931519
| 31>  H        1.2018851795    -2.4484152952    -1.2280057986
| 32>  H       -0.5646101870    -2.1187748764    -1.6159902319
| 33>  H       -0.1262670690     0.3789840369    -1.4559316052
| 34>  H        1.6379965540     0.0390029327    -1.0693328521
| 35>  H       -0.7310792874    -0.9277751899     0.4222093171
| 36>  H        2.1516897002    -1.4460449753     0.7745345439
| 37>  H        0.1917698607     0.1449846609     2.5248967519
| 38>  H        1.9267519497     0.4888429723     2.3486850053
| 39>  H        2.4448675149    -1.6955298353     3.5063064262
| 40>  H        0.8600126050    -1.4863895508     4.2718880509
| 41>  H        1.2752607190    -3.4056520285     2.0628473644
| 42>  H       -0.2586306473    -2.5477697321     2.3272614941
| 43> *
| 44>
| 45>                          ****END OF INPUT****
 Total Charge           Charge          ....    1
 Multiplicity           Mult            ....    1
 Number of Electrons    NEL             ....   54
FINAL SINGLE POINT ENERGY      -290.068404854761
FINAL SINGLE POINT ENERGY      -290.068405960823

CARTESIAN COORDINATES (ANGSTROEM)
---------------------------------
  C      1.186551   -0.002774    1.948954
  C      0.262460   -1.147649    1.957626
  N      0.000664    0.002433    1.067039
  C      0.121657   -0.104081   -0.401656
  C     -1.135329   -0.475455   -1.192350
  C     -0.646492    0.514508   -2.271828
  C      0.232839    1.196622   -1.201057
  H      2.124062   -0.083302    1.414520
  H      1.157154    0.714536    2.758901
  H     -0.438972   -1.262923    2.773803
  H      0.534810   -2.052260    1.429327
  H     -0.754247    0.613625    1.364573
  H      0.953127   -0.785629   -0.593636
  H     -2.039484   -0.103366   -0.702591
  H     -1.278709   -1.521745   -1.457156
  H     -0.044887    0.018377   -3.033591
  H     -1.399922    1.128246   -2.759886
  H      1.228831    1.542446   -1.473381
  H     -0.308047    2.012662   -0.713800

FINAL SINGLE POINT ENERGY      -290.068406943157
                    ***********************HURRAY********************
 Multiplicity           Mult            ....    1
 Number of Electrons    NEL             ....   54
 Basis Dimension        Dim             ....  289
FINAL SINGLE POINT ENERGY      -290.068407420525

VIBRATIONAL FREQUENCIES
-----------------------

   0:         0.00 cm**-1
   1:         0.00 cm**-1
   2:         0.00 cm**-1
   3:         0.00 cm**-1
   4:         0.00 cm**-1
   5:         0.00 cm**-1
   6:        75.61 cm**-1
   7:       137.87 cm**-1
   8:       184.23 cm**-1
   9:       294.17 cm**-1
  10:       383.92 cm**-1
  11:       437.46 cm**-1
  12:       604.14 cm**-1
  13:       756.24 cm**-1
  14:       785.74 cm**-1
  15:       800.57 cm**-1
  16:       871.84 cm**-1
  17:       892.60 cm**-1
  18:       935.84 cm**-1
  19:       943.52 cm**-1
  20:       948.38 cm**-1
  21:       975.09 cm**-1
  22:       982.07 cm**-1
  23:      1071.31 cm**-1
  24:      1099.72 cm**-1
  25:      1113.03 cm**-1
  26:      1149.52 cm**-1
  27:      1151.91 cm**-1
  28:      1175.05 cm**-1
  29:      1206.22 cm**-1
  30:      1209.97 cm**-1
  31:      1215.36 cm**-1
  32:      1255.72 cm**-1
  33:      1261.09 cm**-1
  34:      1273.48 cm**-1
  35:      1275.19 cm**-1
  36:      1287.19 cm**-1
  37:      1296.51 cm**-1
  38:      1375.97 cm**-1
  39:      1461.22 cm**-1
  40:      1468.79 cm**-1
  41:      1478.02 cm**-1
  42:      1483.45 cm**-1
  43:      1507.91 cm**-1
  44:      1514.89 cm**-1
  45:      3074.22 cm**-1
  46:      3076.61 cm**-1
  47:      3105.68 cm**-1
  48:      3108.45 cm**-1
  49:      3152.79 cm**-1
  50:      3154.04 cm**-1
  51:      3172.93 cm**-1
  52:      3174.57 cm**-1
  53:      3174.95 cm**-1
  54:      3270.47 cm**-1
  55:      3280.87 cm**-1
  56:      3533.86 cm**-1

IR SPECTRUM
-----------

 Mode    freq (cm**-1)   T**2         TX         TY         TZ
-------------------------------------------------------------------
   6:        75.61    0.604355  ( -0.486490  -0.606365  -0.001966)
   7:       137.87    0.185407  (  0.013839  -0.002911   0.430357)
   8:       184.23    0.276914  ( -0.324863  -0.413977  -0.000969)
   9:       294.17    1.019824  (  0.671649  -0.545291  -0.520931)
  10:       383.92    3.689404  (  0.465606  -0.366913   1.827017)
  11:       437.46    0.262032  ( -0.320022  -0.399470   0.006459)
  12:       604.14    2.631104  ( -0.943013   0.781748   1.063344)
  13:       756.24    0.834076  (  0.709940  -0.573998  -0.024248)
  14:       785.74    1.357695  (  0.745363   0.895571  -0.009032)
  15:       800.57    1.395015  (  0.900274  -0.747425  -0.160862)
  16:       871.84    1.077766  (  0.662433   0.799342  -0.001151)
  17:       892.60    3.033613  ( -1.056916   0.873575   1.073969)
  18:       935.84   19.145086  (  2.451542  -2.020265   3.008912)
  19:       943.52    7.854422  ( -1.753616  -2.185880   0.034373)
  20:       948.38    6.509367  ( -1.655447  -1.940670  -0.051585)
  21:       975.09    4.121249  (  1.315242   1.545698   0.046960)
  22:       982.07   48.937955  (  2.985248  -2.418819   5.845987)
  23:      1071.31   23.199160  ( -1.606702   1.282366  -4.355824)
  24:      1099.72    4.924010  ( -1.403219  -1.718990  -0.007661)
  25:      1113.03    1.305212  (  0.201572  -0.178614   1.110260)
  26:      1149.52    1.608597  ( -0.544935   0.470268   1.044266)
  27:      1151.91    6.635862  ( -1.629165  -1.995181   0.030564)
  28:      1175.05    0.551400  ( -0.469046  -0.575343   0.019411)
  29:      1206.22    2.710561  (  0.280147  -0.254934  -1.602213)
  30:      1209.97    0.817689  (  0.568981   0.702522  -0.020302)
  31:      1215.36    5.857254  ( -1.525294  -1.879015   0.005932)
  32:      1255.72    0.394220  (  0.400224   0.483763   0.003800)
  33:      1261.09    0.012220  (  0.075088   0.080271   0.011781)
  34:      1273.48    5.993577  (  1.536888  -1.236562   1.449989)
  35:      1275.19   15.958913  (  2.147538  -1.729859   2.890429)
  36:      1287.19    5.729734  (  0.272152  -0.232855   2.366737)
  37:      1296.51    3.298909  ( -1.145584  -1.409374  -0.014536)
  38:      1375.97    6.309034  ( -1.943384   1.586601  -0.122430)
  39:      1461.22   47.561587  (  2.169251  -1.706530   6.320102)
  40:      1468.79    7.058528  (  1.691569   2.048179  -0.045666)
  41:      1478.02   17.085694  (  2.605419   3.208791  -0.033818)
  42:      1483.45   12.322050  ( -1.075251   0.909292   3.215443)
  43:      1507.91    6.920861  (  1.674238  -1.357821   1.508016)
  44:      1514.89    7.286529  ( -0.116545   0.105175   2.694788)
  45:      3074.22    6.743399  ( -1.553576  -2.073681  -0.172187)
  46:      3076.61    9.882861  (  1.307409  -0.842475  -2.731992)
  47:      3105.68    3.842317  (  1.207757  -0.972562   1.199067)
  48:      3108.45    6.664313  (  0.457227  -0.392771  -2.510177)
  49:      3152.79    4.891852  ( -1.681941  -0.287996   1.407119)
  50:      3154.04    7.577616  (  1.246330   2.359278   0.676819)
  51:      3172.93    3.246552  ( -0.954268  -1.506070   0.260151)
  52:      3174.57    5.461722  (  1.882883  -1.361499   0.250590)
  53:      3174.95    1.262802  (  0.239232   0.326432   1.048338)
  54:      3270.47    0.033362  ( -0.009490   0.141394   0.115239)
  55:      3280.87    9.970680  ( -1.689290   1.371122   2.288451)
  56:      3533.86   65.933158  ( -6.210687   5.032367   1.426818)

--------------------------
THERMOCHEMISTRY AT 298.15K
--------------------------

Temperature         ... 298.15 K
Pressure            ... 1.00 atm
Total Mass          ... 98.17 AMU

Throughout the following assumptions are being made:
  (1) The electronic state is orbitally nondegenerate
  (2) There are no thermally accessible electronically excited states
  (3) Hindered rotations indicated by low frequency modes) are not
      treated as such but are treated as vibrations and this may
      case some error
  (4) All equations used are the standard statistical mechanics
      equations for an ideal gas
  (5) All vibrations are strinctly harmonic

------------
INNER ENERGY
------------

The inner energy is: U= E(el) + E(ZPE) + E(vib) + E(rot) + E(trans)
    E(el)   - is the total energy from the electronic structure calculation
              = E(kin-el) + E(nuc-el) + E(el-el) + E(nuc-nuc)
    E(ZPE)  - the the zero temperature vibrational energy from the frequency calculation
    E(vib)  - the the finite temperature correction to E(ZPE) due to population
              of excietd vibrational states
    E(rot)  - is the rotational thermal energy
    E(trans)- is the translational thermal energy

Summary of contributions to the inner energy U:
Electronic energy                ...   -290.06840742 Eh
Zero point energy                ...      0.17683194 Eh     110.96 kcal/mol
Thermal vibrational correction   ...      0.00410281 Eh       2.57 kcal/mol
Thermal rotational correction    ...      0.00141627 Eh       0.89 kcal/mol
Thermal translational correction ...      0.00141627 Eh       0.89 kcal/mol
-----------------------------------------------------------------------
Total thermal energy                   -289.88464013 Eh

Summary of corrections to the electronic energy:
(perhaps to be used in another calculation)
Total thermal correction                  0.00693535 Eh       4.35 kcal/mol
Non-thermal (ZPE) correction              0.17683194 Eh     110.96 kcal/mol
-----------------------------------------------------------------------
Total correction                          0.18376729 Eh     115.32 kcal/mol

--------
ENTHALPY
--------

The enthalpy is H = U + kB*T
                kB is Boltzmann's constant
Total free energy                 ...   -289.88464013 Eh
Thermal Enthalpy correction       ...      0.00094421 Eh       0.59 kcal/mol
-----------------------------------------------------------------------
Total Enthalpy                    ...   -289.88369592 Eh

-------
ENTROPY
-------

The entropy contributions are T*S = T*(S(el)+S(vib)+S(rot)+S(trans)
     S(el)   - electronic entropy
     S(vib)  - vibrational entropy
     S(rot)  - rotational entropy
     S(trans)- translational entropy
The entropies will be listed as mutliplied by the temperature to get
units of energy

Electronic entropy                ...      0.00000000 Eh      0.00 kcal/mol
Vibrational entropy               ...      0.00719147 Eh      4.51 kcal/mol
Rotational entropy                ...      0.01197005 Eh      7.51 kcal/mol
Translational entropy             ...      0.01884507 Eh     11.83 kcal/mol
-----------------------------------------------------------------------
Final entropy term                ...      0.03800659 Eh     23.85 kcal/mol

CAUTION: The rotational entropy is not quite correctly treated here
         because it includes a symmetry number that is not yet correctly
         implemented in ORCA!
For a nonlinear molecule the correct rotational entropy is:
    S(rot) = R*(ln(qrot/sn)+1.5)
    R    = 8.31441 J/mol/K = 1.987191683e-3 kcal/mol/K
    qrot = 214554.7766657
    sn is the rotational symmetry number. We have assumed 3 here
       if it is different for your molecule then you should correct
       the printed rotational entropy by manually evaluating the equation
       as given above

For convenience we print out the resulting values for sn=1 - 12:
 sn= 1  qrot/sn=  214554.7767 T*S(rot)=     8.16 kcal/mol T*S(tot)=    24.50 kcal/mol
 sn= 2  qrot/sn=  107277.3883 T*S(rot)=     7.75 kcal/mol T*S(tot)=    24.09 kcal/mol
 sn= 3  qrot/sn=   71518.2589 T*S(rot)=     7.51 kcal/mol T*S(tot)=    23.85 kcal/mol
 sn= 4  qrot/sn=   53638.6942 T*S(rot)=     7.34 kcal/mol T*S(tot)=    23.68 kcal/mol
 sn= 5  qrot/sn=   42910.9553 T*S(rot)=     7.21 kcal/mol T*S(tot)=    23.55 kcal/mol
 sn= 6  qrot/sn=   35759.1294 T*S(rot)=     7.10 kcal/mol T*S(tot)=    23.44 kcal/mol
 sn= 7  qrot/sn=   30650.6824 T*S(rot)=     7.01 kcal/mol T*S(tot)=    23.35 kcal/mol
 sn= 8  qrot/sn=   26819.3471 T*S(rot)=     6.93 kcal/mol T*S(tot)=    23.27 kcal/mol
 sn= 9  qrot/sn=   23839.4196 T*S(rot)=     6.86 kcal/mol T*S(tot)=    23.20 kcal/mol
 sn=10  qrot/sn=   21455.4777 T*S(rot)=     6.80 kcal/mol T*S(tot)=    23.14 kcal/mol
 sn=11  qrot/sn=   19504.9797 T*S(rot)=     6.74 kcal/mol T*S(tot)=    23.08 kcal/mol
 sn=12  qrot/sn=   17879.5647 T*S(rot)=     6.69 kcal/mol T*S(tot)=    23.03 kcal/mol

-------------------
GIBBS FREE ENTHALPY
-------------------

The Gibbs free enthalpy is G = H - T*S

Total enthalpy                    ...   -289.88369592 Eh
Total entropy correction          ...     -0.03800659 Eh    -23.85 kcal/mol
-----------------------------------------------------------------------
Final Gibbs free enthalpy         ...   -289.92170251 Eh

For completeness - the Gibbs free enthalpy minus the electronic energy
G-E(el)                           ...      0.14670491 Eh     92.06 kcal/mol

                             ****ORCA TERMINATED NORMALLY****
TOTAL RUN TIME: 0 days 0 hours 55 minutes 16 seconds 658 msec
