                         Program Version 3.0.3 - RELEASE   -
|  1> ! NORI PBE0 def2-TZVP UseSym TightOPT Freq TightSCF Grid3 FinalGrid5 XYZFile
|  2> % pal
|  3>     nprocs 8
|  4> end
|  5> %method
|  6>     SymThresh 5.0e-2
|  7> end
|  8> % geom
|  9>     MaxIter 10
| 10> end
| 11> % maxcore 2000
| 12> % output
| 13>     printlevel mini
| 14>     print[ P_Basis ] 0
| 15>     print[ P_SCFInfo ] 1
| 16>     print[ P_SCFIterInfo ] 1
| 17>     print[ P_OrbEn ] 0
| 18>     print[ P_Cartesian ] 0
| 19> end
| 20> % elprop
| 21>     Dipole false
| 22> end
| 23> *xyz 1 1
| 24>  C        1.9247950131     0.0957969025    -0.6831796078
| 25>  N        1.7067581382    -0.1157425315     0.7683262561
| 26>  C        0.5432095527     0.0330677214    -0.1897038988
| 27>  C       -0.3445790627     1.2550233546     0.0063586815
| 28>  C       -1.7739165009     0.7064750700    -0.1133953992
| 29>  C       -1.6540379931    -0.7627352649     0.2842518168
| 30>  C       -0.3390850238    -1.1823541538    -0.3665519876
| 31>  H        2.3691468947     1.0546241914    -0.9216936039
| 32>  H        2.3549265990    -0.7604429062    -1.1891072804
| 33>  H        1.9167910021     0.6528272776     1.3958231787
| 34>  H        1.9058398345    -1.0336534760     1.1501645813
| 35>  H       -0.1803334912     1.6834648770     0.9998942801
| 36>  H       -0.1197002741     2.0341127672    -0.7229719046
| 37>  H       -2.1138646446     0.7836949882    -1.1490375807
| 38>  H       -2.4791335880     1.2638505244     0.5018242734
| 39>  H       -1.5905234866    -0.8626398591     1.3724562103
| 40>  H       -2.4958982286    -1.3680329314    -0.0504222718
| 41>  H        0.1007326699    -2.1020690017     0.0269590596
| 42>  H       -0.4821174108    -1.3287575497    -1.4418448031
| 43> *
| 44>
| 45>                          ****END OF INPUT****
 Total Charge           Charge          ....    1
 Multiplicity           Mult            ....    1
 Number of Electrons    NEL             ....   54
FINAL SINGLE POINT ENERGY      -290.106351987381

CARTESIAN COORDINATES (ANGSTROEM)
---------------------------------
  C      1.417910    0.000044    1.418718
  N     -0.000084    0.000174    1.853128
  C      0.374330    0.007399    0.385541
  C     -0.024364    1.243794   -0.409376
  C     -0.603791    0.682033   -1.716115
  C     -1.098224   -0.714162   -1.345611
  C     -0.005263   -1.221811   -0.409461
  H      1.946435    0.914968    1.657492
  H      1.943775   -0.919567    1.645783
  H     -0.370331    0.851515    2.261177
  H     -0.374864   -0.852673    2.253589
  H     -0.785266    1.811307    0.134874
  H      0.825409    1.909616   -0.566194
  H      0.185028    0.608544   -2.468940
  H     -1.384588    1.321646   -2.126015
  H     -2.055744   -0.655933   -0.818479
  H     -1.240518   -1.362397   -2.209593
  H     -0.286601   -2.074986    0.213059
  H      0.874895   -1.522042   -0.987140

FINAL SINGLE POINT ENERGY      -290.106352457626
                    ***********************HURRAY********************
 Multiplicity           Mult            ....    1
 Number of Electrons    NEL             ....   54
 Basis Dimension        Dim             ....  289
FINAL SINGLE POINT ENERGY      -290.106352604298

VIBRATIONAL FREQUENCIES
-----------------------

   0:         0.00 cm**-1
   1:         0.00 cm**-1
   2:         0.00 cm**-1
   3:         0.00 cm**-1
   4:         0.00 cm**-1
   5:         0.00 cm**-1
   6:        40.87 cm**-1
   7:       231.78 cm**-1
   8:       295.76 cm**-1
   9:       345.24 cm**-1
  10:       408.32 cm**-1
  11:       502.71 cm**-1
  12:       562.67 cm**-1
  13:       701.48 cm**-1
  14:       749.29 cm**-1
  15:       841.57 cm**-1
  16:       857.62 cm**-1
  17:       872.44 cm**-1
  18:       909.46 cm**-1
  19:       918.73 cm**-1
  20:       932.76 cm**-1
  21:       937.61 cm**-1
  22:       969.90 cm**-1
  23:       999.05 cm**-1
  24:      1006.85 cm**-1
  25:      1052.28 cm**-1
  26:      1073.41 cm**-1
  27:      1169.69 cm**-1
  28:      1192.42 cm**-1
  29:      1195.57 cm**-1
  30:      1243.07 cm**-1
  31:      1245.67 cm**-1
  32:      1264.67 cm**-1
  33:      1297.67 cm**-1
  34:      1314.24 cm**-1
  35:      1326.94 cm**-1
  36:      1352.28 cm**-1
  37:      1359.18 cm**-1
  38:      1403.19 cm**-1
  39:      1467.18 cm**-1
  40:      1470.39 cm**-1
  41:      1489.96 cm**-1
  42:      1494.59 cm**-1
  43:      1505.72 cm**-1
  44:      1626.55 cm**-1
  45:      3061.04 cm**-1
  46:      3065.87 cm**-1
  47:      3067.96 cm**-1
  48:      3082.47 cm**-1
  49:      3113.41 cm**-1
  50:      3128.01 cm**-1
  51:      3144.33 cm**-1
  52:      3149.74 cm**-1
  53:      3162.95 cm**-1
  54:      3261.70 cm**-1
  55:      3509.42 cm**-1
  56:      3618.96 cm**-1

IR SPECTRUM
-----------

 Mode    freq (cm**-1)   T**2         TX         TY         TZ
-------------------------------------------------------------------
   6:        40.87    1.042727  ( -0.745704  -0.077629  -0.693272)
   7:       231.78    1.223440  ( -0.454590  -0.763146  -0.659088)
   8:       295.76    0.119041  ( -0.078075   0.285665  -0.177032)
   9:       345.24    1.178275  (  0.296379  -0.972199   0.381135)
  10:       408.32    2.765673  (  1.130820   0.146343   1.210579)
  11:       502.71    0.741147  (  0.394584   0.071554  -0.761795)
  12:       562.67    0.769608  (  0.576703  -0.049140  -0.659247)
  13:       701.48    1.187642  ( -0.431117   0.029212   1.000463)
  14:       749.29   12.018101  ( -0.886659   0.033934   3.351236)
  15:       841.57    4.390229  (  1.761904  -0.326107  -1.086084)
  16:       857.62    1.226343  ( -0.102926   0.706266   0.846722)
  17:       872.44    0.959885  ( -0.723801  -0.429268   0.501723)
  18:       909.46    1.292075  (  0.354870  -1.070939   0.138680)
  19:       918.73    1.239289  ( -0.337716  -0.847966   0.637331)
  20:       932.76    0.969187  (  0.594811  -0.606593   0.497425)
  21:       937.61    1.884178  ( -0.351868  -0.043609   1.326071)
  22:       969.90   26.753898  ( -1.123026  -0.077700   5.048433)
  23:       999.05    5.496732  ( -0.292740   2.291288  -0.401292)
  24:      1006.85   83.760829  (  6.263558   0.112132   6.672039)
  25:      1052.28    4.275084  (  1.486991   0.211228   1.421030)
  26:      1073.41    0.055718  (  0.122252  -0.175805  -0.099321)
  27:      1169.69    0.291525  (  0.062120   0.238304   0.480496)
  28:      1192.42    1.009214  ( -0.351774   0.154122   0.928286)
  29:      1195.57    3.727896  ( -0.682591  -0.349462   1.771960)
  30:      1243.07    2.212327  ( -0.423086  -1.352818  -0.450786)
  31:      1245.67    0.461815  (  0.547614   0.119172   0.384358)
  32:      1264.67    7.093362  (  0.485335   2.587323  -0.404442)
  33:      1297.67    1.169161  (  0.635839  -0.845414  -0.223931)
  34:      1314.24    0.720177  (  0.700265  -0.239603  -0.415207)
  35:      1326.94    1.358684  (  0.111142  -0.796011   0.844214)
  36:      1352.28    0.485657  ( -0.266462  -0.197479  -0.612909)
  37:      1359.18    0.705469  (  0.240455  -0.076219  -0.801150)
  38:      1403.19    2.828581  ( -0.699214  -0.144843  -1.522728)
  39:      1467.18   18.855048  ( -1.975084   3.866656  -0.055312)
  40:      1470.39    7.670657  (  1.123311   1.257552   2.197133)
  41:      1489.96   10.835673  (  2.476047   1.551718  -1.515598)
  42:      1494.59    8.275178  (  2.720224   0.364242   0.861908)
  43:      1505.72    4.842211  (  1.556455  -0.029792   1.555240)
  44:      1626.55   66.462349  ( -4.250441  -0.128032   6.955552)
  45:      3061.04    4.624050  ( -1.373927  -1.293449   1.031196)
  46:      3065.87    9.254775  (  2.679035  -1.365336   0.461959)
  47:      3067.96    8.272506  (  0.917741   1.357239   2.363929)
  48:      3082.47   10.983369  (  1.830700   0.478923  -2.720761)
  49:      3113.41    7.652254  ( -0.858583  -1.863188   1.855699)
  50:      3128.01    2.338908  (  0.937098   1.049571  -0.599297)
  51:      3144.33    2.977809  (  0.869466   0.177178   1.480016)
  52:      3149.74    6.419270  ( -1.877186   1.319418   1.074514)
  53:      3162.95    0.965848  (  0.935672   0.014298   0.300270)
  54:      3261.70    3.369716  ( -0.026199  -1.834777  -0.051220)
  55:      3509.42   87.650946  ( -5.441077   0.084502   7.618299)
  56:      3618.96   99.053236  (  0.048417   9.952429  -0.006435)

--------------------------
THERMOCHEMISTRY AT 298.15K
--------------------------

Temperature         ... 298.15 K
Pressure            ... 1.00 atm
Total Mass          ... 98.17 AMU

Throughout the following assumptions are being made:
  (1) The electronic state is orbitally nondegenerate
  (2) There are no thermally accessible electronically excited states
  (3) Hindered rotations indicated by low frequency modes) are not
      treated as such but are treated as vibrations and this may
      case some error
  (4) All equations used are the standard statistical mechanics
      equations for an ideal gas
  (5) All vibrations are strinctly harmonic

------------
INNER ENERGY
------------

The inner energy is: U= E(el) + E(ZPE) + E(vib) + E(rot) + E(trans)
    E(el)   - is the total energy from the electronic structure calculation
              = E(kin-el) + E(nuc-el) + E(el-el) + E(nuc-nuc)
    E(ZPE)  - the the zero temperature vibrational energy from the frequency calculation
    E(vib)  - the the finite temperature correction to E(ZPE) due to population
              of excietd vibrational states
    E(rot)  - is the rotational thermal energy
    E(trans)- is the translational thermal energy

Summary of contributions to the inner energy U:
Electronic energy                ...   -290.10635260 Eh
Zero point energy                ...      0.17768489 Eh     111.50 kcal/mol
Thermal vibrational correction   ...      0.00381026 Eh       2.39 kcal/mol
Thermal rotational correction    ...      0.00141627 Eh       0.89 kcal/mol
Thermal translational correction ...      0.00141627 Eh       0.89 kcal/mol
-----------------------------------------------------------------------
Total thermal energy                   -289.92202490 Eh

Summary of corrections to the electronic energy:
(perhaps to be used in another calculation)
Total thermal correction                  0.00664281 Eh       4.17 kcal/mol
Non-thermal (ZPE) correction              0.17768489 Eh     111.50 kcal/mol
-----------------------------------------------------------------------
Total correction                          0.18432770 Eh     115.67 kcal/mol

--------
ENTHALPY
--------

The enthalpy is H = U + kB*T
                kB is Boltzmann's constant
Total free energy                 ...   -289.92202490 Eh
Thermal Enthalpy correction       ...      0.00094421 Eh       0.59 kcal/mol
-----------------------------------------------------------------------
Total Enthalpy                    ...   -289.92108069 Eh

-------
ENTROPY
-------

The entropy contributions are T*S = T*(S(el)+S(vib)+S(rot)+S(trans)
     S(el)   - electronic entropy
     S(vib)  - vibrational entropy
     S(rot)  - rotational entropy
     S(trans)- translational entropy
The entropies will be listed as mutliplied by the temperature to get
units of energy

Electronic entropy                ...      0.00000000 Eh      0.00 kcal/mol
Vibrational entropy               ...      0.00677078 Eh      4.25 kcal/mol
Rotational entropy                ...      0.01185972 Eh      7.44 kcal/mol
Translational entropy             ...      0.01884507 Eh     11.83 kcal/mol
-----------------------------------------------------------------------
Final entropy term                ...      0.03747558 Eh     23.52 kcal/mol

CAUTION: The rotational entropy is not quite correctly treated here
         because it includes a symmetry number that is not yet correctly
         implemented in ORCA!
For a nonlinear molecule the correct rotational entropy is:
    S(rot) = R*(ln(qrot/sn)+1.5)
    R    = 8.31441 J/mol/K = 1.987191683e-3 kcal/mol/K
    qrot = 190893.6920080
    sn is the rotational symmetry number. We have assumed 3 here
       if it is different for your molecule then you should correct
       the printed rotational entropy by manually evaluating the equation
       as given above

For convenience we print out the resulting values for sn=1 - 12:
 sn= 1  qrot/sn=  190893.6920 T*S(rot)=     8.09 kcal/mol T*S(tot)=    24.17 kcal/mol
 sn= 2  qrot/sn=   95446.8460 T*S(rot)=     7.68 kcal/mol T*S(tot)=    23.76 kcal/mol
 sn= 3  qrot/sn=   63631.2307 T*S(rot)=     7.44 kcal/mol T*S(tot)=    23.52 kcal/mol
 sn= 4  qrot/sn=   47723.4230 T*S(rot)=     7.27 kcal/mol T*S(tot)=    23.35 kcal/mol
 sn= 5  qrot/sn=   38178.7384 T*S(rot)=     7.14 kcal/mol T*S(tot)=    23.21 kcal/mol
 sn= 6  qrot/sn=   31815.6153 T*S(rot)=     7.03 kcal/mol T*S(tot)=    23.11 kcal/mol
 sn= 7  qrot/sn=   27270.5274 T*S(rot)=     6.94 kcal/mol T*S(tot)=    23.01 kcal/mol
 sn= 8  qrot/sn=   23861.7115 T*S(rot)=     6.86 kcal/mol T*S(tot)=    22.94 kcal/mol
 sn= 9  qrot/sn=   21210.4102 T*S(rot)=     6.79 kcal/mol T*S(tot)=    22.87 kcal/mol
 sn=10  qrot/sn=   19089.3692 T*S(rot)=     6.73 kcal/mol T*S(tot)=    22.80 kcal/mol
 sn=11  qrot/sn=   17353.9720 T*S(rot)=     6.67 kcal/mol T*S(tot)=    22.75 kcal/mol
 sn=12  qrot/sn=   15907.8077 T*S(rot)=     6.62 kcal/mol T*S(tot)=    22.69 kcal/mol

-------------------
GIBBS FREE ENTHALPY
-------------------

The Gibbs free enthalpy is G = H - T*S

Total enthalpy                    ...   -289.92108069 Eh
Total entropy correction          ...     -0.03747558 Eh    -23.52 kcal/mol
-----------------------------------------------------------------------
Final Gibbs free enthalpy         ...   -289.95855627 Eh

For completeness - the Gibbs free enthalpy minus the electronic energy
G-E(el)                           ...      0.14779633 Eh     92.74 kcal/mol

                             ****ORCA TERMINATED NORMALLY****
TOTAL RUN TIME: 0 days 0 hours 55 minutes 9 seconds 983 msec
