                         Program Version 3.0.3 - RELEASE   -
|  1> ! NORI PBE0 def2-TZVP UseSym TightOPT Freq TightSCF Grid3 FinalGrid5 XYZFile
|  2> % pal
|  3>     nprocs 8
|  4> end
|  5> %method
|  6>     SymThresh 5.0e-2
|  7> end
|  8> % geom
|  9>     MaxIter 10
| 10> end
| 11> % maxcore 2000
| 12> % output
| 13>     printlevel mini
| 14>     print[ P_Basis ] 0
| 15>     print[ P_SCFInfo ] 1
| 16>     print[ P_SCFIterInfo ] 1
| 17>     print[ P_OrbEn ] 0
| 18>     print[ P_Cartesian ] 0
| 19> end
| 20> % elprop
| 21>     Dipole false
| 22> end
| 23> *xyz 1 1
| 24>  C       -0.9972700017    -0.0363644997     1.1138897518
| 25>  C       -0.6211405419     1.0280561429     0.0697262159
| 26>  C        0.8764923148     1.2695070316     0.0073316988
| 27>  C        1.6091292207    -0.0407343681    -0.0315419021
| 28>  C        0.9170707098    -1.1752076999    -0.0168011591
| 29>  C       -0.5794706801    -1.0609463329     0.0441901475
| 30>  N       -0.9670752510    -0.0098912443    -1.0049649820
| 31>  H       -0.4293823183    -0.0473232598     2.0400767550
| 32>  H       -2.0672574580    -0.0494250889     1.3244486687
| 33>  H       -1.2174497243     1.9349142135    -0.0121925834
| 34>  H        1.1375904117     1.8937563498    -0.8550379947
| 35>  H        1.1688561831     1.8491765988     0.8898079708
| 36>  H        2.6921393511    -0.0321637374    -0.0751719189
| 37>  H        1.3751004756    -2.1558437631    -0.0358711982
| 38>  H       -1.1220768537    -1.9966030523    -0.0658074001
| 39>  H       -1.9616798067    -0.0151248981    -1.2268686371
| 40>  H       -0.4149460310    -0.0056523919    -1.8630834329
| 41> *
| 42>
| 43>                          ****END OF INPUT****
 Total Charge           Charge          ....    1
 Multiplicity           Mult            ....    1
 Number of Electrons    NEL             ....   52
FINAL SINGLE POINT ENERGY      -288.883820107859

CARTESIAN COORDINATES (ANGSTROEM)
---------------------------------
  C      1.489818    0.000072   -0.109023
  C      0.460718    1.038325    0.367399
  C     -0.669616    1.227801   -0.628560
  C     -1.181252   -0.106864   -1.088161
  C     -0.635171   -1.216752   -0.602517
  C      0.481780   -1.050882    0.388252
  N      0.000294   -0.000036    1.397709
  H      1.722613   -0.019118   -1.170012
  H      2.407033    0.026008    0.480675
  H      0.803893    1.963835    0.825833
  H     -1.475432    1.832168   -0.196948
  H     -0.288184    1.807552   -1.475934
  H     -1.992023   -0.135734   -1.806745
  H     -0.946247   -2.212538   -0.891291
  H      0.827348   -1.968786    0.857198
  H      0.564056    0.025924    2.246365
  H     -0.991827   -0.024995    1.634787

FINAL SINGLE POINT ENERGY      -288.883820697979
                    ***********************HURRAY********************
 Multiplicity           Mult            ....    1
 Number of Electrons    NEL             ....   52
 Basis Dimension        Dim             ....  277
FINAL SINGLE POINT ENERGY      -288.883820801200

VIBRATIONAL FREQUENCIES
-----------------------

   0:         0.00 cm**-1
   1:         0.00 cm**-1
   2:         0.00 cm**-1
   3:         0.00 cm**-1
   4:         0.00 cm**-1
   5:         0.00 cm**-1
   6:       288.71 cm**-1
   7:       343.27 cm**-1
   8:       408.11 cm**-1
   9:       495.88 cm**-1
  10:       515.50 cm**-1
  11:       678.21 cm**-1
  12:       722.75 cm**-1
  13:       803.15 cm**-1
  14:       816.36 cm**-1
  15:       858.40 cm**-1
  16:       886.05 cm**-1
  17:       923.80 cm**-1
  18:       950.44 cm**-1
  19:       955.03 cm**-1
  20:       980.94 cm**-1
  21:       999.44 cm**-1
  22:      1042.81 cm**-1
  23:      1087.33 cm**-1
  24:      1105.32 cm**-1
  25:      1117.80 cm**-1
  26:      1130.96 cm**-1
  27:      1172.60 cm**-1
  28:      1199.30 cm**-1
  29:      1222.07 cm**-1
  30:      1274.89 cm**-1
  31:      1290.32 cm**-1
  32:      1324.99 cm**-1
  33:      1343.86 cm**-1
  34:      1371.99 cm**-1
  35:      1383.59 cm**-1
  36:      1409.49 cm**-1
  37:      1460.44 cm**-1
  38:      1494.04 cm**-1
  39:      1625.63 cm**-1
  40:      1712.04 cm**-1
  41:      3054.66 cm**-1
  42:      3090.80 cm**-1
  43:      3107.42 cm**-1
  44:      3153.47 cm**-1
  45:      3168.25 cm**-1
  46:      3190.71 cm**-1
  47:      3211.84 cm**-1
  48:      3232.55 cm**-1
  49:      3449.94 cm**-1
  50:      3536.09 cm**-1

IR SPECTRUM
-----------

 Mode    freq (cm**-1)   T**2         TX         TY         TZ
-------------------------------------------------------------------
   6:       288.71    1.379123  ( -0.503573  -0.859920  -0.621349)
   7:       343.27    1.495058  (  0.574435  -0.159678   1.067514)
   8:       408.11    2.748315  (  1.502802   0.377775   0.589225)
   9:       495.88    4.517148  (  2.084615  -0.177020  -0.374421)
  10:       515.50    0.078176  (  0.203826  -0.106105  -0.159289)
  11:       678.21    1.619074  ( -1.203855  -0.272571  -0.309050)
  12:       722.75   38.943070  (  4.546788   0.088596  -4.273399)
  13:       803.15   16.666449  (  0.888971   0.093817  -3.983388)
  14:       816.36    0.580984  (  0.093072   0.707989  -0.266596)
  15:       858.40    3.829916  (  0.642738   1.848070   0.037972)
  16:       886.05    1.854921  ( -0.399300  -0.889939   0.950521)
  17:       923.80    9.290462  ( -1.909806   0.874679   2.208628)
  18:       950.44    5.760566  ( -1.592126   1.401526  -1.123132)
  19:       955.03    1.545934  ( -0.585462   0.387658  -1.026103)
  20:       980.94    0.759225  (  0.836786  -0.024893  -0.241649)
  21:       999.44    0.817997  (  0.897852  -0.104457   0.030801)
  22:      1042.81    4.120576  (  1.712936  -0.102969  -1.084354)
  23:      1087.33    1.123532  ( -0.338921  -0.461267  -0.892131)
  24:      1105.32    2.907490  (  0.561337  -1.238723  -1.028571)
  25:      1117.80    8.253988  (  2.482113   0.068966   1.445111)
  26:      1130.96    8.122164  (  1.738036  -1.986639   1.074552)
  27:      1172.60    7.629048  ( -0.961077   2.567772   0.334556)
  28:      1199.30    2.936924  ( -0.400618  -1.628086  -0.354634)
  29:      1222.07   18.672247  (  1.689389   3.967030  -0.284395)
  30:      1274.89   11.161017  (  0.536663  -3.291691   0.194379)
  31:      1290.32   41.054604  (  0.789153  -6.333126   0.568642)
  32:      1324.99    4.219139  ( -0.364616  -1.406962  -1.451431)
  33:      1343.86    0.459498  (  0.165836  -0.355455   0.552855)
  34:      1371.99    4.770338  ( -0.944116  -0.579430  -1.882351)
  35:      1383.59    8.696473  (  0.829831   2.815175   0.287478)
  36:      1409.49   13.141139  ( -1.729832   2.800353  -1.518829)
  37:      1460.44   15.050907  ( -1.745829   3.232393  -1.246845)
  38:      1494.04   16.088496  ( -2.767193  -0.585598   2.843978)
  39:      1625.63   71.303310  (  2.718783  -0.011357  -7.994461)
  40:      1712.04    5.556501  ( -0.891834   2.126094  -0.490773)
  41:      3054.66    1.760491  (  0.772579  -0.963031  -0.485987)
  42:      3090.80    0.598188  ( -0.489786   0.502828  -0.324749)
  43:      3107.42    3.202410  (  1.623056   0.067712   0.750677)
  44:      3153.47    2.293819  ( -0.427826  -1.337091  -0.568306)
  45:      3168.25    1.899391  ( -0.415073   1.226511  -0.471991)
  46:      3190.71    0.215928  ( -0.429592   0.021042  -0.175886)
  47:      3211.84    1.160624  (  0.452767  -0.911652   0.352869)
  48:      3232.55    1.319339  ( -0.193040  -1.086925  -0.317283)
  49:      3449.94   48.917542  ( -2.761224  -0.386436   6.414347)
  50:      3536.09   65.324850  ( -6.888494  -0.182720  -4.223756)

--------------------------
THERMOCHEMISTRY AT 298.15K
--------------------------

Temperature         ... 298.15 K
Pressure            ... 1.00 atm
Total Mass          ... 96.15 AMU

Throughout the following assumptions are being made:
  (1) The electronic state is orbitally nondegenerate
  (2) There are no thermally accessible electronically excited states
  (3) Hindered rotations indicated by low frequency modes) are not
      treated as such but are treated as vibrations and this may
      case some error
  (4) All equations used are the standard statistical mechanics
      equations for an ideal gas
  (5) All vibrations are strinctly harmonic

------------
INNER ENERGY
------------

The inner energy is: U= E(el) + E(ZPE) + E(vib) + E(rot) + E(trans)
    E(el)   - is the total energy from the electronic structure calculation
              = E(kin-el) + E(nuc-el) + E(el-el) + E(nuc-nuc)
    E(ZPE)  - the the zero temperature vibrational energy from the frequency calculation
    E(vib)  - the the finite temperature correction to E(ZPE) due to population
              of excietd vibrational states
    E(rot)  - is the rotational thermal energy
    E(trans)- is the translational thermal energy

Summary of contributions to the inner energy U:
Electronic energy                ...   -288.88382080 Eh
Zero point energy                ...      0.15626229 Eh      98.06 kcal/mol
Thermal vibrational correction   ...      0.00251698 Eh       1.58 kcal/mol
Thermal rotational correction    ...      0.00141627 Eh       0.89 kcal/mol
Thermal translational correction ...      0.00141627 Eh       0.89 kcal/mol
-----------------------------------------------------------------------
Total thermal energy                   -288.72220898 Eh

Summary of corrections to the electronic energy:
(perhaps to be used in another calculation)
Total thermal correction                  0.00534953 Eh       3.36 kcal/mol
Non-thermal (ZPE) correction              0.15626229 Eh      98.06 kcal/mol
-----------------------------------------------------------------------
Total correction                          0.16161182 Eh     101.41 kcal/mol

--------
ENTHALPY
--------

The enthalpy is H = U + kB*T
                kB is Boltzmann's constant
Total free energy                 ...   -288.72220898 Eh
Thermal Enthalpy correction       ...      0.00094421 Eh       0.59 kcal/mol
-----------------------------------------------------------------------
Total Enthalpy                    ...   -288.72126477 Eh

-------
ENTROPY
-------

The entropy contributions are T*S = T*(S(el)+S(vib)+S(rot)+S(trans)
     S(el)   - electronic entropy
     S(vib)  - vibrational entropy
     S(rot)  - rotational entropy
     S(trans)- translational entropy
The entropies will be listed as mutliplied by the temperature to get
units of energy

Electronic entropy                ...      0.00000000 Eh      0.00 kcal/mol
Vibrational entropy               ...      0.00352456 Eh      2.21 kcal/mol
Rotational entropy                ...      0.01158303 Eh      7.27 kcal/mol
Translational entropy             ...      0.01881568 Eh     11.81 kcal/mol
-----------------------------------------------------------------------
Final entropy term                ...      0.03392328 Eh     21.29 kcal/mol

CAUTION: The rotational entropy is not quite correctly treated here
         because it includes a symmetry number that is not yet correctly
         implemented in ORCA!
For a nonlinear molecule the correct rotational entropy is:
    S(rot) = R*(ln(qrot/sn)+1.5)
    R    = 8.31441 J/mol/K = 1.987191683e-3 kcal/mol/K
    qrot = 142403.9701674
    sn is the rotational symmetry number. We have assumed 3 here
       if it is different for your molecule then you should correct
       the printed rotational entropy by manually evaluating the equation
       as given above

For convenience we print out the resulting values for sn=1 - 12:
 sn= 1  qrot/sn=  142403.9702 T*S(rot)=     7.92 kcal/mol T*S(tot)=    21.94 kcal/mol
 sn= 2  qrot/sn=   71201.9851 T*S(rot)=     7.51 kcal/mol T*S(tot)=    21.53 kcal/mol
 sn= 3  qrot/sn=   47467.9901 T*S(rot)=     7.27 kcal/mol T*S(tot)=    21.29 kcal/mol
 sn= 4  qrot/sn=   35600.9925 T*S(rot)=     7.10 kcal/mol T*S(tot)=    21.12 kcal/mol
 sn= 5  qrot/sn=   28480.7940 T*S(rot)=     6.97 kcal/mol T*S(tot)=    20.98 kcal/mol
 sn= 6  qrot/sn=   23733.9950 T*S(rot)=     6.86 kcal/mol T*S(tot)=    20.88 kcal/mol
 sn= 7  qrot/sn=   20343.4243 T*S(rot)=     6.77 kcal/mol T*S(tot)=    20.79 kcal/mol
 sn= 8  qrot/sn=   17800.4963 T*S(rot)=     6.69 kcal/mol T*S(tot)=    20.71 kcal/mol
 sn= 9  qrot/sn=   15822.6634 T*S(rot)=     6.62 kcal/mol T*S(tot)=    20.64 kcal/mol
 sn=10  qrot/sn=   14240.3970 T*S(rot)=     6.56 kcal/mol T*S(tot)=    20.57 kcal/mol
 sn=11  qrot/sn=   12945.8155 T*S(rot)=     6.50 kcal/mol T*S(tot)=    20.52 kcal/mol
 sn=12  qrot/sn=   11866.9975 T*S(rot)=     6.45 kcal/mol T*S(tot)=    20.47 kcal/mol

-------------------
GIBBS FREE ENTHALPY
-------------------

The Gibbs free enthalpy is G = H - T*S

Total enthalpy                    ...   -288.72126477 Eh
Total entropy correction          ...     -0.03392328 Eh    -21.29 kcal/mol
-----------------------------------------------------------------------
Final Gibbs free enthalpy         ...   -288.75518805 Eh

For completeness - the Gibbs free enthalpy minus the electronic energy
G-E(el)                           ...      0.12863275 Eh     80.72 kcal/mol

                             ****ORCA TERMINATED NORMALLY****
TOTAL RUN TIME: 0 days 0 hours 52 minutes 57 seconds 706 msec
