                         Program Version 3.0.3 - RELEASE   -
|  1> ! NORI PBE0 def2-TZVP UseSym TightOPT Freq TightSCF Grid3 FinalGrid5 XYZFile
|  2> % pal
|  3>     nprocs 8
|  4> end
|  5> %method
|  6>     SymThresh 5.0e-2
|  7> end
|  8> % geom
|  9>     MaxIter 10
| 10> end
| 11> % maxcore 2000
| 12> % output
| 13>     printlevel mini
| 14>     print[ P_Basis ] 0
| 15>     print[ P_SCFInfo ] 1
| 16>     print[ P_SCFIterInfo ] 1
| 17>     print[ P_OrbEn ] 0
| 18>     print[ P_Cartesian ] 0
| 19> end
| 20> % elprop
| 21>     Dipole false
| 22> end
| 23> *xyz 1 1
| 24>  C       -0.9541159596    -0.0838980547     1.0901900173
| 25>  C       -0.5843541928    -1.1254873284     0.0189575164
| 26>  C       -1.0409649850    -0.0592693270    -0.9929972108
| 27>  N       -0.6288896827     0.9690809266     0.0455289191
| 28>  C        0.8398283887     1.2466687998    -0.0124412080
| 29>  C        1.5874957066    -0.0499194494    -0.0588860013
| 30>  C        0.9208623892    -1.1968869363    -0.0444874686
| 31>  H       -0.3459273818    -0.0091750414     1.9891182876
| 32>  H       -2.0182312458    -0.0309271657     1.3146097448
| 33>  H       -1.0949387816    -2.0828731865     0.0288407315
| 34>  H       -2.1202656023    -0.0020915751    -1.1264325250
| 35>  H       -0.5098823367     0.0371744987    -1.9375181481
| 36>  H       -1.1631068471     1.8359135207     0.0780095562
| 37>  H        1.0248774104     1.8616136426    -0.8980508349
| 38>  H        1.0983741400     1.8401457372     0.8694652616
| 39>  H        2.6683916766     0.0051419171    -0.1034145886
| 40>  H        1.4203973040    -2.1570509782    -0.0766520492
| 41> *
| 42>
| 43>                          ****END OF INPUT****
 Total Charge           Charge          ....    1
 Multiplicity           Mult            ....    1
 Number of Electrons    NEL             ....   52
FINAL SINGLE POINT ENERGY      -288.871605473250

CARTESIAN COORDINATES (ANGSTROEM)
---------------------------------
  C      0.477902    0.871724    1.042463
  C     -0.632566    1.091834   -0.000000
  C      0.477902    0.871724   -1.042463
  N      1.155308   -0.000065   -0.000000
  C      0.596102   -1.387526   -0.000000
  C     -0.899654   -1.318434    0.000000
  C     -1.505730   -0.138275   -0.000000
  H      0.242230    0.345828    1.965080
  H      1.103290    1.745192    1.221367
  H     -1.163172    2.038210   -0.000000
  H      1.103290    1.745192   -1.221367
  H      0.242230    0.345828   -1.965080
  H      2.173775   -0.016932   -0.000000
  H      0.985319   -1.900168   -0.884288
  H      0.985319   -1.900168    0.884288
  H     -1.436732   -2.258804    0.000000
  H     -2.584190   -0.041546   -0.000000

FINAL SINGLE POINT ENERGY      -288.871606095619
                    ***********************HURRAY********************
 Multiplicity           Mult            ....    1
 Number of Electrons    NEL             ....   52
 Basis Dimension        Dim             ....  277
FINAL SINGLE POINT ENERGY      -288.871606228774

VIBRATIONAL FREQUENCIES
-----------------------

   0:         0.00 cm**-1
   1:         0.00 cm**-1
   2:         0.00 cm**-1
   3:         0.00 cm**-1
   4:         0.00 cm**-1
   5:         0.00 cm**-1
   6:       284.61 cm**-1
   7:       351.41 cm**-1
   8:       442.24 cm**-1
   9:       498.73 cm**-1
  10:       506.96 cm**-1
  11:       693.46 cm**-1
  12:       727.58 cm**-1
  13:       821.66 cm**-1
  14:       829.43 cm**-1
  15:       889.69 cm**-1
  16:       897.25 cm**-1
  17:       938.49 cm**-1
  18:       953.68 cm**-1
  19:       986.48 cm**-1
  20:       991.97 cm**-1
  21:       998.90 cm**-1
  22:      1047.09 cm**-1
  23:      1088.51 cm**-1
  24:      1124.42 cm**-1
  25:      1132.81 cm**-1
  26:      1171.28 cm**-1
  27:      1184.86 cm**-1
  28:      1217.27 cm**-1
  29:      1256.08 cm**-1
  30:      1280.40 cm**-1
  31:      1305.84 cm**-1
  32:      1339.57 cm**-1
  33:      1344.54 cm**-1
  34:      1372.51 cm**-1
  35:      1393.20 cm**-1
  36:      1441.86 cm**-1
  37:      1479.35 cm**-1
  38:      1479.85 cm**-1
  39:      1515.00 cm**-1
  40:      1724.53 cm**-1
  41:      3070.37 cm**-1
  42:      3113.08 cm**-1
  43:      3116.14 cm**-1
  44:      3117.84 cm**-1
  45:      3189.60 cm**-1
  46:      3194.03 cm**-1
  47:      3195.58 cm**-1
  48:      3217.19 cm**-1
  49:      3233.50 cm**-1
  50:      3496.17 cm**-1

IR SPECTRUM
-----------

 Mode    freq (cm**-1)   T**2         TX         TY         TZ
-------------------------------------------------------------------
   6:       284.61    0.332029  (  0.000000  -0.000000  -0.576220)
   7:       351.41    0.431310  ( -0.000000   0.000000  -0.656742)
   8:       442.24    0.029829  ( -0.123554  -0.120677  -0.000000)
   9:       498.73    8.119447  (  0.000000  -0.000000  -2.849464)
  10:       506.96    1.075156  ( -1.034159   0.075312  -0.000000)
  11:       693.46    1.917339  ( -0.911148  -1.042664   0.000000)
  12:       727.58   43.025238  (  0.000000  -0.000000   6.559363)
  13:       821.66    2.548242  ( -1.452164   0.662920  -0.000000)
  14:       829.43    1.613182  ( -0.000000   0.000000  -1.270111)
  15:       889.69    5.556648  (  0.000000  -0.000000  -2.357254)
  16:       897.25    2.836284  (  0.813528  -1.474604  -0.000000)
  17:       938.49    0.930232  (  0.946223   0.186797  -0.000000)
  18:       953.68    0.403416  (  0.155157  -0.615907  -0.000000)
  19:       986.48    7.914818  (  0.276032  -2.799754  -0.000000)
  20:       991.97    2.431026  ( -0.000000   0.000000   1.559175)
  21:       998.90    1.371914  (  0.000000  -0.000000   1.171287)
  22:      1047.09    0.246286  ( -0.000000   0.000000  -0.496272)
  23:      1088.51    2.181697  ( -0.341655   1.437000   0.000000)
  24:      1124.42   10.155768  (  0.094234   3.185418   0.000001)
  25:      1132.81    8.315497  (  0.000000  -0.000000  -2.883660)
  26:      1171.28    0.340787  (  0.566124   0.142446  -0.000000)
  27:      1184.86    2.089592  (  0.000000  -0.000000  -1.445542)
  28:      1217.27    1.595317  (  1.035397   0.723375   0.000000)
  29:      1256.08   16.467888  ( -0.000000   0.000000   4.058065)
  30:      1280.40    1.503119  (  0.000000  -0.000000   1.226017)
  31:      1305.84    3.713766  (  1.474941   1.240288   0.000000)
  32:      1339.57   24.355542  ( -0.000000   0.000000  -4.935133)
  33:      1344.54    0.898992  ( -0.606958   0.728419   0.000000)
  34:      1372.51   11.310404  (  0.652029   3.299282  -0.000001)
  35:      1393.20    9.781025  (  2.461379  -1.929414   0.000002)
  36:      1441.86   21.711525  ( -0.111729  -4.658223  -0.000003)
  37:      1479.35   11.812323  (  1.777027  -2.941853   0.000012)
  38:      1479.85   18.568879  ( -0.000000   0.000000  -4.309162)
  39:      1515.00    8.118324  (  2.754948  -0.727039   0.000004)
  40:      1724.53    0.265692  (  0.385764   0.341874  -0.000000)
  41:      3070.37    1.802907  ( -1.023762   0.868802  -0.000018)
  42:      3113.08    1.991108  (  0.000000  -0.000000   1.411066)
  43:      3116.14    0.065628  ( -0.000000   0.000000   0.256179)
  44:      3117.84    1.772941  (  1.086243   0.770076   0.000000)
  45:      3189.60    0.240602  (  0.160175  -0.463623  -0.000000)
  46:      3194.03    0.199215  (  0.000000  -0.000000   0.446335)
  47:      3195.58    0.102811  ( -0.231624  -0.221723  -0.000000)
  48:      3217.19    2.272958  ( -0.112458   1.503433   0.000000)
  49:      3233.50    1.739719  (  1.250501   0.419483   0.000000)
  50:      3496.17   61.421779  ( -7.836630   0.094915   0.000000)

--------------------------
THERMOCHEMISTRY AT 298.15K
--------------------------

Temperature         ... 298.15 K
Pressure            ... 1.00 atm
Total Mass          ... 96.15 AMU

Throughout the following assumptions are being made:
  (1) The electronic state is orbitally nondegenerate
  (2) There are no thermally accessible electronically excited states
  (3) Hindered rotations indicated by low frequency modes) are not
      treated as such but are treated as vibrations and this may
      case some error
  (4) All equations used are the standard statistical mechanics
      equations for an ideal gas
  (5) All vibrations are strinctly harmonic

------------
INNER ENERGY
------------

The inner energy is: U= E(el) + E(ZPE) + E(vib) + E(rot) + E(trans)
    E(el)   - is the total energy from the electronic structure calculation
              = E(kin-el) + E(nuc-el) + E(el-el) + E(nuc-nuc)
    E(ZPE)  - the the zero temperature vibrational energy from the frequency calculation
    E(vib)  - the the finite temperature correction to E(ZPE) due to population
              of excietd vibrational states
    E(rot)  - is the rotational thermal energy
    E(trans)- is the translational thermal energy

Summary of contributions to the inner energy U:
Electronic energy                ...   -288.87160623 Eh
Zero point energy                ...      0.15640758 Eh      98.15 kcal/mol
Thermal vibrational correction   ...      0.00243779 Eh       1.53 kcal/mol
Thermal rotational correction    ...      0.00141627 Eh       0.89 kcal/mol
Thermal translational correction ...      0.00141627 Eh       0.89 kcal/mol
-----------------------------------------------------------------------
Total thermal energy                   -288.70992832 Eh

Summary of corrections to the electronic energy:
(perhaps to be used in another calculation)
Total thermal correction                  0.00527033 Eh       3.31 kcal/mol
Non-thermal (ZPE) correction              0.15640758 Eh      98.15 kcal/mol
-----------------------------------------------------------------------
Total correction                          0.16167791 Eh     101.45 kcal/mol

--------
ENTHALPY
--------

The enthalpy is H = U + kB*T
                kB is Boltzmann's constant
Total free energy                 ...   -288.70992832 Eh
Thermal Enthalpy correction       ...      0.00094421 Eh       0.59 kcal/mol
-----------------------------------------------------------------------
Total Enthalpy                    ...   -288.70898411 Eh

-------
ENTROPY
-------

The entropy contributions are T*S = T*(S(el)+S(vib)+S(rot)+S(trans)
     S(el)   - electronic entropy
     S(vib)  - vibrational entropy
     S(rot)  - rotational entropy
     S(trans)- translational entropy
The entropies will be listed as mutliplied by the temperature to get
units of energy

Electronic entropy                ...      0.00000000 Eh      0.00 kcal/mol
Vibrational entropy               ...      0.00340806 Eh      2.14 kcal/mol
Rotational entropy                ...      0.01156422 Eh      7.26 kcal/mol
Translational entropy             ...      0.01881568 Eh     11.81 kcal/mol
-----------------------------------------------------------------------
Final entropy term                ...      0.03378797 Eh     21.20 kcal/mol

CAUTION: The rotational entropy is not quite correctly treated here
         because it includes a symmetry number that is not yet correctly
         implemented in ORCA!
For a nonlinear molecule the correct rotational entropy is:
    S(rot) = R*(ln(qrot/sn)+1.5)
    R    = 8.31441 J/mol/K = 1.987191683e-3 kcal/mol/K
    qrot = 139595.0345371
    sn is the rotational symmetry number. We have assumed 3 here
       if it is different for your molecule then you should correct
       the printed rotational entropy by manually evaluating the equation
       as given above

For convenience we print out the resulting values for sn=1 - 12:
 sn= 1  qrot/sn=  139595.0345 T*S(rot)=     7.91 kcal/mol T*S(tot)=    21.85 kcal/mol
 sn= 2  qrot/sn=   69797.5173 T*S(rot)=     7.50 kcal/mol T*S(tot)=    21.44 kcal/mol
 sn= 3  qrot/sn=   46531.6782 T*S(rot)=     7.26 kcal/mol T*S(tot)=    21.20 kcal/mol
 sn= 4  qrot/sn=   34898.7586 T*S(rot)=     7.09 kcal/mol T*S(tot)=    21.03 kcal/mol
 sn= 5  qrot/sn=   27919.0069 T*S(rot)=     6.95 kcal/mol T*S(tot)=    20.90 kcal/mol
 sn= 6  qrot/sn=   23265.8391 T*S(rot)=     6.85 kcal/mol T*S(tot)=    20.79 kcal/mol
 sn= 7  qrot/sn=   19942.1478 T*S(rot)=     6.75 kcal/mol T*S(tot)=    20.70 kcal/mol
 sn= 8  qrot/sn=   17449.3793 T*S(rot)=     6.68 kcal/mol T*S(tot)=    20.62 kcal/mol
 sn= 9  qrot/sn=   15510.5594 T*S(rot)=     6.61 kcal/mol T*S(tot)=    20.55 kcal/mol
 sn=10  qrot/sn=   13959.5035 T*S(rot)=     6.54 kcal/mol T*S(tot)=    20.49 kcal/mol
 sn=11  qrot/sn=   12690.4577 T*S(rot)=     6.49 kcal/mol T*S(tot)=    20.43 kcal/mol
 sn=12  qrot/sn=   11632.9195 T*S(rot)=     6.44 kcal/mol T*S(tot)=    20.38 kcal/mol

-------------------
GIBBS FREE ENTHALPY
-------------------

The Gibbs free enthalpy is G = H - T*S

Total enthalpy                    ...   -288.70898411 Eh
Total entropy correction          ...     -0.03378797 Eh    -21.20 kcal/mol
-----------------------------------------------------------------------
Final Gibbs free enthalpy         ...   -288.74277208 Eh

For completeness - the Gibbs free enthalpy minus the electronic energy
G-E(el)                           ...      0.12883415 Eh     80.84 kcal/mol

                             ****ORCA TERMINATED NORMALLY****
TOTAL RUN TIME: 0 days 0 hours 53 minutes 34 seconds 142 msec
