                         Program Version 3.0.3 - RELEASE   -
|  1> ! NORI PBE0 def2-TZVP UseSym TightOPT Freq TightSCF Grid3 FinalGrid5 XYZFile
|  2> % pal
|  3>     nprocs 8
|  4> end
|  5> %method
|  6>     SymThresh 5.0e-2
|  7> end
|  8> % geom
|  9>     MaxIter 10
| 10> end
| 11> % maxcore 2000
| 12> % output
| 13>     printlevel mini
| 14>     print[ P_Basis ] 0
| 15>     print[ P_SCFInfo ] 1
| 16>     print[ P_SCFIterInfo ] 1
| 17>     print[ P_OrbEn ] 0
| 18>     print[ P_Cartesian ] 0
| 19> end
| 20> % elprop
| 21>     Dipole false
| 22> end
| 23> *xyz 1 1
| 24>  C       -1.4540412921     0.7783812372    -0.0562425228
| 25>  C       -1.4388662082    -0.7687295824     0.0982928150
| 26>  C       -0.1507154646    -1.4220849845     0.7149557457
| 27>  C        0.8265675910    -0.6851963600    -0.1368439921
| 28>  N        2.1541051578     0.0372791394    -0.0108820216
| 29>  C        0.8161582018     0.7351706926     0.1385727830
| 30>  C       -0.1890160609     1.4545782828    -0.6954803088
| 31>  H       -2.3272363500     1.0505177955    -0.6523836231
| 32>  H       -1.6081222185     1.2341150497     0.9266969336
| 33>  H       -1.6019733680    -1.2272241016    -0.8819236738
| 34>  H       -2.2963076242    -1.0564348683     0.7097638610
| 35>  H       -0.0468922498    -1.1849810479     1.7756105642
| 36>  H       -0.1640083941    -2.5043269511     0.5870036776
| 37>  H        0.7286526616    -0.9197567444    -1.1934864582
| 38>  H        2.7011799035     0.1002977363    -0.8636593720
| 39>  H        2.7176776670    -0.0154792478     0.8317704905
| 40>  H        0.7323185696     0.9676550823     1.1968678236
| 41>  H       -0.2194187222     2.5364182583    -0.5669808093
| 42>  H       -0.0999017997     1.2195506138    -1.7579419127
| 43> *
| 44>
| 45>                          ****END OF INPUT****
 Total Charge           Charge          ....    1
 Multiplicity           Mult            ....    1
 Number of Electrons    NEL             ....   54
FINAL SINGLE POINT ENERGY      -290.056548675361

CARTESIAN COORDINATES (ANGSTROEM)
---------------------------------
  C      0.777467    0.000066    1.544300
  C     -0.777467   -0.000066    1.544300
  C     -1.501421   -0.558623    0.267541
  C     -0.693000    0.207718   -0.724028
  N     -0.000000    0.000000   -2.056871
  C      0.693000   -0.207718   -0.724028
  C      1.501421    0.558623    0.267541
  H      1.116105    0.573224    2.409615
  H      1.134830   -1.021994    1.702931
  H     -1.134830    1.021994    1.702931
  H     -1.116105   -0.573224    2.409615
  H     -1.371837   -1.638149    0.171111
  H     -2.565134   -0.323860    0.289362
  H     -0.819844    1.283385   -0.633151
  H      0.142073    0.837713   -2.612122
  H     -0.142073   -0.837713   -2.612122
  H      0.819844   -1.283385   -0.633151
  H      2.565134    0.323860    0.289362
  H      1.371837    1.638149    0.171111

FINAL SINGLE POINT ENERGY      -290.056549269984
                    ***********************HURRAY********************
 Multiplicity           Mult            ....    1
 Number of Electrons    NEL             ....   54
 Basis Dimension        Dim             ....  289
FINAL SINGLE POINT ENERGY      -290.056549383030

VIBRATIONAL FREQUENCIES
-----------------------

   0:         0.00 cm**-1
   1:         0.00 cm**-1
   2:         0.00 cm**-1
   3:         0.00 cm**-1
   4:         0.00 cm**-1
   5:         0.00 cm**-1
   6:       236.66 cm**-1
   7:       251.08 cm**-1
   8:       334.68 cm**-1
   9:       377.05 cm**-1
  10:       461.34 cm**-1
  11:       493.96 cm**-1
  12:       507.50 cm**-1
  13:       718.96 cm**-1
  14:       773.01 cm**-1
  15:       816.23 cm**-1
  16:       827.72 cm**-1
  17:       842.32 cm**-1
  18:       897.24 cm**-1
  19:       906.07 cm**-1
  20:       917.02 cm**-1
  21:       946.40 cm**-1
  22:       969.37 cm**-1
  23:      1010.74 cm**-1
  24:      1027.31 cm**-1
  25:      1067.19 cm**-1
  26:      1136.04 cm**-1
  27:      1153.16 cm**-1
  28:      1160.56 cm**-1
  29:      1202.79 cm**-1
  30:      1238.33 cm**-1
  31:      1253.76 cm**-1
  32:      1254.07 cm**-1
  33:      1301.88 cm**-1
  34:      1323.64 cm**-1
  35:      1352.05 cm**-1
  36:      1357.71 cm**-1
  37:      1376.43 cm**-1
  38:      1428.71 cm**-1
  39:      1477.39 cm**-1
  40:      1477.58 cm**-1
  41:      1495.37 cm**-1
  42:      1498.39 cm**-1
  43:      1509.80 cm**-1
  44:      1617.19 cm**-1
  45:      3063.00 cm**-1
  46:      3069.29 cm**-1
  47:      3092.42 cm**-1
  48:      3093.55 cm**-1
  49:      3121.42 cm**-1
  50:      3127.32 cm**-1
  51:      3149.83 cm**-1
  52:      3151.27 cm**-1
  53:      3160.18 cm**-1
  54:      3169.95 cm**-1
  55:      3500.33 cm**-1
  56:      3610.71 cm**-1

IR SPECTRUM
-----------

 Mode    freq (cm**-1)   T**2         TX         TY         TZ
-------------------------------------------------------------------
   6:       236.66    1.638706  ( -0.109170  -1.275456   0.000007)
   7:       251.08    0.245772  ( -0.000011  -0.000030  -0.495754)
   8:       334.68    0.055261  (  0.216976   0.090457  -0.000006)
   9:       377.05    3.363930  (  1.761591   0.510614  -0.000001)
  10:       461.34    0.730363  (  0.000004   0.000002  -0.854613)
  11:       493.96    1.537017  ( -0.000014   0.000015  -1.239765)
  12:       507.50    1.476800  (  0.744680  -0.960340  -0.000015)
  13:       718.96    1.961831  ( -1.348688  -0.377986   0.000016)
  14:       773.01    5.975666  ( -0.000006   0.000026  -2.444517)
  15:       816.23   26.165834  ( -0.000000   0.000045  -5.115255)
  16:       827.72    5.898643  (  0.630472   2.345453   0.000037)
  17:       842.32   26.590111  ( -0.000040  -0.000036  -5.156560)
  18:       897.24   27.143527  (  0.000084  -0.000054  -5.209945)
  19:       906.07    7.038230  ( -1.995463   1.748244  -0.000129)
  20:       917.02    5.306236  (  1.490958   1.755927   0.000002)
  21:       946.40    6.550034  ( -2.508869   0.505581   0.000037)
  22:       969.37    6.950351  ( -0.000051   0.000009  -2.636352)
  23:      1010.74   92.552466  (  9.539149  -1.247841  -0.000007)
  24:      1027.31    4.487895  ( -0.000035   0.000009   2.118465)
  25:      1067.19    2.485139  ( -1.475783  -0.554259  -0.000008)
  26:      1136.04    9.017121  ( -0.000001   0.000001   3.002852)
  27:      1153.16    4.391970  (  0.000008  -0.000005   2.095703)
  28:      1160.56    0.850430  ( -0.917010   0.097590   0.000013)
  29:      1202.79    0.936169  ( -0.000008   0.000005   0.967558)
  30:      1238.33    8.388591  (  2.836770  -0.584233   0.000011)
  31:      1253.76    0.151976  ( -0.000027   0.000008   0.389841)
  32:      1254.07    1.157417  ( -1.053300   0.219036  -0.000004)
  33:      1301.88    5.015392  (  2.231729   0.186490  -0.000001)
  34:      1323.64    3.691306  (  0.000003  -0.000007   1.921277)
  35:      1352.05    0.271216  (  0.427809   0.296977   0.000001)
  36:      1357.71    0.586667  ( -0.000004  -0.000010   0.765942)
  37:      1376.43    1.088309  ( -0.000005  -0.000012   1.043221)
  38:      1428.71    0.940419  (  0.243245   0.938750   0.000002)
  39:      1477.39    4.290217  ( -0.001211   0.001376   2.071283)
  40:      1477.58   13.144050  ( -2.398004   2.719122  -0.001046)
  41:      1495.37    2.503592  ( -0.000208  -0.000360  -1.582274)
  42:      1498.39   16.684500  (  1.959088   3.584198  -0.000177)
  43:      1509.80    6.858979  ( -0.000009  -0.000013  -2.618965)
  44:      1617.19   61.732349  ( -0.000004   0.000003  -7.856994)
  45:      3063.00    1.743205  (  0.000006  -0.000001   1.320305)
  46:      3069.29   11.776546  (  1.941414  -2.829745  -0.000003)
  47:      3092.42    8.996807  ( -1.748723  -2.436960   0.000084)
  48:      3093.55    0.347341  (  0.000208   0.000302   0.589356)
  49:      3121.42    0.281859  ( -0.000002  -0.000004  -0.530904)
  50:      3127.32    4.475670  (  0.291860   2.095349  -0.000004)
  51:      3149.83    1.077629  ( -0.000249   0.000062  -1.038089)
  52:      3151.27    7.298289  (  2.636979  -0.587054  -0.000104)
  53:      3160.18    0.261286  (  0.000049   0.000002  -0.511162)
  54:      3169.95    2.988939  (  0.981750  -1.423062  -0.000021)
  55:      3500.33  129.833596  (  0.000024   0.000071  11.394455)
  56:      3610.71  106.440959  (  2.343614  10.047310  -0.000080)

--------------------------
THERMOCHEMISTRY AT 298.15K
--------------------------

Temperature         ... 298.15 K
Pressure            ... 1.00 atm
Total Mass          ... 98.17 AMU

Throughout the following assumptions are being made:
  (1) The electronic state is orbitally nondegenerate
  (2) There are no thermally accessible electronically excited states
  (3) Hindered rotations indicated by low frequency modes) are not
      treated as such but are treated as vibrations and this may
      case some error
  (4) All equations used are the standard statistical mechanics
      equations for an ideal gas
  (5) All vibrations are strinctly harmonic

------------
INNER ENERGY
------------

The inner energy is: U= E(el) + E(ZPE) + E(vib) + E(rot) + E(trans)
    E(el)   - is the total energy from the electronic structure calculation
              = E(kin-el) + E(nuc-el) + E(el-el) + E(nuc-nuc)
    E(ZPE)  - the the zero temperature vibrational energy from the frequency calculation
    E(vib)  - the the finite temperature correction to E(ZPE) due to population
              of excietd vibrational states
    E(rot)  - is the rotational thermal energy
    E(trans)- is the translational thermal energy

Summary of contributions to the inner energy U:
Electronic energy                ...   -290.05654938 Eh
Zero point energy                ...      0.17839417 Eh     111.94 kcal/mol
Thermal vibrational correction   ...      0.00335000 Eh       2.10 kcal/mol
Thermal rotational correction    ...      0.00141627 Eh       0.89 kcal/mol
Thermal translational correction ...      0.00141627 Eh       0.89 kcal/mol
-----------------------------------------------------------------------
Total thermal energy                   -289.87197268 Eh

Summary of corrections to the electronic energy:
(perhaps to be used in another calculation)
Total thermal correction                  0.00618254 Eh       3.88 kcal/mol
Non-thermal (ZPE) correction              0.17839417 Eh     111.94 kcal/mol
-----------------------------------------------------------------------
Total correction                          0.18457671 Eh     115.82 kcal/mol

--------
ENTHALPY
--------

The enthalpy is H = U + kB*T
                kB is Boltzmann's constant
Total free energy                 ...   -289.87197268 Eh
Thermal Enthalpy correction       ...      0.00094421 Eh       0.59 kcal/mol
-----------------------------------------------------------------------
Total Enthalpy                    ...   -289.87102847 Eh

-------
ENTROPY
-------

The entropy contributions are T*S = T*(S(el)+S(vib)+S(rot)+S(trans)
     S(el)   - electronic entropy
     S(vib)  - vibrational entropy
     S(rot)  - rotational entropy
     S(trans)- translational entropy
The entropies will be listed as mutliplied by the temperature to get
units of energy

Electronic entropy                ...      0.00000000 Eh      0.00 kcal/mol
Vibrational entropy               ...      0.00491961 Eh      3.09 kcal/mol
Rotational entropy                ...      0.01185181 Eh      7.44 kcal/mol
Translational entropy             ...      0.01884507 Eh     11.83 kcal/mol
-----------------------------------------------------------------------
Final entropy term                ...      0.03561649 Eh     22.35 kcal/mol

CAUTION: The rotational entropy is not quite correctly treated here
         because it includes a symmetry number that is not yet correctly
         implemented in ORCA!
For a nonlinear molecule the correct rotational entropy is:
    S(rot) = R*(ln(qrot/sn)+1.5)
    R    = 8.31441 J/mol/K = 1.987191683e-3 kcal/mol/K
    qrot = 189300.7784276
    sn is the rotational symmetry number. We have assumed 3 here
       if it is different for your molecule then you should correct
       the printed rotational entropy by manually evaluating the equation
       as given above

For convenience we print out the resulting values for sn=1 - 12:
 sn= 1  qrot/sn=  189300.7784 T*S(rot)=     8.09 kcal/mol T*S(tot)=    23.00 kcal/mol
 sn= 2  qrot/sn=   94650.3892 T*S(rot)=     7.68 kcal/mol T*S(tot)=    22.59 kcal/mol
 sn= 3  qrot/sn=   63100.2595 T*S(rot)=     7.44 kcal/mol T*S(tot)=    22.35 kcal/mol
 sn= 4  qrot/sn=   47325.1946 T*S(rot)=     7.27 kcal/mol T*S(tot)=    22.18 kcal/mol
 sn= 5  qrot/sn=   37860.1557 T*S(rot)=     7.13 kcal/mol T*S(tot)=    22.05 kcal/mol
 sn= 6  qrot/sn=   31550.1297 T*S(rot)=     7.03 kcal/mol T*S(tot)=    21.94 kcal/mol
 sn= 7  qrot/sn=   27042.9683 T*S(rot)=     6.94 kcal/mol T*S(tot)=    21.85 kcal/mol
 sn= 8  qrot/sn=   23662.5973 T*S(rot)=     6.86 kcal/mol T*S(tot)=    21.77 kcal/mol
 sn= 9  qrot/sn=   21033.4198 T*S(rot)=     6.79 kcal/mol T*S(tot)=    21.70 kcal/mol
 sn=10  qrot/sn=   18930.0778 T*S(rot)=     6.72 kcal/mol T*S(tot)=    21.64 kcal/mol
 sn=11  qrot/sn=   17209.1617 T*S(rot)=     6.67 kcal/mol T*S(tot)=    21.58 kcal/mol
 sn=12  qrot/sn=   15775.0649 T*S(rot)=     6.62 kcal/mol T*S(tot)=    21.53 kcal/mol

-------------------
GIBBS FREE ENTHALPY
-------------------

The Gibbs free enthalpy is G = H - T*S

Total enthalpy                    ...   -289.87102847 Eh
Total entropy correction          ...     -0.03561649 Eh    -22.35 kcal/mol
-----------------------------------------------------------------------
Final Gibbs free enthalpy         ...   -289.90664496 Eh

For completeness - the Gibbs free enthalpy minus the electronic energy
G-E(el)                           ...      0.14990442 Eh     94.07 kcal/mol

                             ****ORCA TERMINATED NORMALLY****
TOTAL RUN TIME: 0 days 0 hours 57 minutes 25 seconds 649 msec
