                         Program Version 3.0.3 - RELEASE   -
|  1> ! NORI PBE0 def2-TZVP UseSym TightOPT Freq TightSCF Grid3 FinalGrid5 XYZFile
|  2> % pal
|  3>     nprocs 8
|  4> end
|  5> %method
|  6>     SymThresh 5.0e-2
|  7> end
|  8> % geom
|  9>     MaxIter 10
| 10> end
| 11> % maxcore 2000
| 12> % output
| 13>     printlevel mini
| 14>     print[ P_Basis ] 0
| 15>     print[ P_SCFInfo ] 1
| 16>     print[ P_SCFIterInfo ] 1
| 17>     print[ P_OrbEn ] 0
| 18>     print[ P_Cartesian ] 0
| 19> end
| 20> % elprop
| 21>     Dipole false
| 22> end
| 23> *xyz 1 1
| 24>  C       -0.0811718237     1.4460601028     0.6826295875
| 25>  C       -1.3752280295     0.7248064299     0.2703200961
| 26>  C       -1.4710086464    -0.4837612025    -0.3065271403
| 27>  C       -0.3115579851    -1.4374446334    -0.6384762414
| 28>  C        0.7180894506    -0.7909049053     0.2259753017
| 29>  N        2.1097555544    -0.2155209836     0.0998169406
| 30>  C        0.8625681998     0.6109453988    -0.1154336336
| 31>  H       -0.1046569090     2.4984856811     0.3964625669
| 32>  H        0.0725178514     1.3871264179     1.7641909985
| 33>  H       -2.2916054109     1.2794607753     0.4427872337
| 34>  H       -2.4619719584    -0.8575517196    -0.5413489469
| 35>  H       -0.0779910964    -1.4141949066    -1.7068442405
| 36>  H       -0.5514124708    -2.4650534632    -0.3625069822
| 37>  H        0.5589478032    -0.9637492973     1.2861270827
| 38>  H        2.6437074871    -0.1708237205     0.9623946247
| 39>  H        2.6824894257    -0.3655082425    -0.7252432025
| 40>  H        0.8101485581     0.8043182686    -1.1826340452
| 41> *
| 42>
| 43>                          ****END OF INPUT****
 Total Charge           Charge          ....    1
 Multiplicity           Mult            ....    1
 Number of Electrons    NEL             ....   52
FINAL SINGLE POINT ENERGY      -288.826018134952

CARTESIAN COORDINATES (ANGSTROEM)
---------------------------------
  C      1.590090   -0.000003    0.311548
  C      0.671188   -0.010472    1.544610
  C     -0.671188    0.010472    1.544610
  C     -1.590090    0.000003    0.311548
  C     -0.569935   -0.448112   -0.680312
  N      0.000000   -0.000000   -2.006416
  C      0.569935    0.448112   -0.680312
  H      2.424183    0.690283    0.443873
  H      1.996534   -0.996581    0.117067
  H      1.179498   -0.002011    2.503108
  H     -1.179498    0.002011    2.503108
  H     -1.996534    0.996581    0.117067
  H     -2.424183   -0.690283    0.443873
  H     -0.298102   -1.494001   -0.573829
  H      0.437120   -0.728460   -2.562438
  H     -0.437120    0.728460   -2.562438
  H      0.298102    1.494001   -0.573830

FINAL SINGLE POINT ENERGY      -288.826018412651
                    ***********************HURRAY********************
 Multiplicity           Mult            ....    1
 Number of Electrons    NEL             ....   52
 Basis Dimension        Dim             ....  277
FINAL SINGLE POINT ENERGY      -288.826018462835

VIBRATIONAL FREQUENCIES
-----------------------

   0:         0.00 cm**-1
   1:         0.00 cm**-1
   2:         0.00 cm**-1
   3:         0.00 cm**-1
   4:         0.00 cm**-1
   5:         0.00 cm**-1
   6:       216.93 cm**-1
   7:       336.75 cm**-1
   8:       395.91 cm**-1
   9:       411.54 cm**-1
  10:       461.33 cm**-1
  11:       522.43 cm**-1
  12:       661.20 cm**-1
  13:       702.31 cm**-1
  14:       804.16 cm**-1
  15:       831.28 cm**-1
  16:       840.79 cm**-1
  17:       904.29 cm**-1
  18:       921.18 cm**-1
  19:       931.33 cm**-1
  20:       931.63 cm**-1
  21:       966.46 cm**-1
  22:       998.34 cm**-1
  23:      1023.15 cm**-1
  24:      1091.61 cm**-1
  25:      1114.27 cm**-1
  26:      1148.86 cm**-1
  27:      1170.79 cm**-1
  28:      1199.93 cm**-1
  29:      1233.65 cm**-1
  30:      1239.50 cm**-1
  31:      1293.54 cm**-1
  32:      1300.50 cm**-1
  33:      1346.99 cm**-1
  34:      1373.82 cm**-1
  35:      1426.38 cm**-1
  36:      1477.65 cm**-1
  37:      1479.37 cm**-1
  38:      1495.97 cm**-1
  39:      1617.80 cm**-1
  40:      1656.74 cm**-1
  41:      3077.76 cm**-1
  42:      3078.12 cm**-1
  43:      3135.54 cm**-1
  44:      3135.82 cm**-1
  45:      3167.73 cm**-1
  46:      3180.34 cm**-1
  47:      3191.61 cm**-1
  48:      3208.00 cm**-1
  49:      3497.61 cm**-1
  50:      3606.27 cm**-1

IR SPECTRUM
-----------

 Mode    freq (cm**-1)   T**2         TX         TY         TZ
-------------------------------------------------------------------
   6:       216.93    2.133974  (  1.082964  -0.980390  -0.000004)
   7:       336.75    0.702733  ( -0.443778   0.711192   0.000004)
   8:       395.91    4.395743  (  1.988911   0.663307   0.000002)
   9:       411.54    0.046923  ( -0.000022  -0.000005   0.216616)
  10:       461.33    1.026706  (  0.000002   0.000005   1.013265)
  11:       522.43    3.698400  (  0.000004   0.000007  -1.923122)
  12:       661.20    1.231954  (  0.081359   1.106948   0.000010)
  13:       702.31   40.199307  (  0.411211  -6.326943   0.000005)
  14:       804.16   44.553985  ( -0.000006  -0.000040  -6.674877)
  15:       831.28   10.634287  ( -1.015074   3.099018  -0.000009)
  16:       840.79    5.682017  (  0.000030  -0.000069   2.383698)
  17:       904.29    9.877897  ( -0.000007  -0.000037   3.142912)
  18:       921.18    1.686520  (  0.378781   1.242194   0.000164)
  19:       931.33   13.761177  ( -0.001048   0.000464   3.709606)
  20:       931.63   13.367169  ( -3.318051   1.535483  -0.001167)
  21:       966.46    3.385027  ( -1.806881   0.346709   0.000000)
  22:       998.34    0.151237  (  0.000008   0.000001  -0.388892)
  23:      1023.15   93.235490  ( -8.206705  -5.087778   0.000018)
  24:      1091.61    0.118604  (  0.000011   0.000015  -0.344389)
  25:      1114.27   18.137772  (  3.295480   2.697700   0.000003)
  26:      1148.86    1.239023  ( -0.000004   0.000002  -1.113114)
  27:      1170.79    1.463629  ( -1.198700   0.163544   0.000011)
  28:      1199.93    7.563026  (  0.000001   0.000018   2.750096)
  29:      1233.65    4.337644  ( -1.770664  -1.096536  -0.000016)
  30:      1239.50    0.545223  (  0.000031   0.000017  -0.738392)
  31:      1293.54    0.480519  (  0.645396  -0.252950  -0.000000)
  32:      1300.50    6.819974  ( -0.000000  -0.000007   2.611508)
  33:      1346.99    0.171565  (  0.000004   0.000004   0.414205)
  34:      1373.82    2.297470  (  1.499898  -0.218579  -0.000001)
  35:      1426.38    0.551751  (  0.003948  -0.742789   0.000001)
  36:      1477.65    1.726194  ( -0.000003  -0.000003  -1.313847)
  37:      1479.37   23.629536  (  4.248436  -2.362272  -0.000004)
  38:      1495.97    7.183592  (  0.000005  -0.000009   2.680222)
  39:      1617.80   64.353030  ( -0.000009  -0.000012  -8.022034)
  40:      1656.74    2.015694  ( -0.000000   0.000008   1.419751)
  41:      3077.76    0.066578  ( -0.000001  -0.000017  -0.258026)
  42:      3078.12    3.266574  ( -1.726403   0.534888   0.000000)
  43:      3135.54    3.380889  (  1.717240   0.657248  -0.000000)
  44:      3135.82    0.643016  ( -0.000001  -0.000009  -0.801883)
  45:      3167.73    0.295317  (  0.000000  -0.000002   0.543431)
  46:      3180.34    0.516925  (  0.264639   0.668499   0.000000)
  47:      3191.61    1.119019  ( -1.057227  -0.035924  -0.000000)
  48:      3208.00    0.549544  ( -0.000000  -0.000011  -0.741312)
  49:      3497.61  132.723253  ( -0.000037   0.000053 -11.520558)
  50:      3606.27  109.116833  ( -5.784725   8.697919   0.000086)

--------------------------
THERMOCHEMISTRY AT 298.15K
--------------------------

Temperature         ... 298.15 K
Pressure            ... 1.00 atm
Total Mass          ... 96.15 AMU

Throughout the following assumptions are being made:
  (1) The electronic state is orbitally nondegenerate
  (2) There are no thermally accessible electronically excited states
  (3) Hindered rotations indicated by low frequency modes) are not
      treated as such but are treated as vibrations and this may
      case some error
  (4) All equations used are the standard statistical mechanics
      equations for an ideal gas
  (5) All vibrations are strinctly harmonic

------------
INNER ENERGY
------------

The inner energy is: U= E(el) + E(ZPE) + E(vib) + E(rot) + E(trans)
    E(el)   - is the total energy from the electronic structure calculation
              = E(kin-el) + E(nuc-el) + E(el-el) + E(nuc-nuc)
    E(ZPE)  - the the zero temperature vibrational energy from the frequency calculation
    E(vib)  - the the finite temperature correction to E(ZPE) due to population
              of excietd vibrational states
    E(rot)  - is the rotational thermal energy
    E(trans)- is the translational thermal energy

Summary of contributions to the inner energy U:
Electronic energy                ...   -288.82601846 Eh
Zero point energy                ...      0.15447611 Eh      96.94 kcal/mol
Thermal vibrational correction   ...      0.00295464 Eh       1.85 kcal/mol
Thermal rotational correction    ...      0.00141627 Eh       0.89 kcal/mol
Thermal translational correction ...      0.00141627 Eh       0.89 kcal/mol
-----------------------------------------------------------------------
Total thermal energy                   -288.66575517 Eh

Summary of corrections to the electronic energy:
(perhaps to be used in another calculation)
Total thermal correction                  0.00578718 Eh       3.63 kcal/mol
Non-thermal (ZPE) correction              0.15447611 Eh      96.94 kcal/mol
-----------------------------------------------------------------------
Total correction                          0.16026329 Eh     100.57 kcal/mol

--------
ENTHALPY
--------

The enthalpy is H = U + kB*T
                kB is Boltzmann's constant
Total free energy                 ...   -288.66575517 Eh
Thermal Enthalpy correction       ...      0.00094421 Eh       0.59 kcal/mol
-----------------------------------------------------------------------
Total Enthalpy                    ...   -288.66481096 Eh

-------
ENTROPY
-------

The entropy contributions are T*S = T*(S(el)+S(vib)+S(rot)+S(trans)
     S(el)   - electronic entropy
     S(vib)  - vibrational entropy
     S(rot)  - rotational entropy
     S(trans)- translational entropy
The entropies will be listed as mutliplied by the temperature to get
units of energy

Electronic entropy                ...      0.00000000 Eh      0.00 kcal/mol
Vibrational entropy               ...      0.00427501 Eh      2.68 kcal/mol
Rotational entropy                ...      0.01175318 Eh      7.38 kcal/mol
Translational entropy             ...      0.01881568 Eh     11.81 kcal/mol
-----------------------------------------------------------------------
Final entropy term                ...      0.03484387 Eh     21.86 kcal/mol

CAUTION: The rotational entropy is not quite correctly treated here
         because it includes a symmetry number that is not yet correctly
         implemented in ORCA!
For a nonlinear molecule the correct rotational entropy is:
    S(rot) = R*(ln(qrot/sn)+1.5)
    R    = 8.31441 J/mol/K = 1.987191683e-3 kcal/mol/K
    qrot = 170523.6394759
    sn is the rotational symmetry number. We have assumed 3 here
       if it is different for your molecule then you should correct
       the printed rotational entropy by manually evaluating the equation
       as given above

For convenience we print out the resulting values for sn=1 - 12:
 sn= 1  qrot/sn=  170523.6395 T*S(rot)=     8.03 kcal/mol T*S(tot)=    22.52 kcal/mol
 sn= 2  qrot/sn=   85261.8197 T*S(rot)=     7.62 kcal/mol T*S(tot)=    22.11 kcal/mol
 sn= 3  qrot/sn=   56841.2132 T*S(rot)=     7.38 kcal/mol T*S(tot)=    21.86 kcal/mol
 sn= 4  qrot/sn=   42630.9099 T*S(rot)=     7.20 kcal/mol T*S(tot)=    21.69 kcal/mol
 sn= 5  qrot/sn=   34104.7279 T*S(rot)=     7.07 kcal/mol T*S(tot)=    21.56 kcal/mol
 sn= 6  qrot/sn=   28420.6066 T*S(rot)=     6.96 kcal/mol T*S(tot)=    21.45 kcal/mol
 sn= 7  qrot/sn=   24360.5199 T*S(rot)=     6.87 kcal/mol T*S(tot)=    21.36 kcal/mol
 sn= 8  qrot/sn=   21315.4549 T*S(rot)=     6.79 kcal/mol T*S(tot)=    21.28 kcal/mol
 sn= 9  qrot/sn=   18947.0711 T*S(rot)=     6.72 kcal/mol T*S(tot)=    21.21 kcal/mol
 sn=10  qrot/sn=   17052.3639 T*S(rot)=     6.66 kcal/mol T*S(tot)=    21.15 kcal/mol
 sn=11  qrot/sn=   15502.1490 T*S(rot)=     6.61 kcal/mol T*S(tot)=    21.10 kcal/mol
 sn=12  qrot/sn=   14210.3033 T*S(rot)=     6.55 kcal/mol T*S(tot)=    21.04 kcal/mol

-------------------
GIBBS FREE ENTHALPY
-------------------

The Gibbs free enthalpy is G = H - T*S

Total enthalpy                    ...   -288.66481096 Eh
Total entropy correction          ...     -0.03484387 Eh    -21.86 kcal/mol
-----------------------------------------------------------------------
Final Gibbs free enthalpy         ...   -288.69965483 Eh

For completeness - the Gibbs free enthalpy minus the electronic energy
G-E(el)                           ...      0.12636363 Eh     79.29 kcal/mol

                             ****ORCA TERMINATED NORMALLY****
TOTAL RUN TIME: 0 days 0 hours 46 minutes 22 seconds 644 msec
