                         Program Version 3.0.3 - RELEASE   -
|  1> ! NORI PBE0 def2-TZVP UseSym TightOPT Freq TightSCF Grid3 FinalGrid5 XYZFile
|  2> % pal
|  3>     nprocs 8
|  4> end
|  5> %method
|  6>     SymThresh 5.0e-2
|  7> end
|  8> % geom
|  9>     MaxIter 10
| 10> end
| 11> % maxcore 2000
| 12> % output
| 13>     printlevel mini
| 14>     print[ P_Basis ] 0
| 15>     print[ P_SCFInfo ] 1
| 16>     print[ P_SCFIterInfo ] 1
| 17>     print[ P_OrbEn ] 0
| 18>     print[ P_Cartesian ] 0
| 19> end
| 20> % elprop
| 21>     Dipole false
| 22> end
| 23> *xyz 1 1
| 24>  C        0.8992590940    -1.1320228499     0.4678161293
| 25>  C       -0.5119869356    -1.6266016445     0.1716832891
| 26>  C       -1.4711908272    -0.5999255226    -0.3590464448
| 27>  C       -1.3859412665     0.7254434316    -0.2627068865
| 28>  C       -0.3048736700     1.4758591218     0.4673869701
| 29>  C        1.0756910677     1.3117192000    -0.1489898727
| 30>  N        1.3169278777    -0.1145081044    -0.5579929403
| 31>  H        0.9920656803    -0.6563116780     1.4421431630
| 32>  H        1.6131825977    -1.9544486648     0.4256001809
| 33>  H       -0.4526411276    -2.4448578498    -0.5540674930
| 34>  H       -0.9135618265    -2.0849117039     1.0820108065
| 35>  H       -2.3261882199    -1.0148777977    -0.8843109615
| 36>  H       -2.1734362053     1.3176167121    -0.7162421908
| 37>  H       -0.5243913853     2.5447508449     0.4714691979
| 38>  H       -0.2824313709     1.1777277564     1.5186670524
| 39>  H        1.1934162357     1.9108060483    -1.0531845735
| 40>  H        1.8642874021     1.5819578484     0.5540848410
| 41>  H        2.2991430635    -0.2314951248    -0.8044514291
| 42>  H        0.7671998162    -0.2857200231    -1.4042488380
| 43> *
| 44>
| 45>                          ****END OF INPUT****
 Total Charge           Charge          ....    1
 Multiplicity           Mult            ....    1
 Number of Electrons    NEL             ....   54
FINAL SINGLE POINT ENERGY      -290.108354142108
FINAL SINGLE POINT ENERGY      -290.108355170779

CARTESIAN COORDINATES (ANGSTROEM)
---------------------------------
  C      1.341653   -0.000187    0.739283
  C      1.341324    0.989813   -0.419991
  C      0.060072    1.092968   -1.197063
  C     -0.930120    0.204909   -1.262287
  C     -0.934021   -1.141106   -0.589187
  C     -0.943126   -1.063064    0.929327
  N      0.000597   -0.000051    1.419907
  H      1.538893   -1.024291    0.428537
  H      2.088839    0.275151    1.483094
  H      1.585886    1.984764   -0.033432
  H      2.170625    0.734903   -1.089066
  H     -0.048625    2.014000   -1.761524
  H     -1.791954    0.450943   -1.873274
  H     -1.818967   -1.707794   -0.881875
  H     -0.081243   -1.735373   -0.928002
  H     -1.927226   -0.797868    1.319672
  H     -0.630663   -2.004629    1.382554
  H      0.106849   -0.085802    2.430219
  H     -0.438697    0.905842    1.235335

FINAL SINGLE POINT ENERGY      -290.108355922857
                    ***********************HURRAY********************
 Multiplicity           Mult            ....    1
 Number of Electrons    NEL             ....   54
 Basis Dimension        Dim             ....  289
FINAL SINGLE POINT ENERGY      -290.108356074165

VIBRATIONAL FREQUENCIES
-----------------------

   0:         0.00 cm**-1
   1:         0.00 cm**-1
   2:         0.00 cm**-1
   3:         0.00 cm**-1
   4:         0.00 cm**-1
   5:         0.00 cm**-1
   6:       100.89 cm**-1
   7:       205.40 cm**-1
   8:       269.39 cm**-1
   9:       347.47 cm**-1
  10:       389.07 cm**-1
  11:       435.30 cm**-1
  12:       549.23 cm**-1
  13:       687.12 cm**-1
  14:       727.95 cm**-1
  15:       768.01 cm**-1
  16:       841.39 cm**-1
  17:       868.42 cm**-1
  18:       878.80 cm**-1
  19:       905.79 cm**-1
  20:       984.72 cm**-1
  21:      1010.31 cm**-1
  22:      1034.74 cm**-1
  23:      1050.67 cm**-1
  24:      1058.84 cm**-1
  25:      1088.22 cm**-1
  26:      1110.53 cm**-1
  27:      1211.52 cm**-1
  28:      1244.51 cm**-1
  29:      1251.52 cm**-1
  30:      1295.43 cm**-1
  31:      1300.39 cm**-1
  32:      1342.20 cm**-1
  33:      1367.43 cm**-1
  34:      1392.08 cm**-1
  35:      1410.02 cm**-1
  36:      1419.83 cm**-1
  37:      1433.57 cm**-1
  38:      1437.60 cm**-1
  39:      1472.06 cm**-1
  40:      1483.64 cm**-1
  41:      1496.36 cm**-1
  42:      1515.56 cm**-1
  43:      1615.14 cm**-1
  44:      1730.52 cm**-1
  45:      3053.57 cm**-1
  46:      3075.32 cm**-1
  47:      3084.44 cm**-1
  48:      3093.50 cm**-1
  49:      3115.19 cm**-1
  50:      3129.37 cm**-1
  51:      3153.32 cm**-1
  52:      3170.35 cm**-1
  53:      3182.16 cm**-1
  54:      3202.08 cm**-1
  55:      3423.92 cm**-1
  56:      3507.05 cm**-1

IR SPECTRUM
-----------

 Mode    freq (cm**-1)   T**2         TX         TY         TZ
-------------------------------------------------------------------
   6:       100.89    2.424534  (  0.915092  -0.365514   1.205628)
   7:       205.40    3.021113  ( -0.366356   0.506473  -1.621845)
   8:       269.39   10.810099  ( -0.961803   1.030646  -2.970320)
   9:       347.47    1.010745  ( -0.047352   0.137296  -0.994813)
  10:       389.07    0.166874  ( -0.310079  -0.156766  -0.214824)
  11:       435.30    3.214483  (  0.666680   1.522690  -0.671889)
  12:       549.23    9.703912  ( -1.056184   0.378829   2.906007)
  13:       687.12   11.078387  (  1.997507  -1.999868  -1.757520)
  14:       727.95   29.621318  (  1.348629  -1.648360  -5.008535)
  15:       768.01    6.358777  (  2.043098  -0.739926   1.279468)
  16:       841.39    9.127263  (  1.758555  -1.099467  -2.196798)
  17:       868.42    4.352525  ( -0.128222   1.421324  -1.521816)
  18:       878.80    2.392791  ( -0.123636  -0.476222   1.466533)
  19:       905.79    1.394261  ( -0.896531  -0.704858   0.306054)
  20:       984.72    2.731180  ( -0.218658  -0.451246   1.574721)
  21:      1010.31   14.147442  (  3.038854   2.209015   0.181826)
  22:      1034.74    3.955710  (  1.708262   1.007649   0.148977)
  23:      1050.67    6.261802  ( -2.216038  -1.159504   0.080807)
  24:      1058.84    4.474123  (  0.171814   0.996243   1.857984)
  25:      1088.22    6.238146  (  0.439135  -0.116316  -2.455968)
  26:      1110.53    0.967308  (  0.889602  -0.165086   0.385569)
  27:      1211.52    0.343988  ( -0.160896  -0.531607  -0.188400)
  28:      1244.51    1.424000  (  0.854023  -0.579166   0.599342)
  29:      1251.52    3.227063  (  0.578359   1.218564  -1.186451)
  30:      1295.43    5.162761  (  2.257474  -0.194658  -0.169356)
  31:      1300.39    4.304583  (  0.625182  -1.637502   1.110098)
  32:      1342.20   10.739364  ( -2.076544  -2.464610   0.594158)
  33:      1367.43    6.153026  (  1.959250   1.291210   0.804452)
  34:      1392.08    1.194685  ( -0.425282   0.525402  -0.858937)
  35:      1410.02    3.479020  ( -1.842430  -0.272633  -0.100708)
  36:      1419.83    0.395478  ( -0.211808  -0.508365  -0.303611)
  37:      1433.57   30.988285  (  5.070943   2.295885  -0.052311)
  38:      1437.60    2.487920  (  1.434682   0.655206   0.017652)
  39:      1472.06    8.822889  (  1.918369   2.013864  -1.042643)
  40:      1483.64   10.869121  ( -0.414255  -1.342178  -2.982628)
  41:      1496.36    9.842305  (  2.593551   0.581533  -1.666618)
  42:      1515.56   20.750058  ( -1.827514   3.878542  -1.538558)
  43:      1615.14   96.588001  ( -2.584092   5.446189   7.762055)
  44:      1730.52    1.618528  (  1.003646   0.043990   0.780569)
  45:      3053.57    2.800596  (  0.850307   1.338940   0.533679)
  46:      3075.32    3.409494  ( -0.890895   1.605000   0.199434)
  47:      3084.44    0.504534  (  0.455981   0.518188   0.167618)
  48:      3093.50    3.746500  ( -0.803465  -0.676850   1.625675)
  49:      3115.19    3.070482  (  0.944994  -1.087067   0.997874)
  50:      3129.37    1.048586  (  0.625928   0.457233  -0.669132)
  51:      3153.32    0.766349  (  0.598563  -0.633790   0.079883)
  52:      3170.35    0.547616  ( -0.190392  -0.676109  -0.232902)
  53:      3182.16    0.271100  ( -0.367407  -0.343589  -0.134382)
  54:      3202.08    0.709176  ( -0.037730  -0.662192   0.518897)
  55:      3423.92   34.542385  ( -2.566277   5.227078   0.796404)
  56:      3507.05   86.526687  (  1.854110  -2.638807   8.725002)

--------------------------
THERMOCHEMISTRY AT 298.15K
--------------------------

Temperature         ... 298.15 K
Pressure            ... 1.00 atm
Total Mass          ... 98.17 AMU

Throughout the following assumptions are being made:
  (1) The electronic state is orbitally nondegenerate
  (2) There are no thermally accessible electronically excited states
  (3) Hindered rotations indicated by low frequency modes) are not
      treated as such but are treated as vibrations and this may
      case some error
  (4) All equations used are the standard statistical mechanics
      equations for an ideal gas
  (5) All vibrations are strinctly harmonic

------------
INNER ENERGY
------------

The inner energy is: U= E(el) + E(ZPE) + E(vib) + E(rot) + E(trans)
    E(el)   - is the total energy from the electronic structure calculation
              = E(kin-el) + E(nuc-el) + E(el-el) + E(nuc-nuc)
    E(ZPE)  - the the zero temperature vibrational energy from the frequency calculation
    E(vib)  - the the finite temperature correction to E(ZPE) due to population
              of excietd vibrational states
    E(rot)  - is the rotational thermal energy
    E(trans)- is the translational thermal energy

Summary of contributions to the inner energy U:
Electronic energy                ...   -290.10835607 Eh
Zero point energy                ...      0.17979727 Eh     112.82 kcal/mol
Thermal vibrational correction   ...      0.00380392 Eh       2.39 kcal/mol
Thermal rotational correction    ...      0.00141627 Eh       0.89 kcal/mol
Thermal translational correction ...      0.00141627 Eh       0.89 kcal/mol
-----------------------------------------------------------------------
Total thermal energy                   -289.92192234 Eh

Summary of corrections to the electronic energy:
(perhaps to be used in another calculation)
Total thermal correction                  0.00663646 Eh       4.16 kcal/mol
Non-thermal (ZPE) correction              0.17979727 Eh     112.82 kcal/mol
-----------------------------------------------------------------------
Total correction                          0.18643373 Eh     116.99 kcal/mol

--------
ENTHALPY
--------

The enthalpy is H = U + kB*T
                kB is Boltzmann's constant
Total free energy                 ...   -289.92192234 Eh
Thermal Enthalpy correction       ...      0.00094421 Eh       0.59 kcal/mol
-----------------------------------------------------------------------
Total Enthalpy                    ...   -289.92097813 Eh

-------
ENTROPY
-------

The entropy contributions are T*S = T*(S(el)+S(vib)+S(rot)+S(trans)
     S(el)   - electronic entropy
     S(vib)  - vibrational entropy
     S(rot)  - rotational entropy
     S(trans)- translational entropy
The entropies will be listed as mutliplied by the temperature to get
units of energy

Electronic entropy                ...      0.00000000 Eh      0.00 kcal/mol
Vibrational entropy               ...      0.00619558 Eh      3.89 kcal/mol
Rotational entropy                ...      0.01187185 Eh      7.45 kcal/mol
Translational entropy             ...      0.01884507 Eh     11.83 kcal/mol
-----------------------------------------------------------------------
Final entropy term                ...      0.03691249 Eh     23.16 kcal/mol

CAUTION: The rotational entropy is not quite correctly treated here
         because it includes a symmetry number that is not yet correctly
         implemented in ORCA!
For a nonlinear molecule the correct rotational entropy is:
    S(rot) = R*(ln(qrot/sn)+1.5)
    R    = 8.31441 J/mol/K = 1.987191683e-3 kcal/mol/K
    qrot = 193360.3499570
    sn is the rotational symmetry number. We have assumed 3 here
       if it is different for your molecule then you should correct
       the printed rotational entropy by manually evaluating the equation
       as given above

For convenience we print out the resulting values for sn=1 - 12:
 sn= 1  qrot/sn=  193360.3500 T*S(rot)=     8.10 kcal/mol T*S(tot)=    23.81 kcal/mol
 sn= 2  qrot/sn=   96680.1750 T*S(rot)=     7.69 kcal/mol T*S(tot)=    23.40 kcal/mol
 sn= 3  qrot/sn=   64453.4500 T*S(rot)=     7.45 kcal/mol T*S(tot)=    23.16 kcal/mol
 sn= 4  qrot/sn=   48340.0875 T*S(rot)=     7.28 kcal/mol T*S(tot)=    22.99 kcal/mol
 sn= 5  qrot/sn=   38672.0700 T*S(rot)=     7.15 kcal/mol T*S(tot)=    22.86 kcal/mol
 sn= 6  qrot/sn=   32226.7250 T*S(rot)=     7.04 kcal/mol T*S(tot)=    22.75 kcal/mol
 sn= 7  qrot/sn=   27622.9071 T*S(rot)=     6.95 kcal/mol T*S(tot)=    22.66 kcal/mol
 sn= 8  qrot/sn=   24170.0437 T*S(rot)=     6.87 kcal/mol T*S(tot)=    22.58 kcal/mol
 sn= 9  qrot/sn=   21484.4833 T*S(rot)=     6.80 kcal/mol T*S(tot)=    22.51 kcal/mol
 sn=10  qrot/sn=   19336.0350 T*S(rot)=     6.74 kcal/mol T*S(tot)=    22.45 kcal/mol
 sn=11  qrot/sn=   17578.2136 T*S(rot)=     6.68 kcal/mol T*S(tot)=    22.39 kcal/mol
 sn=12  qrot/sn=   16113.3625 T*S(rot)=     6.63 kcal/mol T*S(tot)=    22.34 kcal/mol

-------------------
GIBBS FREE ENTHALPY
-------------------

The Gibbs free enthalpy is G = H - T*S

Total enthalpy                    ...   -289.92097813 Eh
Total entropy correction          ...     -0.03691249 Eh    -23.16 kcal/mol
-----------------------------------------------------------------------
Final Gibbs free enthalpy         ...   -289.95789063 Eh

For completeness - the Gibbs free enthalpy minus the electronic energy
G-E(el)                           ...      0.15046545 Eh     94.42 kcal/mol

                             ****ORCA TERMINATED NORMALLY****
TOTAL RUN TIME: 0 days 0 hours 55 minutes 20 seconds 376 msec
