                         Program Version 3.0.3 - RELEASE   -
|  1> ! NORI PBE0 def2-TZVP UseSym TightOPT Freq TightSCF Grid3 FinalGrid5 XYZFile
|  2> % pal
|  3>     nprocs 8
|  4> end
|  5> %method
|  6>     SymThresh 5.0e-2
|  7> end
|  8> % geom
|  9>     MaxIter 10
| 10> end
| 11> % maxcore 2000
| 12> % output
| 13>     printlevel mini
| 14>     print[ P_Basis ] 0
| 15>     print[ P_SCFInfo ] 1
| 16>     print[ P_SCFIterInfo ] 1
| 17>     print[ P_OrbEn ] 0
| 18>     print[ P_Cartesian ] 0
| 19> end
| 20> % elprop
| 21>     Dipole false
| 22> end
| 23> *xyz 1 1
| 24>  C        2.0693015466    -0.3210301759    -0.0479927908
| 25>  C        0.7345432217    -0.8934379458     0.1969053588
| 26>  C       -0.3894561565    -1.5018717850    -0.5765829960
| 27>  C       -1.5439707077    -0.5534430471    -0.2786053787
| 28>  C       -1.4238207608     0.6615876482     0.2676219481
| 29>  C       -0.1043422565     1.3420708177     0.5664656402
| 30>  N        0.8568062296     0.5343918077    -0.2085445426
| 31>  H        2.6892889301    -0.1181135525     0.8164177649
| 32>  H        2.5936315447    -0.4415205683    -0.9890873941
| 33>  H        0.5308660033    -0.9295221797     1.2646710906
| 34>  H       -0.1931292163    -1.5887607658    -1.6508688994
| 35>  H       -0.6258802956    -2.5040148239    -0.2140317760
| 36>  H       -2.5394710098    -0.9236880367    -0.4968724438
| 37>  H       -2.3140614447     1.2431751935     0.4787971667
| 38>  H       -0.0826636448     2.3747670512     0.2128198559
| 39>  H        0.1692031383     1.3341497298     1.6239058343
| 40>  H        0.6418148783     0.6311806328    -1.1972584381
| 41> *
| 42>
| 43>                          ****END OF INPUT****
 Total Charge           Charge          ....    1
 Multiplicity           Mult            ....    1
 Number of Electrons    NEL             ....   52
FINAL SINGLE POINT ENERGY      -288.841699466041

CARTESIAN COORDINATES (ANGSTROEM)
---------------------------------
  C      1.439065   -0.000117    1.433430
  C      1.075179   -0.040428    0.006760
  C      0.704999    0.905689   -1.088499
  C     -0.693638    0.436068   -1.469395
  C     -1.453035   -0.394071   -0.746023
  C     -1.092364   -0.905798    0.633027
  N      0.000170   -0.000091    1.036980
  H      1.815367   -0.913736    1.876159
  H      1.707072    0.918408    1.942606
  H      1.147879   -1.057358   -0.371562
  H      0.719560    1.959180   -0.788849
  H      1.377407    0.808504   -1.943179
  H     -1.073383    0.780540   -2.424985
  H     -2.420630   -0.701858   -1.126272
  H     -1.921698   -0.814601    1.337191
  H     -0.742847   -1.940440    0.644931
  H     -0.369449    0.943643    1.111812

FINAL SINGLE POINT ENERGY      -288.841700031270
                    ***********************HURRAY********************
 Multiplicity           Mult            ....    1
 Number of Electrons    NEL             ....   52
 Basis Dimension        Dim             ....  277
FINAL SINGLE POINT ENERGY      -288.841700251173

VIBRATIONAL FREQUENCIES
-----------------------

   0:         0.00 cm**-1
   1:         0.00 cm**-1
   2:         0.00 cm**-1
   3:         0.00 cm**-1
   4:         0.00 cm**-1
   5:         0.00 cm**-1
   6:       213.16 cm**-1
   7:       350.91 cm**-1
   8:       394.06 cm**-1
   9:       404.14 cm**-1
  10:       458.43 cm**-1
  11:       530.00 cm**-1
  12:       680.79 cm**-1
  13:       711.48 cm**-1
  14:       780.67 cm**-1
  15:       855.74 cm**-1
  16:       875.94 cm**-1
  17:       889.09 cm**-1
  18:       938.10 cm**-1
  19:       960.64 cm**-1
  20:      1001.65 cm**-1
  21:      1011.07 cm**-1
  22:      1054.50 cm**-1
  23:      1096.73 cm**-1
  24:      1114.58 cm**-1
  25:      1149.30 cm**-1
  26:      1183.45 cm**-1
  27:      1200.77 cm**-1
  28:      1210.01 cm**-1
  29:      1246.00 cm**-1
  30:      1279.11 cm**-1
  31:      1305.10 cm**-1
  32:      1323.05 cm**-1
  33:      1346.54 cm**-1
  34:      1389.85 cm**-1
  35:      1454.36 cm**-1
  36:      1476.56 cm**-1
  37:      1481.80 cm**-1
  38:      1493.80 cm**-1
  39:      1524.85 cm**-1
  40:      1684.18 cm**-1
  41:      3063.91 cm**-1
  42:      3088.25 cm**-1
  43:      3123.02 cm**-1
  44:      3139.41 cm**-1
  45:      3158.15 cm**-1
  46:      3165.26 cm**-1
  47:      3199.66 cm**-1
  48:      3215.57 cm**-1
  49:      3268.37 cm**-1
  50:      3520.02 cm**-1

IR SPECTRUM
-----------

 Mode    freq (cm**-1)   T**2         TX         TY         TZ
-------------------------------------------------------------------
   6:       213.16    1.024980  ( -0.232406   0.166173   0.971264)
   7:       350.91    0.598126  ( -0.605215  -0.075882   0.475481)
   8:       394.06    2.258388  (  1.219502   0.034269   0.877513)
   9:       404.14    2.837994  ( -1.388401  -0.629157   0.717285)
  10:       458.43    1.619292  (  0.263505   0.326059  -1.201475)
  11:       530.00    2.067855  (  0.954330   0.358125   1.014326)
  12:       680.79   22.542891  ( -2.935277   2.917179   2.327468)
  13:       711.48   28.650662  ( -1.096517   4.965894   1.669792)
  14:       780.67   11.107238  (  1.454406   0.697583  -2.916388)
  15:       855.74    1.485808  (  1.184790   0.266771   0.104466)
  16:       875.94   17.044326  (  1.738720  -2.653283  -2.642209)
  17:       889.09    2.940010  (  1.631355  -0.153506   0.505101)
  18:       938.10    7.929908  ( -0.645676   0.709744  -2.647503)
  19:       960.64    6.772408  (  0.421843   2.075966   1.511562)
  20:      1001.65    4.474083  (  1.407227   1.544237  -0.330344)
  21:      1011.07    0.796641  ( -0.079730   0.824291   0.332909)
  22:      1054.50   18.456967  ( -1.827484   0.773291  -3.810419)
  23:      1096.73   55.896789  ( -6.835264  -0.451979   2.995276)
  24:      1114.58    6.727812  (  1.498446   0.108151  -2.114421)
  25:      1149.30   22.914103  ( -0.339188  -1.719651  -4.454420)
  26:      1183.45   11.432347  (  2.945725   1.630803  -0.309085)
  27:      1200.77    6.612791  ( -1.605657  -0.231182  -1.995297)
  28:      1210.01    1.542719  (  1.228816  -0.012094   0.180507)
  29:      1246.00   10.494995  ( -0.590258  -1.354351  -2.883110)
  30:      1279.11    3.058670  (  0.481796   1.635034  -0.391413)
  31:      1305.10   13.422885  ( -3.121822   0.874102  -1.706769)
  32:      1323.05    0.758967  ( -0.356302  -0.423511  -0.672796)
  33:      1346.54    0.655687  (  0.733850   0.342260   0.002990)
  34:      1389.85    3.720375  (  0.832446   1.183836  -1.275124)
  35:      1454.36    4.670272  (  1.467534   1.576425  -0.177475)
  36:      1476.56   12.398718  ( -2.103641  -2.807639   0.300958)
  37:      1481.80    5.762339  (  0.537478   2.233995  -0.694783)
  38:      1493.80   17.159354  (  2.272066  -1.439259   3.150493)
  39:      1524.85   13.994260  (  3.045629   1.441847  -1.624649)
  40:      1684.18    2.731356  (  1.540122   0.566481   0.196165)
  41:      3063.91    1.354844  (  0.199532   1.128505   0.203734)
  42:      3088.25    1.546846  (  0.789574   0.734099  -0.620095)
  43:      3123.02    0.076862  ( -0.254245  -0.110289  -0.007621)
  44:      3139.41    0.357220  (  0.418362   0.401613   0.144567)
  45:      3158.15    0.534052  ( -0.330947   0.158628   0.631952)
  46:      3165.26    2.197871  (  0.908226  -0.120644   1.165522)
  47:      3199.66    1.746827  (  0.978851   0.712635  -0.529933)
  48:      3215.57    1.416175  ( -0.900882  -0.083354  -0.773071)
  49:      3268.37    5.299174  ( -0.027461  -2.276415   0.341108)
  50:      3520.02   56.883674  (  3.802384  -6.246563  -1.845537)

--------------------------
THERMOCHEMISTRY AT 298.15K
--------------------------

Temperature         ... 298.15 K
Pressure            ... 1.00 atm
Total Mass          ... 96.15 AMU

Throughout the following assumptions are being made:
  (1) The electronic state is orbitally nondegenerate
  (2) There are no thermally accessible electronically excited states
  (3) Hindered rotations indicated by low frequency modes) are not
      treated as such but are treated as vibrations and this may
      case some error
  (4) All equations used are the standard statistical mechanics
      equations for an ideal gas
  (5) All vibrations are strinctly harmonic

------------
INNER ENERGY
------------

The inner energy is: U= E(el) + E(ZPE) + E(vib) + E(rot) + E(trans)
    E(el)   - is the total energy from the electronic structure calculation
              = E(kin-el) + E(nuc-el) + E(el-el) + E(nuc-nuc)
    E(ZPE)  - the the zero temperature vibrational energy from the frequency calculation
    E(vib)  - the the finite temperature correction to E(ZPE) due to population
              of excietd vibrational states
    E(rot)  - is the rotational thermal energy
    E(trans)- is the translational thermal energy

Summary of contributions to the inner energy U:
Electronic energy                ...   -288.84170025 Eh
Zero point energy                ...      0.15494277 Eh      97.23 kcal/mol
Thermal vibrational correction   ...      0.00287707 Eh       1.81 kcal/mol
Thermal rotational correction    ...      0.00141627 Eh       0.89 kcal/mol
Thermal translational correction ...      0.00141627 Eh       0.89 kcal/mol
-----------------------------------------------------------------------
Total thermal energy                   -288.68104787 Eh

Summary of corrections to the electronic energy:
(perhaps to be used in another calculation)
Total thermal correction                  0.00570961 Eh       3.58 kcal/mol
Non-thermal (ZPE) correction              0.15494277 Eh      97.23 kcal/mol
-----------------------------------------------------------------------
Total correction                          0.16065238 Eh     100.81 kcal/mol

--------
ENTHALPY
--------

The enthalpy is H = U + kB*T
                kB is Boltzmann's constant
Total free energy                 ...   -288.68104787 Eh
Thermal Enthalpy correction       ...      0.00094421 Eh       0.59 kcal/mol
-----------------------------------------------------------------------
Total Enthalpy                    ...   -288.68010366 Eh

-------
ENTROPY
-------

The entropy contributions are T*S = T*(S(el)+S(vib)+S(rot)+S(trans)
     S(el)   - electronic entropy
     S(vib)  - vibrational entropy
     S(rot)  - rotational entropy
     S(trans)- translational entropy
The entropies will be listed as mutliplied by the temperature to get
units of energy

Electronic entropy                ...      0.00000000 Eh      0.00 kcal/mol
Vibrational entropy               ...      0.00417684 Eh      2.62 kcal/mol
Rotational entropy                ...      0.01171812 Eh      7.35 kcal/mol
Translational entropy             ...      0.01881568 Eh     11.81 kcal/mol
-----------------------------------------------------------------------
Final entropy term                ...      0.03471064 Eh     21.78 kcal/mol

CAUTION: The rotational entropy is not quite correctly treated here
         because it includes a symmetry number that is not yet correctly
         implemented in ORCA!
For a nonlinear molecule the correct rotational entropy is:
    S(rot) = R*(ln(qrot/sn)+1.5)
    R    = 8.31441 J/mol/K = 1.987191683e-3 kcal/mol/K
    qrot = 164308.1611080
    sn is the rotational symmetry number. We have assumed 3 here
       if it is different for your molecule then you should correct
       the printed rotational entropy by manually evaluating the equation
       as given above

For convenience we print out the resulting values for sn=1 - 12:
 sn= 1  qrot/sn=  164308.1611 T*S(rot)=     8.00 kcal/mol T*S(tot)=    22.43 kcal/mol
 sn= 2  qrot/sn=   82154.0806 T*S(rot)=     7.59 kcal/mol T*S(tot)=    22.02 kcal/mol
 sn= 3  qrot/sn=   54769.3870 T*S(rot)=     7.35 kcal/mol T*S(tot)=    21.78 kcal/mol
 sn= 4  qrot/sn=   41077.0403 T*S(rot)=     7.18 kcal/mol T*S(tot)=    21.61 kcal/mol
 sn= 5  qrot/sn=   32861.6322 T*S(rot)=     7.05 kcal/mol T*S(tot)=    21.48 kcal/mol
 sn= 6  qrot/sn=   27384.6935 T*S(rot)=     6.94 kcal/mol T*S(tot)=    21.37 kcal/mol
 sn= 7  qrot/sn=   23472.5944 T*S(rot)=     6.85 kcal/mol T*S(tot)=    21.28 kcal/mol
 sn= 8  qrot/sn=   20538.5201 T*S(rot)=     6.77 kcal/mol T*S(tot)=    21.20 kcal/mol
 sn= 9  qrot/sn=   18256.4623 T*S(rot)=     6.70 kcal/mol T*S(tot)=    21.13 kcal/mol
 sn=10  qrot/sn=   16430.8161 T*S(rot)=     6.64 kcal/mol T*S(tot)=    21.07 kcal/mol
 sn=11  qrot/sn=   14937.1056 T*S(rot)=     6.58 kcal/mol T*S(tot)=    21.01 kcal/mol
 sn=12  qrot/sn=   13692.3468 T*S(rot)=     6.53 kcal/mol T*S(tot)=    20.96 kcal/mol

-------------------
GIBBS FREE ENTHALPY
-------------------

The Gibbs free enthalpy is G = H - T*S

Total enthalpy                    ...   -288.68010366 Eh
Total entropy correction          ...     -0.03471064 Eh    -21.78 kcal/mol
-----------------------------------------------------------------------
Final Gibbs free enthalpy         ...   -288.71481430 Eh

For completeness - the Gibbs free enthalpy minus the electronic energy
G-E(el)                           ...      0.12688595 Eh     79.62 kcal/mol

                             ****ORCA TERMINATED NORMALLY****
TOTAL RUN TIME: 0 days 0 hours 50 minutes 53 seconds 99 msec
