                         Program Version 3.0.3 - RELEASE   -
|  1> ! NORI PBE0 def2-TZVP UseSym TightOPT Freq TightSCF Grid3 FinalGrid5 XYZFile
|  2> % pal
|  3>     nprocs 8
|  4> end
|  5> %method
|  6>     SymThresh 5.0e-2
|  7> end
|  8> % geom
|  9>     MaxIter 10
| 10> end
| 11> % maxcore 2000
| 12> % output
| 13>     printlevel mini
| 14>     print[ P_Basis ] 0
| 15>     print[ P_SCFInfo ] 1
| 16>     print[ P_SCFIterInfo ] 1
| 17>     print[ P_OrbEn ] 0
| 18>     print[ P_Cartesian ] 0
| 19> end
| 20> % elprop
| 21>     Dipole false
| 22> end
| 23> *xyz 1 1
| 24>  C       -1.5425168088     0.7585653170     0.1011813479
| 25>  C       -1.5476402002    -0.7503946730    -0.0873614046
| 26>  C       -0.3128320475    -1.4874054998     0.4211121842
| 27>  C        0.9325597833    -1.2374547670    -0.4056810547
| 28>  N        1.7101210954    -0.0043159575    -0.0106506330
| 29>  C        0.9435381379     1.2337388557     0.3909686237
| 30>  C       -0.3099187270     1.4890820448    -0.4217917417
| 31>  H       -2.4259217692     1.1736128655    -0.3892143333
| 32>  H       -1.6529535897     0.9969914017     1.1653845033
| 33>  H       -1.6716226469    -0.9881776592    -1.1501727380
| 34>  H       -2.4274757655    -1.1607920002     0.4132477128
| 35>  H       -0.1245644961    -1.2825449059     1.4820891450
| 36>  H       -0.4999579270    -2.5632877923     0.3653547626
| 37>  H        1.6461537529    -2.0597400088    -0.3292034631
| 38>  H        0.6766267436    -1.1163758298    -1.4592981835
| 39>  H        2.3250643358     0.2337720113    -0.7896257931
| 40>  H        2.3299301865    -0.2463211172     0.7632408162
| 41>  H        0.6990226534     1.1156592388     1.4476391692
| 42>  H        1.6604606711     2.0521564462     0.3048843091
| 43>  H       -0.4910996825     2.5659175094    -0.3644165206
| 44>  H       -0.1346336994     1.2828245203    -1.4846967084
| 45> *
| 46>
| 47>                          ****END OF INPUT****
 Total Charge           Charge          ....    1
 Multiplicity           Mult            ....    1
 Number of Electrons    NEL             ....   56
FINAL SINGLE POINT ENERGY      -291.338374756983
FINAL SINGLE POINT ENERGY      -291.338376379283

CARTESIAN COORDINATES (ANGSTROEM)
---------------------------------
  C      0.760494   -0.001728    1.562894
  C     -0.760494    0.001728    1.562894
  C     -1.425163   -0.602503    0.330231
  C     -1.276432    0.240802   -0.920619
  N     -0.000000    0.000000   -1.692101
  C      1.276432   -0.240802   -0.920619
  C      1.425163    0.602503    0.330231
  H      1.109656    0.538919    2.445723
  H      1.126167   -1.028803    1.678282
  H     -1.126167    1.028804    1.678282
  H     -1.109656   -0.538919    2.445723
  H     -1.089328   -1.630430    0.149784
  H     -2.499725   -0.679460    0.514754
  H     -2.079420    0.056091   -1.636079
  H     -1.290657    1.302612   -0.671794
  H      0.140763    0.800214   -2.309634
  H     -0.140763   -0.800214   -2.309634
  H      1.290656   -1.302612   -0.671794
  H      2.079420   -0.056091   -1.636079
  H      2.499725    0.679459    0.514754
  H      1.089329    1.630430    0.149784

FINAL SINGLE POINT ENERGY      -291.338377289460
                    ***********************HURRAY********************
 Multiplicity           Mult            ....    1
 Number of Electrons    NEL             ....   56
 Basis Dimension        Dim             ....  301
FINAL SINGLE POINT ENERGY      -291.338377669257

VIBRATIONAL FREQUENCIES
-----------------------

   0:         0.00 cm**-1
   1:         0.00 cm**-1
   2:         0.00 cm**-1
   3:         0.00 cm**-1
   4:         0.00 cm**-1
   5:         0.00 cm**-1
   6:       110.90 cm**-1
   7:       170.82 cm**-1
   8:       268.67 cm**-1
   9:       309.63 cm**-1
  10:       345.17 cm**-1
  11:       387.68 cm**-1
  12:       487.14 cm**-1
  13:       517.60 cm**-1
  14:       735.50 cm**-1
  15:       766.37 cm**-1
  16:       813.83 cm**-1
  17:       835.24 cm**-1
  18:       854.76 cm**-1
  19:       865.13 cm**-1
  20:       964.30 cm**-1
  21:       971.40 cm**-1
  22:      1019.14 cm**-1
  23:      1030.04 cm**-1
  24:      1030.33 cm**-1
  25:      1086.54 cm**-1
  26:      1112.77 cm**-1
  27:      1140.99 cm**-1
  28:      1228.50 cm**-1
  29:      1230.88 cm**-1
  30:      1263.08 cm**-1
  31:      1266.88 cm**-1
  32:      1318.99 cm**-1
  33:      1330.16 cm**-1
  34:      1368.77 cm**-1
  35:      1371.52 cm**-1
  36:      1387.88 cm**-1
  37:      1399.41 cm**-1
  38:      1405.48 cm**-1
  39:      1411.57 cm**-1
  40:      1443.80 cm**-1
  41:      1445.25 cm**-1
  42:      1468.17 cm**-1
  43:      1469.85 cm**-1
  44:      1479.50 cm**-1
  45:      1487.62 cm**-1
  46:      1501.44 cm**-1
  47:      1502.39 cm**-1
  48:      1649.92 cm**-1
  49:      3038.62 cm**-1
  50:      3044.23 cm**-1
  51:      3052.74 cm**-1
  52:      3054.20 cm**-1
  53:      3091.06 cm**-1
  54:      3091.86 cm**-1
  55:      3106.28 cm**-1
  56:      3107.35 cm**-1
  57:      3107.95 cm**-1
  58:      3110.81 cm**-1
  59:      3146.18 cm**-1
  60:      3147.00 cm**-1
  61:      3456.01 cm**-1
  62:      3506.49 cm**-1

IR SPECTRUM
-----------

 Mode    freq (cm**-1)   T**2         TX         TY         TZ
-------------------------------------------------------------------
   6:       110.90    3.167376  ( -0.072706   1.778226   0.000001)
   7:       170.82    0.022728  ( -0.000004   0.000077  -0.150758)
   8:       268.67    0.186278  ( -0.328707   0.279695   0.000005)
   9:       309.63    1.332345  ( -0.000020  -0.000033  -1.154273)
  10:       345.17    2.224088  (  0.952632   1.147423  -0.000022)
  11:       387.68    2.025594  (  0.000001   0.000028  -1.423234)
  12:       487.14    1.105718  ( -0.219002   1.028473  -0.000008)
  13:       517.60    0.269588  (  0.000026  -0.000076  -0.519219)
  14:       735.50    0.165246  (  0.000006   0.000044  -0.406505)
  15:       766.37    7.410316  (  2.117468   1.710743  -0.000016)
  16:       813.83    3.798838  (  1.658159   1.024375  -0.000005)
  17:       835.24    2.960290  (  0.000003  -0.000001   1.720549)
  18:       854.76    0.791806  (  0.000012  -0.000004   0.889835)
  19:       865.13    2.424176  ( -0.266967  -1.533918  -0.000020)
  20:       964.30    3.727205  ( -0.000209  -0.000131  -1.930597)
  21:       971.40   12.016628  (  2.999005   1.738562  -0.000126)
  22:      1019.14   11.152372  (  3.013347  -1.439484  -0.000034)
  23:      1030.04    0.178779  (  0.279643   0.317142   0.000446)
  24:      1030.33    0.726050  (  0.000082   0.000168  -0.852085)
  25:      1086.54    0.282244  ( -0.000139  -0.000006  -0.531266)
  26:      1112.77   10.972342  ( -3.304031  -0.236056   0.000021)
  27:      1140.99    1.194035  ( -0.000043   0.000005  -1.092719)
  28:      1228.50    4.772272  (  1.779046  -1.267781   0.000189)
  29:      1230.88    0.317327  ( -0.000575   0.000460   0.563317)
  30:      1263.08    0.000975  (  0.000053  -0.000041  -0.031219)
  31:      1266.88   13.751304  (  2.889067  -2.324779  -0.000027)
  32:      1318.99    1.736314  ( -0.043628  -1.316970  -0.000036)
  33:      1330.16    4.005658  ( -0.000012   0.000024   2.001414)
  34:      1368.77    1.414029  ( -1.162674   0.249435   0.000013)
  35:      1371.52    0.240856  ( -0.000050   0.000020  -0.490771)
  36:      1387.88    0.061480  ( -0.000019  -0.000045   0.247951)
  37:      1399.41    7.769695  (  2.754123  -0.429535  -0.000007)
  38:      1405.48    0.022594  ( -0.000463   0.000019   0.150313)
  39:      1411.57   15.113844  ( -3.825511  -0.692324  -0.000023)
  40:      1443.80   26.715341  ( -5.129123  -0.638310   0.000034)
  41:      1445.25    0.383507  ( -0.000278  -0.000075   0.619279)
  42:      1468.17   16.403800  (  2.673037   3.042807   0.000248)
  43:      1469.85    0.111105  ( -0.002634  -0.002729   0.333303)
  44:      1479.50    3.291925  ( -1.383784   1.173485   0.001122)
  45:      1487.62   14.544754  (  0.000343  -0.000099   3.813759)
  46:      1501.44    3.245567  (  0.001006  -0.002160   1.801544)
  47:      1502.39   42.640125  ( -2.811865   5.893517   0.000520)
  48:      1649.92   63.454427  ( -0.000046   0.000004  -7.965829)
  49:      3038.62    0.242047  (  0.000122   0.000009   0.491983)
  50:      3044.23    3.349071  ( -1.826241  -0.117962   0.000117)
  51:      3052.74    8.279211  (  0.000423  -0.000879   2.877362)
  52:      3054.20   28.575870  (  2.091810  -4.919370  -0.000480)
  53:      3091.06    1.431662  (  0.016743  -1.196404  -0.000011)
  54:      3091.86    3.036182  ( -0.000009   0.000040   1.742464)
  55:      3106.28    4.271835  ( -0.000565   0.000217  -2.066842)
  56:      3107.35    7.837488  (  2.560587  -1.131760  -0.000662)
  57:      3107.95    3.459928  ( -0.000260   0.000178  -1.860088)
  58:      3110.81   14.238170  ( -0.480930   3.742576  -0.000030)
  59:      3146.18    1.423864  (  0.000018   0.000143   1.193258)
  60:      3147.00    3.202564  ( -0.450603  -1.731913   0.000063)
  61:      3456.01   54.827851  (  0.000023   0.000129  -7.404583)
  62:      3506.49   66.180676  (  1.395696   8.014531   0.000091)

--------------------------
THERMOCHEMISTRY AT 298.15K
--------------------------

Temperature         ... 298.15 K
Pressure            ... 1.00 atm
Total Mass          ... 100.18 AMU

Throughout the following assumptions are being made:
  (1) The electronic state is orbitally nondegenerate
  (2) There are no thermally accessible electronically excited states
  (3) Hindered rotations indicated by low frequency modes) are not
      treated as such but are treated as vibrations and this may
      case some error
  (4) All equations used are the standard statistical mechanics
      equations for an ideal gas
  (5) All vibrations are strinctly harmonic

------------
INNER ENERGY
------------

The inner energy is: U= E(el) + E(ZPE) + E(vib) + E(rot) + E(trans)
    E(el)   - is the total energy from the electronic structure calculation
              = E(kin-el) + E(nuc-el) + E(el-el) + E(nuc-nuc)
    E(ZPE)  - the the zero temperature vibrational energy from the frequency calculation
    E(vib)  - the the finite temperature correction to E(ZPE) due to population
              of excietd vibrational states
    E(rot)  - is the rotational thermal energy
    E(trans)- is the translational thermal energy

Summary of contributions to the inner energy U:
Electronic energy                ...   -291.33837767 Eh
Zero point energy                ...      0.20347630 Eh     127.68 kcal/mol
Thermal vibrational correction   ...      0.00420443 Eh       2.64 kcal/mol
Thermal rotational correction    ...      0.00141627 Eh       0.89 kcal/mol
Thermal translational correction ...      0.00141627 Eh       0.89 kcal/mol
-----------------------------------------------------------------------
Total thermal energy                   -291.12786440 Eh

Summary of corrections to the electronic energy:
(perhaps to be used in another calculation)
Total thermal correction                  0.00703697 Eh       4.42 kcal/mol
Non-thermal (ZPE) correction              0.20347630 Eh     127.68 kcal/mol
-----------------------------------------------------------------------
Total correction                          0.21051327 Eh     132.10 kcal/mol

--------
ENTHALPY
--------

The enthalpy is H = U + kB*T
                kB is Boltzmann's constant
Total free energy                 ...   -291.12786440 Eh
Thermal Enthalpy correction       ...      0.00094421 Eh       0.59 kcal/mol
-----------------------------------------------------------------------
Total Enthalpy                    ...   -291.12692019 Eh

-------
ENTROPY
-------

The entropy contributions are T*S = T*(S(el)+S(vib)+S(rot)+S(trans)
     S(el)   - electronic entropy
     S(vib)  - vibrational entropy
     S(rot)  - rotational entropy
     S(trans)- translational entropy
The entropies will be listed as mutliplied by the temperature to get
units of energy

Electronic entropy                ...      0.00000000 Eh      0.00 kcal/mol
Vibrational entropy               ...      0.00684791 Eh      4.30 kcal/mol
Rotational entropy                ...      0.01199273 Eh      7.53 kcal/mol
Translational entropy             ...      0.01887386 Eh     11.84 kcal/mol
-----------------------------------------------------------------------
Final entropy term                ...      0.03771450 Eh     23.67 kcal/mol

CAUTION: The rotational entropy is not quite correctly treated here
         because it includes a symmetry number that is not yet correctly
         implemented in ORCA!
For a nonlinear molecule the correct rotational entropy is:
    S(rot) = R*(ln(qrot/sn)+1.5)
    R    = 8.31441 J/mol/K = 1.987191683e-3 kcal/mol/K
    qrot = 219770.3447506
    sn is the rotational symmetry number. We have assumed 3 here
       if it is different for your molecule then you should correct
       the printed rotational entropy by manually evaluating the equation
       as given above

For convenience we print out the resulting values for sn=1 - 12:
 sn= 1  qrot/sn=  219770.3448 T*S(rot)=     8.18 kcal/mol T*S(tot)=    24.32 kcal/mol
 sn= 2  qrot/sn=  109885.1724 T*S(rot)=     7.77 kcal/mol T*S(tot)=    23.91 kcal/mol
 sn= 3  qrot/sn=   73256.7816 T*S(rot)=     7.53 kcal/mol T*S(tot)=    23.67 kcal/mol
 sn= 4  qrot/sn=   54942.5862 T*S(rot)=     7.36 kcal/mol T*S(tot)=    23.50 kcal/mol
 sn= 5  qrot/sn=   43954.0690 T*S(rot)=     7.22 kcal/mol T*S(tot)=    23.36 kcal/mol
 sn= 6  qrot/sn=   36628.3908 T*S(rot)=     7.11 kcal/mol T*S(tot)=    23.26 kcal/mol
 sn= 7  qrot/sn=   31395.7635 T*S(rot)=     7.02 kcal/mol T*S(tot)=    23.16 kcal/mol
 sn= 8  qrot/sn=   27471.2931 T*S(rot)=     6.94 kcal/mol T*S(tot)=    23.09 kcal/mol
 sn= 9  qrot/sn=   24418.9272 T*S(rot)=     6.87 kcal/mol T*S(tot)=    23.02 kcal/mol
 sn=10  qrot/sn=   21977.0345 T*S(rot)=     6.81 kcal/mol T*S(tot)=    22.95 kcal/mol
 sn=11  qrot/sn=   19979.1223 T*S(rot)=     6.76 kcal/mol T*S(tot)=    22.90 kcal/mol
 sn=12  qrot/sn=   18314.1954 T*S(rot)=     6.70 kcal/mol T*S(tot)=    22.84 kcal/mol

-------------------
GIBBS FREE ENTHALPY
-------------------

The Gibbs free enthalpy is G = H - T*S

Total enthalpy                    ...   -291.12692019 Eh
Total entropy correction          ...     -0.03771450 Eh    -23.67 kcal/mol
-----------------------------------------------------------------------
Final Gibbs free enthalpy         ...   -291.16463470 Eh

For completeness - the Gibbs free enthalpy minus the electronic energy
G-E(el)                           ...      0.17374297 Eh    109.03 kcal/mol

                             ****ORCA TERMINATED NORMALLY****
TOTAL RUN TIME: 0 days 1 hours 10 minutes 36 seconds 531 msec
