                         Program Version 3.0.3 - RELEASE   -
|  1> ! NORI PBE0 def2-TZVP UseSym TightOPT Freq TightSCF Grid3 FinalGrid5 XYZFile
|  2> % pal
|  3>     nprocs 8
|  4> end
|  5> %method
|  6>     SymThresh 5.0e-2
|  7> end
|  8> % geom
|  9>     MaxIter 10
| 10> end
| 11> % maxcore 2000
| 12> % output
| 13>     printlevel mini
| 14>     print[ P_Basis ] 0
| 15>     print[ P_SCFInfo ] 1
| 16>     print[ P_SCFIterInfo ] 1
| 17>     print[ P_OrbEn ] 0
| 18>     print[ P_Cartesian ] 0
| 19> end
| 20> % elprop
| 21>     Dipole false
| 22> end
| 23> *xyz 1 1
| 24>  C       -0.2869948592    -1.2203808630    -0.4322850371
| 25>  C        1.0310295130    -1.1077749483    -1.1354991836
| 26>  C        0.7576265938    -0.2794486360     0.0809929998
| 27>  C        1.4773328543    -0.4929537456     1.3691940120
| 28>  C        0.7435510382    -0.3269705732     2.7124188224
| 29>  C        1.3864800766    -1.6361955650     3.1730013552
| 30>  N        1.7581783109    -1.9532316667     1.7375817539
| 31>  H       -0.5087062233    -2.1410484621     0.1019945057
| 32>  H       -1.1639574056    -0.7910744042    -0.8982432166
| 33>  H        1.0695555375    -0.6067102580    -2.0933436237
| 34>  H        1.7199350538    -1.9431197249    -1.0592427671
| 35>  H        0.5745398989     0.7774433283    -0.0877905005
| 36>  H        2.4449379807     0.0129967626     1.3722837954
| 37>  H       -0.3377424158    -0.4035166330     2.5971228038
| 38>  H        0.9873884799     0.5608362526     3.2903871233
| 39>  H        2.3001504182    -1.5087860200     3.7500715429
| 40>  H        0.7629014824    -2.4061030232     3.6220033858
| 41>  H        2.6986194802    -2.3033482657     1.5651930841
| 42>  H        1.0899841853    -2.5843935546     1.2948891442
| 43> *
| 44>
| 45>                          ****END OF INPUT****
 Total Charge           Charge          ....    1
 Multiplicity           Mult            ....    1
 Number of Electrons    NEL             ....   54
FINAL SINGLE POINT ENERGY      -290.076113654365
FINAL SINGLE POINT ENERGY      -290.076114671499

CARTESIAN COORDINATES (ANGSTROEM)
---------------------------------
  C      1.502845    0.000161   -1.322941
  C      1.366988    1.454912   -0.989997
  C      0.145882    0.600179   -1.126332
  C     -0.727164    0.267378    0.035549
  C     -1.383463   -1.120579    0.151109
  C     -0.950253   -1.152710    1.617510
  N      0.000116    0.000165    1.357380
  H      1.924063   -0.663229   -0.571820
  H      1.787518   -0.278998   -2.328785
  H      1.563844    2.186677   -1.761898
  H      1.673256    1.780044   -0.000873
  H     -0.446729    0.747620   -2.024025
  H     -1.440695    1.069443    0.237957
  H     -0.871051   -1.865117   -0.457879
  H     -2.452493   -1.166748   -0.038605
  H     -1.714429   -0.823241    2.318742
  H     -0.441693   -2.033299    2.002702
  H      0.015726    0.755694    2.039885
  H      0.957354   -0.315447    1.199492

FINAL SINGLE POINT ENERGY      -290.076115025156
                    ***********************HURRAY********************
 Multiplicity           Mult            ....    1
 Number of Electrons    NEL             ....   54
 Basis Dimension        Dim             ....  289
FINAL SINGLE POINT ENERGY      -290.076115142811

VIBRATIONAL FREQUENCIES
-----------------------

   0:         0.00 cm**-1
   1:         0.00 cm**-1
   2:         0.00 cm**-1
   3:         0.00 cm**-1
   4:         0.00 cm**-1
   5:         0.00 cm**-1
   6:        79.82 cm**-1
   7:       106.95 cm**-1
   8:       191.37 cm**-1
   9:       256.26 cm**-1
  10:       415.35 cm**-1
  11:       514.10 cm**-1
  12:       617.66 cm**-1
  13:       749.86 cm**-1
  14:       778.94 cm**-1
  15:       816.53 cm**-1
  16:       833.64 cm**-1
  17:       868.41 cm**-1
  18:       876.36 cm**-1
  19:       936.68 cm**-1
  20:       953.56 cm**-1
  21:       962.54 cm**-1
  22:      1004.54 cm**-1
  23:      1035.20 cm**-1
  24:      1060.11 cm**-1
  25:      1083.98 cm**-1
  26:      1097.50 cm**-1
  27:      1122.59 cm**-1
  28:      1138.27 cm**-1
  29:      1157.03 cm**-1
  30:      1188.36 cm**-1
  31:      1231.39 cm**-1
  32:      1245.35 cm**-1
  33:      1264.66 cm**-1
  34:      1280.37 cm**-1
  35:      1297.49 cm**-1
  36:      1321.17 cm**-1
  37:      1345.31 cm**-1
  38:      1387.33 cm**-1
  39:      1430.23 cm**-1
  40:      1473.10 cm**-1
  41:      1487.37 cm**-1
  42:      1502.67 cm**-1
  43:      1524.35 cm**-1
  44:      1635.63 cm**-1
  45:      3102.54 cm**-1
  46:      3117.24 cm**-1
  47:      3126.28 cm**-1
  48:      3128.55 cm**-1
  49:      3147.99 cm**-1
  50:      3173.46 cm**-1
  51:      3183.65 cm**-1
  52:      3197.59 cm**-1
  53:      3229.90 cm**-1
  54:      3244.56 cm**-1
  55:      3459.06 cm**-1
  56:      3536.44 cm**-1

IR SPECTRUM
-----------

 Mode    freq (cm**-1)   T**2         TX         TY         TZ
-------------------------------------------------------------------
   6:        79.82    2.460971  (  0.498860  -1.486505   0.049138)
   7:       106.95    0.611491  (  0.055837   0.726316  -0.284321)
   8:       191.37    6.725266  (  1.198748   0.579339  -2.225451)
   9:       256.26    5.837246  (  1.186867  -0.494827  -2.045419)
  10:       415.35    1.302317  (  0.460173  -0.612107  -0.846099)
  11:       514.10    2.990016  ( -0.644429  -0.349541   1.566061)
  12:       617.66    3.482427  ( -1.360781   1.044031   0.735323)
  13:       749.86    1.420054  (  0.075722  -1.156687   0.276399)
  14:       778.94    0.342194  ( -0.372058   0.400068  -0.209075)
  15:       816.53    2.948937  ( -0.048420   1.668704   0.402519)
  16:       833.64    7.451500  (  0.135157  -2.652414   0.630820)
  17:       868.41    3.165225  (  1.346294  -0.568907  -1.014427)
  18:       876.36    9.017097  (  0.608840   0.243457   2.930382)
  19:       936.68   15.034395  (  2.263412   2.872372   1.288737)
  20:       953.56    8.694391  ( -2.867398   0.609742   0.317226)
  21:       962.54    4.125474  ( -0.952384  -0.831614   1.589609)
  22:      1004.54    2.780029  ( -1.623325   0.207030  -0.319351)
  23:      1035.20    4.073219  ( -1.921666  -0.115138  -0.605938)
  24:      1060.11    8.782019  ( -2.890041  -0.588889   0.287912)
  25:      1083.98    4.226953  (  0.349555  -2.025768   0.032090)
  26:      1097.50    1.564098  ( -0.978404   0.376057   0.682205)
  27:      1122.59    2.396669  ( -0.114952   1.118159  -1.064507)
  28:      1138.27    2.023638  (  0.008556   0.375412   1.372090)
  29:      1157.03    1.582264  ( -1.184183   0.020309   0.423749)
  30:      1188.36    2.068287  ( -0.302679  -1.383726   0.248946)
  31:      1231.39    7.003151  (  0.896577   1.089380  -2.238873)
  32:      1245.35    0.751370  (  0.750051   0.156415   0.405374)
  33:      1264.66   44.137430  (  0.771439   2.929688  -5.912634)
  34:      1280.37   36.061538  ( -0.383431  -3.852209   4.590752)
  35:      1297.49    6.041219  (  0.980700  -1.704251   1.474780)
  36:      1321.17   28.703887  ( -0.336919  -3.939790   3.615028)
  37:      1345.31    0.505770  (  0.631837   0.102235   0.310001)
  38:      1387.33   15.872605  ( -1.769626  -0.684254   3.503259)
  39:      1430.23   13.329930  ( -3.189108  -0.651830   1.653673)
  40:      1473.10    9.782927  ( -0.153574  -3.043753  -0.703498)
  41:      1487.37   14.000540  (  0.892579   1.912784   3.089514)
  42:      1502.67    9.891328  ( -1.785613  -2.218884   1.333967)
  43:      1524.35    3.577293  ( -1.128304   0.494212  -1.435262)
  44:      1635.63   41.476692  (  5.182684   0.720514   3.754642)
  45:      3102.54    2.461647  ( -1.279001   0.592786   0.688772)
  46:      3117.24    1.267325  (  0.466029  -0.768857  -0.677496)
  47:      3126.28    2.791412  (  0.178648   0.484189  -1.589043)
  48:      3128.55   12.332226  ( -0.195580   2.426241  -2.531271)
  49:      3147.99    9.366899  (  0.375460   0.445388   3.004590)
  50:      3173.46    1.580610  ( -0.500090  -0.271421   1.121093)
  51:      3183.65    0.217556  (  0.304782   0.147147  -0.320954)
  52:      3197.59    0.199583  ( -0.273895  -0.164478   0.312268)
  53:      3229.90    0.445520  ( -0.045862   0.622376  -0.236780)
  54:      3244.56    0.637742  (  0.233300   0.039998   0.762701)
  55:      3459.06   41.981076  (  5.735698   2.404505   1.816919)
  56:      3536.44   86.716500  (  4.048117  -5.411195  -6.406888)

--------------------------
THERMOCHEMISTRY AT 298.15K
--------------------------

Temperature         ... 298.15 K
Pressure            ... 1.00 atm
Total Mass          ... 98.17 AMU

Throughout the following assumptions are being made:
  (1) The electronic state is orbitally nondegenerate
  (2) There are no thermally accessible electronically excited states
  (3) Hindered rotations indicated by low frequency modes) are not
      treated as such but are treated as vibrations and this may
      case some error
  (4) All equations used are the standard statistical mechanics
      equations for an ideal gas
  (5) All vibrations are strinctly harmonic

------------
INNER ENERGY
------------

The inner energy is: U= E(el) + E(ZPE) + E(vib) + E(rot) + E(trans)
    E(el)   - is the total energy from the electronic structure calculation
              = E(kin-el) + E(nuc-el) + E(el-el) + E(nuc-nuc)
    E(ZPE)  - the the zero temperature vibrational energy from the frequency calculation
    E(vib)  - the the finite temperature correction to E(ZPE) due to population
              of excietd vibrational states
    E(rot)  - is the rotational thermal energy
    E(trans)- is the translational thermal energy

Summary of contributions to the inner energy U:
Electronic energy                ...   -290.07611514 Eh
Zero point energy                ...      0.17751324 Eh     111.39 kcal/mol
Thermal vibrational correction   ...      0.00413491 Eh       2.59 kcal/mol
Thermal rotational correction    ...      0.00141627 Eh       0.89 kcal/mol
Thermal translational correction ...      0.00141627 Eh       0.89 kcal/mol
-----------------------------------------------------------------------
Total thermal energy                   -289.89163445 Eh

Summary of corrections to the electronic energy:
(perhaps to be used in another calculation)
Total thermal correction                  0.00696745 Eh       4.37 kcal/mol
Non-thermal (ZPE) correction              0.17751324 Eh     111.39 kcal/mol
-----------------------------------------------------------------------
Total correction                          0.18448069 Eh     115.76 kcal/mol

--------
ENTHALPY
--------

The enthalpy is H = U + kB*T
                kB is Boltzmann's constant
Total free energy                 ...   -289.89163445 Eh
Thermal Enthalpy correction       ...      0.00094421 Eh       0.59 kcal/mol
-----------------------------------------------------------------------
Total Enthalpy                    ...   -289.89069024 Eh

-------
ENTROPY
-------

The entropy contributions are T*S = T*(S(el)+S(vib)+S(rot)+S(trans)
     S(el)   - electronic entropy
     S(vib)  - vibrational entropy
     S(rot)  - rotational entropy
     S(trans)- translational entropy
The entropies will be listed as mutliplied by the temperature to get
units of energy

Electronic entropy                ...      0.00000000 Eh      0.00 kcal/mol
Vibrational entropy               ...      0.00734318 Eh      4.61 kcal/mol
Rotational entropy                ...      0.01192885 Eh      7.49 kcal/mol
Translational entropy             ...      0.01884507 Eh     11.83 kcal/mol
-----------------------------------------------------------------------
Final entropy term                ...      0.03811709 Eh     23.92 kcal/mol

CAUTION: The rotational entropy is not quite correctly treated here
         because it includes a symmetry number that is not yet correctly
         implemented in ORCA!
For a nonlinear molecule the correct rotational entropy is:
    S(rot) = R*(ln(qrot/sn)+1.5)
    R    = 8.31441 J/mol/K = 1.987191683e-3 kcal/mol/K
    qrot = 205392.7076772
    sn is the rotational symmetry number. We have assumed 3 here
       if it is different for your molecule then you should correct
       the printed rotational entropy by manually evaluating the equation
       as given above

For convenience we print out the resulting values for sn=1 - 12:
 sn= 1  qrot/sn=  205392.7077 T*S(rot)=     8.14 kcal/mol T*S(tot)=    24.57 kcal/mol
 sn= 2  qrot/sn=  102696.3538 T*S(rot)=     7.73 kcal/mol T*S(tot)=    24.16 kcal/mol
 sn= 3  qrot/sn=   68464.2359 T*S(rot)=     7.49 kcal/mol T*S(tot)=    23.92 kcal/mol
 sn= 4  qrot/sn=   51348.1769 T*S(rot)=     7.32 kcal/mol T*S(tot)=    23.75 kcal/mol
 sn= 5  qrot/sn=   41078.5415 T*S(rot)=     7.18 kcal/mol T*S(tot)=    23.62 kcal/mol
 sn= 6  qrot/sn=   34232.1179 T*S(rot)=     7.07 kcal/mol T*S(tot)=    23.51 kcal/mol
 sn= 7  qrot/sn=   29341.8154 T*S(rot)=     6.98 kcal/mol T*S(tot)=    23.42 kcal/mol
 sn= 8  qrot/sn=   25674.0885 T*S(rot)=     6.90 kcal/mol T*S(tot)=    23.34 kcal/mol
 sn= 9  qrot/sn=   22821.4120 T*S(rot)=     6.83 kcal/mol T*S(tot)=    23.27 kcal/mol
 sn=10  qrot/sn=   20539.2708 T*S(rot)=     6.77 kcal/mol T*S(tot)=    23.21 kcal/mol
 sn=11  qrot/sn=   18672.0643 T*S(rot)=     6.72 kcal/mol T*S(tot)=    23.15 kcal/mol
 sn=12  qrot/sn=   17116.0590 T*S(rot)=     6.66 kcal/mol T*S(tot)=    23.10 kcal/mol

-------------------
GIBBS FREE ENTHALPY
-------------------

The Gibbs free enthalpy is G = H - T*S

Total enthalpy                    ...   -289.89069024 Eh
Total entropy correction          ...     -0.03811709 Eh    -23.92 kcal/mol
-----------------------------------------------------------------------
Final Gibbs free enthalpy         ...   -289.92880733 Eh

For completeness - the Gibbs free enthalpy minus the electronic energy
G-E(el)                           ...      0.14730781 Eh     92.44 kcal/mol

                             ****ORCA TERMINATED NORMALLY****
TOTAL RUN TIME: 0 days 0 hours 52 minutes 0 seconds 283 msec
