                         Program Version 3.0.3 - RELEASE   -
|  1> ! NORI PBE0 def2-TZVP UseSym TightOPT Freq TightSCF Grid3 FinalGrid5 XYZFile
|  2> % pal
|  3>     nprocs 8
|  4> end
|  5> %method
|  6>     SymThresh 5.0e-2
|  7> end
|  8> % geom
|  9>     MaxIter 10
| 10> end
| 11> % maxcore 2000
| 12> % output
| 13>     printlevel mini
| 14>     print[ P_Basis ] 0
| 15>     print[ P_SCFInfo ] 1
| 16>     print[ P_SCFIterInfo ] 1
| 17>     print[ P_OrbEn ] 0
| 18>     print[ P_Cartesian ] 0
| 19> end
| 20> % elprop
| 21>     Dipole false
| 22> end
| 23> *xyz 1 1
| 24>  C       -1.7811746374     0.7474825531     0.4903034366
| 25>  C       -1.1704598744    -0.3710394009    -0.2478175340
| 26>  C       -0.3211295124    -1.4231354226     0.4074535513
| 27>  C        1.0905657230    -1.3986547611    -0.1856376902
| 28>  C        1.7301748808     0.0061163660    -0.1528642874
| 29>  C        0.8012924662     1.0653723359     0.4176529021
| 30>  N       -0.5210350367     0.9777638777    -0.2470608137
| 31>  H       -2.6406796568     1.2590182424     0.0766625783
| 32>  H       -1.6734030729     0.7950799736     1.5670388040
| 33>  H       -1.6029018530    -0.6180217828    -1.2115610496
| 34>  H       -0.7876785648    -2.3962405641     0.2453368627
| 35>  H       -0.2939597654    -1.2701869160     1.4894759484
| 36>  H        1.7092272692    -2.1125284547     0.3581524057
| 37>  H        1.0475687440    -1.7586603875    -1.2157305621
| 38>  H        2.0432664368     0.3058114397    -1.1551113286
| 39>  H        2.6353610391     0.0115124730     0.4567824486
| 40>  H        0.6327739292     0.9279023050     1.4856728836
| 41>  H        1.1789140862     2.0772893167     0.2695189276
| 42>  H       -0.6048726007     1.5123988065    -1.1043974834
| 43> *
| 44>
| 45>                          ****END OF INPUT****
 Total Charge           Charge          ....    1
 Multiplicity           Mult            ....    1
 Number of Electrons    NEL             ....   54
FINAL SINGLE POINT ENERGY      -290.101939131518
FINAL SINGLE POINT ENERGY      -290.101940770508

CARTESIAN COORDINATES (ANGSTROEM)
---------------------------------
  C      1.470093   -0.000194    1.326182
  C      0.854441   -0.851985    0.294503
  C      0.763771   -0.455919   -1.152072
  C     -0.704619   -0.372319   -1.578302
  C     -1.548192    0.525885   -0.648176
  C     -0.746128    1.092735    0.511879
  N     -0.000643   -0.000272    1.180559
  H      1.828295   -0.443232    2.246811
  H      1.937904    0.932103    1.034921
  H      0.757079   -1.908259    0.522806
  H      1.293323   -1.199447   -1.749492
  H      1.275396    0.495172   -1.318046
  H     -0.749938   -0.007179   -2.604455
  H     -1.125508   -1.380095   -1.596897
  H     -2.404124   -0.028437   -0.255701
  H     -1.966316    1.373670   -1.193963
  H     -0.010901    1.825463    0.180776
  H     -1.375674    1.570504    1.262431
  H     -0.514284   -0.488025    1.906034

FINAL SINGLE POINT ENERGY      -290.101941301363
                    ***********************HURRAY********************
 Multiplicity           Mult            ....    1
 Number of Electrons    NEL             ....   54
 Basis Dimension        Dim             ....  289
FINAL SINGLE POINT ENERGY      -290.101941459939

VIBRATIONAL FREQUENCIES
-----------------------

   0:         0.00 cm**-1
   1:         0.00 cm**-1
   2:         0.00 cm**-1
   3:         0.00 cm**-1
   4:         0.00 cm**-1
   5:         0.00 cm**-1
   6:        96.82 cm**-1
   7:       226.17 cm**-1
   8:       311.48 cm**-1
   9:       424.30 cm**-1
  10:       457.86 cm**-1
  11:       487.84 cm**-1
  12:       604.72 cm**-1
  13:       762.37 cm**-1
  14:       773.39 cm**-1
  15:       780.34 cm**-1
  16:       831.12 cm**-1
  17:       901.12 cm**-1
  18:       946.54 cm**-1
  19:       964.80 cm**-1
  20:       974.22 cm**-1
  21:       993.87 cm**-1
  22:       999.34 cm**-1
  23:      1074.58 cm**-1
  24:      1103.81 cm**-1
  25:      1139.23 cm**-1
  26:      1148.00 cm**-1
  27:      1171.65 cm**-1
  28:      1182.07 cm**-1
  29:      1237.38 cm**-1
  30:      1256.51 cm**-1
  31:      1267.85 cm**-1
  32:      1289.76 cm**-1
  33:      1308.09 cm**-1
  34:      1343.58 cm**-1
  35:      1370.80 cm**-1
  36:      1381.96 cm**-1
  37:      1394.96 cm**-1
  38:      1429.01 cm**-1
  39:      1453.48 cm**-1
  40:      1479.14 cm**-1
  41:      1486.49 cm**-1
  42:      1490.86 cm**-1
  43:      1507.38 cm**-1
  44:      1512.69 cm**-1
  45:      3074.76 cm**-1
  46:      3081.24 cm**-1
  47:      3087.42 cm**-1
  48:      3107.66 cm**-1
  49:      3120.41 cm**-1
  50:      3133.38 cm**-1
  51:      3140.74 cm**-1
  52:      3162.62 cm**-1
  53:      3167.28 cm**-1
  54:      3190.34 cm**-1
  55:      3268.17 cm**-1
  56:      3556.35 cm**-1

IR SPECTRUM
-----------

 Mode    freq (cm**-1)   T**2         TX         TY         TZ
-------------------------------------------------------------------
   6:        96.82    0.266965  (  0.108510  -0.497932  -0.085174)
   7:       226.17    0.809196  (  0.397611   0.009019   0.806858)
   8:       311.48    0.498229  (  0.611778   0.335704   0.106111)
   9:       424.30    1.243368  ( -0.825091  -0.139302  -0.737013)
  10:       457.86    0.382482  (  0.239171   0.015064   0.570133)
  11:       487.84    0.318346  ( -0.310118  -0.269285   0.386857)
  12:       604.72    4.865192  (  1.382760  -1.382607  -1.020570)
  13:       762.37    2.480728  ( -0.253958   1.303827  -0.846326)
  14:       773.39   10.005955  (  2.312938  -0.582067  -2.077853)
  15:       780.34    0.378238  (  0.366586  -0.001493  -0.493813)
  16:       831.12    0.552943  (  0.340557  -0.513921  -0.415752)
  17:       901.12   11.454461  (  1.716975   0.260964   2.904885)
  18:       946.54    0.881034  ( -0.388436   0.819162   0.243156)
  19:       964.80    1.170822  (  0.734042  -0.794703   0.021215)
  20:       974.22   15.722281  ( -0.236234  -3.079542  -2.486543)
  21:       993.87    4.950534  (  0.037577  -1.687142  -1.450060)
  22:       999.34   15.681933  ( -3.801472   1.030021  -0.412070)
  23:      1074.58   20.912082  (  4.040315  -2.028321   0.688370)
  24:      1103.81    0.681037  (  0.544121   0.584899   0.207035)
  25:      1139.23    3.459145  (  0.620804   1.046550   1.406585)
  26:      1148.00    6.175278  (  0.618379   1.193397   2.090141)
  27:      1171.65    2.724273  ( -0.642505   1.144107   1.001239)
  28:      1182.07    1.263443  (  0.438484   0.869417   0.561507)
  29:      1237.38    1.207467  (  0.657862  -0.674334   0.565649)
  30:      1256.51    2.234924  ( -0.384833   0.002801  -1.444583)
  31:      1267.85    4.955182  ( -1.678496   1.211839   0.818096)
  32:      1289.76    4.136458  ( -0.769363   1.105906   1.523651)
  33:      1308.09    3.661825  (  0.803658  -1.208621   1.247074)
  34:      1343.58    2.318778  (  1.298895  -0.427937  -0.669718)
  35:      1370.80    0.057388  (  0.154214  -0.179064   0.039272)
  36:      1381.96    1.708210  ( -0.909642  -0.878728  -0.329543)
  37:      1394.96    0.246651  ( -0.334452   0.366544   0.020934)
  38:      1429.01    6.359589  (  0.971019  -2.325838   0.084805)
  39:      1453.48   35.450462  (  5.509511  -1.975807   1.091758)
  40:      1479.14    0.291785  ( -0.344461  -0.256461   0.327656)
  41:      1486.49    4.925381  ( -0.942753   0.379402   1.972980)
  42:      1490.86   11.244740  ( -3.229955  -0.538876   0.722318)
  43:      1507.38    5.327030  (  0.842913   0.905281   1.948588)
  44:      1512.69   27.081711  ( -2.169912  -4.569117  -1.223259)
  45:      3074.76    6.223536  (  1.740781  -0.762986  -1.615880)
  46:      3081.24    1.486706  ( -0.061486   1.089393   0.544196)
  47:      3087.42   10.742780  ( -2.346681  -2.160893  -0.752602)
  48:      3107.66    1.538946  ( -0.698197  -0.956421  -0.369765)
  49:      3120.41    1.344852  ( -0.267522  -0.883266  -0.702228)
  50:      3133.38    0.521731  (  0.096646  -0.495034  -0.517041)
  51:      3140.74    5.249500  ( -0.609456  -1.986067   0.966231)
  52:      3162.62    1.867785  ( -1.181218  -0.552638   0.408779)
  53:      3167.28    1.258084  ( -0.740968  -0.068364  -0.839272)
  54:      3190.34    0.297276  (  0.247171  -0.333785  -0.353228)
  55:      3268.17    3.325865  (  0.039367   1.423529  -1.139246)
  56:      3556.35   88.054385  (  5.013550   3.390721  -7.170893)

--------------------------
THERMOCHEMISTRY AT 298.15K
--------------------------

Temperature         ... 298.15 K
Pressure            ... 1.00 atm
Total Mass          ... 98.17 AMU

Throughout the following assumptions are being made:
  (1) The electronic state is orbitally nondegenerate
  (2) There are no thermally accessible electronically excited states
  (3) Hindered rotations indicated by low frequency modes) are not
      treated as such but are treated as vibrations and this may
      case some error
  (4) All equations used are the standard statistical mechanics
      equations for an ideal gas
  (5) All vibrations are strinctly harmonic

------------
INNER ENERGY
------------

The inner energy is: U= E(el) + E(ZPE) + E(vib) + E(rot) + E(trans)
    E(el)   - is the total energy from the electronic structure calculation
              = E(kin-el) + E(nuc-el) + E(el-el) + E(nuc-nuc)
    E(ZPE)  - the the zero temperature vibrational energy from the frequency calculation
    E(vib)  - the the finite temperature correction to E(ZPE) due to population
              of excietd vibrational states
    E(rot)  - is the rotational thermal energy
    E(trans)- is the translational thermal energy

Summary of contributions to the inner energy U:
Electronic energy                ...   -290.10194146 Eh
Zero point energy                ...      0.17919143 Eh     112.44 kcal/mol
Thermal vibrational correction   ...      0.00345411 Eh       2.17 kcal/mol
Thermal rotational correction    ...      0.00141627 Eh       0.89 kcal/mol
Thermal translational correction ...      0.00141627 Eh       0.89 kcal/mol
-----------------------------------------------------------------------
Total thermal energy                   -289.91646337 Eh

Summary of corrections to the electronic energy:
(perhaps to be used in another calculation)
Total thermal correction                  0.00628666 Eh       3.94 kcal/mol
Non-thermal (ZPE) correction              0.17919143 Eh     112.44 kcal/mol
-----------------------------------------------------------------------
Total correction                          0.18547809 Eh     116.39 kcal/mol

--------
ENTHALPY
--------

The enthalpy is H = U + kB*T
                kB is Boltzmann's constant
Total free energy                 ...   -289.91646337 Eh
Thermal Enthalpy correction       ...      0.00094421 Eh       0.59 kcal/mol
-----------------------------------------------------------------------
Total Enthalpy                    ...   -289.91551916 Eh

-------
ENTROPY
-------

The entropy contributions are T*S = T*(S(el)+S(vib)+S(rot)+S(trans)
     S(el)   - electronic entropy
     S(vib)  - vibrational entropy
     S(rot)  - rotational entropy
     S(trans)- translational entropy
The entropies will be listed as mutliplied by the temperature to get
units of energy

Electronic entropy                ...      0.00000000 Eh      0.00 kcal/mol
Vibrational entropy               ...      0.00558144 Eh      3.50 kcal/mol
Rotational entropy                ...      0.01179858 Eh      7.40 kcal/mol
Translational entropy             ...      0.01884507 Eh     11.83 kcal/mol
-----------------------------------------------------------------------
Final entropy term                ...      0.03622509 Eh     22.73 kcal/mol

CAUTION: The rotational entropy is not quite correctly treated here
         because it includes a symmetry number that is not yet correctly
         implemented in ORCA!
For a nonlinear molecule the correct rotational entropy is:
    S(rot) = R*(ln(qrot/sn)+1.5)
    R    = 8.31441 J/mol/K = 1.987191683e-3 kcal/mol/K
    qrot = 178922.7610906
    sn is the rotational symmetry number. We have assumed 3 here
       if it is different for your molecule then you should correct
       the printed rotational entropy by manually evaluating the equation
       as given above

For convenience we print out the resulting values for sn=1 - 12:
 sn= 1  qrot/sn=  178922.7611 T*S(rot)=     8.05 kcal/mol T*S(tot)=    23.38 kcal/mol
 sn= 2  qrot/sn=   89461.3805 T*S(rot)=     7.64 kcal/mol T*S(tot)=    22.97 kcal/mol
 sn= 3  qrot/sn=   59640.9204 T*S(rot)=     7.40 kcal/mol T*S(tot)=    22.73 kcal/mol
 sn= 4  qrot/sn=   44730.6903 T*S(rot)=     7.23 kcal/mol T*S(tot)=    22.56 kcal/mol
 sn= 5  qrot/sn=   35784.5522 T*S(rot)=     7.10 kcal/mol T*S(tot)=    22.43 kcal/mol
 sn= 6  qrot/sn=   29820.4602 T*S(rot)=     6.99 kcal/mol T*S(tot)=    22.32 kcal/mol
 sn= 7  qrot/sn=   25560.3944 T*S(rot)=     6.90 kcal/mol T*S(tot)=    22.23 kcal/mol
 sn= 8  qrot/sn=   22365.3451 T*S(rot)=     6.82 kcal/mol T*S(tot)=    22.15 kcal/mol
 sn= 9  qrot/sn=   19880.3068 T*S(rot)=     6.75 kcal/mol T*S(tot)=    22.08 kcal/mol
 sn=10  qrot/sn=   17892.2761 T*S(rot)=     6.69 kcal/mol T*S(tot)=    22.02 kcal/mol
 sn=11  qrot/sn=   16265.7056 T*S(rot)=     6.63 kcal/mol T*S(tot)=    21.96 kcal/mol
 sn=12  qrot/sn=   14910.2301 T*S(rot)=     6.58 kcal/mol T*S(tot)=    21.91 kcal/mol

-------------------
GIBBS FREE ENTHALPY
-------------------

The Gibbs free enthalpy is G = H - T*S

Total enthalpy                    ...   -289.91551916 Eh
Total entropy correction          ...     -0.03622509 Eh    -22.73 kcal/mol
-----------------------------------------------------------------------
Final Gibbs free enthalpy         ...   -289.95174425 Eh

For completeness - the Gibbs free enthalpy minus the electronic energy
G-E(el)                           ...      0.15019721 Eh     94.25 kcal/mol

                             ****ORCA TERMINATED NORMALLY****
TOTAL RUN TIME: 0 days 0 hours 54 minutes 59 seconds 988 msec
