                         Program Version 3.0.3 - RELEASE   -
|  1> ! NORI PBE0 def2-TZVP UseSym TightOPT Freq TightSCF Grid3 FinalGrid5 XYZFile
|  2> % pal
|  3>     nprocs 8
|  4> end
|  5> %method
|  6>     SymThresh 5.0e-2
|  7> end
|  8> % geom
|  9>     MaxIter 10
| 10> end
| 11> % maxcore 2000
| 12> % output
| 13>     printlevel mini
| 14>     print[ P_Basis ] 0
| 15>     print[ P_SCFInfo ] 1
| 16>     print[ P_SCFIterInfo ] 1
| 17>     print[ P_OrbEn ] 0
| 18>     print[ P_Cartesian ] 0
| 19> end
| 20> % elprop
| 21>     Dipole false
| 22> end
| 23> *xyz 1 1
| 24>  C        0.7115246072    -1.2713680921     0.8085277936
| 25>  C       -0.3269554239    -1.2663289919    -0.2473983828
| 26>  C       -1.5582033071    -0.4650547520    -0.1101849698
| 27>  C       -1.5252150974     0.8298873213     0.1807902386
| 28>  C       -0.2428721681     1.5743260319     0.3702093526
| 29>  C        0.8866166118     1.0013802580    -0.4673895971
| 30>  N        0.9344788902    -0.4786189487    -0.4153450327
| 31>  H        0.5404124170    -0.6802360331     1.6985690332
| 32>  H        1.3716461558    -2.1223949803     0.9186035657
| 33>  H       -0.3678389061    -2.1342323726    -0.8962070922
| 34>  H       -2.4912162790    -0.9957477228    -0.2538459684
| 35>  H       -2.4535860109     1.3786455989     0.2886133705
| 36>  H       -0.3614527133     2.6208140521     0.0814400554
| 37>  H        0.0298424123     1.5986297731     1.4311876388
| 38>  H        0.7430955420     1.2503575166    -1.5204086441
| 39>  H        1.8608509739     1.3716256612    -0.1468474765
| 40>  H        1.6021922956    -0.8815943196    -1.0645538848
| 41> *
| 42>
| 43>                          ****END OF INPUT****
 Total Charge           Charge          ....    1
 Multiplicity           Mult            ....    1
 Number of Electrons    NEL             ....   52
FINAL SINGLE POINT ENERGY      -288.876392187083
FINAL SINGLE POINT ENERGY      -288.876393292261

CARTESIAN COORDINATES (ANGSTROEM)
---------------------------------
  C      1.443124    0.000627    0.919255
  C      0.590617    1.094079    0.396669
  C      0.154609    1.121138   -1.012721
  C     -0.438414    0.080580   -1.585766
  C     -0.726515   -1.184101   -0.842937
  C     -0.977416   -0.941718    0.635015
  N      0.001294   -0.000793    1.228749
  H      1.754138   -0.777393    0.235003
  H      2.085284    0.172306    1.774034
  H      0.634448    2.041534    0.922286
  H      0.353036    2.037098   -1.555520
  H     -0.728549    0.136274   -2.628522
  H     -1.616821   -1.671009   -1.246776
  H      0.085249   -1.905350   -0.989423
  H     -1.953355   -0.475739    0.782762
  H     -0.935849   -1.865281    1.213478
  H     -0.226986    0.267478    2.180135

FINAL SINGLE POINT ENERGY      -288.876393866096
                    ***********************HURRAY********************
 Multiplicity           Mult            ....    1
 Number of Electrons    NEL             ....   52
 Basis Dimension        Dim             ....  277
FINAL SINGLE POINT ENERGY      -288.876393974322

VIBRATIONAL FREQUENCIES
-----------------------

   0:         0.00 cm**-1
   1:         0.00 cm**-1
   2:         0.00 cm**-1
   3:         0.00 cm**-1
   4:         0.00 cm**-1
   5:         0.00 cm**-1
   6:       199.72 cm**-1
   7:       241.09 cm**-1
   8:       342.04 cm**-1
   9:       459.41 cm**-1
  10:       492.99 cm**-1
  11:       591.41 cm**-1
  12:       702.87 cm**-1
  13:       741.78 cm**-1
  14:       768.13 cm**-1
  15:       792.27 cm**-1
  16:       865.63 cm**-1
  17:       921.16 cm**-1
  18:       946.35 cm**-1
  19:       968.78 cm**-1
  20:      1006.65 cm**-1
  21:      1013.54 cm**-1
  22:      1072.87 cm**-1
  23:      1081.77 cm**-1
  24:      1120.24 cm**-1
  25:      1147.76 cm**-1
  26:      1167.51 cm**-1
  27:      1183.65 cm**-1
  28:      1210.88 cm**-1
  29:      1253.53 cm**-1
  30:      1261.83 cm**-1
  31:      1302.97 cm**-1
  32:      1367.89 cm**-1
  33:      1374.72 cm**-1
  34:      1411.35 cm**-1
  35:      1443.59 cm**-1
  36:      1459.07 cm**-1
  37:      1479.31 cm**-1
  38:      1489.63 cm**-1
  39:      1512.69 cm**-1
  40:      1733.38 cm**-1
  41:      3056.09 cm**-1
  42:      3092.71 cm**-1
  43:      3114.72 cm**-1
  44:      3151.23 cm**-1
  45:      3172.68 cm**-1
  46:      3196.54 cm**-1
  47:      3208.11 cm**-1
  48:      3225.90 cm**-1
  49:      3276.65 cm**-1
  50:      3549.88 cm**-1

IR SPECTRUM
-----------

 Mode    freq (cm**-1)   T**2         TX         TY         TZ
-------------------------------------------------------------------
   6:       199.72    0.072472  (  0.010717   0.094051  -0.252015)
   7:       241.09    0.789866  (  0.794725  -0.347542  -0.193632)
   8:       342.04    0.355110  (  0.059325  -0.566967  -0.173603)
   9:       459.41    1.089762  ( -0.979213   0.021258   0.361180)
  10:       492.99    1.453791  ( -1.185469   0.143993  -0.166496)
  11:       591.41    2.332746  ( -1.303521   0.260980  -0.751976)
  12:       702.87   29.473759  ( -4.240793   3.363618  -0.418936)
  13:       741.78    3.966426  ( -1.674595  -0.451325   0.979011)
  14:       768.13   22.729018  ( -3.845652   0.916567   2.664561)
  15:       792.27    3.300909  ( -0.922732   1.443684   0.604360)
  16:       865.63    3.790867  ( -1.942353  -0.041738   0.128026)
  17:       921.16    7.119917  ( -0.773213   0.045018  -2.553435)
  18:       946.35   11.549017  ( -2.909088   1.694124  -0.464939)
  19:       968.78    9.950411  (  0.875234   2.885730  -0.925709)
  20:      1006.65    3.978880  ( -1.148823  -1.549188   0.509021)
  21:      1013.54    7.730495  ( -1.974352  -1.918961   0.387322)
  22:      1072.87    9.351752  (  2.594664   0.316227  -1.587284)
  23:      1081.77    6.798749  (  2.364234  -0.359280  -1.039261)
  24:      1120.24    7.275652  ( -0.286626  -2.648239  -0.424648)
  25:      1147.76    1.670902  ( -0.224578  -0.851686   0.946096)
  26:      1167.51    3.811310  (  1.256679  -1.177221   0.919901)
  27:      1183.65    2.891746  ( -0.545866   1.472166  -0.653072)
  28:      1210.88    2.392212  (  1.458575   0.412425   0.307695)
  29:      1253.53    2.557837  (  1.110259   1.097383  -0.347724)
  30:      1261.83    8.327571  (  0.481919   2.742242  -0.758574)
  31:      1302.97    4.296461  ( -1.623968   1.107221  -0.658218)
  32:      1367.89    2.539258  ( -1.105369  -0.723470   0.891071)
  33:      1374.72   13.861249  ( -3.311698  -1.536598  -0.729911)
  34:      1411.35    4.817866  ( -1.227098  -1.336514   1.235243)
  35:      1443.59    4.523991  ( -0.653432   1.815691   0.894586)
  36:      1459.07   23.487579  (  3.412264   3.170955   1.337565)
  37:      1479.31   12.470934  (  2.425346  -2.033301  -1.566626)
  38:      1489.63   12.646124  (  2.262539  -1.972223  -1.907190)
  39:      1512.69   16.436973  (  1.338373   3.462735  -1.629478)
  40:      1733.38    6.765743  (  1.144894   2.197555   0.791019)
  41:      3056.09    1.826300  (  0.870596  -1.031146  -0.071424)
  42:      3092.71    1.866119  ( -0.916136  -0.219365   0.989289)
  43:      3114.72    0.513539  ( -0.290568  -0.312586   0.575673)
  44:      3151.23    0.113811  (  0.123802   0.313518  -0.013802)
  45:      3172.68    1.600040  ( -1.173362   0.290749  -0.372462)
  46:      3196.54    0.398331  ( -0.290296   0.459221  -0.321210)
  47:      3208.11    1.953187  ( -0.644896  -1.209327  -0.273543)
  48:      3225.90    1.765675  (  0.066072   1.059598  -0.799101)
  49:      3276.65    3.990176  (  0.194288   1.221395   1.568637)
  50:      3549.88  101.065079  (  2.524930  -1.808202  -9.561392)

--------------------------
THERMOCHEMISTRY AT 298.15K
--------------------------

Temperature         ... 298.15 K
Pressure            ... 1.00 atm
Total Mass          ... 96.15 AMU

Throughout the following assumptions are being made:
  (1) The electronic state is orbitally nondegenerate
  (2) There are no thermally accessible electronically excited states
  (3) Hindered rotations indicated by low frequency modes) are not
      treated as such but are treated as vibrations and this may
      case some error
  (4) All equations used are the standard statistical mechanics
      equations for an ideal gas
  (5) All vibrations are strinctly harmonic

------------
INNER ENERGY
------------

The inner energy is: U= E(el) + E(ZPE) + E(vib) + E(rot) + E(trans)
    E(el)   - is the total energy from the electronic structure calculation
              = E(kin-el) + E(nuc-el) + E(el-el) + E(nuc-nuc)
    E(ZPE)  - the the zero temperature vibrational energy from the frequency calculation
    E(vib)  - the the finite temperature correction to E(ZPE) due to population
              of excietd vibrational states
    E(rot)  - is the rotational thermal energy
    E(trans)- is the translational thermal energy

Summary of contributions to the inner energy U:
Electronic energy                ...   -288.87639397 Eh
Zero point energy                ...      0.15530947 Eh      97.46 kcal/mol
Thermal vibrational correction   ...      0.00296860 Eh       1.86 kcal/mol
Thermal rotational correction    ...      0.00141627 Eh       0.89 kcal/mol
Thermal translational correction ...      0.00141627 Eh       0.89 kcal/mol
-----------------------------------------------------------------------
Total thermal energy                   -288.71528336 Eh

Summary of corrections to the electronic energy:
(perhaps to be used in another calculation)
Total thermal correction                  0.00580114 Eh       3.64 kcal/mol
Non-thermal (ZPE) correction              0.15530947 Eh      97.46 kcal/mol
-----------------------------------------------------------------------
Total correction                          0.16111061 Eh     101.10 kcal/mol

--------
ENTHALPY
--------

The enthalpy is H = U + kB*T
                kB is Boltzmann's constant
Total free energy                 ...   -288.71528336 Eh
Thermal Enthalpy correction       ...      0.00094421 Eh       0.59 kcal/mol
-----------------------------------------------------------------------
Total Enthalpy                    ...   -288.71433915 Eh

-------
ENTROPY
-------

The entropy contributions are T*S = T*(S(el)+S(vib)+S(rot)+S(trans)
     S(el)   - electronic entropy
     S(vib)  - vibrational entropy
     S(rot)  - rotational entropy
     S(trans)- translational entropy
The entropies will be listed as mutliplied by the temperature to get
units of energy

Electronic entropy                ...      0.00000000 Eh      0.00 kcal/mol
Vibrational entropy               ...      0.00443747 Eh      2.78 kcal/mol
Rotational entropy                ...      0.01169473 Eh      7.34 kcal/mol
Translational entropy             ...      0.01881568 Eh     11.81 kcal/mol
-----------------------------------------------------------------------
Final entropy term                ...      0.03494788 Eh     21.93 kcal/mol

CAUTION: The rotational entropy is not quite correctly treated here
         because it includes a symmetry number that is not yet correctly
         implemented in ORCA!
For a nonlinear molecule the correct rotational entropy is:
    S(rot) = R*(ln(qrot/sn)+1.5)
    R    = 8.31441 J/mol/K = 1.987191683e-3 kcal/mol/K
    qrot = 160287.0640316
    sn is the rotational symmetry number. We have assumed 3 here
       if it is different for your molecule then you should correct
       the printed rotational entropy by manually evaluating the equation
       as given above

For convenience we print out the resulting values for sn=1 - 12:
 sn= 1  qrot/sn=  160287.0640 T*S(rot)=     7.99 kcal/mol T*S(tot)=    22.58 kcal/mol
 sn= 2  qrot/sn=   80143.5320 T*S(rot)=     7.58 kcal/mol T*S(tot)=    22.17 kcal/mol
 sn= 3  qrot/sn=   53429.0213 T*S(rot)=     7.34 kcal/mol T*S(tot)=    21.93 kcal/mol
 sn= 4  qrot/sn=   40071.7660 T*S(rot)=     7.17 kcal/mol T*S(tot)=    21.76 kcal/mol
 sn= 5  qrot/sn=   32057.4128 T*S(rot)=     7.04 kcal/mol T*S(tot)=    21.63 kcal/mol
 sn= 6  qrot/sn=   26714.5107 T*S(rot)=     6.93 kcal/mol T*S(tot)=    21.52 kcal/mol
 sn= 7  qrot/sn=   22898.1520 T*S(rot)=     6.84 kcal/mol T*S(tot)=    21.43 kcal/mol
 sn= 8  qrot/sn=   20035.8830 T*S(rot)=     6.76 kcal/mol T*S(tot)=    21.35 kcal/mol
 sn= 9  qrot/sn=   17809.6738 T*S(rot)=     6.69 kcal/mol T*S(tot)=    21.28 kcal/mol
 sn=10  qrot/sn=   16028.7064 T*S(rot)=     6.63 kcal/mol T*S(tot)=    21.22 kcal/mol
 sn=11  qrot/sn=   14571.5513 T*S(rot)=     6.57 kcal/mol T*S(tot)=    21.16 kcal/mol
 sn=12  qrot/sn=   13357.2553 T*S(rot)=     6.52 kcal/mol T*S(tot)=    21.11 kcal/mol

-------------------
GIBBS FREE ENTHALPY
-------------------

The Gibbs free enthalpy is G = H - T*S

Total enthalpy                    ...   -288.71433915 Eh
Total entropy correction          ...     -0.03494788 Eh    -21.93 kcal/mol
-----------------------------------------------------------------------
Final Gibbs free enthalpy         ...   -288.74928703 Eh

For completeness - the Gibbs free enthalpy minus the electronic energy
G-E(el)                           ...      0.12710695 Eh     79.76 kcal/mol

                             ****ORCA TERMINATED NORMALLY****
TOTAL RUN TIME: 0 days 0 hours 50 minutes 11 seconds 924 msec
