                         Program Version 3.0.3 - RELEASE   -
|  1> ! NORI PBE0 def2-TZVP UseSym TightOPT Freq TightSCF Grid3 FinalGrid5 XYZFile
|  2> % pal
|  3>     nprocs 8
|  4> end
|  5> %method
|  6>     SymThresh 5.0e-2
|  7> end
|  8> % geom
|  9>     MaxIter 10
| 10> end
| 11> % maxcore 2000
| 12> % output
| 13>     printlevel mini
| 14>     print[ P_Basis ] 0
| 15>     print[ P_SCFInfo ] 1
| 16>     print[ P_SCFIterInfo ] 1
| 17>     print[ P_OrbEn ] 0
| 18>     print[ P_Cartesian ] 0
| 19> end
| 20> % elprop
| 21>     Dipole false
| 22> end
| 23> *xyz 1 1
| 24>  C       -1.2311134566    -0.8018453962    -0.5246007673
| 25>  C       -1.2200769387     0.7398735149    -0.5228337740
| 26>  N        0.0080185742     1.0587010580     0.2881867686
| 27>  C        1.2377332536     0.7512479542    -0.5250349846
| 28>  C        1.2638811827    -0.7902559183    -0.5257091630
| 29>  C        0.0184194151    -1.1490864016     0.2952179839
| 30>  C        0.0138863605    -0.0274984174     1.3228997002
| 31>  H       -1.1878911634    -1.2110706326    -1.5330045784
| 32>  H       -2.1365359580    -1.1788781547    -0.0488712985
| 33>  H       -2.0789786487     1.1729246086    -0.0111635770
| 34>  H       -1.1224826472     1.2007196969    -1.5037927411
| 35>  H        0.0040730676     2.0078855369     0.6565137417
| 36>  H        1.1333261527     1.2101505046    -1.5062112809
| 37>  H        2.0933437934     1.1933414144    -0.0156243873
| 38>  H        2.1731468112    -1.1581286886    -0.0500900815
| 39>  H        1.2242359562    -1.2006213186    -1.5337843900
| 40>  H        0.0233116963    -2.1559758526     0.7045934481
| 41>  H        0.9107984197     0.0496203730     1.9372626497
| 42>  H       -0.8827858707     0.0411961192     1.9386267315
| 43> *
| 44>
| 45>                          ****END OF INPUT****
 Total Charge           Charge          ....    1
 Multiplicity           Mult            ....    1
 Number of Electrons    NEL             ....   54
FINAL SINGLE POINT ENERGY      -290.132994741192

CARTESIAN COORDINATES (ANGSTROEM)
---------------------------------
  C     -0.899301    0.252268    1.247799
  C      0.578867    0.689514    1.229134
  N      1.109765    0.000160   -0.000000
  C      0.578867    0.689514   -1.229134
  C     -0.899301    0.252268   -1.247799
  C     -1.004333   -0.634455    0.000000
  C      0.363239   -1.301326    0.000000
  H     -1.579312    1.102356    1.206434
  H     -1.121030   -0.309734    2.155040
  H      1.143678    0.324347    2.086243
  H      0.740957    1.761039    1.128212
  H      2.124552   -0.082807   -0.000000
  H      0.740957    1.761039   -1.128212
  H      1.143678    0.324347   -2.086243
  H     -1.121030   -0.309734   -2.155040
  H     -1.579312    1.102356   -1.206434
  H     -1.853524   -1.313194    0.000000
  H      0.607884   -1.870139   -0.896770
  H      0.607884   -1.870139    0.896771

FINAL SINGLE POINT ENERGY      -290.132995621314
                    ***********************HURRAY********************
 Multiplicity           Mult            ....    1
 Number of Electrons    NEL             ....   54
 Basis Dimension        Dim             ....  289
FINAL SINGLE POINT ENERGY      -290.132995771128

VIBRATIONAL FREQUENCIES
-----------------------

   0:         0.00 cm**-1
   1:         0.00 cm**-1
   2:         0.00 cm**-1
   3:         0.00 cm**-1
   4:         0.00 cm**-1
   5:         0.00 cm**-1
   6:       157.96 cm**-1
   7:       347.04 cm**-1
   8:       416.37 cm**-1
   9:       466.21 cm**-1
  10:       569.06 cm**-1
  11:       772.52 cm**-1
  12:       781.92 cm**-1
  13:       817.60 cm**-1
  14:       834.03 cm**-1
  15:       844.64 cm**-1
  16:       901.29 cm**-1
  17:       926.38 cm**-1
  18:       942.81 cm**-1
  19:       971.60 cm**-1
  20:       978.22 cm**-1
  21:       992.53 cm**-1
  22:       992.59 cm**-1
  23:      1030.72 cm**-1
  24:      1086.21 cm**-1
  25:      1117.59 cm**-1
  26:      1158.24 cm**-1
  27:      1208.80 cm**-1
  28:      1211.48 cm**-1
  29:      1225.77 cm**-1
  30:      1254.66 cm**-1
  31:      1267.10 cm**-1
  32:      1301.05 cm**-1
  33:      1308.48 cm**-1
  34:      1319.78 cm**-1
  35:      1327.45 cm**-1
  36:      1338.45 cm**-1
  37:      1386.28 cm**-1
  38:      1398.33 cm**-1
  39:      1406.62 cm**-1
  40:      1488.63 cm**-1
  41:      1496.35 cm**-1
  42:      1501.44 cm**-1
  43:      1503.39 cm**-1
  44:      1534.01 cm**-1
  45:      3104.66 cm**-1
  46:      3104.89 cm**-1
  47:      3108.26 cm**-1
  48:      3113.86 cm**-1
  49:      3115.05 cm**-1
  50:      3151.41 cm**-1
  51:      3153.76 cm**-1
  52:      3169.84 cm**-1
  53:      3173.28 cm**-1
  54:      3178.48 cm**-1
  55:      3179.31 cm**-1
  56:      3512.31 cm**-1

IR SPECTRUM
-----------

 Mode    freq (cm**-1)   T**2         TX         TY         TZ
-------------------------------------------------------------------
   6:       157.96    0.004603  (  0.000000   0.000003  -0.067843)
   7:       347.04    0.518704  (  0.711368   0.112517  -0.000000)
   8:       416.37    0.095698  (  0.009290  -0.309212  -0.000000)
   9:       466.21    0.000893  (  0.000000   0.000000  -0.029886)
  10:       569.06    0.070489  (  0.000000  -0.000002   0.265497)
  11:       772.52    2.625334  ( -0.738855   1.442022   0.000000)
  12:       781.92    0.475158  (  0.547190  -0.419215  -0.000000)
  13:       817.60    1.504376  ( -0.000000  -0.000006  -1.226530)
  14:       834.03    2.548071  ( -1.592053  -0.115930   0.000000)
  15:       844.64    1.994702  (  1.027010   0.969511  -0.000000)
  16:       901.29    0.941214  ( -0.605775   0.757793   0.000000)
  17:       926.38    0.520035  ( -0.000000   0.000004   0.721134)
  18:       942.81    0.411428  (  0.545845   0.336870   0.000000)
  19:       971.60   12.134469  (  0.000000  -0.000000   3.483456)
  20:       978.22    0.641646  ( -0.000000   0.000000  -0.801028)
  21:       992.53    3.757409  (  1.028000   1.643358  -0.000000)
  22:       992.59    0.612042  (  0.000000   0.000003  -0.782331)
  23:      1030.72    1.615657  ( -0.265267   1.243097   0.000000)
  24:      1086.21    0.001289  (  0.000000  -0.000007   0.035901)
  25:      1117.59    2.606883  (  1.584922  -0.308066  -0.000000)
  26:      1158.24    0.982605  ( -0.000000   0.000001   0.991264)
  27:      1208.80    5.707626  (  0.860034   2.228894  -0.000000)
  28:      1211.48    1.339973  ( -0.000000  -0.000005   1.157572)
  29:      1225.77   12.671341  (  0.728101  -3.484424  -0.000000)
  30:      1254.66    0.345905  (  0.000000  -0.000007  -0.588137)
  31:      1267.10    0.045359  (  0.000000   0.000006   0.212976)
  32:      1301.05    4.610146  ( -0.587776   2.065106  -0.000000)
  33:      1308.48    1.302088  (  1.122712  -0.203973  -0.000000)
  34:      1319.78    8.025494  ( -0.000000  -0.000005   2.832930)
  35:      1327.45    0.378580  ( -0.561096   0.252491  -0.000000)
  36:      1338.45    5.999676  (  0.000000  -0.000002   2.449424)
  37:      1386.28   15.275216  ( -2.089539  -3.302884  -0.000000)
  38:      1398.33   14.235043  ( -0.824077   3.681839   0.000000)
  39:      1406.62   24.773963  (  0.000000  -0.000000  -4.977345)
  40:      1488.63    0.017170  ( -0.000000   0.000004  -0.131035)
  41:      1496.35   18.491604  (  1.585686  -3.997149   0.000000)
  42:      1501.44   12.319935  (  0.000000  -0.000005  -3.509977)
  43:      1503.39   15.007212  ( -3.764692  -0.913402   0.000000)
  44:      1534.01    4.323071  (  1.664702   1.245728  -0.000000)
  45:      3104.66    5.171985  (  2.258830  -0.263960   0.000000)
  46:      3104.89    2.592426  ( -0.000000   0.000008  -1.610101)
  47:      3108.26    1.754931  ( -0.174028  -1.313257   0.000000)
  48:      3113.86    1.921622  (  0.000000  -0.000002   1.386226)
  49:      3115.05    2.588906  ( -1.449581  -0.698298   0.000000)
  50:      3151.41    0.635626  (  0.000000  -0.000009  -0.797261)
  51:      3153.76    1.305246  ( -0.650012   0.939537   0.000000)
  52:      3169.84    0.127318  (  0.018910   0.356315   0.000000)
  53:      3173.28    0.040927  (  0.000000  -0.000003  -0.202303)
  54:      3178.48    1.019640  (  0.000000   0.000002   1.009772)
  55:      3179.31    0.925928  ( -0.150393   0.950426   0.000000)
  56:      3512.31   69.430882  (  8.311123  -0.596753  -0.000000)

--------------------------
THERMOCHEMISTRY AT 298.15K
--------------------------

Temperature         ... 298.15 K
Pressure            ... 1.00 atm
Total Mass          ... 98.17 AMU

Throughout the following assumptions are being made:
  (1) The electronic state is orbitally nondegenerate
  (2) There are no thermally accessible electronically excited states
  (3) Hindered rotations indicated by low frequency modes) are not
      treated as such but are treated as vibrations and this may
      case some error
  (4) All equations used are the standard statistical mechanics
      equations for an ideal gas
  (5) All vibrations are strinctly harmonic

------------
INNER ENERGY
------------

The inner energy is: U= E(el) + E(ZPE) + E(vib) + E(rot) + E(trans)
    E(el)   - is the total energy from the electronic structure calculation
              = E(kin-el) + E(nuc-el) + E(el-el) + E(nuc-nuc)
    E(ZPE)  - the the zero temperature vibrational energy from the frequency calculation
    E(vib)  - the the finite temperature correction to E(ZPE) due to population
              of excietd vibrational states
    E(rot)  - is the rotational thermal energy
    E(trans)- is the translational thermal energy

Summary of contributions to the inner energy U:
Electronic energy                ...   -290.13299577 Eh
Zero point energy                ...      0.18145310 Eh     113.86 kcal/mol
Thermal vibrational correction   ...      0.00267557 Eh       1.68 kcal/mol
Thermal rotational correction    ...      0.00141627 Eh       0.89 kcal/mol
Thermal translational correction ...      0.00141627 Eh       0.89 kcal/mol
-----------------------------------------------------------------------
Total thermal energy                   -289.94603456 Eh

Summary of corrections to the electronic energy:
(perhaps to be used in another calculation)
Total thermal correction                  0.00550812 Eh       3.46 kcal/mol
Non-thermal (ZPE) correction              0.18145310 Eh     113.86 kcal/mol
-----------------------------------------------------------------------
Total correction                          0.18696121 Eh     117.32 kcal/mol

--------
ENTHALPY
--------

The enthalpy is H = U + kB*T
                kB is Boltzmann's constant
Total free energy                 ...   -289.94603456 Eh
Thermal Enthalpy correction       ...      0.00094421 Eh       0.59 kcal/mol
-----------------------------------------------------------------------
Total Enthalpy                    ...   -289.94509035 Eh

-------
ENTROPY
-------

The entropy contributions are T*S = T*(S(el)+S(vib)+S(rot)+S(trans)
     S(el)   - electronic entropy
     S(vib)  - vibrational entropy
     S(rot)  - rotational entropy
     S(trans)- translational entropy
The entropies will be listed as mutliplied by the temperature to get
units of energy

Electronic entropy                ...      0.00000000 Eh      0.00 kcal/mol
Vibrational entropy               ...      0.00397786 Eh      2.50 kcal/mol
Rotational entropy                ...      0.01161185 Eh      7.29 kcal/mol
Translational entropy             ...      0.01884507 Eh     11.83 kcal/mol
-----------------------------------------------------------------------
Final entropy term                ...      0.03443478 Eh     21.61 kcal/mol

CAUTION: The rotational entropy is not quite correctly treated here
         because it includes a symmetry number that is not yet correctly
         implemented in ORCA!
For a nonlinear molecule the correct rotational entropy is:
    S(rot) = R*(ln(qrot/sn)+1.5)
    R    = 8.31441 J/mol/K = 1.987191683e-3 kcal/mol/K
    qrot = 146816.7094313
    sn is the rotational symmetry number. We have assumed 3 here
       if it is different for your molecule then you should correct
       the printed rotational entropy by manually evaluating the equation
       as given above

For convenience we print out the resulting values for sn=1 - 12:
 sn= 1  qrot/sn=  146816.7094 T*S(rot)=     7.94 kcal/mol T*S(tot)=    22.26 kcal/mol
 sn= 2  qrot/sn=   73408.3547 T*S(rot)=     7.53 kcal/mol T*S(tot)=    21.85 kcal/mol
 sn= 3  qrot/sn=   48938.9031 T*S(rot)=     7.29 kcal/mol T*S(tot)=    21.61 kcal/mol
 sn= 4  qrot/sn=   36704.1774 T*S(rot)=     7.12 kcal/mol T*S(tot)=    21.44 kcal/mol
 sn= 5  qrot/sn=   29363.3419 T*S(rot)=     6.98 kcal/mol T*S(tot)=    21.31 kcal/mol
 sn= 6  qrot/sn=   24469.4516 T*S(rot)=     6.88 kcal/mol T*S(tot)=    21.20 kcal/mol
 sn= 7  qrot/sn=   20973.8156 T*S(rot)=     6.78 kcal/mol T*S(tot)=    21.11 kcal/mol
 sn= 8  qrot/sn=   18352.0887 T*S(rot)=     6.71 kcal/mol T*S(tot)=    21.03 kcal/mol
 sn= 9  qrot/sn=   16312.9677 T*S(rot)=     6.64 kcal/mol T*S(tot)=    20.96 kcal/mol
 sn=10  qrot/sn=   14681.6709 T*S(rot)=     6.57 kcal/mol T*S(tot)=    20.89 kcal/mol
 sn=11  qrot/sn=   13346.9736 T*S(rot)=     6.52 kcal/mol T*S(tot)=    20.84 kcal/mol
 sn=12  qrot/sn=   12234.7258 T*S(rot)=     6.47 kcal/mol T*S(tot)=    20.79 kcal/mol

-------------------
GIBBS FREE ENTHALPY
-------------------

The Gibbs free enthalpy is G = H - T*S

Total enthalpy                    ...   -289.94509035 Eh
Total entropy correction          ...     -0.03443478 Eh    -21.61 kcal/mol
-----------------------------------------------------------------------
Final Gibbs free enthalpy         ...   -289.97952513 Eh

For completeness - the Gibbs free enthalpy minus the electronic energy
G-E(el)                           ...      0.15347065 Eh     96.30 kcal/mol

                             ****ORCA TERMINATED NORMALLY****
TOTAL RUN TIME: 0 days 1 hours 0 minutes 58 seconds 761 msec
