                         Program Version 3.0.3 - RELEASE   -
|  1> ! NORI PBE0 def2-TZVP UseSym TightOPT Freq TightSCF Grid3 FinalGrid5 XYZFile
|  2> % pal
|  3>     nprocs 8
|  4> end
|  5> %method
|  6>     SymThresh 5.0e-2
|  7> end
|  8> % geom
|  9>     MaxIter 10
| 10> end
| 11> % maxcore 2000
| 12> % output
| 13>     printlevel mini
| 14>     print[ P_Basis ] 0
| 15>     print[ P_SCFInfo ] 1
| 16>     print[ P_SCFIterInfo ] 1
| 17>     print[ P_OrbEn ] 0
| 18>     print[ P_Cartesian ] 0
| 19> end
| 20> % elprop
| 21>     Dipole false
| 22> end
| 23> *xyz 1 1
| 24>  C        0.8276363853    -1.6336175758     0.4458058179
| 25>  C        1.5596543895    -0.2888784703     0.5031234212
| 26>  N        0.6354848367     0.2930137218    -0.5507352433
| 27>  C       -0.1511890431     1.5135197658    -0.1996742069
| 28>  C       -1.3812589542     0.9298417602     0.4175612194
| 29>  C       -1.4381768205    -0.3884344789     0.2927835053
| 30>  C       -0.2526653332    -0.9493755926    -0.4112940295
| 31>  H        1.3767163937    -2.4064195143    -0.0893895846
| 32>  H        0.4864268342    -2.0260715781     1.4004342427
| 33>  H        1.4302605219     0.2658913548     1.4304206891
| 34>  H        2.6015363892    -0.2599622240     0.1916357856
| 35>  H        1.0893480721     0.3770971681    -1.4569611860
| 36>  H       -0.3607006696     2.0887614807    -1.1058851866
| 37>  H        0.4405168173     2.1398426200     0.4725822157
| 38>  H       -2.1307076587     1.5542440069     0.8850400723
| 39>  H       -2.2415268412    -1.0249284879     0.6395136491
| 40>  H       -0.4865153195    -1.4176939566    -1.3693911815
| 41> *
| 42>
| 43>                          ****END OF INPUT****
 Total Charge           Charge          ....    1
 Multiplicity           Mult            ....    1
 Number of Electrons    NEL             ....   52
FINAL SINGLE POINT ENERGY      -288.883611884671

CARTESIAN COORDINATES (ANGSTROEM)
---------------------------------
  C      1.782076   -0.000248   -0.306379
  C      1.112431   -0.990290    0.652202
  N     -0.000133   -0.000271    0.945099
  C     -1.406471   -0.417984    0.662956
  C     -1.570172   -0.028276   -0.770964
  C     -0.542804    0.672453   -1.229556
  C      0.517912    0.872563   -0.204540
  H      2.668911    0.475805    0.108565
  H      2.006438   -0.382596   -1.299292
  H      0.684919   -1.871517    0.178104
  H      1.652018   -1.274441    1.553009
  H      0.096069    0.426101    1.863539
  H     -2.089004    0.115611    1.330047
  H     -1.508048   -1.488534    0.856880
  H     -2.457982   -0.289929   -1.330713
  H     -0.447915    1.081913   -2.226589
  H      0.665346    1.915496    0.083121

FINAL SINGLE POINT ENERGY      -288.883612531635
                    ***********************HURRAY********************
 Multiplicity           Mult            ....    1
 Number of Electrons    NEL             ....   52
 Basis Dimension        Dim             ....  277
FINAL SINGLE POINT ENERGY      -288.883612808752

VIBRATIONAL FREQUENCIES
-----------------------

   0:         0.00 cm**-1
   1:         0.00 cm**-1
   2:         0.00 cm**-1
   3:         0.00 cm**-1
   4:         0.00 cm**-1
   5:         0.00 cm**-1
   6:       117.31 cm**-1
   7:       253.65 cm**-1
   8:       366.07 cm**-1
   9:       464.44 cm**-1
  10:       663.50 cm**-1
  11:       718.59 cm**-1
  12:       747.36 cm**-1
  13:       774.25 cm**-1
  14:       787.26 cm**-1
  15:       853.89 cm**-1
  16:       897.12 cm**-1
  17:       941.52 cm**-1
  18:       970.17 cm**-1
  19:       981.22 cm**-1
  20:       996.80 cm**-1
  21:      1025.77 cm**-1
  22:      1041.37 cm**-1
  23:      1082.75 cm**-1
  24:      1099.53 cm**-1
  25:      1127.38 cm**-1
  26:      1144.62 cm**-1
  27:      1215.18 cm**-1
  28:      1235.98 cm**-1
  29:      1257.46 cm**-1
  30:      1288.54 cm**-1
  31:      1293.80 cm**-1
  32:      1322.92 cm**-1
  33:      1334.74 cm**-1
  34:      1361.20 cm**-1
  35:      1384.47 cm**-1
  36:      1417.16 cm**-1
  37:      1480.69 cm**-1
  38:      1492.44 cm**-1
  39:      1502.80 cm**-1
  40:      1704.40 cm**-1
  41:      3075.12 cm**-1
  42:      3109.60 cm**-1
  43:      3122.20 cm**-1
  44:      3122.54 cm**-1
  45:      3124.10 cm**-1
  46:      3179.44 cm**-1
  47:      3195.59 cm**-1
  48:      3234.86 cm**-1
  49:      3253.49 cm**-1
  50:      3518.97 cm**-1

IR SPECTRUM
-----------

 Mode    freq (cm**-1)   T**2         TX         TY         TZ
-------------------------------------------------------------------
   6:       117.31    0.101823  ( -0.015499   0.053012  -0.314280)
   7:       253.65    0.054250  ( -0.093717   0.020725  -0.212222)
   8:       366.07    0.372742  ( -0.143094   0.490665  -0.333938)
   9:       464.44    1.455713  (  0.182570  -1.090265  -0.483429)
  10:       663.50    1.238698  ( -0.911808   0.214426  -0.601105)
  11:       718.59   18.757219  ( -2.184241   3.712661   0.449956)
  12:       747.36   38.982643  ( -2.729309   5.286198   1.894631)
  13:       774.25    4.290605  (  1.792264  -0.287249  -0.997940)
  14:       787.26    2.622396  (  0.368717   0.274657   1.552742)
  15:       853.89    1.407706  ( -1.024528   0.351141  -0.484508)
  16:       897.12    0.464955  ( -0.237849   0.290769  -0.569066)
  17:       941.52    2.143617  (  0.112349   0.567869  -1.344812)
  18:       970.17    2.439439  (  0.002280  -1.550785   0.185739)
  19:       981.22    1.315251  ( -0.152784   1.036598  -0.466233)
  20:       996.80    4.082836  (  1.914864  -0.645061  -0.005102)
  21:      1025.77    7.085889  ( -2.507436  -0.793173   0.411739)
  22:      1041.37   11.813779  (  2.908095  -1.829737  -0.093946)
  23:      1082.75   10.002413  (  3.037871  -0.672118  -0.567459)
  24:      1099.53    4.146126  (  0.234013  -1.298022  -1.551290)
  25:      1127.38    9.115995  (  0.585907   2.133030  -2.054968)
  26:      1144.62    4.587209  ( -0.215445   2.129245   0.084299)
  27:      1215.18    3.024683  ( -1.300452  -0.950245   0.656156)
  28:      1235.98    5.167011  ( -0.534175  -1.419569   1.693071)
  29:      1257.46    3.677324  ( -0.481659  -1.227454   1.392367)
  30:      1288.54   13.900655  (  0.540367  -3.519714   1.104658)
  31:      1293.80    3.814093  (  0.410804  -1.870852   0.381112)
  32:      1322.92    2.199088  (  0.216598  -1.259530   0.752168)
  33:      1334.74    1.387922  (  0.481221  -0.832287   0.680917)
  34:      1361.20   11.981187  (  2.633854  -2.245069  -0.060554)
  35:      1384.47    6.554614  ( -0.363540  -2.290517   1.084429)
  36:      1417.16   30.129095  ( -5.229764  -1.323525   1.013381)
  37:      1480.69    5.265775  ( -1.228610  -1.891739   0.421446)
  38:      1492.44   17.988535  (  2.469197   1.816616  -2.931127)
  39:      1502.80    8.965893  (  0.308774  -2.915966   0.606379)
  40:      1704.40    0.733654  ( -0.292590  -0.329505  -0.734487)
  41:      3075.12    3.030298  ( -0.867672  -0.608522   1.380994)
  42:      3109.60    1.240558  ( -0.146461  -1.089559  -0.178794)
  43:      3122.20    2.488425  (  1.366925   0.769509  -0.166724)
  44:      3122.54    0.013807  (  0.006176   0.109866   0.041210)
  45:      3124.10    0.809107  (  0.083788  -0.656319   0.609370)
  46:      3179.44    0.138229  ( -0.241516  -0.220962  -0.176280)
  47:      3195.59    0.220651  (  0.302338  -0.347660  -0.091517)
  48:      3234.86    5.033636  (  1.518299   1.136941  -1.198236)
  49:      3253.49    6.948439  (  1.369572  -0.083552   2.250718)
  50:      3518.97   69.308298  ( -0.279279  -3.208740  -7.676867)

--------------------------
THERMOCHEMISTRY AT 298.15K
--------------------------

Temperature         ... 298.15 K
Pressure            ... 1.00 atm
Total Mass          ... 96.15 AMU

Throughout the following assumptions are being made:
  (1) The electronic state is orbitally nondegenerate
  (2) There are no thermally accessible electronically excited states
  (3) Hindered rotations indicated by low frequency modes) are not
      treated as such but are treated as vibrations and this may
      case some error
  (4) All equations used are the standard statistical mechanics
      equations for an ideal gas
  (5) All vibrations are strinctly harmonic

------------
INNER ENERGY
------------

The inner energy is: U= E(el) + E(ZPE) + E(vib) + E(rot) + E(trans)
    E(el)   - is the total energy from the electronic structure calculation
              = E(kin-el) + E(nuc-el) + E(el-el) + E(nuc-nuc)
    E(ZPE)  - the the zero temperature vibrational energy from the frequency calculation
    E(vib)  - the the finite temperature correction to E(ZPE) due to population
              of excietd vibrational states
    E(rot)  - is the rotational thermal energy
    E(trans)- is the translational thermal energy

Summary of contributions to the inner energy U:
Electronic energy                ...   -288.88361281 Eh
Zero point energy                ...      0.15555842 Eh      97.61 kcal/mol
Thermal vibrational correction   ...      0.00284661 Eh       1.79 kcal/mol
Thermal rotational correction    ...      0.00141627 Eh       0.89 kcal/mol
Thermal translational correction ...      0.00141627 Eh       0.89 kcal/mol
-----------------------------------------------------------------------
Total thermal energy                   -288.72237523 Eh

Summary of corrections to the electronic energy:
(perhaps to be used in another calculation)
Total thermal correction                  0.00567915 Eh       3.56 kcal/mol
Non-thermal (ZPE) correction              0.15555842 Eh      97.61 kcal/mol
-----------------------------------------------------------------------
Total correction                          0.16123758 Eh     101.18 kcal/mol

--------
ENTHALPY
--------

The enthalpy is H = U + kB*T
                kB is Boltzmann's constant
Total free energy                 ...   -288.72237523 Eh
Thermal Enthalpy correction       ...      0.00094421 Eh       0.59 kcal/mol
-----------------------------------------------------------------------
Total Enthalpy                    ...   -288.72143102 Eh

-------
ENTROPY
-------

The entropy contributions are T*S = T*(S(el)+S(vib)+S(rot)+S(trans)
     S(el)   - electronic entropy
     S(vib)  - vibrational entropy
     S(rot)  - rotational entropy
     S(trans)- translational entropy
The entropies will be listed as mutliplied by the temperature to get
units of energy

Electronic entropy                ...      0.00000000 Eh      0.00 kcal/mol
Vibrational entropy               ...      0.00450319 Eh      2.83 kcal/mol
Rotational entropy                ...      0.01164782 Eh      7.31 kcal/mol
Translational entropy             ...      0.01881568 Eh     11.81 kcal/mol
-----------------------------------------------------------------------
Final entropy term                ...      0.03496669 Eh     21.94 kcal/mol

CAUTION: The rotational entropy is not quite correctly treated here
         because it includes a symmetry number that is not yet correctly
         implemented in ORCA!
For a nonlinear molecule the correct rotational entropy is:
    S(rot) = R*(ln(qrot/sn)+1.5)
    R    = 8.31441 J/mol/K = 1.987191683e-3 kcal/mol/K
    qrot = 152518.0590051
    sn is the rotational symmetry number. We have assumed 3 here
       if it is different for your molecule then you should correct
       the printed rotational entropy by manually evaluating the equation
       as given above

For convenience we print out the resulting values for sn=1 - 12:
 sn= 1  qrot/sn=  152518.0590 T*S(rot)=     7.96 kcal/mol T*S(tot)=    22.59 kcal/mol
 sn= 2  qrot/sn=   76259.0295 T*S(rot)=     7.55 kcal/mol T*S(tot)=    22.18 kcal/mol
 sn= 3  qrot/sn=   50839.3530 T*S(rot)=     7.31 kcal/mol T*S(tot)=    21.94 kcal/mol
 sn= 4  qrot/sn=   38129.5148 T*S(rot)=     7.14 kcal/mol T*S(tot)=    21.77 kcal/mol
 sn= 5  qrot/sn=   30503.6118 T*S(rot)=     7.01 kcal/mol T*S(tot)=    21.64 kcal/mol
 sn= 6  qrot/sn=   25419.6765 T*S(rot)=     6.90 kcal/mol T*S(tot)=    21.53 kcal/mol
 sn= 7  qrot/sn=   21788.2941 T*S(rot)=     6.81 kcal/mol T*S(tot)=    21.44 kcal/mol
 sn= 8  qrot/sn=   19064.7574 T*S(rot)=     6.73 kcal/mol T*S(tot)=    21.36 kcal/mol
 sn= 9  qrot/sn=   16946.4510 T*S(rot)=     6.66 kcal/mol T*S(tot)=    21.29 kcal/mol
 sn=10  qrot/sn=   15251.8059 T*S(rot)=     6.60 kcal/mol T*S(tot)=    21.23 kcal/mol
 sn=11  qrot/sn=   13865.2781 T*S(rot)=     6.54 kcal/mol T*S(tot)=    21.17 kcal/mol
 sn=12  qrot/sn=   12709.8383 T*S(rot)=     6.49 kcal/mol T*S(tot)=    21.12 kcal/mol

-------------------
GIBBS FREE ENTHALPY
-------------------

The Gibbs free enthalpy is G = H - T*S

Total enthalpy                    ...   -288.72143102 Eh
Total entropy correction          ...     -0.03496669 Eh    -21.94 kcal/mol
-----------------------------------------------------------------------
Final Gibbs free enthalpy         ...   -288.75639771 Eh

For completeness - the Gibbs free enthalpy minus the electronic energy
G-E(el)                           ...      0.12721509 Eh     79.83 kcal/mol

                             ****ORCA TERMINATED NORMALLY****
TOTAL RUN TIME: 0 days 0 hours 46 minutes 37 seconds 754 msec
