                         Program Version 3.0.3 - RELEASE   -
|  1> ! NORI PBE0 def2-TZVP UseSym TightOPT Freq TightSCF Grid3 FinalGrid5 XYZFile
|  2> % pal
|  3>     nprocs 8
|  4> end
|  5> %method
|  6>     SymThresh 5.0e-2
|  7> end
|  8> % geom
|  9>     MaxIter 10
| 10> end
| 11> % maxcore 2000
| 12> % output
| 13>     printlevel mini
| 14>     print[ P_Basis ] 0
| 15>     print[ P_SCFInfo ] 1
| 16>     print[ P_SCFIterInfo ] 1
| 17>     print[ P_OrbEn ] 0
| 18>     print[ P_Cartesian ] 0
| 19> end
| 20> % elprop
| 21>     Dipole false
| 22> end
| 23> *xyz 1 1
| 24>  C        0.2435093995    -1.6152624856    -1.1437523413
| 25>  C        0.8079782588    -0.2299032625    -1.0560755890
| 26>  C        0.2292908892    -0.8809625774     0.1538283071
| 27>  N        1.1325015932    -1.3156352647     1.2146549578
| 28>  C        1.4460341297    -0.3717821878     2.3639125503
| 29>  C        1.3515637763    -1.5442855072     3.3449716467
| 30>  C        0.6547051694    -2.3362344592     2.2335692566
| 31>  H        0.9404677690    -2.4371201507    -1.2656155085
| 32>  H       -0.7086295216    -1.7661851159    -1.6343495300
| 33>  H        0.2541471681     0.5938395905    -1.4857195723
| 34>  H        1.8851468367    -0.1203126872    -1.1175126898
| 35>  H       -0.7085222165    -0.5247230289     0.5616318376
| 36>  H        2.0033631208    -1.6385692309     0.7929629617
| 37>  H        0.6285189439     0.3434332727     2.4452407258
| 38>  H        2.3916753232     0.1516090486     2.2398398058
| 39>  H        2.3239557769    -1.9538506619     3.6141645597
| 40>  H        0.7729084805    -1.3711999250     4.2482748849
| 41>  H        0.9820053997    -3.3488701083     2.0081638971
| 42>  H       -0.4329902967    -2.2924152587     2.2719098398
| 43> *
| 44>
| 45>                          ****END OF INPUT****
 Total Charge           Charge          ....    1
 Multiplicity           Mult            ....    1
 Number of Electrons    NEL             ....   54
FINAL SINGLE POINT ENERGY      -290.072660646251

CARTESIAN COORDINATES (ANGSTROEM)
---------------------------------
  C     -1.445795   -1.612266    0.749113
  C     -1.445795   -1.612266   -0.749113
  C     -1.041509   -0.388025    0.000000
  N      0.365181    0.000438    0.000000
  C      0.877178    0.960272   -1.061088
  C      1.721595    1.673273   -0.000000
  C      0.877178    0.960272    1.061088
  H     -0.676400   -2.186865    1.252747
  H     -2.389756   -1.578255    1.276532
  H     -2.389756   -1.578255   -1.276532
  H     -0.676400   -2.186865   -1.252747
  H     -1.686523    0.482059    0.000000
  H      0.938954   -0.843116    0.000000
  H      0.032786    1.544583   -1.423476
  H      1.368400    0.456113   -1.890464
  H      2.763152    1.354612   -0.000000
  H      1.678896    2.758975   -0.000000
  H      1.368400    0.456113    1.890464
  H      0.032786    1.544583    1.423476

FINAL SINGLE POINT ENERGY      -290.072661612347
                    ***********************HURRAY********************
 Multiplicity           Mult            ....    1
 Number of Electrons    NEL             ....   54
 Basis Dimension        Dim             ....  289
FINAL SINGLE POINT ENERGY      -290.072661934981

VIBRATIONAL FREQUENCIES
-----------------------

   0:         0.00 cm**-1
   1:         0.00 cm**-1
   2:         0.00 cm**-1
   3:         0.00 cm**-1
   4:         0.00 cm**-1
   5:         0.00 cm**-1
   6:        80.69 cm**-1
   7:       109.37 cm**-1
   8:       188.15 cm**-1
   9:       282.06 cm**-1
  10:       386.03 cm**-1
  11:       447.41 cm**-1
  12:       647.34 cm**-1
  13:       746.74 cm**-1
  14:       790.41 cm**-1
  15:       802.58 cm**-1
  16:       836.53 cm**-1
  17:       896.53 cm**-1
  18:       925.64 cm**-1
  19:       950.96 cm**-1
  20:       975.57 cm**-1
  21:       989.71 cm**-1
  22:      1015.06 cm**-1
  23:      1053.32 cm**-1
  24:      1073.85 cm**-1
  25:      1093.41 cm**-1
  26:      1099.66 cm**-1
  27:      1117.15 cm**-1
  28:      1125.67 cm**-1
  29:      1192.66 cm**-1
  30:      1212.90 cm**-1
  31:      1228.79 cm**-1
  32:      1246.77 cm**-1
  33:      1285.59 cm**-1
  34:      1288.63 cm**-1
  35:      1303.58 cm**-1
  36:      1325.95 cm**-1
  37:      1336.93 cm**-1
  38:      1376.35 cm**-1
  39:      1462.23 cm**-1
  40:      1463.86 cm**-1
  41:      1483.26 cm**-1
  42:      1490.97 cm**-1
  43:      1511.69 cm**-1
  44:      1514.51 cm**-1
  45:      3119.16 cm**-1
  46:      3120.12 cm**-1
  47:      3122.72 cm**-1
  48:      3156.63 cm**-1
  49:      3159.95 cm**-1
  50:      3180.98 cm**-1
  51:      3190.65 cm**-1
  52:      3196.86 cm**-1
  53:      3201.83 cm**-1
  54:      3244.27 cm**-1
  55:      3255.61 cm**-1
  56:      3474.45 cm**-1

IR SPECTRUM
-----------

 Mode    freq (cm**-1)   T**2         TX         TY         TZ
-------------------------------------------------------------------
   6:        80.69    0.778077  (  0.000053  -0.000040   0.882087)
   7:       109.37    1.378387  ( -0.652481   0.976041   0.000050)
   8:       188.15    0.056486  ( -0.000021   0.000014   0.237668)
   9:       282.06    2.866648  (  1.560633   0.656561  -0.000021)
  10:       386.03    0.068010  ( -0.189188  -0.179493  -0.000007)
  11:       447.41    2.676391  (  0.000008  -0.000004   1.635968)
  12:       647.34    3.341035  ( -1.818169   0.187876   0.000012)
  13:       746.74    0.656637  ( -0.724164   0.363624  -0.000047)
  14:       790.41    0.807204  ( -0.792001   0.424192   0.000132)
  15:       802.58    2.617052  (  0.000022  -0.000006   1.617730)
  16:       836.53   10.342174  ( -0.000044  -0.000027  -3.215925)
  17:       896.53    4.028175  (  0.515807   1.939618  -0.000039)
  18:       925.64   28.718219  (  1.919065   5.003540   0.000010)
  19:       950.96    0.002380  ( -0.000019  -0.000042  -0.048783)
  20:       975.57    2.653257  ( -0.000009  -0.000038   1.628882)
  21:       989.71    0.789138  ( -0.081535  -0.884585  -0.000036)
  22:      1015.06    1.097218  (  0.000000   0.000027  -1.047482)
  23:      1053.32    2.608168  ( -1.097283  -1.184963  -0.000001)
  24:      1073.85    9.202991  (  0.319484   3.016773  -0.000176)
  25:      1093.41   13.191151  ( -0.000023   0.000047   3.631962)
  26:      1099.66    2.828894  ( -0.000079  -0.000213  -1.681932)
  27:      1117.15   18.037010  (  2.760625   3.227377  -0.000023)
  28:      1125.67    0.008092  (  0.000069   0.000092   0.089954)
  29:      1192.66    0.542198  ( -0.000016  -0.000016  -0.736341)
  30:      1212.90    4.457209  (  1.089979   1.808080   0.000017)
  31:      1228.79    7.462632  (  0.000000   0.000021  -2.731782)
  32:      1246.77    1.863333  (  0.339224   1.322218  -0.000020)
  33:      1285.59    2.962774  ( -0.959858   1.428792  -0.000008)
  34:      1288.63    2.162970  (  0.000005   0.000005  -1.470704)
  35:      1303.58    0.003677  (  0.000007   0.000000   0.060641)
  36:      1325.95   23.194865  ( -0.000012  -0.000003  -4.816105)
  37:      1336.93    1.247692  ( -1.008759   0.479684   0.000039)
  38:      1376.35    4.332827  ( -1.883237   0.886705   0.000005)
  39:      1462.23   26.460776  (  4.497582   2.496504   0.000794)
  40:      1463.86    8.869244  ( -0.001212  -0.000697   2.978127)
  41:      1483.26   11.613051  (  0.000003   0.000008  -3.407793)
  42:      1490.97    8.939943  (  2.831292   0.961108   0.000024)
  43:      1511.69   11.303393  ( -0.274510  -3.350826  -0.000045)
  44:      1514.51    1.715488  ( -1.285718  -0.249834  -0.000011)
  45:      3119.16    1.374537  (  0.000005  -0.000000  -1.172406)
  46:      3120.12    0.266564  ( -0.504055   0.111767  -0.000020)
  47:      3122.72    2.040112  (  1.380882   0.365070  -0.000003)
  48:      3156.63    0.057886  ( -0.000006  -0.000012  -0.240595)
  49:      3159.95    3.537420  (  1.821432   0.468833  -0.000022)
  50:      3180.98    0.067091  ( -0.120891  -0.229078  -0.000011)
  51:      3190.65    0.642414  ( -0.000004   0.000003  -0.801508)
  52:      3196.86    0.072904  ( -0.200685  -0.180635  -0.000012)
  53:      3201.83    0.497710  (  0.690764   0.143369  -0.000003)
  54:      3244.27    0.117179  ( -0.000012  -0.000008  -0.342314)
  55:      3255.61    0.713990  ( -0.834292   0.133964  -0.000014)
  56:      3474.45   40.968143  (  3.015614  -5.645725  -0.000000)

--------------------------
THERMOCHEMISTRY AT 298.15K
--------------------------

Temperature         ... 298.15 K
Pressure            ... 1.00 atm
Total Mass          ... 98.17 AMU

Throughout the following assumptions are being made:
  (1) The electronic state is orbitally nondegenerate
  (2) There are no thermally accessible electronically excited states
  (3) Hindered rotations indicated by low frequency modes) are not
      treated as such but are treated as vibrations and this may
      case some error
  (4) All equations used are the standard statistical mechanics
      equations for an ideal gas
  (5) All vibrations are strinctly harmonic

------------
INNER ENERGY
------------

The inner energy is: U= E(el) + E(ZPE) + E(vib) + E(rot) + E(trans)
    E(el)   - is the total energy from the electronic structure calculation
              = E(kin-el) + E(nuc-el) + E(el-el) + E(nuc-nuc)
    E(ZPE)  - the the zero temperature vibrational energy from the frequency calculation
    E(vib)  - the the finite temperature correction to E(ZPE) due to population
              of excietd vibrational states
    E(rot)  - is the rotational thermal energy
    E(trans)- is the translational thermal energy

Summary of contributions to the inner energy U:
Electronic energy                ...   -290.07266193 Eh
Zero point energy                ...      0.17719985 Eh     111.19 kcal/mol
Thermal vibrational correction   ...      0.00413089 Eh       2.59 kcal/mol
Thermal rotational correction    ...      0.00141627 Eh       0.89 kcal/mol
Thermal translational correction ...      0.00141627 Eh       0.89 kcal/mol
-----------------------------------------------------------------------
Total thermal energy                   -289.88849865 Eh

Summary of corrections to the electronic energy:
(perhaps to be used in another calculation)
Total thermal correction                  0.00696343 Eh       4.37 kcal/mol
Non-thermal (ZPE) correction              0.17719985 Eh     111.19 kcal/mol
-----------------------------------------------------------------------
Total correction                          0.18416328 Eh     115.56 kcal/mol

--------
ENTHALPY
--------

The enthalpy is H = U + kB*T
                kB is Boltzmann's constant
Total free energy                 ...   -289.88849865 Eh
Thermal Enthalpy correction       ...      0.00094421 Eh       0.59 kcal/mol
-----------------------------------------------------------------------
Total Enthalpy                    ...   -289.88755444 Eh

-------
ENTROPY
-------

The entropy contributions are T*S = T*(S(el)+S(vib)+S(rot)+S(trans)
     S(el)   - electronic entropy
     S(vib)  - vibrational entropy
     S(rot)  - rotational entropy
     S(trans)- translational entropy
The entropies will be listed as mutliplied by the temperature to get
units of energy

Electronic entropy                ...      0.00000000 Eh      0.00 kcal/mol
Vibrational entropy               ...      0.00732016 Eh      4.59 kcal/mol
Rotational entropy                ...      0.01195237 Eh      7.50 kcal/mol
Translational entropy             ...      0.01884507 Eh     11.83 kcal/mol
-----------------------------------------------------------------------
Final entropy term                ...      0.03811760 Eh     23.92 kcal/mol

CAUTION: The rotational entropy is not quite correctly treated here
         because it includes a symmetry number that is not yet correctly
         implemented in ORCA!
For a nonlinear molecule the correct rotational entropy is:
    S(rot) = R*(ln(qrot/sn)+1.5)
    R    = 8.31441 J/mol/K = 1.987191683e-3 kcal/mol/K
    qrot = 210574.7556541
    sn is the rotational symmetry number. We have assumed 3 here
       if it is different for your molecule then you should correct
       the printed rotational entropy by manually evaluating the equation
       as given above

For convenience we print out the resulting values for sn=1 - 12:
 sn= 1  qrot/sn=  210574.7557 T*S(rot)=     8.15 kcal/mol T*S(tot)=    24.57 kcal/mol
 sn= 2  qrot/sn=  105287.3778 T*S(rot)=     7.74 kcal/mol T*S(tot)=    24.16 kcal/mol
 sn= 3  qrot/sn=   70191.5852 T*S(rot)=     7.50 kcal/mol T*S(tot)=    23.92 kcal/mol
 sn= 4  qrot/sn=   52643.6889 T*S(rot)=     7.33 kcal/mol T*S(tot)=    23.75 kcal/mol
 sn= 5  qrot/sn=   42114.9511 T*S(rot)=     7.20 kcal/mol T*S(tot)=    23.62 kcal/mol
 sn= 6  qrot/sn=   35095.7926 T*S(rot)=     7.09 kcal/mol T*S(tot)=    23.51 kcal/mol
 sn= 7  qrot/sn=   30082.1080 T*S(rot)=     7.00 kcal/mol T*S(tot)=    23.42 kcal/mol
 sn= 8  qrot/sn=   26321.8445 T*S(rot)=     6.92 kcal/mol T*S(tot)=    23.34 kcal/mol
 sn= 9  qrot/sn=   23397.1951 T*S(rot)=     6.85 kcal/mol T*S(tot)=    23.27 kcal/mol
 sn=10  qrot/sn=   21057.4756 T*S(rot)=     6.79 kcal/mol T*S(tot)=    23.21 kcal/mol
 sn=11  qrot/sn=   19143.1596 T*S(rot)=     6.73 kcal/mol T*S(tot)=    23.15 kcal/mol
 sn=12  qrot/sn=   17547.8963 T*S(rot)=     6.68 kcal/mol T*S(tot)=    23.10 kcal/mol

-------------------
GIBBS FREE ENTHALPY
-------------------

The Gibbs free enthalpy is G = H - T*S

Total enthalpy                    ...   -289.88755444 Eh
Total entropy correction          ...     -0.03811760 Eh    -23.92 kcal/mol
-----------------------------------------------------------------------
Final Gibbs free enthalpy         ...   -289.92567204 Eh

For completeness - the Gibbs free enthalpy minus the electronic energy
G-E(el)                           ...      0.14698989 Eh     92.24 kcal/mol

                             ****ORCA TERMINATED NORMALLY****
TOTAL RUN TIME: 0 days 0 hours 50 minutes 32 seconds 907 msec
