                         Program Version 3.0.3 - RELEASE   -
|  1> ! NORI PBE0 def2-TZVP UseSym TightOPT Freq TightSCF Grid3 FinalGrid5 XYZFile
|  2> % pal
|  3>     nprocs 8
|  4> end
|  5> %method
|  6>     SymThresh 5.0e-2
|  7> end
|  8> % geom
|  9>     MaxIter 10
| 10> end
| 11> % maxcore 2000
| 12> % output
| 13>     printlevel mini
| 14>     print[ P_Basis ] 0
| 15>     print[ P_SCFInfo ] 1
| 16>     print[ P_SCFIterInfo ] 1
| 17>     print[ P_OrbEn ] 0
| 18>     print[ P_Cartesian ] 0
| 19> end
| 20> % elprop
| 21>     Dipole false
| 22> end
| 23> *xyz 1 1
| 24>  C        1.7867328710     0.1417450648    -0.8104513917
| 25>  C        1.9346605409    -0.0283357371     0.6732529269
| 26>  C        0.5817476670     0.0922054844     0.0671571125
| 27>  C       -0.3770797628     1.2411528356     0.2797094924
| 28>  C       -1.6912263355     0.7333006522    -0.3031692915
| 29>  C       -1.7136742704    -0.7170238213     0.1341431791
| 30>  N       -0.2741937967    -1.1510255707    -0.0204753739
| 31>  H        2.0308375196     1.0967384065    -1.2581085489
| 32>  H        2.0191919230    -0.7160759462    -1.4331988790
| 33>  H        2.2770102110     0.8097088127     1.2674752530
| 34>  H        2.2682126659    -0.9955440342     1.0334298352
| 35>  H       -0.0200726207     2.1482630813    -0.2057796509
| 36>  H       -0.4894063103     1.4538105653     1.3464640495
| 37>  H       -1.6931599993     0.8071968346    -1.3939020988
| 38>  H       -2.5630264676     1.2700409128     0.0689306024
| 39>  H       -1.9634462578    -0.8147480041     1.1906170415
| 40>  H       -2.3521003314    -1.3787098422    -0.4485387183
| 41>  H       -0.0157909331    -1.8326057436     0.6923179709
| 42>  H       -0.1386663128    -1.5985239507    -0.9270435104
| 43> *
| 44>
| 45>                          ****END OF INPUT****
 Total Charge           Charge          ....    1
 Multiplicity           Mult            ....    1
 Number of Electrons    NEL             ....   54
FINAL SINGLE POINT ENERGY      -290.106831243963

CARTESIAN COORDINATES (ANGSTROEM)
---------------------------------
  C      1.875057   -0.000317   -0.535140
  C      1.390459    1.416549   -0.432963
  C      0.448070    0.287564   -0.210402
  C     -0.724963   -0.065336   -1.095899
  C     -1.510676   -1.081238   -0.274286
  C     -1.417237   -0.520169    1.129975
  N      0.000039    0.000207    1.204626
  H      2.083176   -0.416813   -1.512506
  H      2.531067   -0.357770    0.251691
  H      1.253141    1.992425   -1.339714
  H      1.727758    1.998727    0.417659
  H     -0.391279   -0.461678   -2.054205
  H     -1.335569    0.820281   -1.293701
  H     -1.049198   -2.070827   -0.325437
  H     -2.548353   -1.180404   -0.590585
  H     -2.078008    0.336139    1.266010
  H     -1.580886   -1.231875    1.937509
  H      0.056831    0.832994    1.790166
  H      0.609852   -0.702665    1.622039

FINAL SINGLE POINT ENERGY      -290.106832041799
                    ***********************HURRAY********************
 Multiplicity           Mult            ....    1
 Number of Electrons    NEL             ....   54
 Basis Dimension        Dim             ....  289
FINAL SINGLE POINT ENERGY      -290.106832346941

VIBRATIONAL FREQUENCIES
-----------------------

   0:         0.00 cm**-1
   1:         0.00 cm**-1
   2:         0.00 cm**-1
   3:         0.00 cm**-1
   4:         0.00 cm**-1
   5:         0.00 cm**-1
   6:        31.13 cm**-1
   7:       230.55 cm**-1
   8:       296.82 cm**-1
   9:       330.63 cm**-1
  10:       409.74 cm**-1
  11:       496.11 cm**-1
  12:       572.69 cm**-1
  13:       730.02 cm**-1
  14:       767.17 cm**-1
  15:       839.36 cm**-1
  16:       848.33 cm**-1
  17:       873.19 cm**-1
  18:       905.19 cm**-1
  19:       929.48 cm**-1
  20:       941.03 cm**-1
  21:       986.35 cm**-1
  22:       996.17 cm**-1
  23:      1007.67 cm**-1
  24:      1044.42 cm**-1
  25:      1068.43 cm**-1
  26:      1102.65 cm**-1
  27:      1107.76 cm**-1
  28:      1187.15 cm**-1
  29:      1193.17 cm**-1
  30:      1215.60 cm**-1
  31:      1231.74 cm**-1
  32:      1273.61 cm**-1
  33:      1302.64 cm**-1
  34:      1322.42 cm**-1
  35:      1347.04 cm**-1
  36:      1359.65 cm**-1
  37:      1393.75 cm**-1
  38:      1416.15 cm**-1
  39:      1459.01 cm**-1
  40:      1484.86 cm**-1
  41:      1491.18 cm**-1
  42:      1504.99 cm**-1
  43:      1509.20 cm**-1
  44:      1647.63 cm**-1
  45:      3071.98 cm**-1
  46:      3084.65 cm**-1
  47:      3109.16 cm**-1
  48:      3146.62 cm**-1
  49:      3148.11 cm**-1
  50:      3151.97 cm**-1
  51:      3154.57 cm**-1
  52:      3174.12 cm**-1
  53:      3235.32 cm**-1
  54:      3246.95 cm**-1
  55:      3460.74 cm**-1
  56:      3518.07 cm**-1

IR SPECTRUM
-----------

 Mode    freq (cm**-1)   T**2         TX         TY         TZ
-------------------------------------------------------------------
   7:       230.55    0.405576  (  0.170609   0.591947   0.161452)
   8:       296.82    2.270383  ( -0.383373  -0.774731   1.234180)
   9:       330.63    3.574901  (  0.746854  -0.508602  -1.660853)
  10:       409.74    3.407647  ( -0.665074   1.690944  -0.325629)
  11:       496.11    0.559072  (  0.094648  -0.606075  -0.427537)
  12:       572.69    1.454938  ( -0.453622   1.111175   0.120231)
  13:       730.02    2.429110  ( -1.162378  -1.001137   0.275157)
  14:       767.17    1.176924  ( -0.847090  -0.479769  -0.478731)
  15:       839.36    1.256361  (  0.503870   0.034461  -1.000644)
  16:       848.33    2.579101  (  0.245796  -1.101411   1.142619)
  17:       873.19    3.019970  (  0.938046   1.460339  -0.086317)
  18:       905.19    4.298163  (  1.344210   0.168658   1.569337)
  19:       929.48    0.687648  ( -0.329625   0.489175   0.582840)
  20:       941.03    0.194440  ( -0.314061  -0.122898  -0.284081)
  21:       986.35    8.273105  ( -2.477065  -1.461935  -0.000286)
  22:       996.17   10.301792  ( -2.972476  -1.028868  -0.638441)
  23:      1007.67    8.131401  ( -1.361412   2.311934   0.965876)
  24:      1044.42    3.704279  ( -1.140821  -1.216002   0.961325)
  25:      1068.43   19.938454  ( -3.842451  -1.429170   1.769603)
  26:      1102.65    0.654873  (  0.226189  -0.753573   0.189312)
  27:      1107.76    1.541348  ( -0.478664   1.140506   0.107124)
  28:      1187.15    0.903482  ( -0.644150  -0.275931  -0.642194)
  29:      1193.17    2.364922  (  0.991446   0.491562   1.067860)
  30:      1215.60   20.303599  (  3.168099  -0.305614  -3.189568)
  31:      1231.74    6.178999  ( -0.928268  -1.359660   1.862429)
  32:      1273.61    2.786553  (  0.990569   0.894280  -1.002791)
  33:      1302.64   10.957869  (  2.236622   0.007580  -2.440355)
  34:      1322.42    4.919286  ( -1.058564  -1.174724   1.555234)
  35:      1347.04   16.932099  (  2.437898   2.161047  -2.513689)
  36:      1359.65    1.574053  (  0.654155   0.042256  -1.069742)
  37:      1393.75    1.076378  ( -0.732054  -0.494130   0.544344)
  38:      1416.15   14.237872  ( -2.173229  -1.731673   2.552696)
  39:      1459.01   14.271446  (  1.034540  -3.632637   0.071569)
  40:      1484.86    7.957412  ( -0.535220  -2.469593   1.253820)
  41:      1491.18   15.971705  ( -0.159946   1.915703   3.503742)
  42:      1504.99    1.407895  (  0.302907  -1.143288  -0.095055)
  43:      1509.20    9.984739  (  3.055428   0.799247  -0.101491)
  44:      1647.63   47.224477  (  3.870824   0.561463   5.650306)
  45:      3071.98    2.874694  ( -1.252002   0.762022  -0.852354)
  46:      3084.65    6.444906  ( -0.733139   2.358142  -0.588712)
  47:      3109.16    2.330945  (  0.714483  -0.882165  -1.020903)
  48:      3146.62    0.511964  (  0.585845  -0.356883  -0.203431)
  49:      3148.11    0.857019  ( -0.066809  -0.711529   0.588458)
  50:      3151.97    2.591911  ( -0.799473  -0.166393   1.387468)
  51:      3154.57    0.794820  (  0.690524  -0.518060  -0.222733)
  52:      3174.12    0.533793  (  0.151172  -0.617801   0.359529)
  53:      3235.32    0.140482  (  0.182156  -0.314199   0.092626)
  54:      3246.95    0.137992  ( -0.032810  -0.090478   0.358789)
  55:      3460.74   45.169700  ( -3.512960  -0.566588  -5.701560)
  56:      3518.07   66.475130  ( -2.576326   7.645900   1.173836)

--------------------------
THERMOCHEMISTRY AT 298.15K
--------------------------

Temperature         ... 298.15 K
Pressure            ... 1.00 atm
Total Mass          ... 98.17 AMU

Throughout the following assumptions are being made:
  (1) The electronic state is orbitally nondegenerate
  (2) There are no thermally accessible electronically excited states
  (3) Hindered rotations indicated by low frequency modes) are not
      treated as such but are treated as vibrations and this may
      case some error
  (4) All equations used are the standard statistical mechanics
      equations for an ideal gas
  (5) All vibrations are strinctly harmonic

------------
INNER ENERGY
------------

The inner energy is: U= E(el) + E(ZPE) + E(vib) + E(rot) + E(trans)
    E(el)   - is the total energy from the electronic structure calculation
              = E(kin-el) + E(nuc-el) + E(el-el) + E(nuc-nuc)
    E(ZPE)  - the the zero temperature vibrational energy from the frequency calculation
    E(vib)  - the the finite temperature correction to E(ZPE) due to population
              of excietd vibrational states
    E(rot)  - is the rotational thermal energy
    E(trans)- is the translational thermal energy

Summary of contributions to the inner energy U:
Electronic energy                ...   -290.10683235 Eh
Zero point energy                ...      0.17843931 Eh     111.97 kcal/mol
Thermal vibrational correction   ...      0.00293487 Eh       1.84 kcal/mol
Thermal rotational correction    ...      0.00141627 Eh       0.89 kcal/mol
Thermal translational correction ...      0.00141627 Eh       0.89 kcal/mol
-----------------------------------------------------------------------
Total thermal energy                   -289.92262563 Eh

Summary of corrections to the electronic energy:
(perhaps to be used in another calculation)
Total thermal correction                  0.00576741 Eh       3.62 kcal/mol
Non-thermal (ZPE) correction              0.17843931 Eh     111.97 kcal/mol
-----------------------------------------------------------------------
Total correction                          0.18420672 Eh     115.59 kcal/mol

--------
ENTHALPY
--------

The enthalpy is H = U + kB*T
                kB is Boltzmann's constant
Total free energy                 ...   -289.92262563 Eh
Thermal Enthalpy correction       ...      0.00094421 Eh       0.59 kcal/mol
-----------------------------------------------------------------------
Total Enthalpy                    ...   -289.92168142 Eh

-------
ENTROPY
-------

The entropy contributions are T*S = T*(S(el)+S(vib)+S(rot)+S(trans)
     S(el)   - electronic entropy
     S(vib)  - vibrational entropy
     S(rot)  - rotational entropy
     S(trans)- translational entropy
The entropies will be listed as mutliplied by the temperature to get
units of energy

Electronic entropy                ...      0.00000000 Eh      0.00 kcal/mol
Vibrational entropy               ...      0.00427593 Eh      2.68 kcal/mol
Rotational entropy                ...      0.01184654 Eh      7.43 kcal/mol
Translational entropy             ...      0.01884507 Eh     11.83 kcal/mol
-----------------------------------------------------------------------
Final entropy term                ...      0.03496754 Eh     21.94 kcal/mol

CAUTION: The rotational entropy is not quite correctly treated here
         because it includes a symmetry number that is not yet correctly
         implemented in ORCA!
For a nonlinear molecule the correct rotational entropy is:
    S(rot) = R*(ln(qrot/sn)+1.5)
    R    = 8.31441 J/mol/K = 1.987191683e-3 kcal/mol/K
    qrot = 188247.0362354
    sn is the rotational symmetry number. We have assumed 3 here
       if it is different for your molecule then you should correct
       the printed rotational entropy by manually evaluating the equation
       as given above

For convenience we print out the resulting values for sn=1 - 12:
 sn= 1  qrot/sn=  188247.0362 T*S(rot)=     8.08 kcal/mol T*S(tot)=    22.59 kcal/mol
 sn= 2  qrot/sn=   94123.5181 T*S(rot)=     7.67 kcal/mol T*S(tot)=    22.18 kcal/mol
 sn= 3  qrot/sn=   62749.0121 T*S(rot)=     7.43 kcal/mol T*S(tot)=    21.94 kcal/mol
 sn= 4  qrot/sn=   47061.7591 T*S(rot)=     7.26 kcal/mol T*S(tot)=    21.77 kcal/mol
 sn= 5  qrot/sn=   37649.4072 T*S(rot)=     7.13 kcal/mol T*S(tot)=    21.64 kcal/mol
 sn= 6  qrot/sn=   31374.5060 T*S(rot)=     7.02 kcal/mol T*S(tot)=    21.53 kcal/mol
 sn= 7  qrot/sn=   26892.4337 T*S(rot)=     6.93 kcal/mol T*S(tot)=    21.44 kcal/mol
 sn= 8  qrot/sn=   23530.8795 T*S(rot)=     6.85 kcal/mol T*S(tot)=    21.36 kcal/mol
 sn= 9  qrot/sn=   20916.3374 T*S(rot)=     6.78 kcal/mol T*S(tot)=    21.29 kcal/mol
 sn=10  qrot/sn=   18824.7036 T*S(rot)=     6.72 kcal/mol T*S(tot)=    21.23 kcal/mol
 sn=11  qrot/sn=   17113.3669 T*S(rot)=     6.66 kcal/mol T*S(tot)=    21.17 kcal/mol
 sn=12  qrot/sn=   15687.2530 T*S(rot)=     6.61 kcal/mol T*S(tot)=    21.12 kcal/mol

-------------------
GIBBS FREE ENTHALPY
-------------------

The Gibbs free enthalpy is G = H - T*S

Total enthalpy                    ...   -289.92168142 Eh
Total entropy correction          ...     -0.03496754 Eh    -21.94 kcal/mol
-----------------------------------------------------------------------
Final Gibbs free enthalpy         ...   -289.95664896 Eh

For completeness - the Gibbs free enthalpy minus the electronic energy
G-E(el)                           ...      0.15018339 Eh     94.24 kcal/mol

                             ****ORCA TERMINATED NORMALLY****
TOTAL RUN TIME: 0 days 0 hours 52 minutes 17 seconds 493 msec
