                         Program Version 3.0.3 - RELEASE   -
|  1> ! NORI PBE0 def2-TZVP UseSym TightOPT Freq TightSCF Grid3 FinalGrid5 XYZFile
|  2> % pal
|  3>     nprocs 8
|  4> end
|  5> %method
|  6>     SymThresh 5.0e-2
|  7> end
|  8> % geom
|  9>     MaxIter 10
| 10> end
| 11> % maxcore 2000
| 12> % output
| 13>     printlevel mini
| 14>     print[ P_Basis ] 0
| 15>     print[ P_SCFInfo ] 1
| 16>     print[ P_SCFIterInfo ] 1
| 17>     print[ P_OrbEn ] 0
| 18>     print[ P_Cartesian ] 0
| 19> end
| 20> % elprop
| 21>     Dipole false
| 22> end
| 23> *xyz 1 1
| 24>  C       -1.6709864311     0.8324972291     0.5925923250
| 25>  C       -1.1255987405    -0.2759134781    -0.2515740802
| 26>  C       -0.3028795525    -1.3840629113     0.3666132456
| 27>  C        1.1103115093    -1.3934577191    -0.2221505544
| 28>  C        1.7887145233    -0.0169796374    -0.1680323741
| 29>  N        0.8679136313     1.0178564680     0.4330408767
| 30>  C       -0.4517081766     1.0592279859    -0.2352831175
| 31>  H       -1.5643570404     0.7562992787     1.6706361648
| 32>  H       -2.5703297483     1.3415866969     0.2720877652
| 33>  H       -1.6647909859    -0.5237266694    -1.1582686549
| 34>  H       -0.7753362421    -2.3508073261     0.1905841784
| 35>  H       -0.2660281581    -1.2754951630     1.4568565768
| 36>  H        1.7279595964    -2.1233012534     0.3023248867
| 37>  H        1.0592615672    -1.7163682633    -1.2629492219
| 38>  H        2.0431201517     0.3576960448    -1.1585794818
| 39>  H        2.6944395331    -0.0153156954     0.4389474106
| 40>  H        0.7350393228     0.8130194603     1.4243836803
| 41>  H        1.3104861565     1.9371027085     0.3959501021
| 42>  H       -0.4545809161     1.7231922442    -1.0895197277
| 43> *
| 44>
| 45>                          ****END OF INPUT****
 Total Charge           Charge          ....    1
 Multiplicity           Mult            ....    1
 Number of Electrons    NEL             ....   54
FINAL SINGLE POINT ENERGY      -290.101226402651
FINAL SINGLE POINT ENERGY      -290.101228132798
FINAL SINGLE POINT ENERGY      -290.101229335694

CARTESIAN COORDINATES (ANGSTROEM)
---------------------------------
  C      1.979237   -0.001091   -0.259991
  C      0.715899   -0.313438   -0.998624
  C     -0.345385    0.746224   -1.194030
  C     -1.650838    0.322634   -0.516201
  C     -1.454058   -0.083998    0.951365
  N      0.000486    0.000306    1.346899
  C      0.883748   -0.745732    0.423430
  H      2.165673    1.030351    0.023001
  H      2.873739   -0.565281   -0.489002
  H      0.754258   -1.101320   -1.741674
  H     -0.525590    0.911765   -2.256026
  H     -0.002466    1.711221   -0.804249
  H     -2.381320    1.130531   -0.572858
  H     -2.075552   -0.522822   -1.059563
  H     -1.749836   -1.115933    1.138229
  H     -2.000566    0.556771    1.644118
  H      0.286720    0.979903    1.363876
  H      0.118904   -0.341518    2.301207
  H      0.988125   -1.783898    0.708925

FINAL SINGLE POINT ENERGY      -290.101230183111
                    ***********************HURRAY********************
 Multiplicity           Mult            ....    1
 Number of Electrons    NEL             ....   54
 Basis Dimension        Dim             ....  289
FINAL SINGLE POINT ENERGY      -290.101231517686

VIBRATIONAL FREQUENCIES
-----------------------

   0:         0.00 cm**-1
   1:         0.00 cm**-1
   2:         0.00 cm**-1
   3:         0.00 cm**-1
   4:         0.00 cm**-1
   5:         0.00 cm**-1
   6:        85.34 cm**-1
   7:       216.60 cm**-1
   8:       302.77 cm**-1
   9:       412.75 cm**-1
  10:       469.58 cm**-1
  11:       489.66 cm**-1
  12:       618.47 cm**-1
  13:       772.42 cm**-1
  14:       784.64 cm**-1
  15:       809.93 cm**-1
  16:       826.37 cm**-1
  17:       889.22 cm**-1
  18:       925.17 cm**-1
  19:       947.83 cm**-1
  20:       968.72 cm**-1
  21:      1000.48 cm**-1
  22:      1003.73 cm**-1
  23:      1063.35 cm**-1
  24:      1084.52 cm**-1
  25:      1097.61 cm**-1
  26:      1118.60 cm**-1
  27:      1141.28 cm**-1
  28:      1171.56 cm**-1
  29:      1224.88 cm**-1
  30:      1228.64 cm**-1
  31:      1268.03 cm**-1
  32:      1283.78 cm**-1
  33:      1302.92 cm**-1
  34:      1343.17 cm**-1
  35:      1372.14 cm**-1
  36:      1392.11 cm**-1
  37:      1402.24 cm**-1
  38:      1424.75 cm**-1
  39:      1443.68 cm**-1
  40:      1487.85 cm**-1
  41:      1492.14 cm**-1
  42:      1499.45 cm**-1
  43:      1511.70 cm**-1
  44:      1643.16 cm**-1
  45:      3047.99 cm**-1
  46:      3091.51 cm**-1
  47:      3103.78 cm**-1
  48:      3132.99 cm**-1
  49:      3137.27 cm**-1
  50:      3145.75 cm**-1
  51:      3161.64 cm**-1
  52:      3194.38 cm**-1
  53:      3217.50 cm**-1
  54:      3245.27 cm**-1
  55:      3455.44 cm**-1
  56:      3506.78 cm**-1

IR SPECTRUM
-----------

 Mode    freq (cm**-1)   T**2         TX         TY         TZ
-------------------------------------------------------------------
   6:        85.34    0.256639  ( -0.294232   0.376790  -0.167618)
   7:       216.60    3.477981  (  0.191198  -1.379780   1.240012)
   8:       302.77    2.328764  ( -0.830616  -0.379624   1.222591)
   9:       412.75    6.261869  ( -0.346696  -0.938338   2.293729)
  10:       469.58    1.897831  ( -1.362701   0.115082   0.166237)
  11:       489.66    0.786750  (  0.703534  -0.129119  -0.524518)
  12:       618.47   10.116992  ( -0.511999   0.870191  -3.016225)
  13:       772.42    8.624714  (  0.091152  -1.625437   2.444250)
  14:       784.64    4.998789  ( -0.934291   1.589932   1.264122)
  15:       809.93    0.458432  ( -0.038802  -0.540702   0.405670)
  16:       826.37   10.745285  (  3.009168   1.246631   0.368926)
  17:       889.22    1.347617  (  0.854772  -0.784933  -0.029344)
  18:       925.17    0.829143  (  0.895307  -0.056289   0.156204)
  19:       947.83    2.622528  (  0.222728  -0.889847   1.334576)
  20:       968.72    4.829310  ( -1.445390  -0.609296   1.539128)
  21:      1000.48    4.039542  (  1.581460  -0.444455   1.158009)
  22:      1003.73    1.956606  ( -1.077325  -0.220186   0.864577)
  23:      1063.35    8.570667  ( -1.539904   0.416718  -2.454732)
  24:      1084.52    2.771057  ( -0.269039  -0.981302   1.317468)
  25:      1097.61    2.796843  ( -0.363098   0.179759   1.622557)
  26:      1118.60    0.643432  (  0.321830  -0.661367  -0.320079)
  27:      1141.28    0.568215  ( -0.485298   0.455864  -0.353397)
  28:      1171.56    5.865403  (  0.508499  -1.465943   1.859528)
  29:      1224.88    0.119533  (  0.118707  -0.320207  -0.053941)
  30:      1228.64    3.957020  (  1.595388  -1.179000   0.147362)
  31:      1268.03    4.892435  ( -2.152314   0.380956   0.338896)
  32:      1283.78    0.660833  (  0.420445   0.685397  -0.119542)
  33:      1302.92   13.918336  (  3.407110   0.257887  -1.497808)
  34:      1343.17    1.601859  ( -0.416928   1.024102  -0.615828)
  35:      1372.14    4.190662  ( -1.920345  -0.375694   0.601492)
  36:      1392.11    1.299404  ( -0.611182   0.580463   0.767413)
  37:      1402.24   31.100903  (  5.214672  -1.967676  -0.190653)
  38:      1424.75    8.823550  (  2.854500  -0.333146  -0.751261)
  39:      1443.68    4.939955  (  0.200254  -1.707138  -1.409090)
  40:      1487.85    0.585632  ( -0.073601  -0.736361  -0.194904)
  41:      1492.14    6.134421  (  0.367693  -0.027083   2.449181)
  42:      1499.45   13.852024  (  1.136076   3.198873  -1.525964)
  43:      1511.70   12.886793  ( -3.109846  -1.458625   1.043104)
  44:      1643.16   76.808133  (  2.447753   5.263232   6.566203)
  45:      3047.99   12.245546  (  0.982769   3.272358   0.755901)
  46:      3091.51    4.804152  ( -1.697590  -0.351725  -1.341130)
  47:      3103.78    3.499986  (  1.020916   0.549039  -1.468425)
  48:      3132.99    1.438186  ( -0.656026   0.973152  -0.246560)
  49:      3137.27    1.351099  (  0.266516   0.682221   0.902575)
  50:      3145.75    2.609222  (  0.632113  -1.006112  -1.094255)
  51:      3161.64    1.308571  (  0.420549  -1.024156  -0.287773)
  52:      3194.38    0.081694  ( -0.121809  -0.217458   0.139887)
  53:      3217.50    0.475089  ( -0.257153   0.612807   0.182834)
  54:      3245.27    0.739300  ( -0.700156   0.464020   0.183758)
  55:      3455.44   48.123316  ( -2.224380  -2.454345  -6.095215)
  56:      3506.78   71.899033  (  0.528575   6.185284  -5.775977)

--------------------------
THERMOCHEMISTRY AT 298.15K
--------------------------

Temperature         ... 298.15 K
Pressure            ... 1.00 atm
Total Mass          ... 98.17 AMU

Throughout the following assumptions are being made:
  (1) The electronic state is orbitally nondegenerate
  (2) There are no thermally accessible electronically excited states
  (3) Hindered rotations indicated by low frequency modes) are not
      treated as such but are treated as vibrations and this may
      case some error
  (4) All equations used are the standard statistical mechanics
      equations for an ideal gas
  (5) All vibrations are strinctly harmonic

------------
INNER ENERGY
------------

The inner energy is: U= E(el) + E(ZPE) + E(vib) + E(rot) + E(trans)
    E(el)   - is the total energy from the electronic structure calculation
              = E(kin-el) + E(nuc-el) + E(el-el) + E(nuc-nuc)
    E(ZPE)  - the the zero temperature vibrational energy from the frequency calculation
    E(vib)  - the the finite temperature correction to E(ZPE) due to population
              of excietd vibrational states
    E(rot)  - is the rotational thermal energy
    E(trans)- is the translational thermal energy

Summary of contributions to the inner energy U:
Electronic energy                ...   -290.10123152 Eh
Zero point energy                ...      0.17988769 Eh     112.88 kcal/mol
Thermal vibrational correction   ...      0.00350098 Eh       2.20 kcal/mol
Thermal rotational correction    ...      0.00141627 Eh       0.89 kcal/mol
Thermal translational correction ...      0.00141627 Eh       0.89 kcal/mol
-----------------------------------------------------------------------
Total thermal energy                   -289.91501031 Eh

Summary of corrections to the electronic energy:
(perhaps to be used in another calculation)
Total thermal correction                  0.00633352 Eh       3.97 kcal/mol
Non-thermal (ZPE) correction              0.17988769 Eh     112.88 kcal/mol
-----------------------------------------------------------------------
Total correction                          0.18622121 Eh     116.86 kcal/mol

--------
ENTHALPY
--------

The enthalpy is H = U + kB*T
                kB is Boltzmann's constant
Total free energy                 ...   -289.91501031 Eh
Thermal Enthalpy correction       ...      0.00094421 Eh       0.59 kcal/mol
-----------------------------------------------------------------------
Total Enthalpy                    ...   -289.91406610 Eh

-------
ENTROPY
-------

The entropy contributions are T*S = T*(S(el)+S(vib)+S(rot)+S(trans)
     S(el)   - electronic entropy
     S(vib)  - vibrational entropy
     S(rot)  - rotational entropy
     S(trans)- translational entropy
The entropies will be listed as mutliplied by the temperature to get
units of energy

Electronic entropy                ...      0.00000000 Eh      0.00 kcal/mol
Vibrational entropy               ...      0.00575550 Eh      3.61 kcal/mol
Rotational entropy                ...      0.01179863 Eh      7.40 kcal/mol
Translational entropy             ...      0.01884507 Eh     11.83 kcal/mol
-----------------------------------------------------------------------
Final entropy term                ...      0.03639921 Eh     22.84 kcal/mol

CAUTION: The rotational entropy is not quite correctly treated here
         because it includes a symmetry number that is not yet correctly
         implemented in ORCA!
For a nonlinear molecule the correct rotational entropy is:
    S(rot) = R*(ln(qrot/sn)+1.5)
    R    = 8.31441 J/mol/K = 1.987191683e-3 kcal/mol/K
    qrot = 178933.2590644
    sn is the rotational symmetry number. We have assumed 3 here
       if it is different for your molecule then you should correct
       the printed rotational entropy by manually evaluating the equation
       as given above

For convenience we print out the resulting values for sn=1 - 12:
 sn= 1  qrot/sn=  178933.2591 T*S(rot)=     8.05 kcal/mol T*S(tot)=    23.49 kcal/mol
 sn= 2  qrot/sn=   89466.6295 T*S(rot)=     7.64 kcal/mol T*S(tot)=    23.08 kcal/mol
 sn= 3  qrot/sn=   59644.4197 T*S(rot)=     7.40 kcal/mol T*S(tot)=    22.84 kcal/mol
 sn= 4  qrot/sn=   44733.3148 T*S(rot)=     7.23 kcal/mol T*S(tot)=    22.67 kcal/mol
 sn= 5  qrot/sn=   35786.6518 T*S(rot)=     7.10 kcal/mol T*S(tot)=    22.54 kcal/mol
 sn= 6  qrot/sn=   29822.2098 T*S(rot)=     6.99 kcal/mol T*S(tot)=    22.43 kcal/mol
 sn= 7  qrot/sn=   25561.8942 T*S(rot)=     6.90 kcal/mol T*S(tot)=    22.34 kcal/mol
 sn= 8  qrot/sn=   22366.6574 T*S(rot)=     6.82 kcal/mol T*S(tot)=    22.26 kcal/mol
 sn= 9  qrot/sn=   19881.4732 T*S(rot)=     6.75 kcal/mol T*S(tot)=    22.19 kcal/mol
 sn=10  qrot/sn=   17893.3259 T*S(rot)=     6.69 kcal/mol T*S(tot)=    22.13 kcal/mol
 sn=11  qrot/sn=   16266.6599 T*S(rot)=     6.63 kcal/mol T*S(tot)=    22.07 kcal/mol
 sn=12  qrot/sn=   14911.1049 T*S(rot)=     6.58 kcal/mol T*S(tot)=    22.02 kcal/mol

-------------------
GIBBS FREE ENTHALPY
-------------------

The Gibbs free enthalpy is G = H - T*S

Total enthalpy                    ...   -289.91406610 Eh
Total entropy correction          ...     -0.03639921 Eh    -22.84 kcal/mol
-----------------------------------------------------------------------
Final Gibbs free enthalpy         ...   -289.95046531 Eh

For completeness - the Gibbs free enthalpy minus the electronic energy
G-E(el)                           ...      0.15076621 Eh     94.61 kcal/mol

                             ****ORCA TERMINATED NORMALLY****
TOTAL RUN TIME: 0 days 0 hours 56 minutes 14 seconds 601 msec
