                         Program Version 3.0.3 - RELEASE   -
|  1> ! NORI PBE0 def2-TZVP UseSym TightOPT Freq TightSCF Grid3 FinalGrid5 XYZFile
|  2> % pal
|  3>     nprocs 8
|  4> end
|  5> %method
|  6>     SymThresh 5.0e-2
|  7> end
|  8> % geom
|  9>     MaxIter 10
| 10> end
| 11> % maxcore 2000
| 12> % output
| 13>     printlevel mini
| 14>     print[ P_Basis ] 0
| 15>     print[ P_SCFInfo ] 1
| 16>     print[ P_SCFIterInfo ] 1
| 17>     print[ P_OrbEn ] 0
| 18>     print[ P_Cartesian ] 0
| 19> end
| 20> % elprop
| 21>     Dipole false
| 22> end
| 23> *xyz 1 1
| 24>  C        0.8094948363    -1.2211270963     0.5265877986
| 25>  C        1.7147541838    -0.1502592791    -0.0409086465
| 26>  N        0.9537790286     1.0698537050    -0.4881303291
| 27>  C       -0.1496337523     1.5209822076     0.4278868890
| 28>  C       -1.4144776078     0.7726823127     0.1400324125
| 29>  C       -1.5163420312    -0.5043235106    -0.2195850163
| 30>  C       -0.4288595206    -1.5326539269    -0.3035675371
| 31>  H        1.4249968527    -2.1189590322     0.6228907455
| 32>  H        0.5049884497    -0.9584160401     1.5430659819
| 33>  H        2.4408875638     0.1879165309     0.6996890805
| 34>  H        2.2594519769    -0.5017606245    -0.9195032907
| 35>  H        0.5194682225     0.8802092477    -1.3942692834
| 36>  H        1.6181107240     1.8305275264    -0.6369017863
| 37>  H       -0.2966327781     2.5854497230     0.2401511426
| 38>  H        0.2138788912     1.4154410169     1.4529037034
| 39>  H       -2.3151724945     1.3734397544     0.1998034576
| 40>  H       -2.5122427725    -0.8641036757    -0.4603697427
| 41>  H       -0.1680864807    -1.7293882924    -1.3527609958
| 42>  H       -0.8485132918    -2.4779305465     0.0503554163
| 43> *
| 44>
| 45>                          ****END OF INPUT****
 Total Charge           Charge          ....    1
 Multiplicity           Mult            ....    1
 Number of Electrons    NEL             ....   54
FINAL SINGLE POINT ENERGY      -290.109543960035
FINAL SINGLE POINT ENERGY      -290.109545119438

CARTESIAN COORDINATES (ANGSTROEM)
---------------------------------
  C      1.430354    0.000361   -0.585946
  C      1.399376    0.071689    0.924817
  N      0.000018   -0.000696    1.476330
  C     -0.908859   -1.001927    0.818798
  C     -1.548770   -0.413189   -0.400469
  C     -0.987333    0.432465   -1.260867
  C      0.434883    0.905255   -1.301747
  H      2.448634    0.265035   -0.881471
  H      1.281825   -1.030763   -0.917416
  H      1.954442   -0.754032    1.371703
  H      1.819437    1.008131    1.297340
  H     -0.448644    0.911899    1.370228
  H      0.055262   -0.184028    2.478992
  H     -1.673135   -1.259620    1.552684
  H     -0.318856   -1.901683    0.628367
  H     -2.586190   -0.694382   -0.543454
  H     -1.624260    0.815039   -2.053048
  H      0.504319    1.940722   -0.940413
  H      0.725310    0.968205   -2.354028

FINAL SINGLE POINT ENERGY      -290.109545627552
                    ***********************HURRAY********************
 Multiplicity           Mult            ....    1
 Number of Electrons    NEL             ....   54
 Basis Dimension        Dim             ....  289
FINAL SINGLE POINT ENERGY      -290.109545841818

VIBRATIONAL FREQUENCIES
-----------------------

   0:         0.00 cm**-1
   1:         0.00 cm**-1
   2:         0.00 cm**-1
   3:         0.00 cm**-1
   4:         0.00 cm**-1
   5:         0.00 cm**-1
   6:       119.36 cm**-1
   7:       239.67 cm**-1
   8:       267.41 cm**-1
   9:       340.47 cm**-1
  10:       350.86 cm**-1
  11:       437.61 cm**-1
  12:       560.97 cm**-1
  13:       655.97 cm**-1
  14:       717.51 cm**-1
  15:       775.28 cm**-1
  16:       831.03 cm**-1
  17:       870.94 cm**-1
  18:       889.37 cm**-1
  19:       931.14 cm**-1
  20:       984.63 cm**-1
  21:      1001.15 cm**-1
  22:      1023.56 cm**-1
  23:      1032.54 cm**-1
  24:      1050.08 cm**-1
  25:      1098.25 cm**-1
  26:      1128.72 cm**-1
  27:      1196.14 cm**-1
  28:      1249.10 cm**-1
  29:      1263.69 cm**-1
  30:      1269.99 cm**-1
  31:      1319.97 cm**-1
  32:      1338.51 cm**-1
  33:      1378.81 cm**-1
  34:      1404.37 cm**-1
  35:      1411.16 cm**-1
  36:      1423.70 cm**-1
  37:      1429.58 cm**-1
  38:      1445.37 cm**-1
  39:      1466.51 cm**-1
  40:      1476.60 cm**-1
  41:      1491.24 cm**-1
  42:      1503.25 cm**-1
  43:      1634.34 cm**-1
  44:      1734.93 cm**-1
  45:      3024.64 cm**-1
  46:      3074.32 cm**-1
  47:      3087.45 cm**-1
  48:      3090.25 cm**-1
  49:      3093.97 cm**-1
  50:      3118.30 cm**-1
  51:      3139.23 cm**-1
  52:      3149.30 cm**-1
  53:      3181.43 cm**-1
  54:      3205.38 cm**-1
  55:      3436.47 cm**-1
  56:      3496.82 cm**-1

IR SPECTRUM
-----------

 Mode    freq (cm**-1)   T**2         TX         TY         TZ
-------------------------------------------------------------------
   6:       119.36    0.834864  (  0.248217  -0.802689   0.359086)
   7:       239.67    9.556414  (  0.582473  -1.394463   2.696778)
   8:       267.41    1.194267  (  0.142339   0.339406  -1.028985)
   9:       340.47    1.859300  (  1.294140   0.154943   0.400616)
  10:       350.86    0.581190  ( -0.132117  -0.033407   0.750079)
  11:       437.61    0.323174  (  0.120368  -0.552719  -0.056454)
  12:       560.97    5.145208  ( -0.768466  -0.506085  -2.073293)
  13:       655.97   20.067508  (  1.575446  -3.866595  -1.623245)
  14:       717.51   21.952831  (  1.105376  -3.324290  -3.111282)
  15:       775.28    1.460140  ( -0.184425  -0.273110   1.162557)
  16:       831.03   13.047976  ( -0.442988  -3.140361   1.729125)
  17:       870.94    9.210817  ( -0.880174   2.374181   1.673133)
  18:       889.37    2.616774  (  0.225542   1.590087  -0.193720)
  19:       931.14    0.090217  ( -0.178340  -0.030901  -0.239703)
  20:       984.63    7.139095  ( -1.511184   0.759346  -2.068529)
  21:      1001.15   10.157161  ( -2.562695  -1.440226  -1.231057)
  22:      1023.56    2.794182  ( -1.400217  -0.844719  -0.346446)
  23:      1032.54    2.964154  (  1.576291  -0.555836  -0.412923)
  24:      1050.08    4.401322  ( -1.431747  -1.184736  -0.973562)
  25:      1098.25    5.862310  (  1.978940  -0.681303  -1.217347)
  26:      1128.72    8.133849  (  1.999134   1.779518  -0.985204)
  27:      1196.14    0.974558  (  0.812657   0.530002   0.182333)
  28:      1249.10    3.873234  (  0.870777   1.434670  -1.027961)
  29:      1263.69    0.949560  (  0.242066   0.394964   0.857303)
  30:      1269.99   10.143540  ( -2.171335  -1.727517   1.563498)
  31:      1319.97    3.844741  ( -1.495329  -1.154803  -0.524559)
  32:      1338.51   11.568022  ( -2.847270   1.304539  -1.326368)
  33:      1378.81    0.964879  (  0.596432   0.678471  -0.385779)
  34:      1404.37    2.699379  (  1.484167   0.444351   0.546974)
  35:      1411.16    2.196684  (  0.814599   0.763122   0.975068)
  36:      1423.70   17.977491  (  3.611024   1.951437   1.062963)
  37:      1429.58    1.741200  ( -0.754445   0.169773  -1.069201)
  38:      1445.37   16.768101  (  2.972067   2.481626  -1.332836)
  39:      1466.51   13.340991  (  0.962165   2.786445  -2.156607)
  40:      1476.60   12.739090  (  1.917469  -0.017421  -3.010332)
  41:      1491.24   16.394012  (  0.814291   3.931685   0.522298)
  42:      1503.25   18.397370  ( -2.613831   2.255976  -2.544764)
  43:      1634.34   82.782032  ( -2.287213   5.399593   6.956658)
  44:      1734.93    7.740021  (  1.906806   1.635629  -1.195337)
  45:      3024.64    5.588407  (  0.206244   2.354737   0.032905)
  46:      3074.32    3.053284  (  0.536302  -1.652138  -0.190009)
  47:      3087.45    3.709534  ( -0.326315   1.297945  -1.385060)
  48:      3090.25    2.459354  ( -0.742490  -0.179179  -1.369656)
  49:      3093.97    0.781261  ( -0.115581   0.557541   0.676054)
  50:      3118.30    2.736809  (  0.986646   1.030202   0.837867)
  51:      3139.23    0.160469  ( -0.312312  -0.240508   0.071318)
  52:      3149.30    1.157772  ( -0.153649   1.064677   0.025052)
  53:      3181.43    0.897363  ( -0.892549  -0.275163   0.158128)
  54:      3205.38    0.215258  (  0.289798   0.299104  -0.204479)
  55:      3436.47   37.673162  (  2.799164  -3.887909  -3.836926)
  56:      3496.82   72.223556  ( -2.064308   4.411650  -6.964160)

--------------------------
THERMOCHEMISTRY AT 298.15K
--------------------------

Temperature         ... 298.15 K
Pressure            ... 1.00 atm
Total Mass          ... 98.17 AMU

Throughout the following assumptions are being made:
  (1) The electronic state is orbitally nondegenerate
  (2) There are no thermally accessible electronically excited states
  (3) Hindered rotations indicated by low frequency modes) are not
      treated as such but are treated as vibrations and this may
      case some error
  (4) All equations used are the standard statistical mechanics
      equations for an ideal gas
  (5) All vibrations are strinctly harmonic

------------
INNER ENERGY
------------

The inner energy is: U= E(el) + E(ZPE) + E(vib) + E(rot) + E(trans)
    E(el)   - is the total energy from the electronic structure calculation
              = E(kin-el) + E(nuc-el) + E(el-el) + E(nuc-nuc)
    E(ZPE)  - the the zero temperature vibrational energy from the frequency calculation
    E(vib)  - the the finite temperature correction to E(ZPE) due to population
              of excietd vibrational states
    E(rot)  - is the rotational thermal energy
    E(trans)- is the translational thermal energy

Summary of contributions to the inner energy U:
Electronic energy                ...   -290.10954584 Eh
Zero point energy                ...      0.17961373 Eh     112.71 kcal/mol
Thermal vibrational correction   ...      0.00377285 Eh       2.37 kcal/mol
Thermal rotational correction    ...      0.00141627 Eh       0.89 kcal/mol
Thermal translational correction ...      0.00141627 Eh       0.89 kcal/mol
-----------------------------------------------------------------------
Total thermal energy                   -289.92332672 Eh

Summary of corrections to the electronic energy:
(perhaps to be used in another calculation)
Total thermal correction                  0.00660540 Eh       4.14 kcal/mol
Non-thermal (ZPE) correction              0.17961373 Eh     112.71 kcal/mol
-----------------------------------------------------------------------
Total correction                          0.18621913 Eh     116.85 kcal/mol

--------
ENTHALPY
--------

The enthalpy is H = U + kB*T
                kB is Boltzmann's constant
Total free energy                 ...   -289.92332672 Eh
Thermal Enthalpy correction       ...      0.00094421 Eh       0.59 kcal/mol
-----------------------------------------------------------------------
Total Enthalpy                    ...   -289.92238251 Eh

-------
ENTROPY
-------

The entropy contributions are T*S = T*(S(el)+S(vib)+S(rot)+S(trans)
     S(el)   - electronic entropy
     S(vib)  - vibrational entropy
     S(rot)  - rotational entropy
     S(trans)- translational entropy
The entropies will be listed as mutliplied by the temperature to get
units of energy

Electronic entropy                ...      0.00000000 Eh      0.00 kcal/mol
Vibrational entropy               ...      0.00600942 Eh      3.77 kcal/mol
Rotational entropy                ...      0.01188677 Eh      7.46 kcal/mol
Translational entropy             ...      0.01884507 Eh     11.83 kcal/mol
-----------------------------------------------------------------------
Final entropy term                ...      0.03674127 Eh     23.06 kcal/mol

CAUTION: The rotational entropy is not quite correctly treated here
         because it includes a symmetry number that is not yet correctly
         implemented in ORCA!
For a nonlinear molecule the correct rotational entropy is:
    S(rot) = R*(ln(qrot/sn)+1.5)
    R    = 8.31441 J/mol/K = 1.987191683e-3 kcal/mol/K
    qrot = 196441.3602276
    sn is the rotational symmetry number. We have assumed 3 here
       if it is different for your molecule then you should correct
       the printed rotational entropy by manually evaluating the equation
       as given above

For convenience we print out the resulting values for sn=1 - 12:
 sn= 1  qrot/sn=  196441.3602 T*S(rot)=     8.11 kcal/mol T*S(tot)=    23.71 kcal/mol
 sn= 2  qrot/sn=   98220.6801 T*S(rot)=     7.70 kcal/mol T*S(tot)=    23.30 kcal/mol
 sn= 3  qrot/sn=   65480.4534 T*S(rot)=     7.46 kcal/mol T*S(tot)=    23.06 kcal/mol
 sn= 4  qrot/sn=   49110.3401 T*S(rot)=     7.29 kcal/mol T*S(tot)=    22.88 kcal/mol
 sn= 5  qrot/sn=   39288.2720 T*S(rot)=     7.16 kcal/mol T*S(tot)=    22.75 kcal/mol
 sn= 6  qrot/sn=   32740.2267 T*S(rot)=     7.05 kcal/mol T*S(tot)=    22.64 kcal/mol
 sn= 7  qrot/sn=   28063.0515 T*S(rot)=     6.96 kcal/mol T*S(tot)=    22.55 kcal/mol
 sn= 8  qrot/sn=   24555.1700 T*S(rot)=     6.88 kcal/mol T*S(tot)=    22.47 kcal/mol
 sn= 9  qrot/sn=   21826.8178 T*S(rot)=     6.81 kcal/mol T*S(tot)=    22.40 kcal/mol
 sn=10  qrot/sn=   19644.1360 T*S(rot)=     6.75 kcal/mol T*S(tot)=    22.34 kcal/mol
 sn=11  qrot/sn=   17858.3055 T*S(rot)=     6.69 kcal/mol T*S(tot)=    22.29 kcal/mol
 sn=12  qrot/sn=   16370.1134 T*S(rot)=     6.64 kcal/mol T*S(tot)=    22.23 kcal/mol

-------------------
GIBBS FREE ENTHALPY
-------------------

The Gibbs free enthalpy is G = H - T*S

Total enthalpy                    ...   -289.92238251 Eh
Total entropy correction          ...     -0.03674127 Eh    -23.06 kcal/mol
-----------------------------------------------------------------------
Final Gibbs free enthalpy         ...   -289.95912377 Eh

For completeness - the Gibbs free enthalpy minus the electronic energy
G-E(el)                           ...      0.15042207 Eh     94.39 kcal/mol

                             ****ORCA TERMINATED NORMALLY****
TOTAL RUN TIME: 0 days 0 hours 53 minutes 30 seconds 440 msec
