                         Program Version 3.0.3 - RELEASE   -
|  1> ! NORI PBE0 def2-TZVP UseSym TightOPT Freq TightSCF Grid3 FinalGrid5 XYZFile
|  2> % pal
|  3>     nprocs 8
|  4> end
|  5> %method
|  6>     SymThresh 5.0e-2
|  7> end
|  8> % geom
|  9>     MaxIter 10
| 10> end
| 11> % maxcore 2000
| 12> % output
| 13>     printlevel mini
| 14>     print[ P_Basis ] 0
| 15>     print[ P_SCFInfo ] 1
| 16>     print[ P_SCFIterInfo ] 1
| 17>     print[ P_OrbEn ] 0
| 18>     print[ P_Cartesian ] 0
| 19> end
| 20> % elprop
| 21>     Dipole false
| 22> end
| 23> *xyz 1 1
| 24>  C       -2.6849341385     0.2107029456     0.5758935860
| 25>  N       -2.3341034295     0.1402158816    -0.8643457233
| 26>  C       -1.2681048260     0.1291324117     0.2055593713
| 27>  C       -0.4406455124    -1.1382186910     0.2868909257
| 28>  C        0.9114886818    -0.6545499188    -0.1541700457
| 29>  C        0.9754276012     0.6703181784    -0.2034131227
| 30>  C       -0.3222007694     1.3132019223     0.1957703789
| 31>  H       -3.1965232003    -0.6704570591     0.9440433944
| 32>  H       -3.1093034604     1.1612801670     0.8760838229
| 33>  H       -2.5279270879    -0.7230737594    -1.3604520216
| 34>  H       -2.4470228978     0.9786724318    -1.4240252324
| 35>  H       -0.4189781157    -1.5041368447     1.3201582052
| 36>  H       -0.8473922469    -1.9537150823    -0.3205881099
| 37>  H        1.7315292714    -1.3319450556    -0.3519011908
| 38>  H        1.8561714529     1.2491353617    -0.4475204861
| 39>  H       -0.6512754963     2.1166814317    -0.4716499518
| 40>  H       -0.2619658262     1.7507156792     1.1992761996
| 41> *
| 42>
| 43>                          ****END OF INPUT****
 Total Charge           Charge          ....    1
 Multiplicity           Mult            ....    1
 Number of Electrons    NEL             ....   52
FINAL SINGLE POINT ENERGY      -288.876122712040

CARTESIAN COORDINATES (ANGSTROEM)
---------------------------------
  C      1.368867   -1.432088   -0.000000
  N      1.757720    0.000272    0.000000
  C      0.307148   -0.420308   -0.000000
  C     -0.487035   -0.021605    1.227984
  C     -1.443645    0.989907    0.663696
  C     -1.443645    0.989907   -0.663696
  C     -0.487035   -0.021605   -1.227984
  H      1.617243   -1.951799    0.917389
  H      1.617243   -1.951799   -0.917389
  H      2.147163    0.388470    0.852346
  H      2.147163    0.388470   -0.852346
  H     -1.015514   -0.894093    1.630187
  H      0.143073    0.358068    2.039322
  H     -2.081432    1.596338    1.292975
  H     -2.081432    1.596338   -1.292975
  H      0.143073    0.358068   -2.039322
  H     -1.015514   -0.894093   -1.630188

FINAL SINGLE POINT ENERGY      -288.876123048199
                    ***********************HURRAY********************
 Multiplicity           Mult            ....    1
 Number of Electrons    NEL             ....   52
 Basis Dimension        Dim             ....  277
FINAL SINGLE POINT ENERGY      -288.876123172450

VIBRATIONAL FREQUENCIES
-----------------------

   0:         0.00 cm**-1
   1:         0.00 cm**-1
   2:         0.00 cm**-1
   3:         0.00 cm**-1
   4:         0.00 cm**-1
   5:         0.00 cm**-1
   6:        99.79 cm**-1
   7:       285.43 cm**-1
   8:       333.07 cm**-1
   9:       394.98 cm**-1
  10:       409.59 cm**-1
  11:       542.57 cm**-1
  12:       679.78 cm**-1
  13:       751.66 cm**-1
  14:       787.48 cm**-1
  15:       828.81 cm**-1
  16:       858.41 cm**-1
  17:       886.63 cm**-1
  18:       935.89 cm**-1
  19:       967.43 cm**-1
  20:       967.94 cm**-1
  21:       990.59 cm**-1
  22:       993.45 cm**-1
  23:       996.67 cm**-1
  24:      1006.95 cm**-1
  25:      1023.68 cm**-1
  26:      1137.67 cm**-1
  27:      1168.40 cm**-1
  28:      1179.12 cm**-1
  29:      1220.65 cm**-1
  30:      1241.78 cm**-1
  31:      1293.99 cm**-1
  32:      1294.42 cm**-1
  33:      1318.60 cm**-1
  34:      1381.93 cm**-1
  35:      1412.52 cm**-1
  36:      1460.42 cm**-1
  37:      1472.96 cm**-1
  38:      1498.87 cm**-1
  39:      1625.51 cm**-1
  40:      1701.56 cm**-1
  41:      3045.70 cm**-1
  42:      3046.75 cm**-1
  43:      3081.58 cm**-1
  44:      3081.86 cm**-1
  45:      3165.31 cm**-1
  46:      3229.14 cm**-1
  47:      3248.76 cm**-1
  48:      3264.00 cm**-1
  49:      3506.46 cm**-1
  50:      3615.37 cm**-1

IR SPECTRUM
-----------

 Mode    freq (cm**-1)   T**2         TX         TY         TZ
-------------------------------------------------------------------
   6:        99.79    2.630192  ( -1.428333   0.768152   0.000005)
   7:       285.43    0.366813  (  0.000003  -0.000004  -0.605651)
   8:       333.07    0.643010  (  0.000001  -0.000001  -0.801879)
   9:       394.98    4.420589  ( -1.233813   1.702438  -0.000001)
  10:       409.59    0.333399  (  0.000001  -0.000001   0.577407)
  11:       542.57    1.893473  (  1.255660   0.562841  -0.000002)
  12:       679.78   20.316673  (  2.921300   3.432591  -0.000001)
  13:       751.66   49.009157  (  5.609568   4.188306   0.000005)
  14:       787.48    0.695198  ( -0.000010  -0.000009   0.833785)
  15:       828.81    7.629542  (  2.317780   1.502478   0.000002)
  16:       858.41    0.116072  ( -0.000006  -0.000014   0.340694)
  17:       886.63    2.396442  ( -0.000004   0.000010  -1.548045)
  18:       935.89    0.075802  ( -0.000010   0.000004   0.275321)
  19:       967.43    0.580975  (  0.000028   0.000010   0.762217)
  20:       967.94   22.212601  (  4.402147   1.683361  -0.000008)
  21:       990.59   10.913710  ( -0.000004   0.000001   3.303590)
  22:       993.45    2.725336  (  1.650455  -0.036512   0.000011)
  23:       996.67    4.163381  ( -0.000005  -0.000001   2.040437)
  24:      1006.95   67.202325  ( -5.855509   5.737189  -0.000001)
  25:      1023.68   21.805447  (  3.694987  -2.855261  -0.000003)
  26:      1137.67    0.192587  (  0.198803  -0.391235   0.000000)
  27:      1168.40    0.297265  (  0.000002  -0.000000   0.545220)
  28:      1179.12    1.798413  (  1.294141   0.351583  -0.000002)
  29:      1220.65    2.674767  ( -1.323766  -0.960422  -0.000000)
  30:      1241.78    1.807637  ( -0.000016   0.000003   1.344484)
  31:      1293.99    0.011282  (  0.000000   0.000001  -0.106217)
  32:      1294.42    3.001042  ( -1.104271  -1.334776  -0.000001)
  33:      1318.60   10.600597  (  0.000000   0.000000   3.255856)
  34:      1381.93    1.977445  ( -0.000000  -0.000000   1.406216)
  35:      1412.52    2.999502  (  1.258655  -1.189659  -0.000003)
  36:      1460.42   19.266898  ( -0.000000   0.000000   4.389407)
  37:      1472.96    7.215929  ( -0.996162   2.494713  -0.000000)
  38:      1498.87    8.968024  ( -1.344516   2.675874   0.000001)
  39:      1625.51   70.457433  (  7.145104   4.405101  -0.000001)
  40:      1701.56    1.562222  (  1.195054  -0.366154  -0.000000)
  41:      3045.70    8.386148  ( -0.000000  -0.000000   2.895885)
  42:      3046.75    8.546664  ( -2.568318   1.396569  -0.000001)
  43:      3081.58    5.451472  ( -2.322915  -0.235662   0.000002)
  44:      3081.86    3.392739  ( -0.000001  -0.000000  -1.841939)
  45:      3165.31    1.614521  (  0.467683  -1.181437  -0.000000)
  46:      3229.14    1.160113  (  0.000000  -0.000000   1.077085)
  47:      3248.76    0.377558  (  0.418096  -0.450282  -0.000000)
  48:      3264.00    4.574677  (  0.000000  -0.000000   2.138849)
  49:      3506.46   87.154811  ( -7.195744  -5.947780   0.000002)
  50:      3615.37   96.517294  ( -0.000009  -0.000001  -9.824322)

--------------------------
THERMOCHEMISTRY AT 298.15K
--------------------------

Temperature         ... 298.15 K
Pressure            ... 1.00 atm
Total Mass          ... 96.15 AMU

Throughout the following assumptions are being made:
  (1) The electronic state is orbitally nondegenerate
  (2) There are no thermally accessible electronically excited states
  (3) Hindered rotations indicated by low frequency modes) are not
      treated as such but are treated as vibrations and this may
      case some error
  (4) All equations used are the standard statistical mechanics
      equations for an ideal gas
  (5) All vibrations are strinctly harmonic

------------
INNER ENERGY
------------

The inner energy is: U= E(el) + E(ZPE) + E(vib) + E(rot) + E(trans)
    E(el)   - is the total energy from the electronic structure calculation
              = E(kin-el) + E(nuc-el) + E(el-el) + E(nuc-nuc)
    E(ZPE)  - the the zero temperature vibrational energy from the frequency calculation
    E(vib)  - the the finite temperature correction to E(ZPE) due to population
              of excietd vibrational states
    E(rot)  - is the rotational thermal energy
    E(trans)- is the translational thermal energy

Summary of contributions to the inner energy U:
Electronic energy                ...   -288.87612317 Eh
Zero point energy                ...      0.15362626 Eh      96.40 kcal/mol
Thermal vibrational correction   ...      0.00332162 Eh       2.08 kcal/mol
Thermal rotational correction    ...      0.00141627 Eh       0.89 kcal/mol
Thermal translational correction ...      0.00141627 Eh       0.89 kcal/mol
-----------------------------------------------------------------------
Total thermal energy                   -288.71634275 Eh

Summary of corrections to the electronic energy:
(perhaps to be used in another calculation)
Total thermal correction                  0.00615416 Eh       3.86 kcal/mol
Non-thermal (ZPE) correction              0.15362626 Eh      96.40 kcal/mol
-----------------------------------------------------------------------
Total correction                          0.15978042 Eh     100.26 kcal/mol

--------
ENTHALPY
--------

The enthalpy is H = U + kB*T
                kB is Boltzmann's constant
Total free energy                 ...   -288.71634275 Eh
Thermal Enthalpy correction       ...      0.00094421 Eh       0.59 kcal/mol
-----------------------------------------------------------------------
Total Enthalpy                    ...   -288.71539855 Eh

-------
ENTROPY
-------

The entropy contributions are T*S = T*(S(el)+S(vib)+S(rot)+S(trans)
     S(el)   - electronic entropy
     S(vib)  - vibrational entropy
     S(rot)  - rotational entropy
     S(trans)- translational entropy
The entropies will be listed as mutliplied by the temperature to get
units of energy

Electronic entropy                ...      0.00000000 Eh      0.00 kcal/mol
Vibrational entropy               ...      0.00530013 Eh      3.33 kcal/mol
Rotational entropy                ...      0.01176171 Eh      7.38 kcal/mol
Translational entropy             ...      0.01881568 Eh     11.81 kcal/mol
-----------------------------------------------------------------------
Final entropy term                ...      0.03587752 Eh     22.51 kcal/mol

CAUTION: The rotational entropy is not quite correctly treated here
         because it includes a symmetry number that is not yet correctly
         implemented in ORCA!
For a nonlinear molecule the correct rotational entropy is:
    S(rot) = R*(ln(qrot/sn)+1.5)
    R    = 8.31441 J/mol/K = 1.987191683e-3 kcal/mol/K
    qrot = 172070.3328984
    sn is the rotational symmetry number. We have assumed 3 here
       if it is different for your molecule then you should correct
       the printed rotational entropy by manually evaluating the equation
       as given above

For convenience we print out the resulting values for sn=1 - 12:
 sn= 1  qrot/sn=  172070.3329 T*S(rot)=     8.03 kcal/mol T*S(tot)=    23.16 kcal/mol
 sn= 2  qrot/sn=   86035.1664 T*S(rot)=     7.62 kcal/mol T*S(tot)=    22.75 kcal/mol
 sn= 3  qrot/sn=   57356.7776 T*S(rot)=     7.38 kcal/mol T*S(tot)=    22.51 kcal/mol
 sn= 4  qrot/sn=   43017.5832 T*S(rot)=     7.21 kcal/mol T*S(tot)=    22.34 kcal/mol
 sn= 5  qrot/sn=   34414.0666 T*S(rot)=     7.08 kcal/mol T*S(tot)=    22.21 kcal/mol
 sn= 6  qrot/sn=   28678.3888 T*S(rot)=     6.97 kcal/mol T*S(tot)=    22.10 kcal/mol
 sn= 7  qrot/sn=   24581.4761 T*S(rot)=     6.88 kcal/mol T*S(tot)=    22.01 kcal/mol
 sn= 8  qrot/sn=   21508.7916 T*S(rot)=     6.80 kcal/mol T*S(tot)=    21.93 kcal/mol
 sn= 9  qrot/sn=   19118.9259 T*S(rot)=     6.73 kcal/mol T*S(tot)=    21.86 kcal/mol
 sn=10  qrot/sn=   17207.0333 T*S(rot)=     6.67 kcal/mol T*S(tot)=    21.80 kcal/mol
 sn=11  qrot/sn=   15642.7575 T*S(rot)=     6.61 kcal/mol T*S(tot)=    21.74 kcal/mol
 sn=12  qrot/sn=   14339.1944 T*S(rot)=     6.56 kcal/mol T*S(tot)=    21.69 kcal/mol

-------------------
GIBBS FREE ENTHALPY
-------------------

The Gibbs free enthalpy is G = H - T*S

Total enthalpy                    ...   -288.71539855 Eh
Total entropy correction          ...     -0.03587752 Eh    -22.51 kcal/mol
-----------------------------------------------------------------------
Final Gibbs free enthalpy         ...   -288.75127607 Eh

For completeness - the Gibbs free enthalpy minus the electronic energy
G-E(el)                           ...      0.12484711 Eh     78.34 kcal/mol

                             ****ORCA TERMINATED NORMALLY****
TOTAL RUN TIME: 0 days 0 hours 43 minutes 5 seconds 205 msec
