                         Program Version 3.0.3 - RELEASE   -
|  1> ! NORI PBE0 def2-TZVP UseSym TightOPT Freq TightSCF Grid3 FinalGrid5 XYZFile
|  2> % pal
|  3>     nprocs 8
|  4> end
|  5> %method
|  6>     SymThresh 5.0e-2
|  7> end
|  8> % geom
|  9>     MaxIter 10
| 10> end
| 11> % maxcore 2000
| 12> % output
| 13>     printlevel mini
| 14>     print[ P_Basis ] 0
| 15>     print[ P_SCFInfo ] 1
| 16>     print[ P_SCFIterInfo ] 1
| 17>     print[ P_OrbEn ] 0
| 18>     print[ P_Cartesian ] 0
| 19> end
| 20> % elprop
| 21>     Dipole false
| 22> end
| 23> *xyz 1 1
| 24>  C        0.2327028945     1.5472477075     0.5203112555
| 25>  N        1.1431503384     0.5170768523    -0.1240105903
| 26>  C        0.1896333383    -0.3672819502    -0.9786899340
| 27>  C       -0.7839544292     0.7070666674    -1.4362393790
| 28>  C       -1.1533249461     1.1137839598     0.0003500757
| 29>  C       -1.4271891300    -0.2377665706     0.6169769941
| 30>  C       -0.6212526559    -1.1261033752     0.0347537704
| 31>  H        0.5244435768     2.5326654148     0.1600199686
| 32>  H        0.3431202867     1.5040043206     1.6014205427
| 33>  H        1.8478571894     0.9655625487    -0.7081904284
| 34>  H        1.6294799026    -0.0476968952     0.5698982767
| 35>  H        0.7749310967    -0.9201068995    -1.7092385871
| 36>  H       -1.6226710784     0.2763422156    -1.9794165298
| 37>  H       -0.3305289378     1.5060300530    -2.0293481452
| 38>  H       -1.9127210640     1.8812511105     0.1273014210
| 39>  H       -2.1052163942    -0.4127952658     1.4423496656
| 40>  H       -0.4941599878    -2.1742498936     0.2688716234
| 41> *
| 42>
| 43>                          ****END OF INPUT****
 Total Charge           Charge          ....    1
 Multiplicity           Mult            ....    1
 Number of Electrons    NEL             ....   52
FINAL SINGLE POINT ENERGY      -288.897077844178

CARTESIAN COORDINATES (ANGSTROEM)
---------------------------------
  C      1.326645   -0.000257    0.710512
  N      0.000163    0.000310    1.449542
  C     -1.060002   -0.297139    0.349889
  C     -0.253966   -1.264855   -0.501825
  C      0.878398   -0.252704   -0.743617
  C      0.086858    0.966305   -1.155100
  C     -1.073636    0.943515   -0.499084
  H      1.937151   -0.810780    1.106187
  H      1.830916    0.949823    0.869071
  H     -0.015039   -0.715388    2.175305
  H     -0.187181    0.896840    1.894683
  H     -1.982579   -0.624548    0.822908
  H     -0.785470   -1.526371   -1.414434
  H      0.056906   -2.174901    0.018345
  H      1.695960   -0.556788   -1.392155
  H      0.453485    1.747861   -1.807773
  H     -1.859149    1.686786   -0.494942

FINAL SINGLE POINT ENERGY      -288.897078508668
                    ***********************HURRAY********************
 Multiplicity           Mult            ....    1
 Number of Electrons    NEL             ....   52
 Basis Dimension        Dim             ....  277
FINAL SINGLE POINT ENERGY      -288.897078657662

VIBRATIONAL FREQUENCIES
-----------------------

   0:         0.00 cm**-1
   1:         0.00 cm**-1
   2:         0.00 cm**-1
   3:         0.00 cm**-1
   4:         0.00 cm**-1
   5:         0.00 cm**-1
   6:       252.22 cm**-1
   7:       395.54 cm**-1
   8:       480.53 cm**-1
   9:       490.12 cm**-1
  10:       677.71 cm**-1
  11:       717.32 cm**-1
  12:       768.89 cm**-1
  13:       818.71 cm**-1
  14:       824.48 cm**-1
  15:       849.01 cm**-1
  16:       888.80 cm**-1
  17:       912.31 cm**-1
  18:       944.73 cm**-1
  19:       958.35 cm**-1
  20:       976.64 cm**-1
  21:       991.69 cm**-1
  22:       999.66 cm**-1
  23:      1034.22 cm**-1
  24:      1060.68 cm**-1
  25:      1128.85 cm**-1
  26:      1151.65 cm**-1
  27:      1175.94 cm**-1
  28:      1214.09 cm**-1
  29:      1233.54 cm**-1
  30:      1288.03 cm**-1
  31:      1292.48 cm**-1
  32:      1315.17 cm**-1
  33:      1330.75 cm**-1
  34:      1346.57 cm**-1
  35:      1358.07 cm**-1
  36:      1384.23 cm**-1
  37:      1488.20 cm**-1
  38:      1503.73 cm**-1
  39:      1637.90 cm**-1
  40:      1658.72 cm**-1
  41:      3084.54 cm**-1
  42:      3119.47 cm**-1
  43:      3171.75 cm**-1
  44:      3173.22 cm**-1
  45:      3175.57 cm**-1
  46:      3187.77 cm**-1
  47:      3232.16 cm**-1
  48:      3253.09 cm**-1
  49:      3472.96 cm**-1
  50:      3539.33 cm**-1

IR SPECTRUM
-----------

 Mode    freq (cm**-1)   T**2         TX         TY         TZ
-------------------------------------------------------------------
   6:       252.22    3.170387  (  0.130229  -1.677057   0.583872)
   7:       395.54    2.805967  ( -0.365329  -1.627735  -0.151596)
   8:       480.53    0.736599  (  0.551276  -0.593853  -0.282902)
   9:       490.12    0.374420  ( -0.229933  -0.137152   0.550218)
  10:       677.71    1.896050  (  0.513788  -0.192132   1.262996)
  11:       717.32    5.242837  (  0.804212   2.014954   0.732149)
  12:       768.89   33.163085  ( -2.747927  -1.277572  -4.896917)
  13:       818.71    7.071273  ( -0.001912   1.233344   2.355872)
  14:       824.48   12.060336  (  0.215877   0.321040   3.451183)
  15:       849.01    7.257956  (  0.155988   2.159180   1.603610)
  16:       888.80   11.789766  (  1.290016   2.228240   2.271689)
  17:       912.31    9.804415  ( -2.997193  -0.421664  -0.802153)
  18:       944.73    7.782950  ( -1.864286  -1.717675  -1.164895)
  19:       958.35    2.673592  (  0.381902   1.523895   0.453306)
  20:       976.64    0.149349  ( -0.071523  -0.068098  -0.373626)
  21:       991.69    0.706323  ( -0.528210   0.025654   0.653191)
  22:       999.66    2.330997  (  0.612171   1.369413  -0.284519)
  23:      1034.22    6.914808  (  1.597528   0.158856   2.082661)
  24:      1060.68    1.272325  ( -0.867226  -0.471624   0.545724)
  25:      1128.85    2.371822  (  1.292496   0.087464   0.832842)
  26:      1151.65    0.166622  (  0.008347   0.353213   0.204433)
  27:      1175.94   14.462135  (  0.382745  -3.765698   0.367645)
  28:      1214.09    5.663321  ( -1.203393  -1.137250  -1.709335)
  29:      1233.54   14.580036  (  3.307024   0.092311   1.906595)
  30:      1288.03    0.903266  (  0.109034  -0.447246   0.831473)
  31:      1292.48    6.600457  (  2.488381  -0.552824   0.320626)
  32:      1315.17    0.505831  ( -0.124504  -0.150790   0.683807)
  33:      1330.75    1.470338  ( -0.685000   0.998767  -0.059814)
  34:      1346.57   17.478185  ( -3.834196  -1.100385  -1.251510)
  35:      1358.07    9.246769  ( -2.630010  -1.522178   0.113097)
  36:      1384.23   41.832586  (  5.672490   0.819242  -2.997380)
  37:      1488.20   14.124521  ( -1.141213  -2.845509  -2.173759)
  38:      1503.73    6.159757  ( -2.185208   0.969734  -0.666511)
  39:      1637.90   65.032478  (  1.699429  -0.806594  -7.841800)
  40:      1658.72    6.731369  (  0.648961   0.966062   2.318823)
  41:      3084.54    9.398069  (  0.546659  -2.723207   1.297450)
  42:      3119.47    1.891006  (  1.117168  -0.317139   0.736454)
  43:      3171.75    0.843973  ( -0.784051   0.478370  -0.020003)
  44:      3173.22    1.402341  ( -0.338865  -0.975199   0.580085)
  45:      3175.57    0.694116  ( -0.120028   0.489177   0.663638)
  46:      3187.77    0.132797  ( -0.143659   0.325805  -0.077521)
  47:      3232.16    2.013967  ( -1.277424  -0.038745   0.616972)
  48:      3253.09    2.093937  ( -0.701912   1.122470  -0.584224)
  49:      3472.96   61.084493  (  1.327376  -0.301148  -7.696225)
  50:      3539.33   69.679913  ( -0.819843   8.306082  -0.129528)

--------------------------
THERMOCHEMISTRY AT 298.15K
--------------------------

Temperature         ... 298.15 K
Pressure            ... 1.00 atm
Total Mass          ... 96.15 AMU

Throughout the following assumptions are being made:
  (1) The electronic state is orbitally nondegenerate
  (2) There are no thermally accessible electronically excited states
  (3) Hindered rotations indicated by low frequency modes) are not
      treated as such but are treated as vibrations and this may
      case some error
  (4) All equations used are the standard statistical mechanics
      equations for an ideal gas
  (5) All vibrations are strinctly harmonic

------------
INNER ENERGY
------------

The inner energy is: U= E(el) + E(ZPE) + E(vib) + E(rot) + E(trans)
    E(el)   - is the total energy from the electronic structure calculation
              = E(kin-el) + E(nuc-el) + E(el-el) + E(nuc-nuc)
    E(ZPE)  - the the zero temperature vibrational energy from the frequency calculation
    E(vib)  - the the finite temperature correction to E(ZPE) due to population
              of excietd vibrational states
    E(rot)  - is the rotational thermal energy
    E(trans)- is the translational thermal energy

Summary of contributions to the inner energy U:
Electronic energy                ...   -288.89707866 Eh
Zero point energy                ...      0.15710099 Eh      98.58 kcal/mol
Thermal vibrational correction   ...      0.00234338 Eh       1.47 kcal/mol
Thermal rotational correction    ...      0.00141627 Eh       0.89 kcal/mol
Thermal translational correction ...      0.00141627 Eh       0.89 kcal/mol
-----------------------------------------------------------------------
Total thermal energy                   -288.73480174 Eh

Summary of corrections to the electronic energy:
(perhaps to be used in another calculation)
Total thermal correction                  0.00517592 Eh       3.25 kcal/mol
Non-thermal (ZPE) correction              0.15710099 Eh      98.58 kcal/mol
-----------------------------------------------------------------------
Total correction                          0.16227692 Eh     101.83 kcal/mol

--------
ENTHALPY
--------

The enthalpy is H = U + kB*T
                kB is Boltzmann's constant
Total free energy                 ...   -288.73480174 Eh
Thermal Enthalpy correction       ...      0.00094421 Eh       0.59 kcal/mol
-----------------------------------------------------------------------
Total Enthalpy                    ...   -288.73385753 Eh

-------
ENTROPY
-------

The entropy contributions are T*S = T*(S(el)+S(vib)+S(rot)+S(trans)
     S(el)   - electronic entropy
     S(vib)  - vibrational entropy
     S(rot)  - rotational entropy
     S(trans)- translational entropy
The entropies will be listed as mutliplied by the temperature to get
units of energy

Electronic entropy                ...      0.00000000 Eh      0.00 kcal/mol
Vibrational entropy               ...      0.00326851 Eh      2.05 kcal/mol
Rotational entropy                ...      0.01153408 Eh      7.24 kcal/mol
Translational entropy             ...      0.01881568 Eh     11.81 kcal/mol
-----------------------------------------------------------------------
Final entropy term                ...      0.03361827 Eh     21.10 kcal/mol

CAUTION: The rotational entropy is not quite correctly treated here
         because it includes a symmetry number that is not yet correctly
         implemented in ORCA!
For a nonlinear molecule the correct rotational entropy is:
    S(rot) = R*(ln(qrot/sn)+1.5)
    R    = 8.31441 J/mol/K = 1.987191683e-3 kcal/mol/K
    qrot = 135208.2955814
    sn is the rotational symmetry number. We have assumed 3 here
       if it is different for your molecule then you should correct
       the printed rotational entropy by manually evaluating the equation
       as given above

For convenience we print out the resulting values for sn=1 - 12:
 sn= 1  qrot/sn=  135208.2956 T*S(rot)=     7.89 kcal/mol T*S(tot)=    21.75 kcal/mol
 sn= 2  qrot/sn=   67604.1478 T*S(rot)=     7.48 kcal/mol T*S(tot)=    21.34 kcal/mol
 sn= 3  qrot/sn=   45069.4319 T*S(rot)=     7.24 kcal/mol T*S(tot)=    21.10 kcal/mol
 sn= 4  qrot/sn=   33802.0739 T*S(rot)=     7.07 kcal/mol T*S(tot)=    20.93 kcal/mol
 sn= 5  qrot/sn=   27041.6591 T*S(rot)=     6.94 kcal/mol T*S(tot)=    20.79 kcal/mol
 sn= 6  qrot/sn=   22534.7159 T*S(rot)=     6.83 kcal/mol T*S(tot)=    20.69 kcal/mol
 sn= 7  qrot/sn=   19315.4708 T*S(rot)=     6.74 kcal/mol T*S(tot)=    20.59 kcal/mol
 sn= 8  qrot/sn=   16901.0369 T*S(rot)=     6.66 kcal/mol T*S(tot)=    20.51 kcal/mol
 sn= 9  qrot/sn=   15023.1440 T*S(rot)=     6.59 kcal/mol T*S(tot)=    20.44 kcal/mol
 sn=10  qrot/sn=   13520.8296 T*S(rot)=     6.52 kcal/mol T*S(tot)=    20.38 kcal/mol
 sn=11  qrot/sn=   12291.6632 T*S(rot)=     6.47 kcal/mol T*S(tot)=    20.33 kcal/mol
 sn=12  qrot/sn=   11267.3580 T*S(rot)=     6.42 kcal/mol T*S(tot)=    20.27 kcal/mol

-------------------
GIBBS FREE ENTHALPY
-------------------

The Gibbs free enthalpy is G = H - T*S

Total enthalpy                    ...   -288.73385753 Eh
Total entropy correction          ...     -0.03361827 Eh    -21.10 kcal/mol
-----------------------------------------------------------------------
Final Gibbs free enthalpy         ...   -288.76747580 Eh

For completeness - the Gibbs free enthalpy minus the electronic energy
G-E(el)                           ...      0.12960285 Eh     81.33 kcal/mol

                             ****ORCA TERMINATED NORMALLY****
TOTAL RUN TIME: 0 days 0 hours 48 minutes 15 seconds 217 msec
