                         Program Version 3.0.3 - RELEASE   -
|  1> ! NORI PBE0 def2-TZVP UseSym TightOPT Freq TightSCF Grid3 FinalGrid5 XYZFile
|  2> % pal
|  3>     nprocs 8
|  4> end
|  5> %method
|  6>     SymThresh 5.0e-2
|  7> end
|  8> % geom
|  9>     MaxIter 10
| 10> end
| 11> % maxcore 2000
| 12> % output
| 13>     printlevel mini
| 14>     print[ P_Basis ] 0
| 15>     print[ P_SCFInfo ] 1
| 16>     print[ P_SCFIterInfo ] 1
| 17>     print[ P_OrbEn ] 0
| 18>     print[ P_Cartesian ] 0
| 19> end
| 20> % elprop
| 21>     Dipole false
| 22> end
| 23> *xyz 1 1
| 24>  C        0.7595783465    -1.1992070317     0.9459032868
| 25>  C        1.1191210716    -0.4106465572    -0.2569087080
| 26>  N        0.9463462390     1.0594491213    -0.2827328709
| 27>  C       -0.2378930602     1.5935191745     0.4822782522
| 28>  C       -1.4640789096     0.8173246705     0.1429145674
| 29>  C       -1.4094211181    -0.4641379606    -0.2048879837
| 30>  C       -0.1409375676    -1.2176893216    -0.2678450798
| 31>  H        0.3807056465    -0.7005380853     1.8289927554
| 32>  H        1.3735144422    -2.0672615443     1.1477665927
| 33>  H        1.9590935291    -0.7093568076    -0.8717374618
| 34>  H        0.8373164516     1.3389106087    -1.2607596099
| 35>  H        1.7959129308     1.5103658220     0.0609846625
| 36>  H       -0.3298794513     2.6475881203     0.2152725195
| 37>  H        0.0234487702     1.5436022935     1.5417249695
| 38>  H       -2.4067895489     1.3469481286     0.2004307600
| 39>  H       -2.3187896443    -0.9974393127    -0.4553899961
| 40>  H       -0.1350481275    -2.1119613183    -0.8778666559
| 41> *
| 42>
| 43>                          ****END OF INPUT****
 Total Charge           Charge          ....    1
 Multiplicity           Mult            ....    1
 Number of Electrons    NEL             ....   52
FINAL SINGLE POINT ENERGY      -288.876833627982
FINAL SINGLE POINT ENERGY      -288.876834693696

CARTESIAN COORDINATES (ANGSTROEM)
---------------------------------
  C      1.622957    0.000468   -0.568996
  C      0.922812    0.715575    0.524407
  N      0.000331   -0.000461    1.435046
  C     -0.795835   -1.120848    0.814861
  C     -1.410993   -0.668562   -0.465026
  C     -0.840740    0.256972   -1.229390
  C      0.444592    0.894773   -0.881568
  H      1.478207   -1.064148   -0.700943
  H      2.617803    0.352944   -0.809084
  H      1.411402    1.533547    1.038907
  H     -0.663416    0.686225    1.801725
  H      0.521418   -0.364492    2.234680
  H     -1.545385   -1.413673    1.551856
  H     -0.111219   -1.962654    0.689880
  H     -2.345745   -1.136256   -0.747648
  H     -1.319949    0.571378   -2.149163
  H      0.654582    1.851082   -1.343406

FINAL SINGLE POINT ENERGY      -288.876834966227
                    ***********************HURRAY********************
 Multiplicity           Mult            ....    1
 Number of Electrons    NEL             ....   52
 Basis Dimension        Dim             ....  277
FINAL SINGLE POINT ENERGY      -288.876835003262

VIBRATIONAL FREQUENCIES
-----------------------

   0:         0.00 cm**-1
   1:         0.00 cm**-1
   2:         0.00 cm**-1
   3:         0.00 cm**-1
   4:         0.00 cm**-1
   5:         0.00 cm**-1
   6:       210.82 cm**-1
   7:       241.09 cm**-1
   8:       357.99 cm**-1
   9:       455.49 cm**-1
  10:       509.40 cm**-1
  11:       583.24 cm**-1
  12:       724.68 cm**-1
  13:       737.01 cm**-1
  14:       760.39 cm**-1
  15:       828.79 cm**-1
  16:       839.95 cm**-1
  17:       894.07 cm**-1
  18:       958.94 cm**-1
  19:       984.17 cm**-1
  20:       989.06 cm**-1
  21:      1014.19 cm**-1
  22:      1046.34 cm**-1
  23:      1075.98 cm**-1
  24:      1097.06 cm**-1
  25:      1105.69 cm**-1
  26:      1129.87 cm**-1
  27:      1152.08 cm**-1
  28:      1206.60 cm**-1
  29:      1243.25 cm**-1
  30:      1261.20 cm**-1
  31:      1300.86 cm**-1
  32:      1368.05 cm**-1
  33:      1393.89 cm**-1
  34:      1417.95 cm**-1
  35:      1443.52 cm**-1
  36:      1445.27 cm**-1
  37:      1495.15 cm**-1
  38:      1505.54 cm**-1
  39:      1640.09 cm**-1
  40:      1730.52 cm**-1
  41:      3087.62 cm**-1
  42:      3135.83 cm**-1
  43:      3169.34 cm**-1
  44:      3203.60 cm**-1
  45:      3207.69 cm**-1
  46:      3213.03 cm**-1
  47:      3227.75 cm**-1
  48:      3258.87 cm**-1
  49:      3431.66 cm**-1
  50:      3486.63 cm**-1

IR SPECTRUM
-----------

 Mode    freq (cm**-1)   T**2         TX         TY         TZ
-------------------------------------------------------------------
   6:       210.82    4.394980  (  0.958186  -1.469936   1.147235)
   7:       241.09    0.539481  ( -0.598177   0.425352   0.027215)
   8:       357.99    4.972515  (  1.597755  -1.163927   1.031973)
   9:       455.49    1.199300  ( -0.866769   0.480566   0.465906)
  10:       509.40    0.683632  (  0.225538  -0.153332  -0.780547)
  11:       583.24    6.846794  ( -1.117402   1.204031   2.036791)
  12:       724.68   37.596913  ( -4.014473   4.555702   0.852349)
  13:       737.01    1.402788  ( -0.999012  -0.536419  -0.342078)
  14:       760.39   19.529716  ( -0.840069   2.595461   3.476720)
  15:       828.79    2.245833  ( -0.134571  -1.387815   0.549266)
  16:       839.95    7.668473  ( -2.219093   1.652362  -0.117480)
  17:       894.07    1.479157  ( -1.047662  -0.256332   0.562009)
  18:       958.94    3.855844  (  1.255687   0.785402   1.289278)
  19:       984.17    5.371965  (  0.944947   1.950003   0.822513)
  20:       989.06    1.454658  ( -0.816085  -0.802790  -0.379726)
  21:      1014.19    0.157618  (  0.332806  -0.205384   0.068377)
  22:      1046.34   15.821578  (  1.502109   3.675339   0.239021)
  23:      1075.98   15.460182  ( -0.017981  -1.207708   3.741831)
  24:      1097.06    2.281254  (  1.250308  -0.843590   0.079627)
  25:      1105.69   13.944813  ( -3.695754  -0.227969   0.483987)
  26:      1129.87    0.640948  ( -0.303041  -0.733232   0.107172)
  27:      1152.08    2.689972  ( -0.104651   1.411949   0.827902)
  28:      1206.60    3.427577  (  1.430918   1.174139   0.038090)
  29:      1243.25    1.487428  (  0.100156   0.991197  -0.703509)
  30:      1261.20    7.532577  (  0.102129   2.514900  -1.094270)
  31:      1300.86   10.602524  (  2.327228   2.275504   0.092815)
  32:      1368.05    0.685130  (  0.802727  -0.195924   0.048714)
  33:      1393.89    4.348192  (  1.088012   1.553669   0.866335)
  34:      1417.95    6.327348  (  2.474261   0.210476   0.401351)
  35:      1443.52   19.746062  (  4.078004   1.605026  -0.734735)
  36:      1445.27   11.823161  ( -0.379968  -2.756209   2.020420)
  37:      1495.15   12.397019  (  0.963011  -2.102098   2.655336)
  38:      1505.54   26.407133  (  0.611018   4.920477   1.350073)
  39:      1640.09   62.084323  ( -1.231571   2.102703   7.493077)
  40:      1730.52    7.269810  ( -2.388843  -1.226550   0.242512)
  41:      3087.62    2.235793  (  0.350535  -0.959245   1.092139)
  42:      3135.83    0.125352  ( -0.202890  -0.240012   0.163039)
  43:      3169.34    1.538159  ( -0.864710  -0.316202   0.830935)
  44:      3203.60    1.027040  (  0.817192   0.596582   0.057681)
  45:      3207.69    0.094179  (  0.041274   0.110875   0.283164)
  46:      3213.03    2.567233  (  0.984088   1.119299  -0.588197)
  47:      3227.75    1.700575  (  1.126558   0.260889   0.602810)
  48:      3258.87    1.322906  ( -0.771033  -0.848969   0.087555)
  49:      3431.66   57.116287  ( -1.472867   2.829058   6.851524)
  50:      3486.63   78.611185  (  6.124453  -5.105199   3.878040)

--------------------------
THERMOCHEMISTRY AT 298.15K
--------------------------

Temperature         ... 298.15 K
Pressure            ... 1.00 atm
Total Mass          ... 96.15 AMU

Throughout the following assumptions are being made:
  (1) The electronic state is orbitally nondegenerate
  (2) There are no thermally accessible electronically excited states
  (3) Hindered rotations indicated by low frequency modes) are not
      treated as such but are treated as vibrations and this may
      case some error
  (4) All equations used are the standard statistical mechanics
      equations for an ideal gas
  (5) All vibrations are strinctly harmonic

------------
INNER ENERGY
------------

The inner energy is: U= E(el) + E(ZPE) + E(vib) + E(rot) + E(trans)
    E(el)   - is the total energy from the electronic structure calculation
              = E(kin-el) + E(nuc-el) + E(el-el) + E(nuc-nuc)
    E(ZPE)  - the the zero temperature vibrational energy from the frequency calculation
    E(vib)  - the the finite temperature correction to E(ZPE) due to population
              of excietd vibrational states
    E(rot)  - is the rotational thermal energy
    E(trans)- is the translational thermal energy

Summary of contributions to the inner energy U:
Electronic energy                ...   -288.87683500 Eh
Zero point energy                ...      0.15621449 Eh      98.03 kcal/mol
Thermal vibrational correction   ...      0.00293772 Eh       1.84 kcal/mol
Thermal rotational correction    ...      0.00141627 Eh       0.89 kcal/mol
Thermal translational correction ...      0.00141627 Eh       0.89 kcal/mol
-----------------------------------------------------------------------
Total thermal energy                   -288.71485024 Eh

Summary of corrections to the electronic energy:
(perhaps to be used in another calculation)
Total thermal correction                  0.00577027 Eh       3.62 kcal/mol
Non-thermal (ZPE) correction              0.15621449 Eh      98.03 kcal/mol
-----------------------------------------------------------------------
Total correction                          0.16198476 Eh     101.65 kcal/mol

--------
ENTHALPY
--------

The enthalpy is H = U + kB*T
                kB is Boltzmann's constant
Total free energy                 ...   -288.71485024 Eh
Thermal Enthalpy correction       ...      0.00094421 Eh       0.59 kcal/mol
-----------------------------------------------------------------------
Total Enthalpy                    ...   -288.71390603 Eh

-------
ENTROPY
-------

The entropy contributions are T*S = T*(S(el)+S(vib)+S(rot)+S(trans)
     S(el)   - electronic entropy
     S(vib)  - vibrational entropy
     S(rot)  - rotational entropy
     S(trans)- translational entropy
The entropies will be listed as mutliplied by the temperature to get
units of energy

Electronic entropy                ...      0.00000000 Eh      0.00 kcal/mol
Vibrational entropy               ...      0.00435835 Eh      2.73 kcal/mol
Rotational entropy                ...      0.01169241 Eh      7.34 kcal/mol
Translational entropy             ...      0.01881568 Eh     11.81 kcal/mol
-----------------------------------------------------------------------
Final entropy term                ...      0.03486644 Eh     21.88 kcal/mol

CAUTION: The rotational entropy is not quite correctly treated here
         because it includes a symmetry number that is not yet correctly
         implemented in ORCA!
For a nonlinear molecule the correct rotational entropy is:
    S(rot) = R*(ln(qrot/sn)+1.5)
    R    = 8.31441 J/mol/K = 1.987191683e-3 kcal/mol/K
    qrot = 159893.8520204
    sn is the rotational symmetry number. We have assumed 3 here
       if it is different for your molecule then you should correct
       the printed rotational entropy by manually evaluating the equation
       as given above

For convenience we print out the resulting values for sn=1 - 12:
 sn= 1  qrot/sn=  159893.8520 T*S(rot)=     7.99 kcal/mol T*S(tot)=    22.53 kcal/mol
 sn= 2  qrot/sn=   79946.9260 T*S(rot)=     7.58 kcal/mol T*S(tot)=    22.12 kcal/mol
 sn= 3  qrot/sn=   53297.9507 T*S(rot)=     7.34 kcal/mol T*S(tot)=    21.88 kcal/mol
 sn= 4  qrot/sn=   39973.4630 T*S(rot)=     7.17 kcal/mol T*S(tot)=    21.71 kcal/mol
 sn= 5  qrot/sn=   31978.7704 T*S(rot)=     7.03 kcal/mol T*S(tot)=    21.58 kcal/mol
 sn= 6  qrot/sn=   26648.9753 T*S(rot)=     6.93 kcal/mol T*S(tot)=    21.47 kcal/mol
 sn= 7  qrot/sn=   22841.9789 T*S(rot)=     6.84 kcal/mol T*S(tot)=    21.38 kcal/mol
 sn= 8  qrot/sn=   19986.7315 T*S(rot)=     6.76 kcal/mol T*S(tot)=    21.30 kcal/mol
 sn= 9  qrot/sn=   17765.9836 T*S(rot)=     6.69 kcal/mol T*S(tot)=    21.23 kcal/mol
 sn=10  qrot/sn=   15989.3852 T*S(rot)=     6.62 kcal/mol T*S(tot)=    21.17 kcal/mol
 sn=11  qrot/sn=   14535.8047 T*S(rot)=     6.57 kcal/mol T*S(tot)=    21.11 kcal/mol
 sn=12  qrot/sn=   13324.4877 T*S(rot)=     6.52 kcal/mol T*S(tot)=    21.06 kcal/mol

-------------------
GIBBS FREE ENTHALPY
-------------------

The Gibbs free enthalpy is G = H - T*S

Total enthalpy                    ...   -288.71390603 Eh
Total entropy correction          ...     -0.03486644 Eh    -21.88 kcal/mol
-----------------------------------------------------------------------
Final Gibbs free enthalpy         ...   -288.74877247 Eh

For completeness - the Gibbs free enthalpy minus the electronic energy
G-E(el)                           ...      0.12806253 Eh     80.36 kcal/mol

                             ****ORCA TERMINATED NORMALLY****
TOTAL RUN TIME: 0 days 0 hours 46 minutes 10 seconds 789 msec
