                         Program Version 3.0.3 - RELEASE   -
|  1> ! NORI PBE0 def2-TZVP UseSym TightOPT Freq TightSCF Grid3 FinalGrid5 XYZFile
|  2> % pal
|  3>     nprocs 8
|  4> end
|  5> %method
|  6>     SymThresh 5.0e-2
|  7> end
|  8> % geom
|  9>     MaxIter 10
| 10> end
| 11> % maxcore 2000
| 12> % output
| 13>     printlevel mini
| 14>     print[ P_Basis ] 0
| 15>     print[ P_SCFInfo ] 1
| 16>     print[ P_SCFIterInfo ] 1
| 17>     print[ P_OrbEn ] 0
| 18>     print[ P_Cartesian ] 0
| 19> end
| 20> % elprop
| 21>     Dipole false
| 22> end
| 23> *xyz 1 1
| 24>  C        1.6099788551    -0.2402140387     0.3375403346
| 25>  N        0.8425896864    -1.5174117567     0.0530431269
| 26>  C       -0.2174324306    -0.6844308355    -0.7034129757
| 27>  C       -1.4092856046    -0.3794192362     0.1300466194
| 28>  C       -1.3769808551     0.8808160343     0.5613072036
| 29>  C       -0.1728278079     1.6413003786     0.1006071885
| 30>  C        0.6782702423     0.5689061738    -0.5781859098
| 31>  H        1.5406310058     0.0044407692     1.3962572765
| 32>  H        2.6530813968    -0.3326344420     0.0436956039
| 33>  H        1.3493801625    -2.1760076191    -0.5367037145
| 34>  H        0.4920304045    -2.0146175726     0.8708859584
| 35>  H       -0.4140915658    -1.1356136951    -1.6758888737
| 36>  H       -2.2118063051    -1.0876144724     0.2967712496
| 37>  H       -2.1580529839     1.3383909772     1.1572273392
| 38>  H       -0.4600281724     2.4351484736    -0.5952666211
| 39>  H        0.3513872321     2.1347196637     0.9252457786
| 40>  H        1.1596567398     0.8993511978    -1.4959595843
| 41> *
| 42>
| 43>                          ****END OF INPUT****
 Total Charge           Charge          ....    1
 Multiplicity           Mult            ....    1
 Number of Electrons    NEL             ....   52
FINAL SINGLE POINT ENERGY      -288.888115569041

CARTESIAN COORDINATES (ANGSTROEM)
---------------------------------
  C      1.314022   -0.000456    0.964070
  N      0.000167    0.000325    1.722134
  C     -0.699362   -0.562946    0.463973
  C     -1.379420    0.489429   -0.334929
  C     -0.666521    0.799043   -1.417126
  C      0.605522    0.019487   -1.540310
  C      0.675543   -0.744850   -0.218747
  H      1.619036    1.022859    0.752734
  H      2.092643   -0.513447    1.523918
  H     -0.011308   -0.632878    2.520366
  H     -0.335318    0.913813    2.025281
  H     -1.306439   -1.426327    0.736410
  H     -2.353572    0.888601   -0.080225
  H     -0.981296    1.516146   -2.166217
  H      0.562915   -0.655455   -2.400283
  H      1.476888    0.662212   -1.701365
  H      1.022250   -1.771278   -0.317294

FINAL SINGLE POINT ENERGY      -288.888116137427
                    ***********************HURRAY********************
 Multiplicity           Mult            ....    1
 Number of Electrons    NEL             ....   52
 Basis Dimension        Dim             ....  277
FINAL SINGLE POINT ENERGY      -288.888116338048

VIBRATIONAL FREQUENCIES
-----------------------

   0:         0.00 cm**-1
   1:         0.00 cm**-1
   2:         0.00 cm**-1
   3:         0.00 cm**-1
   4:         0.00 cm**-1
   5:         0.00 cm**-1
   6:       100.44 cm**-1
   7:       254.92 cm**-1
   8:       356.24 cm**-1
   9:       466.95 cm**-1
  10:       641.95 cm**-1
  11:       726.87 cm**-1
  12:       753.75 cm**-1
  13:       786.86 cm**-1
  14:       809.14 cm**-1
  15:       857.62 cm**-1
  16:       865.37 cm**-1
  17:       910.66 cm**-1
  18:       936.72 cm**-1
  19:       957.71 cm**-1
  20:       976.91 cm**-1
  21:       997.65 cm**-1
  22:      1021.44 cm**-1
  23:      1077.07 cm**-1
  24:      1084.48 cm**-1
  25:      1138.26 cm**-1
  26:      1142.97 cm**-1
  27:      1214.87 cm**-1
  28:      1228.71 cm**-1
  29:      1257.21 cm**-1
  30:      1290.95 cm**-1
  31:      1303.54 cm**-1
  32:      1317.16 cm**-1
  33:      1334.29 cm**-1
  34:      1345.11 cm**-1
  35:      1359.99 cm**-1
  36:      1396.92 cm**-1
  37:      1470.56 cm**-1
  38:      1487.30 cm**-1
  39:      1630.80 cm**-1
  40:      1679.88 cm**-1
  41:      3064.43 cm**-1
  42:      3098.85 cm**-1
  43:      3122.77 cm**-1
  44:      3130.93 cm**-1
  45:      3151.19 cm**-1
  46:      3192.87 cm**-1
  47:      3214.26 cm**-1
  48:      3233.69 cm**-1
  49:      3462.94 cm**-1
  50:      3538.80 cm**-1

IR SPECTRUM
-----------

 Mode    freq (cm**-1)   T**2         TX         TY         TZ
-------------------------------------------------------------------
   6:       100.44    2.249827  ( -0.341504  -1.423710   0.325961)
   7:       254.92    3.130176  ( -0.449345   1.507405  -0.809936)
   8:       356.24    0.830619  (  0.741973   0.409655  -0.335078)
   9:       466.95    1.810064  ( -0.412722   1.220086   0.388734)
  10:       641.95    1.456423  (  0.062455   1.186288  -0.212704)
  11:       726.87   13.934686  ( -2.694643  -1.335963  -2.211061)
  12:       753.75   28.193019  (  1.737671   4.159739   2.805369)
  13:       786.86   13.284461  ( -0.586982  -0.406138  -3.574208)
  14:       809.14    8.634464  (  0.830355  -1.985604   2.000588)
  15:       857.62    1.863068  ( -0.225209  -1.201593  -0.607061)
  16:       865.37   13.376136  (  2.097734   1.164899   2.760192)
  17:       910.66    8.787170  (  1.588201   1.545480   1.968827)
  18:       936.72    8.201995  (  2.815865   0.374708  -0.363994)
  19:       957.71    2.877569  (  0.179220  -1.125836  -1.256162)
  20:       976.91   11.784801  (  0.074584   0.213500   3.425442)
  21:       997.65    3.495782  ( -0.633243  -0.203339  -1.747409)
  22:      1021.44    2.063367  (  0.839579  -1.040923   0.524360)
  23:      1077.07    5.080493  (  0.303719   2.216640   0.273412)
  24:      1084.48    2.529816  (  0.309617   1.559786  -0.031954)
  25:      1138.26    1.291779  ( -0.360918   1.069596  -0.132214)
  26:      1142.97    4.156206  ( -1.140473   1.204551   1.185152)
  27:      1214.87    3.722330  (  1.427136   1.040980   0.775869)
  28:      1228.71   20.609576  (  3.875608   1.299410   1.975036)
  29:      1257.21   24.775992  ( -4.331724  -0.438167  -2.412503)
  30:      1290.95   29.589448  (  4.411025   0.366437   3.161966)
  31:      1303.54    3.526525  ( -1.364052  -1.289901  -0.045208)
  32:      1317.16    3.699415  (  1.521120   0.575552  -1.026814)
  33:      1334.29    8.463529  (  1.172637   2.515355  -0.872605)
  34:      1345.11    2.221234  (  0.582798   1.049181   0.883629)
  35:      1359.99    6.459251  (  1.947096  -0.185286  -1.622879)
  36:      1396.92   22.630701  (  1.834879   2.114828  -3.845962)
  37:      1470.56   13.295141  (  2.035728  -0.275055  -3.012524)
  38:      1487.30   15.565149  (  3.446360   1.915760   0.132714)
  39:      1630.80   76.465569  (  2.133494  -2.054338  -8.227604)
  40:      1679.88    5.136939  ( -0.761663  -1.207095   1.760605)
  41:      3064.43    3.348360  (  1.330563   0.444016  -1.175080)
  42:      3098.85    1.230590  (  0.970532   0.378644   0.381163)
  43:      3122.77    1.292652  ( -0.947394  -0.523463  -0.347971)
  44:      3130.93    2.115315  ( -0.669705  -0.804588   1.009678)
  45:      3151.19    1.477340  ( -0.293690   1.114352  -0.386402)
  46:      3192.87    0.107607  (  0.217615   0.141450   0.200605)
  47:      3214.26    0.834311  (  0.674013   0.060706  -0.613459)
  48:      3233.69    0.350848  ( -0.430808   0.358022  -0.192543)
  49:      3462.94   55.011013  (  2.198554  -1.691682  -6.878633)
  50:      3538.80   73.816444  (  1.402513  -7.961331   2.909744)

--------------------------
THERMOCHEMISTRY AT 298.15K
--------------------------

Temperature         ... 298.15 K
Pressure            ... 1.00 atm
Total Mass          ... 96.15 AMU

Throughout the following assumptions are being made:
  (1) The electronic state is orbitally nondegenerate
  (2) There are no thermally accessible electronically excited states
  (3) Hindered rotations indicated by low frequency modes) are not
      treated as such but are treated as vibrations and this may
      case some error
  (4) All equations used are the standard statistical mechanics
      equations for an ideal gas
  (5) All vibrations are strinctly harmonic

------------
INNER ENERGY
------------

The inner energy is: U= E(el) + E(ZPE) + E(vib) + E(rot) + E(trans)
    E(el)   - is the total energy from the electronic structure calculation
              = E(kin-el) + E(nuc-el) + E(el-el) + E(nuc-nuc)
    E(ZPE)  - the the zero temperature vibrational energy from the frequency calculation
    E(vib)  - the the finite temperature correction to E(ZPE) due to population
              of excietd vibrational states
    E(rot)  - is the rotational thermal energy
    E(trans)- is the translational thermal energy

Summary of contributions to the inner energy U:
Electronic energy                ...   -288.88811634 Eh
Zero point energy                ...      0.15580850 Eh      97.77 kcal/mol
Thermal vibrational correction   ...      0.00291227 Eh       1.83 kcal/mol
Thermal rotational correction    ...      0.00141627 Eh       0.89 kcal/mol
Thermal translational correction ...      0.00141627 Eh       0.89 kcal/mol
-----------------------------------------------------------------------
Total thermal energy                   -288.72656302 Eh

Summary of corrections to the electronic energy:
(perhaps to be used in another calculation)
Total thermal correction                  0.00574481 Eh       3.60 kcal/mol
Non-thermal (ZPE) correction              0.15580850 Eh      97.77 kcal/mol
-----------------------------------------------------------------------
Total correction                          0.16155331 Eh     101.38 kcal/mol

--------
ENTHALPY
--------

The enthalpy is H = U + kB*T
                kB is Boltzmann's constant
Total free energy                 ...   -288.72656302 Eh
Thermal Enthalpy correction       ...      0.00094421 Eh       0.59 kcal/mol
-----------------------------------------------------------------------
Total Enthalpy                    ...   -288.72561881 Eh

-------
ENTROPY
-------

The entropy contributions are T*S = T*(S(el)+S(vib)+S(rot)+S(trans)
     S(el)   - electronic entropy
     S(vib)  - vibrational entropy
     S(rot)  - rotational entropy
     S(trans)- translational entropy
The entropies will be listed as mutliplied by the temperature to get
units of energy

Electronic entropy                ...      0.00000000 Eh      0.00 kcal/mol
Vibrational entropy               ...      0.00469388 Eh      2.95 kcal/mol
Rotational entropy                ...      0.01167311 Eh      7.32 kcal/mol
Translational entropy             ...      0.01881568 Eh     11.81 kcal/mol
-----------------------------------------------------------------------
Final entropy term                ...      0.03518267 Eh     22.08 kcal/mol

CAUTION: The rotational entropy is not quite correctly treated here
         because it includes a symmetry number that is not yet correctly
         implemented in ORCA!
For a nonlinear molecule the correct rotational entropy is:
    S(rot) = R*(ln(qrot/sn)+1.5)
    R    = 8.31441 J/mol/K = 1.987191683e-3 kcal/mol/K
    qrot = 156658.2212152
    sn is the rotational symmetry number. We have assumed 3 here
       if it is different for your molecule then you should correct
       the printed rotational entropy by manually evaluating the equation
       as given above

For convenience we print out the resulting values for sn=1 - 12:
 sn= 1  qrot/sn=  156658.2212 T*S(rot)=     7.98 kcal/mol T*S(tot)=    22.73 kcal/mol
 sn= 2  qrot/sn=   78329.1106 T*S(rot)=     7.57 kcal/mol T*S(tot)=    22.32 kcal/mol
 sn= 3  qrot/sn=   52219.4071 T*S(rot)=     7.32 kcal/mol T*S(tot)=    22.08 kcal/mol
 sn= 4  qrot/sn=   39164.5553 T*S(rot)=     7.15 kcal/mol T*S(tot)=    21.91 kcal/mol
 sn= 5  qrot/sn=   31331.6442 T*S(rot)=     7.02 kcal/mol T*S(tot)=    21.77 kcal/mol
 sn= 6  qrot/sn=   26109.7035 T*S(rot)=     6.91 kcal/mol T*S(tot)=    21.67 kcal/mol
 sn= 7  qrot/sn=   22379.7459 T*S(rot)=     6.82 kcal/mol T*S(tot)=    21.58 kcal/mol
 sn= 8  qrot/sn=   19582.2777 T*S(rot)=     6.74 kcal/mol T*S(tot)=    21.50 kcal/mol
 sn= 9  qrot/sn=   17406.4690 T*S(rot)=     6.67 kcal/mol T*S(tot)=    21.43 kcal/mol
 sn=10  qrot/sn=   15665.8221 T*S(rot)=     6.61 kcal/mol T*S(tot)=    21.36 kcal/mol
 sn=11  qrot/sn=   14241.6565 T*S(rot)=     6.56 kcal/mol T*S(tot)=    21.31 kcal/mol
 sn=12  qrot/sn=   13054.8518 T*S(rot)=     6.50 kcal/mol T*S(tot)=    21.26 kcal/mol

-------------------
GIBBS FREE ENTHALPY
-------------------

The Gibbs free enthalpy is G = H - T*S

Total enthalpy                    ...   -288.72561881 Eh
Total entropy correction          ...     -0.03518267 Eh    -22.08 kcal/mol
-----------------------------------------------------------------------
Final Gibbs free enthalpy         ...   -288.76080149 Eh

For completeness - the Gibbs free enthalpy minus the electronic energy
G-E(el)                           ...      0.12731485 Eh     79.89 kcal/mol

                             ****ORCA TERMINATED NORMALLY****
TOTAL RUN TIME: 0 days 0 hours 48 minutes 5 seconds 924 msec
