                         Program Version 3.0.3 - RELEASE   -
|  1> ! NORI PBE0 def2-TZVP UseSym TightOPT Freq TightSCF Grid3 FinalGrid5 XYZFile
|  2> % pal
|  3>     nprocs 8
|  4> end
|  5> %method
|  6>     SymThresh 5.0e-2
|  7> end
|  8> % geom
|  9>     MaxIter 10
| 10> end
| 11> % maxcore 2000
| 12> % output
| 13>     printlevel mini
| 14>     print[ P_Basis ] 0
| 15>     print[ P_SCFInfo ] 1
| 16>     print[ P_SCFIterInfo ] 1
| 17>     print[ P_OrbEn ] 0
| 18>     print[ P_Cartesian ] 0
| 19> end
| 20> % elprop
| 21>     Dipole false
| 22> end
| 23> *xyz 1 1
| 24>  C        0.7553748833    -1.5280376862     0.3767993338
| 25>  N        1.3579990300    -0.1950528381     0.7743096952
| 26>  C        0.6342159192     0.4752689203    -0.3998781552
| 27>  C       -0.2392444861     1.6405835035     0.0170850656
| 28>  C       -1.4921574440     0.9487149087     0.4814241624
| 29>  C       -1.5050969831    -0.3476857999     0.1843294689
| 30>  C       -0.2516982139    -0.7872409084    -0.5145651392
| 31>  H        1.5012149043    -2.1012382964    -0.1717119839
| 32>  H        0.3878185009    -2.0936722038     1.2309219906
| 33>  H        0.9996847404     0.1378370541     1.6692459657
| 34>  H        2.3748715503    -0.1360248274     0.7859430692
| 35>  H        1.3570847551     0.6627405850    -1.1909682787
| 36>  H       -0.4327182576     2.2992475476    -0.8360726250
| 37>  H        0.2331548590     2.2699337993     0.7798810891
| 38>  H       -2.2992794734     1.4800028459     0.9699306733
| 39>  H       -2.3230532771    -1.0277694697     0.3878568742
| 40>  H       -0.4153610072    -1.2232771345    -1.4996212058
| 41> *
| 42>
| 43>                          ****END OF INPUT****
 Total Charge           Charge          ....    1
 Multiplicity           Mult            ....    1
 Number of Electrons    NEL             ....   52
FINAL SINGLE POINT ENERGY      -288.886483453346

CARTESIAN COORDINATES (ANGSTROEM)
---------------------------------
  C      1.425426    0.000484    1.038321
  N      0.000143   -0.000488    1.554280
  C     -0.435027    0.821642    0.334981
  C     -1.557897    0.180649   -0.454269
  C     -0.819370   -0.816323   -1.305591
  C      0.500563   -0.661073   -1.252910
  C      0.909491    0.453784   -0.335052
  H      1.992703    0.758989    1.575233
  H      1.904574   -0.972501    1.127395
  H     -0.413959   -0.932533    1.539716
  H     -0.156539    0.413383    2.471574
  H     -0.581802    1.853160    0.647355
  H     -2.074142    0.929695   -1.063543
  H     -2.326212   -0.262716    0.189144
  H     -1.332794   -1.547912   -1.916856
  H      1.221426   -1.240135   -1.816848
  H      1.487240    1.242865   -0.815704

FINAL SINGLE POINT ENERGY      -288.886484327847
                    ***********************HURRAY********************
 Multiplicity           Mult            ....    1
 Number of Electrons    NEL             ....   52
 Basis Dimension        Dim             ....  277
FINAL SINGLE POINT ENERGY      -288.886485197861

VIBRATIONAL FREQUENCIES
-----------------------

   0:         0.00 cm**-1
   1:         0.00 cm**-1
   2:         0.00 cm**-1
   3:         0.00 cm**-1
   4:         0.00 cm**-1
   5:         0.00 cm**-1
   6:       138.91 cm**-1
   7:       258.05 cm**-1
   8:       363.54 cm**-1
   9:       457.33 cm**-1
  10:       647.98 cm**-1
  11:       716.10 cm**-1
  12:       756.79 cm**-1
  13:       784.78 cm**-1
  14:       799.42 cm**-1
  15:       856.49 cm**-1
  16:       885.46 cm**-1
  17:       929.59 cm**-1
  18:       935.27 cm**-1
  19:       964.66 cm**-1
  20:       984.87 cm**-1
  21:      1009.75 cm**-1
  22:      1016.97 cm**-1
  23:      1061.06 cm**-1
  24:      1076.04 cm**-1
  25:      1129.07 cm**-1
  26:      1140.20 cm**-1
  27:      1207.41 cm**-1
  28:      1221.41 cm**-1
  29:      1253.46 cm**-1
  30:      1279.84 cm**-1
  31:      1304.62 cm**-1
  32:      1312.85 cm**-1
  33:      1334.19 cm**-1
  34:      1345.94 cm**-1
  35:      1363.58 cm**-1
  36:      1390.48 cm**-1
  37:      1467.57 cm**-1
  38:      1490.95 cm**-1
  39:      1623.77 cm**-1
  40:      1688.33 cm**-1
  41:      3055.75 cm**-1
  42:      3090.89 cm**-1
  43:      3118.52 cm**-1
  44:      3132.02 cm**-1
  45:      3164.72 cm**-1
  46:      3190.92 cm**-1
  47:      3218.63 cm**-1
  48:      3238.67 cm**-1
  49:      3464.36 cm**-1
  50:      3540.28 cm**-1

IR SPECTRUM
-----------

 Mode    freq (cm**-1)   T**2         TX         TY         TZ
-------------------------------------------------------------------
   6:       138.91    6.114585  ( -0.002467  -1.335936  -2.080830)
   7:       258.05    1.066172  ( -0.166096  -0.610446  -0.816052)
   8:       363.54    2.672709  (  0.980122   0.486740   1.214559)
   9:       457.33    1.575837  ( -0.121452   1.238166   0.167426)
  10:       647.98    1.085320  ( -0.103576   0.515589   0.899311)
  11:       716.10   22.384792  (  0.065102  -1.227859   4.568689)
  12:       756.79   18.481629  (  0.214325  -3.339257   2.699084)
  13:       784.78    6.188323  (  0.189031   1.378365  -2.062208)
  14:       799.42   15.381915  ( -0.197001   3.292748  -2.121536)
  15:       856.49   13.535844  (  0.664108  -0.993716   3.479559)
  16:       885.46    8.899472  ( -2.963604  -0.315398  -0.130573)
  17:       929.59    0.663013  (  0.593756   0.535113   0.155308)
  18:       935.27    2.850869  (  1.301041  -0.767318  -0.754576)
  19:       964.66    4.400467  (  1.996376   0.567623   0.304554)
  20:       984.87    1.381121  (  1.089137  -0.330355   0.292860)
  21:      1009.75    2.737654  (  1.515231  -0.352829   0.563240)
  22:      1016.97    0.666760  ( -0.669717   0.116714  -0.452346)
  23:      1061.06    1.637439  ( -0.166501  -0.465395   1.180307)
  24:      1076.04    4.357964  (  0.570112  -1.414043   1.425980)
  25:      1129.07    1.870836  ( -1.084754   0.830682   0.064127)
  26:      1140.20    0.630500  ( -0.001868   0.357741  -0.708885)
  27:      1207.41    8.071052  (  0.910197  -1.561636   2.191777)
  28:      1221.41    4.971897  (  1.835800   0.154129   1.256176)
  29:      1253.46   10.854893  ( -2.565564   1.943238  -0.704699)
  30:      1279.84   33.592717  ( -5.140314   1.192657  -2.397386)
  31:      1304.62   38.470077  (  4.917219  -3.280138   1.879289)
  32:      1312.85    2.981430  (  0.195298  -1.645049   0.486932)
  33:      1334.19    1.296626  (  1.049443  -0.391754  -0.204511)
  34:      1345.94    1.320161  (  0.182319  -1.021925  -0.492534)
  35:      1363.58    9.357314  (  1.551037   2.058771   1.647137)
  36:      1390.48    4.864589  ( -1.797707  -0.561781   1.147711)
  37:      1467.57   11.417399  ( -3.364222   0.051324   0.311082)
  38:      1490.95   10.336019  ( -2.583118   0.276252  -1.893992)
  39:      1623.77   72.497462  (  3.195310   4.114204  -6.735042)
  40:      1688.33    0.932987  ( -0.744766  -0.310743   0.530800)
  41:      3055.75    5.392441  ( -1.717424   0.193694   1.550928)
  42:      3090.89    0.716812  (  0.447169   0.285417  -0.659840)
  43:      3118.52    2.128061  ( -1.083156   0.130903  -0.968348)
  44:      3132.02    1.057470  (  0.883478   0.500354   0.163038)
  45:      3164.72    1.119317  ( -0.185549  -0.612876  -0.842182)
  46:      3190.92    0.044979  ( -0.199721   0.050068   0.050834)
  47:      3218.63    0.944142  ( -0.971402   0.011740  -0.019560)
  48:      3238.67    0.329979  (  0.073533   0.466743   0.326685)
  49:      3464.36   51.076887  ( -2.996552  -3.262657   5.608264)
  50:      3540.28   83.534269  (  0.794502   6.677573   6.189754)

--------------------------
THERMOCHEMISTRY AT 298.15K
--------------------------

Temperature         ... 298.15 K
Pressure            ... 1.00 atm
Total Mass          ... 96.15 AMU

Throughout the following assumptions are being made:
  (1) The electronic state is orbitally nondegenerate
  (2) There are no thermally accessible electronically excited states
  (3) Hindered rotations indicated by low frequency modes) are not
      treated as such but are treated as vibrations and this may
      case some error
  (4) All equations used are the standard statistical mechanics
      equations for an ideal gas
  (5) All vibrations are strinctly harmonic

------------
INNER ENERGY
------------

The inner energy is: U= E(el) + E(ZPE) + E(vib) + E(rot) + E(trans)
    E(el)   - is the total energy from the electronic structure calculation
              = E(kin-el) + E(nuc-el) + E(el-el) + E(nuc-nuc)
    E(ZPE)  - the the zero temperature vibrational energy from the frequency calculation
    E(vib)  - the the finite temperature correction to E(ZPE) due to population
              of excietd vibrational states
    E(rot)  - is the rotational thermal energy
    E(trans)- is the translational thermal energy

Summary of contributions to the inner energy U:
Electronic energy                ...   -288.88648520 Eh
Zero point energy                ...      0.15585285 Eh      97.80 kcal/mol
Thermal vibrational correction   ...      0.00283508 Eh       1.78 kcal/mol
Thermal rotational correction    ...      0.00141627 Eh       0.89 kcal/mol
Thermal translational correction ...      0.00141627 Eh       0.89 kcal/mol
-----------------------------------------------------------------------
Total thermal energy                   -288.72496473 Eh

Summary of corrections to the electronic energy:
(perhaps to be used in another calculation)
Total thermal correction                  0.00566762 Eh       3.56 kcal/mol
Non-thermal (ZPE) correction              0.15585285 Eh      97.80 kcal/mol
-----------------------------------------------------------------------
Total correction                          0.16152047 Eh     101.36 kcal/mol

--------
ENTHALPY
--------

The enthalpy is H = U + kB*T
                kB is Boltzmann's constant
Total free energy                 ...   -288.72496473 Eh
Thermal Enthalpy correction       ...      0.00094421 Eh       0.59 kcal/mol
-----------------------------------------------------------------------
Total Enthalpy                    ...   -288.72402052 Eh

-------
ENTROPY
-------

The entropy contributions are T*S = T*(S(el)+S(vib)+S(rot)+S(trans)
     S(el)   - electronic entropy
     S(vib)  - vibrational entropy
     S(rot)  - rotational entropy
     S(trans)- translational entropy
The entropies will be listed as mutliplied by the temperature to get
units of energy

Electronic entropy                ...      0.00000000 Eh      0.00 kcal/mol
Vibrational entropy               ...      0.00438128 Eh      2.75 kcal/mol
Rotational entropy                ...      0.01165601 Eh      7.31 kcal/mol
Translational entropy             ...      0.01881568 Eh     11.81 kcal/mol
-----------------------------------------------------------------------
Final entropy term                ...      0.03485298 Eh     21.87 kcal/mol

CAUTION: The rotational entropy is not quite correctly treated here
         because it includes a symmetry number that is not yet correctly
         implemented in ORCA!
For a nonlinear molecule the correct rotational entropy is:
    S(rot) = R*(ln(qrot/sn)+1.5)
    R    = 8.31441 J/mol/K = 1.987191683e-3 kcal/mol/K
    qrot = 153846.9587085
    sn is the rotational symmetry number. We have assumed 3 here
       if it is different for your molecule then you should correct
       the printed rotational entropy by manually evaluating the equation
       as given above

For convenience we print out the resulting values for sn=1 - 12:
 sn= 1  qrot/sn=  153846.9587 T*S(rot)=     7.97 kcal/mol T*S(tot)=    22.52 kcal/mol
 sn= 2  qrot/sn=   76923.4794 T*S(rot)=     7.55 kcal/mol T*S(tot)=    22.11 kcal/mol
 sn= 3  qrot/sn=   51282.3196 T*S(rot)=     7.31 kcal/mol T*S(tot)=    21.87 kcal/mol
 sn= 4  qrot/sn=   38461.7397 T*S(rot)=     7.14 kcal/mol T*S(tot)=    21.70 kcal/mol
 sn= 5  qrot/sn=   30769.3917 T*S(rot)=     7.01 kcal/mol T*S(tot)=    21.57 kcal/mol
 sn= 6  qrot/sn=   25641.1598 T*S(rot)=     6.90 kcal/mol T*S(tot)=    21.46 kcal/mol
 sn= 7  qrot/sn=   21978.1370 T*S(rot)=     6.81 kcal/mol T*S(tot)=    21.37 kcal/mol
 sn= 8  qrot/sn=   19230.8698 T*S(rot)=     6.73 kcal/mol T*S(tot)=    21.29 kcal/mol
 sn= 9  qrot/sn=   17094.1065 T*S(rot)=     6.66 kcal/mol T*S(tot)=    21.22 kcal/mol
 sn=10  qrot/sn=   15384.6959 T*S(rot)=     6.60 kcal/mol T*S(tot)=    21.16 kcal/mol
 sn=11  qrot/sn=   13986.0872 T*S(rot)=     6.54 kcal/mol T*S(tot)=    21.10 kcal/mol
 sn=12  qrot/sn=   12820.5799 T*S(rot)=     6.49 kcal/mol T*S(tot)=    21.05 kcal/mol

-------------------
GIBBS FREE ENTHALPY
-------------------

The Gibbs free enthalpy is G = H - T*S

Total enthalpy                    ...   -288.72402052 Eh
Total entropy correction          ...     -0.03485298 Eh    -21.87 kcal/mol
-----------------------------------------------------------------------
Final Gibbs free enthalpy         ...   -288.75887349 Eh

For completeness - the Gibbs free enthalpy minus the electronic energy
G-E(el)                           ...      0.12761170 Eh     80.08 kcal/mol

                             ****ORCA TERMINATED NORMALLY****
TOTAL RUN TIME: 0 days 0 hours 49 minutes 41 seconds 70 msec
