                         Program Version 3.0.3 - RELEASE   -
|  1> ! NORI PBE0 def2-TZVP UseSym TightOPT Freq TightSCF Grid3 FinalGrid5 XYZFile
|  2> % pal
|  3>     nprocs 8
|  4> end
|  5> %method
|  6>     SymThresh 5.0e-2
|  7> end
|  8> % geom
|  9>     MaxIter 10
| 10> end
| 11> % maxcore 2000
| 12> % output
| 13>     printlevel mini
| 14>     print[ P_Basis ] 0
| 15>     print[ P_SCFInfo ] 1
| 16>     print[ P_SCFIterInfo ] 1
| 17>     print[ P_OrbEn ] 0
| 18>     print[ P_Cartesian ] 0
| 19> end
| 20> % elprop
| 21>     Dipole false
| 22> end
| 23> *xyz 1 1
| 24>  C       -0.7911344755    -0.0022689854    -1.1653390609
| 25>  C       -0.6296418244     1.0557218532    -0.0488433128
| 26>  C       -1.2116639719     0.0043011713     0.9147169864
| 27>  C       -0.6314179099    -1.0538424013    -0.0425516030
| 28>  C        0.8360082241    -1.2738658320     0.2757350146
| 29>  N        1.6009494763    -0.0008177743    -0.0099608414
| 30>  C        0.8381395981     1.2751544696     0.2681959277
| 31>  H       -1.8093826106    -0.0025213197    -1.5500407955
| 32>  H       -0.1104671300    -0.0054575827    -2.0233622682
| 33>  H       -1.1312719310     2.0176217888    -0.1509762301
| 34>  H       -0.8725124363     0.0071178467     1.9537458793
| 35>  H       -2.3009286403     0.0051347869     0.8923207377
| 36>  H       -1.1346849509    -2.0154869789    -0.1389196462
| 37>  H        1.2925528999    -2.0508605550    -0.3392402408
| 38>  H        0.9894946402    -1.5234739985     1.3263857634
| 39>  H        1.8381390992    -0.0039521526    -1.0010704456
| 40>  H        2.4879976192    -0.0000719444     0.4928004816
| 41>  H        0.9919808975     1.5306809600     1.3173786290
| 42>  H        1.2960534261     2.0477766482    -0.3512549752
| 43> *
| 44>
| 45>                          ****END OF INPUT****
 Total Charge           Charge          ....    1
 Multiplicity           Mult            ....    1
 Number of Electrons    NEL             ....   54
FINAL SINGLE POINT ENERGY      -290.104775658001
FINAL SINGLE POINT ENERGY      -290.104776858006

CARTESIAN COORDINATES (ANGSTROEM)
---------------------------------
  C     -0.810425    1.212771   -0.000000
  C     -0.678444    0.089420    1.054857
  C     -1.283345   -0.855926    0.000000
  C     -0.678444    0.089420   -1.054857
  C      0.781181   -0.264170   -1.273837
  N      1.550851    0.001994   -0.000000
  C      0.781181   -0.264170    1.273837
  H     -1.818542    1.623483    0.000000
  H     -0.107388    2.052259   -0.000000
  H     -1.178390    0.201336    2.016281
  H     -0.970230   -1.902895    0.000000
  H     -2.371533   -0.806825    0.000000
  H     -1.178390    0.201336   -2.016281
  H      1.253434    0.340585   -2.049896
  H      0.910232   -1.318116   -1.524522
  H      1.808575    0.987933    0.000000
  H      2.427321   -0.519411    0.000000
  H      0.910232   -1.318116    1.524522
  H      1.253434    0.340585    2.049896

FINAL SINGLE POINT ENERGY      -290.104777523344
                    ***********************HURRAY********************
 Multiplicity           Mult            ....    1
 Number of Electrons    NEL             ....   54
 Basis Dimension        Dim             ....  289
FINAL SINGLE POINT ENERGY      -290.104777782383

VIBRATIONAL FREQUENCIES
-----------------------

   0:         0.00 cm**-1
   1:         0.00 cm**-1
   2:         0.00 cm**-1
   3:         0.00 cm**-1
   4:         0.00 cm**-1
   5:         0.00 cm**-1
   6:       194.20 cm**-1
   7:       290.85 cm**-1
   8:       409.66 cm**-1
   9:       412.05 cm**-1
  10:       494.76 cm**-1
  11:       563.56 cm**-1
  12:       769.62 cm**-1
  13:       810.21 cm**-1
  14:       832.76 cm**-1
  15:       839.46 cm**-1
  16:       874.83 cm**-1
  17:       905.61 cm**-1
  18:       941.56 cm**-1
  19:       946.82 cm**-1
  20:       953.05 cm**-1
  21:       980.92 cm**-1
  22:      1008.98 cm**-1
  23:      1083.86 cm**-1
  24:      1108.36 cm**-1
  25:      1112.78 cm**-1
  26:      1125.50 cm**-1
  27:      1131.26 cm**-1
  28:      1167.21 cm**-1
  29:      1242.78 cm**-1
  30:      1258.78 cm**-1
  31:      1265.41 cm**-1
  32:      1267.24 cm**-1
  33:      1301.09 cm**-1
  34:      1345.99 cm**-1
  35:      1360.96 cm**-1
  36:      1368.66 cm**-1
  37:      1409.13 cm**-1
  38:      1414.29 cm**-1
  39:      1427.35 cm**-1
  40:      1480.14 cm**-1
  41:      1496.05 cm**-1
  42:      1504.22 cm**-1
  43:      1514.73 cm**-1
  44:      1645.10 cm**-1
  45:      3058.25 cm**-1
  46:      3078.58 cm**-1
  47:      3090.72 cm**-1
  48:      3091.00 cm**-1
  49:      3133.41 cm**-1
  50:      3134.30 cm**-1
  51:      3148.11 cm**-1
  52:      3148.37 cm**-1
  53:      3153.18 cm**-1
  54:      3156.90 cm**-1
  55:      3470.43 cm**-1
  56:      3521.21 cm**-1

IR SPECTRUM
-----------

 Mode    freq (cm**-1)   T**2         TX         TY         TZ
-------------------------------------------------------------------
   6:       194.20    5.282266  (  1.020299  -2.059431  -0.000003)
   7:       290.85    0.000388  ( -0.000008   0.000013  -0.019688)
   8:       409.66    3.061961  (  1.694314   0.437335   0.000000)
   9:       412.05    5.824928  ( -2.112060   1.167961   0.000002)
  10:       494.76    1.386949  (  0.000004  -0.000004   1.177688)
  11:       563.56    5.642705  ( -2.207431   0.877469   0.000001)
  12:       769.62    3.407442  (  0.038681   1.845521  -0.000003)
  13:       810.21    1.350787  (  1.040008  -0.518816   0.000005)
  14:       832.76    1.108135  (  0.000002  -0.000009  -1.052680)
  15:       839.46    0.734863  (  0.335301   0.788946  -0.000012)
  16:       874.83    1.137644  ( -0.000002  -0.000000   1.066604)
  17:       905.61    1.732094  (  1.315600   0.035914  -0.000003)
  18:       941.56    0.321996  (  0.567425  -0.004931   0.000015)
  19:       946.82    5.136821  (  0.000010  -0.000008   2.266456)
  20:       953.05    7.386726  ( -2.130551   1.687447   0.000013)
  21:       980.92    0.317278  ( -0.000000  -0.000001   0.563274)
  22:      1008.98   13.763824  ( -0.000001   0.000000  -3.709963)
  23:      1083.86    0.000819  (  0.000009  -0.000003  -0.028613)
  24:      1108.36    4.242567  ( -2.033218   0.329534   0.000005)
  25:      1112.78    1.532307  (  1.033677   0.681042   0.000002)
  26:      1125.50    2.218902  ( -0.621982   1.353529  -0.000002)
  27:      1131.26    0.009003  ( -0.000000  -0.000006  -0.094886)
  28:      1167.21    1.312740  (  0.000004  -0.000004   1.145749)
  29:      1242.78    1.836094  (  0.000000   0.000005  -1.355026)
  30:      1258.78    9.875350  (  0.000000  -0.000013  -3.142507)
  31:      1265.41   10.553971  ( -0.260101   3.238258  -0.000055)
  32:      1267.24    9.180836  ( -0.000005   0.000047   3.029989)
  33:      1301.09    0.054704  ( -0.000003   0.000003  -0.233890)
  34:      1345.99    1.257555  ( -0.032477  -1.120937  -0.000001)
  35:      1360.96    0.050001  ( -0.000067   0.000038   0.223608)
  36:      1368.66    2.671150  (  1.466378  -0.721725  -0.000000)
  37:      1409.13    0.279540  (  0.225135  -0.478387  -0.000006)
  38:      1414.29    2.304442  ( -0.000000  -0.000000   1.518039)
  39:      1427.35   34.952447  ( -0.000003   0.000002  -5.912059)
  40:      1480.14    9.346996  ( -1.120215  -2.844664  -0.000001)
  41:      1496.05   11.838546  ( -0.000002  -0.000002   3.440719)
  42:      1504.22   18.033065  (  3.348872  -2.611153  -0.000002)
  43:      1514.73    1.561709  ( -1.081071  -0.626893   0.000000)
  44:      1645.10   79.417145  (  8.116684   3.679210   0.000001)
  45:      3058.25   30.910669  (  2.745475   4.834567   0.000000)
  46:      3078.58   12.964982  (  0.242737   3.592501  -0.000000)
  47:      3090.72    3.319464  ( -0.000016   0.000008   1.821940)
  48:      3091.00    5.416789  (  2.106779  -0.989076   0.000014)
  49:      3133.41    0.296651  (  0.447680  -0.310214  -0.000129)
  50:      3134.30   10.885892  ( -0.000018   0.000012  -3.299378)
  51:      3148.11    1.229885  ( -0.609099  -0.926759  -0.000005)
  52:      3148.37    0.342422  ( -0.000005  -0.000007   0.585169)
  53:      3153.18    4.127003  (  0.589116  -1.944208  -0.000000)
  54:      3156.90    3.267234  ( -1.804792   0.099790   0.000001)
  55:      3470.43   58.283283  ( -7.491228  -1.471320  -0.000000)
  56:      3521.21   69.920873  ( -3.179580   7.733766   0.000000)

--------------------------
THERMOCHEMISTRY AT 298.15K
--------------------------

Temperature         ... 298.15 K
Pressure            ... 1.00 atm
Total Mass          ... 98.17 AMU

Throughout the following assumptions are being made:
  (1) The electronic state is orbitally nondegenerate
  (2) There are no thermally accessible electronically excited states
  (3) Hindered rotations indicated by low frequency modes) are not
      treated as such but are treated as vibrations and this may
      case some error
  (4) All equations used are the standard statistical mechanics
      equations for an ideal gas
  (5) All vibrations are strinctly harmonic

------------
INNER ENERGY
------------

The inner energy is: U= E(el) + E(ZPE) + E(vib) + E(rot) + E(trans)
    E(el)   - is the total energy from the electronic structure calculation
              = E(kin-el) + E(nuc-el) + E(el-el) + E(nuc-nuc)
    E(ZPE)  - the the zero temperature vibrational energy from the frequency calculation
    E(vib)  - the the finite temperature correction to E(ZPE) due to population
              of excietd vibrational states
    E(rot)  - is the rotational thermal energy
    E(trans)- is the translational thermal energy

Summary of contributions to the inner energy U:
Electronic energy                ...   -290.10477778 Eh
Zero point energy                ...      0.18098732 Eh     113.57 kcal/mol
Thermal vibrational correction   ...      0.00290414 Eh       1.82 kcal/mol
Thermal rotational correction    ...      0.00141627 Eh       0.89 kcal/mol
Thermal translational correction ...      0.00141627 Eh       0.89 kcal/mol
-----------------------------------------------------------------------
Total thermal energy                   -289.91805378 Eh

Summary of corrections to the electronic energy:
(perhaps to be used in another calculation)
Total thermal correction                  0.00573668 Eh       3.60 kcal/mol
Non-thermal (ZPE) correction              0.18098732 Eh     113.57 kcal/mol
-----------------------------------------------------------------------
Total correction                          0.18672400 Eh     117.17 kcal/mol

--------
ENTHALPY
--------

The enthalpy is H = U + kB*T
                kB is Boltzmann's constant
Total free energy                 ...   -289.91805378 Eh
Thermal Enthalpy correction       ...      0.00094421 Eh       0.59 kcal/mol
-----------------------------------------------------------------------
Total Enthalpy                    ...   -289.91710958 Eh

-------
ENTROPY
-------

The entropy contributions are T*S = T*(S(el)+S(vib)+S(rot)+S(trans)
     S(el)   - electronic entropy
     S(vib)  - vibrational entropy
     S(rot)  - rotational entropy
     S(trans)- translational entropy
The entropies will be listed as mutliplied by the temperature to get
units of energy

Electronic entropy                ...      0.00000000 Eh      0.00 kcal/mol
Vibrational entropy               ...      0.00426829 Eh      2.68 kcal/mol
Rotational entropy                ...      0.01167126 Eh      7.32 kcal/mol
Translational entropy             ...      0.01884507 Eh     11.83 kcal/mol
-----------------------------------------------------------------------
Final entropy term                ...      0.03478462 Eh     21.83 kcal/mol

CAUTION: The rotational entropy is not quite correctly treated here
         because it includes a symmetry number that is not yet correctly
         implemented in ORCA!
For a nonlinear molecule the correct rotational entropy is:
    S(rot) = R*(ln(qrot/sn)+1.5)
    R    = 8.31441 J/mol/K = 1.987191683e-3 kcal/mol/K
    qrot = 156352.8568494
    sn is the rotational symmetry number. We have assumed 3 here
       if it is different for your molecule then you should correct
       the printed rotational entropy by manually evaluating the equation
       as given above

For convenience we print out the resulting values for sn=1 - 12:
 sn= 1  qrot/sn=  156352.8568 T*S(rot)=     7.97 kcal/mol T*S(tot)=    22.48 kcal/mol
 sn= 2  qrot/sn=   78176.4284 T*S(rot)=     7.56 kcal/mol T*S(tot)=    22.07 kcal/mol
 sn= 3  qrot/sn=   52117.6189 T*S(rot)=     7.32 kcal/mol T*S(tot)=    21.83 kcal/mol
 sn= 4  qrot/sn=   39088.2142 T*S(rot)=     7.15 kcal/mol T*S(tot)=    21.66 kcal/mol
 sn= 5  qrot/sn=   31270.5714 T*S(rot)=     7.02 kcal/mol T*S(tot)=    21.52 kcal/mol
 sn= 6  qrot/sn=   26058.8095 T*S(rot)=     6.91 kcal/mol T*S(tot)=    21.42 kcal/mol
 sn= 7  qrot/sn=   22336.1224 T*S(rot)=     6.82 kcal/mol T*S(tot)=    21.33 kcal/mol
 sn= 8  qrot/sn=   19544.1071 T*S(rot)=     6.74 kcal/mol T*S(tot)=    21.25 kcal/mol
 sn= 9  qrot/sn=   17372.5396 T*S(rot)=     6.67 kcal/mol T*S(tot)=    21.18 kcal/mol
 sn=10  qrot/sn=   15635.2857 T*S(rot)=     6.61 kcal/mol T*S(tot)=    21.11 kcal/mol
 sn=11  qrot/sn=   14213.8961 T*S(rot)=     6.55 kcal/mol T*S(tot)=    21.06 kcal/mol
 sn=12  qrot/sn=   13029.4047 T*S(rot)=     6.50 kcal/mol T*S(tot)=    21.01 kcal/mol

-------------------
GIBBS FREE ENTHALPY
-------------------

The Gibbs free enthalpy is G = H - T*S

Total enthalpy                    ...   -289.91710958 Eh
Total entropy correction          ...     -0.03478462 Eh    -21.83 kcal/mol
-----------------------------------------------------------------------
Final Gibbs free enthalpy         ...   -289.95189420 Eh

For completeness - the Gibbs free enthalpy minus the electronic energy
G-E(el)                           ...      0.15288358 Eh     95.94 kcal/mol

                             ****ORCA TERMINATED NORMALLY****
TOTAL RUN TIME: 0 days 1 hours 14 minutes 54 seconds 704 msec
