                         Program Version 3.0.3 - RELEASE   -
|  1> ! NORI PBE0 def2-TZVP UseSym TightOPT Freq TightSCF Grid3 FinalGrid5 XYZFile
|  2> % pal
|  3>     nprocs 8
|  4> end
|  5> %method
|  6>     SymThresh 5.0e-2
|  7> end
|  8> % geom
|  9>     MaxIter 10
| 10> end
| 11> % maxcore 2000
| 12> % output
| 13>     printlevel mini
| 14>     print[ P_Basis ] 0
| 15>     print[ P_SCFInfo ] 1
| 16>     print[ P_SCFIterInfo ] 1
| 17>     print[ P_OrbEn ] 0
| 18>     print[ P_Cartesian ] 0
| 19> end
| 20> % elprop
| 21>     Dipole false
| 22> end
| 23> *xyz 1 1
| 24>  C       -0.4213102655     1.5781734238    -0.4104313044
| 25>  N       -1.3413109321     0.6108430832     0.2555994699
| 26>  C       -1.2892729143    -0.7959340849    -0.3090509650
| 27>  C       -0.2572607657    -1.5912163200     0.4085784699
| 28>  C        1.0092549603    -1.1834302248     0.5231927899
| 29>  C        1.5892664828     0.0169940401    -0.0610671643
| 30>  C        0.9966783314     1.1370262979    -0.4876663890
| 31>  H       -0.8231271184     1.7737250547    -1.4081914960
| 32>  H       -0.4971814501     2.5143718758     0.1526679943
| 33>  H       -2.2922387061     0.9788566912     0.2020244973
| 34>  H       -1.1019121971     0.5496596082     1.2475458052
| 35>  H       -2.2843142346    -1.2249034456    -0.1981973655
| 36>  H       -1.0682607979    -0.6873888574    -1.3743142663
| 37>  H       -0.5725794236    -2.5274313833     0.8524366131
| 38>  H        1.7021501447    -1.8264766237     1.0561680498
| 39>  H        2.6683009651    -0.0162525180    -0.1776499632
| 40>  H        1.6269679211     1.8980233827    -0.9385947757
| 41> *
| 42>
| 43>                          ****END OF INPUT****
 Total Charge           Charge          ....    1
 Multiplicity           Mult            ....    1
 Number of Electrons    NEL             ....   52
FINAL SINGLE POINT ENERGY      -288.882315275608

CARTESIAN COORDINATES (ANGSTROEM)
---------------------------------
  C      1.390039    0.000133    0.938662
  N      0.000007   -0.000093    1.480209
  C     -0.958167    0.922677    0.751281
  C     -1.608674    0.192611   -0.369654
  C     -0.908428   -0.445456   -1.311017
  C      0.541121   -0.480908   -1.438151
  C      1.489059   -0.253182   -0.523309
  H      1.839373    0.962439    1.198371
  H      1.938148   -0.767936    1.494625
  H      0.038678    0.241181    2.471569
  H     -0.382854   -0.945959    1.419390
  H     -1.683495    1.276999    1.482172
  H     -0.360335    1.770971    0.407385
  H     -2.691621    0.186032   -0.395169
  H     -1.459876   -0.948039   -2.098974
  H      0.898982   -0.715556   -2.435842
  H      2.523392   -0.288395   -0.852684

FINAL SINGLE POINT ENERGY      -288.882315689603
                    ***********************HURRAY********************
 Multiplicity           Mult            ....    1
 Number of Electrons    NEL             ....   52
 Basis Dimension        Dim             ....  277
FINAL SINGLE POINT ENERGY      -288.882315846086

VIBRATIONAL FREQUENCIES
-----------------------

   0:         0.00 cm**-1
   1:         0.00 cm**-1
   2:         0.00 cm**-1
   3:         0.00 cm**-1
   4:         0.00 cm**-1
   5:         0.00 cm**-1
   6:       116.16 cm**-1
   7:       221.46 cm**-1
   8:       331.14 cm**-1
   9:       367.80 cm**-1
  10:       403.53 cm**-1
  11:       531.57 cm**-1
  12:       609.91 cm**-1
  13:       706.24 cm**-1
  14:       775.97 cm**-1
  15:       800.55 cm**-1
  16:       853.56 cm**-1
  17:       890.11 cm**-1
  18:       927.26 cm**-1
  19:       945.86 cm**-1
  20:      1002.49 cm**-1
  21:      1019.32 cm**-1
  22:      1035.25 cm**-1
  23:      1044.49 cm**-1
  24:      1083.83 cm**-1
  25:      1087.48 cm**-1
  26:      1217.89 cm**-1
  27:      1253.36 cm**-1
  28:      1271.49 cm**-1
  29:      1297.96 cm**-1
  30:      1333.33 cm**-1
  31:      1393.38 cm**-1
  32:      1413.65 cm**-1
  33:      1424.88 cm**-1
  34:      1443.67 cm**-1
  35:      1461.61 cm**-1
  36:      1474.09 cm**-1
  37:      1487.55 cm**-1
  38:      1633.66 cm**-1
  39:      1698.80 cm**-1
  40:      1730.72 cm**-1
  41:      3064.30 cm**-1
  42:      3083.20 cm**-1
  43:      3108.01 cm**-1
  44:      3158.56 cm**-1
  45:      3179.33 cm**-1
  46:      3191.52 cm**-1
  47:      3199.07 cm**-1
  48:      3218.80 cm**-1
  49:      3438.08 cm**-1
  50:      3497.09 cm**-1

IR SPECTRUM
-----------

 Mode    freq (cm**-1)   T**2         TX         TY         TZ
-------------------------------------------------------------------
   6:       116.16    0.263207  ( -0.076579   0.228725   0.452799)
   7:       221.46    8.469759  ( -0.669213  -1.520799  -2.389368)
   8:       331.14    0.746135  (  0.837803  -0.113049  -0.177316)
   9:       367.80    2.520663  ( -0.116305  -0.309653  -1.552820)
  10:       403.53    0.720624  ( -0.281378  -0.782538   0.170540)
  11:       531.57    4.911351  ( -0.945066   1.925431   0.557601)
  12:       609.91    6.945262  ( -0.682885  -2.538631  -0.185159)
  13:       706.24   79.243732  ( -0.897679   8.167309  -3.425342)
  14:       775.97    3.434701  ( -0.376883  -0.223324   1.800774)
  15:       800.55    4.796321  (  0.236056   0.066958   2.176262)
  16:       853.56    6.136701  (  2.423027   0.346783  -0.381292)
  17:       890.11    2.916276  ( -0.624168   0.607121  -1.469046)
  18:       927.26    0.666943  (  0.026110   0.548072  -0.604879)
  19:       945.86    4.646711  ( -1.236509   1.759161   0.152010)
  20:      1002.49    9.378875  ( -1.467000  -0.690641  -2.598038)
  21:      1019.32    2.227914  (  0.766561  -1.279562   0.054949)
  22:      1035.25    0.357012  (  0.175911  -0.387060   0.419823)
  23:      1044.49    6.675504  (  0.659847  -2.492965   0.158851)
  24:      1083.83   12.460895  (  3.429647   0.797559  -0.249631)
  25:      1087.48    3.148960  ( -0.195397   1.699594   0.471341)
  26:      1217.89    5.041636  ( -1.939147   1.126986   0.106067)
  27:      1253.36    1.299744  (  1.078890   0.054281  -0.364409)
  28:      1271.49    4.030322  (  1.052063  -1.398218  -0.984109)
  29:      1297.96    5.781483  ( -1.983292   1.358946  -0.036091)
  30:      1333.33    1.495259  (  0.948613   0.590131   0.497130)
  31:      1393.38    1.169635  ( -1.018613   0.251844   0.261986)
  32:      1413.65   10.686985  (  2.376805  -1.374435   1.774460)
  33:      1424.88    7.915338  ( -2.511686   1.266216   0.058909)
  34:      1443.67   23.134217  ( -3.843299   2.620122   1.224022)
  35:      1461.61    2.723529  ( -0.016885  -0.866859  -1.404208)
  36:      1474.09    8.918931  (  1.696741  -2.246454   0.996717)
  37:      1487.55   34.323911  ( -3.213427  -2.717858  -4.075665)
  38:      1633.66   79.228892  ( -2.882091  -5.016375   6.764498)
  39:      1698.80    4.090408  ( -1.482578   1.363374   0.183259)
  40:      1730.72    1.179995  ( -0.507545  -0.592907  -0.755549)
  41:      3064.30    0.749388  ( -0.478440  -0.205373  -0.691596)
  42:      3083.20    1.366548  ( -0.221891   0.582876   0.988721)
  43:      3108.01    0.183883  (  0.145150  -0.138309   0.379059)
  44:      3158.56    0.396232  ( -0.114977   0.582423   0.209274)
  45:      3179.33    2.615087  (  1.589025  -0.201746  -0.222228)
  46:      3191.52    0.103199  (  0.115165  -0.144433   0.262821)
  47:      3199.07    1.707929  ( -0.903775   0.354253   0.874999)
  48:      3218.80    1.646446  (  1.275526  -0.138371  -0.018206)
  49:      3438.08   46.007884  ( -2.208463  -4.188609   4.856555)
  50:      3497.09   75.549197  ( -1.800099  -5.636294  -6.367184)

--------------------------
THERMOCHEMISTRY AT 298.15K
--------------------------

Temperature         ... 298.15 K
Pressure            ... 1.00 atm
Total Mass          ... 96.15 AMU

Throughout the following assumptions are being made:
  (1) The electronic state is orbitally nondegenerate
  (2) There are no thermally accessible electronically excited states
  (3) Hindered rotations indicated by low frequency modes) are not
      treated as such but are treated as vibrations and this may
      case some error
  (4) All equations used are the standard statistical mechanics
      equations for an ideal gas
  (5) All vibrations are strinctly harmonic

------------
INNER ENERGY
------------

The inner energy is: U= E(el) + E(ZPE) + E(vib) + E(rot) + E(trans)
    E(el)   - is the total energy from the electronic structure calculation
              = E(kin-el) + E(nuc-el) + E(el-el) + E(nuc-nuc)
    E(ZPE)  - the the zero temperature vibrational energy from the frequency calculation
    E(vib)  - the the finite temperature correction to E(ZPE) due to population
              of excietd vibrational states
    E(rot)  - is the rotational thermal energy
    E(trans)- is the translational thermal energy

Summary of contributions to the inner energy U:
Electronic energy                ...   -288.88231585 Eh
Zero point energy                ...      0.15589043 Eh      97.82 kcal/mol
Thermal vibrational correction   ...      0.00340777 Eh       2.14 kcal/mol
Thermal rotational correction    ...      0.00141627 Eh       0.89 kcal/mol
Thermal translational correction ...      0.00141627 Eh       0.89 kcal/mol
-----------------------------------------------------------------------
Total thermal energy                   -288.72018510 Eh

Summary of corrections to the electronic energy:
(perhaps to be used in another calculation)
Total thermal correction                  0.00624032 Eh       3.92 kcal/mol
Non-thermal (ZPE) correction              0.15589043 Eh      97.82 kcal/mol
-----------------------------------------------------------------------
Total correction                          0.16213075 Eh     101.74 kcal/mol

--------
ENTHALPY
--------

The enthalpy is H = U + kB*T
                kB is Boltzmann's constant
Total free energy                 ...   -288.72018510 Eh
Thermal Enthalpy correction       ...      0.00094421 Eh       0.59 kcal/mol
-----------------------------------------------------------------------
Total Enthalpy                    ...   -288.71924089 Eh

-------
ENTROPY
-------

The entropy contributions are T*S = T*(S(el)+S(vib)+S(rot)+S(trans)
     S(el)   - electronic entropy
     S(vib)  - vibrational entropy
     S(rot)  - rotational entropy
     S(trans)- translational entropy
The entropies will be listed as mutliplied by the temperature to get
units of energy

Electronic entropy                ...      0.00000000 Eh      0.00 kcal/mol
Vibrational entropy               ...      0.00544264 Eh      3.42 kcal/mol
Rotational entropy                ...      0.01182746 Eh      7.42 kcal/mol
Translational entropy             ...      0.01881568 Eh     11.81 kcal/mol
-----------------------------------------------------------------------
Final entropy term                ...      0.03608578 Eh     22.64 kcal/mol

CAUTION: The rotational entropy is not quite correctly treated here
         because it includes a symmetry number that is not yet correctly
         implemented in ORCA!
For a nonlinear molecule the correct rotational entropy is:
    S(rot) = R*(ln(qrot/sn)+1.5)
    R    = 8.31441 J/mol/K = 1.987191683e-3 kcal/mol/K
    qrot = 184481.2169743
    sn is the rotational symmetry number. We have assumed 3 here
       if it is different for your molecule then you should correct
       the printed rotational entropy by manually evaluating the equation
       as given above

For convenience we print out the resulting values for sn=1 - 12:
 sn= 1  qrot/sn=  184481.2170 T*S(rot)=     8.07 kcal/mol T*S(tot)=    23.30 kcal/mol
 sn= 2  qrot/sn=   92240.6085 T*S(rot)=     7.66 kcal/mol T*S(tot)=    22.88 kcal/mol
 sn= 3  qrot/sn=   61493.7390 T*S(rot)=     7.42 kcal/mol T*S(tot)=    22.64 kcal/mol
 sn= 4  qrot/sn=   46120.3042 T*S(rot)=     7.25 kcal/mol T*S(tot)=    22.47 kcal/mol
 sn= 5  qrot/sn=   36896.2434 T*S(rot)=     7.12 kcal/mol T*S(tot)=    22.34 kcal/mol
 sn= 6  qrot/sn=   30746.8695 T*S(rot)=     7.01 kcal/mol T*S(tot)=    22.23 kcal/mol
 sn= 7  qrot/sn=   26354.4596 T*S(rot)=     6.92 kcal/mol T*S(tot)=    22.14 kcal/mol
 sn= 8  qrot/sn=   23060.1521 T*S(rot)=     6.84 kcal/mol T*S(tot)=    22.06 kcal/mol
 sn= 9  qrot/sn=   20497.9130 T*S(rot)=     6.77 kcal/mol T*S(tot)=    21.99 kcal/mol
 sn=10  qrot/sn=   18448.1217 T*S(rot)=     6.71 kcal/mol T*S(tot)=    21.93 kcal/mol
 sn=11  qrot/sn=   16771.0197 T*S(rot)=     6.65 kcal/mol T*S(tot)=    21.87 kcal/mol
 sn=12  qrot/sn=   15373.4347 T*S(rot)=     6.60 kcal/mol T*S(tot)=    21.82 kcal/mol

-------------------
GIBBS FREE ENTHALPY
-------------------

The Gibbs free enthalpy is G = H - T*S

Total enthalpy                    ...   -288.71924089 Eh
Total entropy correction          ...     -0.03608578 Eh    -22.64 kcal/mol
-----------------------------------------------------------------------
Final Gibbs free enthalpy         ...   -288.75532667 Eh

For completeness - the Gibbs free enthalpy minus the electronic energy
G-E(el)                           ...      0.12698918 Eh     79.69 kcal/mol

                             ****ORCA TERMINATED NORMALLY****
TOTAL RUN TIME: 0 days 0 hours 54 minutes 22 seconds 835 msec
