                         Program Version 3.0.3 - RELEASE   -
|  1> ! NORI PBE0 def2-TZVP UseSym TightOPT Freq TightSCF Grid3 FinalGrid5 XYZFile
|  2> % pal
|  3>     nprocs 8
|  4> end
|  5> %method
|  6>     SymThresh 5.0e-2
|  7> end
|  8> % geom
|  9>     MaxIter 10
| 10> end
| 11> % maxcore 2000
| 12> % output
| 13>     printlevel mini
| 14>     print[ P_Basis ] 0
| 15>     print[ P_SCFInfo ] 1
| 16>     print[ P_SCFIterInfo ] 1
| 17>     print[ P_OrbEn ] 0
| 18>     print[ P_Cartesian ] 0
| 19> end
| 20> % elprop
| 21>     Dipole false
| 22> end
| 23> *xyz 1 1
| 24>  C        1.3989609192    -0.2017302814    -0.4774538339
| 25>  C        2.8096354852     0.0396287110    -0.0489790945
| 26>  C        3.6742308424    -0.9680276929     0.6284951219
| 27>  C        4.0602894116    -0.4370010077    -0.7220336184
| 28>  C        5.0816385670     0.6862491947    -0.7360493767
| 29>  C        4.2840141365     1.9427506367    -0.4053968007
| 30>  N        3.0995553739     1.4513069670     0.3916162746
| 31>  H        1.0999013161     0.4690295748    -1.2881381421
| 32>  H        0.6975739112    -0.0926541322     0.3539677542
| 33>  H        1.3063101524    -1.2222158508    -0.8490333251
| 34>  H        4.2766664628    -0.6716035716     1.4816949601
| 35>  H        3.2752477043    -1.9721895460     0.6950287538
| 36>  H        3.9815125236    -1.0887696718    -1.5826498623
| 37>  H        5.5506186178     0.7926463491    -1.7137090880
| 38>  H        5.8803275603     0.5143614723    -0.0116206963
| 39>  H        3.8751226257     2.3994001455    -1.3062019159
| 40>  H        4.8169354204     2.7011129608     0.1672912272
| 41>  H        2.2831487705     2.0426504825     0.2341355003
| 42>  H        3.2928001989     1.4811052601     1.3937261620
| 43> *
| 44>
| 45>                          ****END OF INPUT****
 Total Charge           Charge          ....    1
 Multiplicity           Mult            ....    1
 Number of Electrons    NEL             ....   54
FINAL SINGLE POINT ENERGY      -290.108073201144

CARTESIAN COORDINATES (ANGSTROEM)
---------------------------------
  C      2.167812   -0.000282   -0.036497
  C      0.700163    0.278916   -0.045102
  C      0.047763    1.363598   -0.832848
  C     -0.287483   -0.072575   -1.115340
  C     -1.555199   -0.606176   -0.472228
  C     -1.159716   -0.921226    0.965952
  N     -0.000247    0.000239    1.259711
  H      2.383009   -1.035492    0.244032
  H      2.705347    0.672000    0.637511
  H      2.568828    0.155184   -1.038248
  H     -0.714574    1.980971   -0.367155
  H      0.682021    1.894178   -1.531876
  H      0.066570   -0.521239   -2.034474
  H     -1.907393   -1.511475   -0.965738
  H     -2.366978    0.122728   -0.515972
  H     -0.771291   -1.935457    1.055543
  H     -1.939610   -0.771731    1.711874
  H      0.647795   -0.427987    1.921122
  H     -0.321069    0.870243    1.686941

FINAL SINGLE POINT ENERGY      -290.108074004813
                    ***********************HURRAY********************
 Multiplicity           Mult            ....    1
 Number of Electrons    NEL             ....   54
 Basis Dimension        Dim             ....  289
FINAL SINGLE POINT ENERGY      -290.108074705057

VIBRATIONAL FREQUENCIES
-----------------------

   0:         0.00 cm**-1
   1:         0.00 cm**-1
   2:         0.00 cm**-1
   3:         0.00 cm**-1
   4:         0.00 cm**-1
   5:         0.00 cm**-1
   6:       115.57 cm**-1
   7:       202.35 cm**-1
   8:       225.39 cm**-1
   9:       325.41 cm**-1
  10:       378.80 cm**-1
  11:       433.97 cm**-1
  12:       580.07 cm**-1
  13:       605.72 cm**-1
  14:       733.38 cm**-1
  15:       827.23 cm**-1
  16:       844.93 cm**-1
  17:       866.39 cm**-1
  18:       877.67 cm**-1
  19:       925.03 cm**-1
  20:       941.05 cm**-1
  21:       960.25 cm**-1
  22:       971.46 cm**-1
  23:      1034.38 cm**-1
  24:      1070.17 cm**-1
  25:      1086.71 cm**-1
  26:      1098.82 cm**-1
  27:      1117.97 cm**-1
  28:      1152.73 cm**-1
  29:      1196.73 cm**-1
  30:      1244.61 cm**-1
  31:      1254.54 cm**-1
  32:      1279.10 cm**-1
  33:      1316.25 cm**-1
  34:      1345.10 cm**-1
  35:      1365.25 cm**-1
  36:      1393.86 cm**-1
  37:      1418.33 cm**-1
  38:      1444.85 cm**-1
  39:      1479.18 cm**-1
  40:      1485.06 cm**-1
  41:      1491.16 cm**-1
  42:      1503.73 cm**-1
  43:      1508.21 cm**-1
  44:      1649.01 cm**-1
  45:      3050.18 cm**-1
  46:      3091.11 cm**-1
  47:      3107.98 cm**-1
  48:      3121.44 cm**-1
  49:      3139.07 cm**-1
  50:      3147.05 cm**-1
  51:      3153.04 cm**-1
  52:      3171.44 cm**-1
  53:      3212.28 cm**-1
  54:      3237.28 cm**-1
  55:      3451.91 cm**-1
  56:      3510.09 cm**-1

IR SPECTRUM
-----------

 Mode    freq (cm**-1)   T**2         TX         TY         TZ
-------------------------------------------------------------------
   6:       115.57    1.304624  (  0.706691  -0.774192   0.453695)
   7:       202.35    0.518113  (  0.108575  -0.703069   0.109630)
   8:       225.39    0.097548  ( -0.169816  -0.242987  -0.098324)
   9:       325.41    3.709177  ( -1.520845  -0.259592   1.152744)
  10:       378.80    3.209001  ( -0.592440   1.628973  -0.452174)
  11:       433.97    1.604610  ( -0.224363  -0.797312   0.958418)
  12:       580.07    2.951414  (  1.236522   0.333352   1.145121)
  13:       605.72    1.126813  ( -0.496371   0.781152   0.519837)
  14:       733.38    0.629184  ( -0.103389   0.549768  -0.562361)
  15:       827.23    6.447589  ( -1.901093   1.236359  -1.142300)
  16:       844.93    1.411366  ( -0.430068  -0.508052  -0.984018)
  17:       866.39    2.544185  ( -0.774517   0.802563   1.140263)
  18:       877.67    3.212904  ( -1.771826   0.210782   0.170616)
  19:       925.03    1.581434  (  0.077136   1.071248  -0.654149)
  20:       941.05    2.877187  ( -0.851159  -0.949671  -1.118410)
  21:       960.25    1.473892  ( -0.716397   0.320816  -0.926145)
  22:       971.46    4.189855  ( -0.295738   1.630973  -1.200967)
  23:      1034.38   12.626505  (  3.137836   0.496728   1.591777)
  24:      1070.17    7.100840  ( -1.126554  -0.228173  -2.404091)
  25:      1086.71    4.569618  ( -1.379198  -0.426436   1.576573)
  26:      1098.82    0.269973  (  0.334322  -0.089557   0.387533)
  27:      1117.97    2.568318  ( -0.600099   0.330659   1.448746)
  28:      1152.73    1.641634  ( -0.168111   1.260799   0.154141)
  29:      1196.73    2.065136  ( -0.976186  -1.010871   0.300560)
  30:      1244.61   22.518417  (  3.170284   2.465530  -2.527624)
  31:      1254.54    3.738686  (  0.959472  -0.984987  -1.359375)
  32:      1279.10    8.512347  (  1.587189   1.784821  -1.675587)
  33:      1316.25    5.625510  ( -1.715925  -0.791322   1.433499)
  34:      1345.10    6.926080  (  0.546322   0.886604  -2.416929)
  35:      1365.25   41.826236  (  5.348732   2.066556  -2.991094)
  36:      1393.86    0.421108  ( -0.089161  -0.329963  -0.551618)
  37:      1418.33    4.098578  ( -0.475662   1.877694   0.588717)
  38:      1444.85   11.477233  (  2.538785   2.059112  -0.889866)
  39:      1479.18    9.957948  ( -0.239040  -2.209398  -2.240395)
  40:      1485.06    6.936660  ( -0.065549  -2.125294   1.554185)
  41:      1491.16   10.357177  (  0.830362  -1.654722   2.632408)
  42:      1503.73    5.484899  ( -0.789545  -2.164289   0.421156)
  43:      1508.21   19.053014  (  4.141496  -1.376411  -0.080744)
  44:      1649.01   59.477045  (  0.825147   2.526363   7.239729)
  45:      3050.18    5.459645  (  1.440916  -0.923358   1.590855)
  46:      3091.11    4.875491  (  2.146057  -0.474359   0.211928)
  47:      3107.98    2.352513  ( -0.023230  -0.905537   1.237730)
  48:      3121.44    4.674840  ( -0.480144  -2.086213  -0.303340)
  49:      3139.07    1.786851  ( -0.526202   0.261153   1.200734)
  50:      3147.05    0.370684  ( -0.132919   0.505066  -0.312931)
  51:      3153.04    1.409513  ( -1.033947   0.352593  -0.464915)
  52:      3171.44    0.608753  ( -0.738910   0.107959   0.226074)
  53:      3212.28    0.341714  (  0.180022   0.217173   0.511998)
  54:      3237.28    0.421528  (  0.036172  -0.451064   0.465576)
  55:      3451.91   43.357088  (  1.318653   2.909116   5.758063)
  56:      3510.09   65.921830  (  5.068534  -5.856657   2.435438)

--------------------------
THERMOCHEMISTRY AT 298.15K
--------------------------

Temperature         ... 298.15 K
Pressure            ... 1.00 atm
Total Mass          ... 98.17 AMU

Throughout the following assumptions are being made:
  (1) The electronic state is orbitally nondegenerate
  (2) There are no thermally accessible electronically excited states
  (3) Hindered rotations indicated by low frequency modes) are not
      treated as such but are treated as vibrations and this may
      case some error
  (4) All equations used are the standard statistical mechanics
      equations for an ideal gas
  (5) All vibrations are strinctly harmonic

------------
INNER ENERGY
------------

The inner energy is: U= E(el) + E(ZPE) + E(vib) + E(rot) + E(trans)
    E(el)   - is the total energy from the electronic structure calculation
              = E(kin-el) + E(nuc-el) + E(el-el) + E(nuc-nuc)
    E(ZPE)  - the the zero temperature vibrational energy from the frequency calculation
    E(vib)  - the the finite temperature correction to E(ZPE) due to population
              of excietd vibrational states
    E(rot)  - is the rotational thermal energy
    E(trans)- is the translational thermal energy

Summary of contributions to the inner energy U:
Electronic energy                ...   -290.10807471 Eh
Zero point energy                ...      0.17802356 Eh     111.71 kcal/mol
Thermal vibrational correction   ...      0.00393559 Eh       2.47 kcal/mol
Thermal rotational correction    ...      0.00141627 Eh       0.89 kcal/mol
Thermal translational correction ...      0.00141627 Eh       0.89 kcal/mol
-----------------------------------------------------------------------
Total thermal energy                   -289.92328302 Eh

Summary of corrections to the electronic energy:
(perhaps to be used in another calculation)
Total thermal correction                  0.00676813 Eh       4.25 kcal/mol
Non-thermal (ZPE) correction              0.17802356 Eh     111.71 kcal/mol
-----------------------------------------------------------------------
Total correction                          0.18479169 Eh     115.96 kcal/mol

--------
ENTHALPY
--------

The enthalpy is H = U + kB*T
                kB is Boltzmann's constant
Total free energy                 ...   -289.92328302 Eh
Thermal Enthalpy correction       ...      0.00094421 Eh       0.59 kcal/mol
-----------------------------------------------------------------------
Total Enthalpy                    ...   -289.92233881 Eh

-------
ENTROPY
-------

The entropy contributions are T*S = T*(S(el)+S(vib)+S(rot)+S(trans)
     S(el)   - electronic entropy
     S(vib)  - vibrational entropy
     S(rot)  - rotational entropy
     S(trans)- translational entropy
The entropies will be listed as mutliplied by the temperature to get
units of energy

Electronic entropy                ...      0.00000000 Eh      0.00 kcal/mol
Vibrational entropy               ...      0.00637250 Eh      4.00 kcal/mol
Rotational entropy                ...      0.01181358 Eh      7.41 kcal/mol
Translational entropy             ...      0.01884507 Eh     11.83 kcal/mol
-----------------------------------------------------------------------
Final entropy term                ...      0.03703116 Eh     23.24 kcal/mol

CAUTION: The rotational entropy is not quite correctly treated here
         because it includes a symmetry number that is not yet correctly
         implemented in ORCA!
For a nonlinear molecule the correct rotational entropy is:
    S(rot) = R*(ln(qrot/sn)+1.5)
    R    = 8.31441 J/mol/K = 1.987191683e-3 kcal/mol/K
    qrot = 181789.2468132
    sn is the rotational symmetry number. We have assumed 3 here
       if it is different for your molecule then you should correct
       the printed rotational entropy by manually evaluating the equation
       as given above

For convenience we print out the resulting values for sn=1 - 12:
 sn= 1  qrot/sn=  181789.2468 T*S(rot)=     8.06 kcal/mol T*S(tot)=    23.89 kcal/mol
 sn= 2  qrot/sn=   90894.6234 T*S(rot)=     7.65 kcal/mol T*S(tot)=    23.48 kcal/mol
 sn= 3  qrot/sn=   60596.4156 T*S(rot)=     7.41 kcal/mol T*S(tot)=    23.24 kcal/mol
 sn= 4  qrot/sn=   45447.3117 T*S(rot)=     7.24 kcal/mol T*S(tot)=    23.07 kcal/mol
 sn= 5  qrot/sn=   36357.8494 T*S(rot)=     7.11 kcal/mol T*S(tot)=    22.93 kcal/mol
 sn= 6  qrot/sn=   30298.2078 T*S(rot)=     7.00 kcal/mol T*S(tot)=    22.83 kcal/mol
 sn= 7  qrot/sn=   25969.8924 T*S(rot)=     6.91 kcal/mol T*S(tot)=    22.74 kcal/mol
 sn= 8  qrot/sn=   22723.6559 T*S(rot)=     6.83 kcal/mol T*S(tot)=    22.66 kcal/mol
 sn= 9  qrot/sn=   20198.8052 T*S(rot)=     6.76 kcal/mol T*S(tot)=    22.59 kcal/mol
 sn=10  qrot/sn=   18178.9247 T*S(rot)=     6.70 kcal/mol T*S(tot)=    22.52 kcal/mol
 sn=11  qrot/sn=   16526.2952 T*S(rot)=     6.64 kcal/mol T*S(tot)=    22.47 kcal/mol
 sn=12  qrot/sn=   15149.1039 T*S(rot)=     6.59 kcal/mol T*S(tot)=    22.42 kcal/mol

-------------------
GIBBS FREE ENTHALPY
-------------------

The Gibbs free enthalpy is G = H - T*S

Total enthalpy                    ...   -289.92233881 Eh
Total entropy correction          ...     -0.03703116 Eh    -23.24 kcal/mol
-----------------------------------------------------------------------
Final Gibbs free enthalpy         ...   -289.95936996 Eh

For completeness - the Gibbs free enthalpy minus the electronic energy
G-E(el)                           ...      0.14870474 Eh     93.31 kcal/mol

                             ****ORCA TERMINATED NORMALLY****
TOTAL RUN TIME: 0 days 0 hours 51 minutes 36 seconds 856 msec
