                         Program Version 3.0.3 - RELEASE   -
|  1> ! NORI PBE0 def2-TZVP UseSym TightOPT Freq TightSCF Grid3 FinalGrid5 XYZFile
|  2> % pal
|  3>     nprocs 8
|  4> end
|  5> %method
|  6>     SymThresh 5.0e-2
|  7> end
|  8> % geom
|  9>     MaxIter 10
| 10> end
| 11> % maxcore 2000
| 12> % output
| 13>     printlevel mini
| 14>     print[ P_Basis ] 0
| 15>     print[ P_SCFInfo ] 1
| 16>     print[ P_SCFIterInfo ] 1
| 17>     print[ P_OrbEn ] 0
| 18>     print[ P_Cartesian ] 0
| 19> end
| 20> % elprop
| 21>     Dipole false
| 22> end
| 23> *xyz 1 1
| 24>  C        1.4978835055     0.5164955820    -0.1708579758
| 25>  C        2.8496506108    -0.0874751625     0.0180089172
| 26>  C        3.0233999177    -1.5567910428     0.3281727783
| 27>  C        4.5270862369    -1.8298561660     0.1945658679
| 28>  C        5.0402752329    -0.7770794614    -0.7989999570
| 29>  C        4.0868722994     0.3746365536    -0.6458559149
| 30>  N        3.8445893462     0.7578145453     0.7809104769
| 31>  H        1.0040050665     0.0199198276    -1.0080460393
| 32>  H        1.5491183148     1.5825687698    -0.4023347681
| 33>  H        0.8775247950     0.3743935846     0.7162378437
| 34>  H        2.4551778147    -2.0993717301    -0.4324124121
| 35>  H        2.6071372150    -1.8358805587     1.2980469630
| 36>  H        5.0314177015    -1.7332367059     1.1607923374
| 37>  H        4.7330855086    -2.8447543214    -0.1413212950
| 38>  H        6.0839738994    -0.4961903766    -0.6463414490
| 39>  H        4.9484668967    -1.1255314445    -1.8315126618
| 40>  H        4.1024970835     1.2234093589    -1.3191482654
| 41>  H        3.5847390510     1.7183302717     0.9711109350
| 42>  H        4.4153795039     0.3267984766     1.5001846192
| 43> *
| 44>
| 45>                          ****END OF INPUT****
 Total Charge           Charge          ....    1
 Multiplicity           Mult            ....    1
 Number of Electrons    NEL             ....   54
FINAL SINGLE POINT ENERGY      -290.118934766017
FINAL SINGLE POINT ENERGY      -290.118935770178

CARTESIAN COORDINATES (ANGSTROEM)
---------------------------------
  C      2.223995   -0.000327    0.167339
  C      0.736319    0.088965    0.084499
  C      0.052631    1.045861   -0.865029
  C     -1.432316    0.660568   -0.836872
  C     -1.454530   -0.829142   -0.462419
  C     -0.196295   -1.030221    0.334395
  N     -0.001219    0.000766    1.402161
  H      2.614180   -0.287989   -0.810695
  H      2.554815   -0.750505    0.888863
  H      2.660982    0.964197    0.431910
  H      0.488514    0.863188   -1.851124
  H      0.242860    2.092636   -0.620014
  H     -1.977890    1.256417   -0.098615
  H     -1.925738    0.851710   -1.788413
  H     -2.356039   -1.137750    0.069653
  H     -1.370366   -1.463836   -1.348863
  H      0.145455   -2.016171    0.625864
  H      0.538974   -0.264233    2.217311
  H     -0.759163    0.647498    1.592700

FINAL SINGLE POINT ENERGY      -290.118936146211
                    ***********************HURRAY********************
 Multiplicity           Mult            ....    1
 Number of Electrons    NEL             ....   54
 Basis Dimension        Dim             ....  289
FINAL SINGLE POINT ENERGY      -290.118936226480

VIBRATIONAL FREQUENCIES
-----------------------

   0:         0.00 cm**-1
   1:         0.00 cm**-1
   2:         0.00 cm**-1
   3:         0.00 cm**-1
   4:         0.00 cm**-1
   5:         0.00 cm**-1
   6:       201.32 cm**-1
   7:       221.10 cm**-1
   8:       248.63 cm**-1
   9:       311.55 cm**-1
  10:       385.86 cm**-1
  11:       421.60 cm**-1
  12:       553.33 cm**-1
  13:       630.66 cm**-1
  14:       668.00 cm**-1
  15:       808.09 cm**-1
  16:       817.35 cm**-1
  17:       872.73 cm**-1
  18:       881.17 cm**-1
  19:       906.72 cm**-1
  20:       928.18 cm**-1
  21:       946.46 cm**-1
  22:       982.99 cm**-1
  23:       996.38 cm**-1
  24:      1026.36 cm**-1
  25:      1040.13 cm**-1
  26:      1071.13 cm**-1
  27:      1118.31 cm**-1
  28:      1137.78 cm**-1
  29:      1186.90 cm**-1
  30:      1228.40 cm**-1
  31:      1265.97 cm**-1
  32:      1286.66 cm**-1
  33:      1299.82 cm**-1
  34:      1337.29 cm**-1
  35:      1347.77 cm**-1
  36:      1362.10 cm**-1
  37:      1418.73 cm**-1
  38:      1446.42 cm**-1
  39:      1472.32 cm**-1
  40:      1476.17 cm**-1
  41:      1480.31 cm**-1
  42:      1494.45 cm**-1
  43:      1510.51 cm**-1
  44:      1614.27 cm**-1
  45:      3063.24 cm**-1
  46:      3064.43 cm**-1
  47:      3080.85 cm**-1
  48:      3083.17 cm**-1
  49:      3129.74 cm**-1
  50:      3132.82 cm**-1
  51:      3143.45 cm**-1
  52:      3149.12 cm**-1
  53:      3150.77 cm**-1
  54:      3214.29 cm**-1
  55:      3511.13 cm**-1
  56:      3622.99 cm**-1

IR SPECTRUM
-----------

 Mode    freq (cm**-1)   T**2         TX         TY         TZ
-------------------------------------------------------------------
   6:       201.32    0.087237  ( -0.022454   0.143186  -0.257353)
   7:       221.10    0.681200  ( -0.318282  -0.297147  -0.701142)
   8:       248.63    1.397921  ( -0.363071   0.879598  -0.701718)
   9:       311.55    0.645807  ( -0.197791  -0.081772   0.774596)
  10:       385.86    2.497081  (  0.572336  -1.341843   0.607428)
  11:       421.60    3.403762  (  1.577831   0.529343   0.796246)
  12:       553.33    1.093368  (  0.499538   0.764537  -0.509228)
  13:       630.66    2.844720  ( -1.111610   0.104417   1.264175)
  14:       668.00    1.710339  (  0.685823   0.311982   1.068949)
  15:       808.09    9.826357  (  0.777689  -0.945954  -2.885607)
  16:       817.35    0.744439  ( -0.398927   0.645049   0.411349)
  17:       872.73   11.488696  ( -1.034099  -0.357758   3.208012)
  18:       881.17    2.090899  (  0.621326   1.275261  -0.280290)
  19:       906.72    4.755731  ( -2.178368  -0.018339  -0.100544)
  20:       928.18    2.845451  (  1.334926  -1.018884   0.159056)
  21:       946.46    7.582314  ( -0.073189   0.811476  -2.630297)
  22:       982.99   38.944917  (  4.373429   4.213011  -1.438254)
  23:       996.38   27.229743  (  3.092615   3.999862  -1.290961)
  24:      1026.36   17.087368  ( -2.463494  -3.292387   0.422791)
  25:      1040.13    3.327272  (  0.082166   1.135887  -1.424880)
  26:      1071.13   10.558894  (  1.569630   1.902523   2.115552)
  27:      1118.31    5.888187  (  0.495057  -1.947692  -1.360000)
  28:      1137.78    6.131356  (  1.644540  -0.032170  -1.850894)
  29:      1186.90    0.971873  (  0.047466   0.371628   0.911873)
  30:      1228.40    1.162541  (  1.074893  -0.001951  -0.084512)
  31:      1265.97    2.574950  ( -0.006787  -0.297847   1.576766)
  32:      1286.66    1.614710  ( -0.130488   1.167644  -0.484035)
  33:      1299.82    1.362582  (  1.039867   0.524901  -0.075745)
  34:      1337.29    5.490142  (  0.862555  -1.572573   1.507699)
  35:      1347.77    6.885334  ( -1.954759   0.888161  -1.508449)
  36:      1362.10    0.917475  ( -0.080949  -0.949429   0.097498)
  37:      1418.73    3.101076  (  1.083873  -1.385479  -0.082120)
  38:      1446.42   18.740641  (  4.233859   0.627667  -0.648934)
  39:      1472.32   11.262059  ( -1.439021  -2.971844  -0.599516)
  40:      1476.17    7.765057  ( -0.837448   1.692125   2.049500)
  41:      1480.31    5.952402  ( -0.768222  -2.308020  -0.187830)
  42:      1494.45   12.385336  (  0.480235  -1.749457   3.015644)
  43:      1510.51   10.711764  (  2.235966  -1.517375   1.846563)
  44:      1614.27   89.162304  (  2.335942  -2.780470  -8.716345)
  45:      3063.24    1.273806  (  0.319882  -0.399301   1.006002)
  46:      3064.43    9.930778  (  1.534849  -1.714329  -2.153158)
  47:      3080.85    4.230664  ( -1.849208  -0.835433   0.336373)
  48:      3083.17    1.954472  (  0.312391  -1.361622   0.053565)
  49:      3129.74    2.021203  (  0.042821   1.415569   0.124636)
  50:      3132.82    1.983376  ( -1.347661   0.020514   0.408368)
  51:      3143.45    2.634011  (  0.368357  -1.283169   0.922930)
  52:      3149.12    0.747777  ( -0.681662  -0.518255   0.120523)
  53:      3150.77    0.701805  (  0.182481   0.162613   0.801288)
  54:      3214.29    0.804500  ( -0.251639  -0.832505  -0.219348)
  55:      3511.13   73.171362  ( -2.107092   2.762556   7.816637)
  56:      3622.99  105.589264  (  7.244522  -4.639685   5.619563)

--------------------------
THERMOCHEMISTRY AT 298.15K
--------------------------

Temperature         ... 298.15 K
Pressure            ... 1.00 atm
Total Mass          ... 98.17 AMU

Throughout the following assumptions are being made:
  (1) The electronic state is orbitally nondegenerate
  (2) There are no thermally accessible electronically excited states
  (3) Hindered rotations indicated by low frequency modes) are not
      treated as such but are treated as vibrations and this may
      case some error
  (4) All equations used are the standard statistical mechanics
      equations for an ideal gas
  (5) All vibrations are strinctly harmonic

------------
INNER ENERGY
------------

The inner energy is: U= E(el) + E(ZPE) + E(vib) + E(rot) + E(trans)
    E(el)   - is the total energy from the electronic structure calculation
              = E(kin-el) + E(nuc-el) + E(el-el) + E(nuc-nuc)
    E(ZPE)  - the the zero temperature vibrational energy from the frequency calculation
    E(vib)  - the the finite temperature correction to E(ZPE) due to population
              of excietd vibrational states
    E(rot)  - is the rotational thermal energy
    E(trans)- is the translational thermal energy

Summary of contributions to the inner energy U:
Electronic energy                ...   -290.11893623 Eh
Zero point energy                ...      0.17712732 Eh     111.15 kcal/mol
Thermal vibrational correction   ...      0.00381760 Eh       2.40 kcal/mol
Thermal rotational correction    ...      0.00141627 Eh       0.89 kcal/mol
Thermal translational correction ...      0.00141627 Eh       0.89 kcal/mol
-----------------------------------------------------------------------
Total thermal energy                   -289.93515877 Eh

Summary of corrections to the electronic energy:
(perhaps to be used in another calculation)
Total thermal correction                  0.00665014 Eh       4.17 kcal/mol
Non-thermal (ZPE) correction              0.17712732 Eh     111.15 kcal/mol
-----------------------------------------------------------------------
Total correction                          0.18377746 Eh     115.32 kcal/mol

--------
ENTHALPY
--------

The enthalpy is H = U + kB*T
                kB is Boltzmann's constant
Total free energy                 ...   -289.93515877 Eh
Thermal Enthalpy correction       ...      0.00094421 Eh       0.59 kcal/mol
-----------------------------------------------------------------------
Total Enthalpy                    ...   -289.93421456 Eh

-------
ENTROPY
-------

The entropy contributions are T*S = T*(S(el)+S(vib)+S(rot)+S(trans)
     S(el)   - electronic entropy
     S(vib)  - vibrational entropy
     S(rot)  - rotational entropy
     S(trans)- translational entropy
The entropies will be listed as mutliplied by the temperature to get
units of energy

Electronic entropy                ...      0.00000000 Eh      0.00 kcal/mol
Vibrational entropy               ...      0.00584672 Eh      3.67 kcal/mol
Rotational entropy                ...      0.01179949 Eh      7.40 kcal/mol
Translational entropy             ...      0.01884507 Eh     11.83 kcal/mol
-----------------------------------------------------------------------
Final entropy term                ...      0.03649127 Eh     22.90 kcal/mol

CAUTION: The rotational entropy is not quite correctly treated here
         because it includes a symmetry number that is not yet correctly
         implemented in ORCA!
For a nonlinear molecule the correct rotational entropy is:
    S(rot) = R*(ln(qrot/sn)+1.5)
    R    = 8.31441 J/mol/K = 1.987191683e-3 kcal/mol/K
    qrot = 179095.0167725
    sn is the rotational symmetry number. We have assumed 3 here
       if it is different for your molecule then you should correct
       the printed rotational entropy by manually evaluating the equation
       as given above

For convenience we print out the resulting values for sn=1 - 12:
 sn= 1  qrot/sn=  179095.0168 T*S(rot)=     8.06 kcal/mol T*S(tot)=    23.55 kcal/mol
 sn= 2  qrot/sn=   89547.5084 T*S(rot)=     7.64 kcal/mol T*S(tot)=    23.14 kcal/mol
 sn= 3  qrot/sn=   59698.3389 T*S(rot)=     7.40 kcal/mol T*S(tot)=    22.90 kcal/mol
 sn= 4  qrot/sn=   44773.7542 T*S(rot)=     7.23 kcal/mol T*S(tot)=    22.73 kcal/mol
 sn= 5  qrot/sn=   35819.0034 T*S(rot)=     7.10 kcal/mol T*S(tot)=    22.60 kcal/mol
 sn= 6  qrot/sn=   29849.1695 T*S(rot)=     6.99 kcal/mol T*S(tot)=    22.49 kcal/mol
 sn= 7  qrot/sn=   25585.0024 T*S(rot)=     6.90 kcal/mol T*S(tot)=    22.40 kcal/mol
 sn= 8  qrot/sn=   22386.8771 T*S(rot)=     6.82 kcal/mol T*S(tot)=    22.32 kcal/mol
 sn= 9  qrot/sn=   19899.4463 T*S(rot)=     6.75 kcal/mol T*S(tot)=    22.25 kcal/mol
 sn=10  qrot/sn=   17909.5017 T*S(rot)=     6.69 kcal/mol T*S(tot)=    22.19 kcal/mol
 sn=11  qrot/sn=   16281.3652 T*S(rot)=     6.63 kcal/mol T*S(tot)=    22.13 kcal/mol
 sn=12  qrot/sn=   14924.5847 T*S(rot)=     6.58 kcal/mol T*S(tot)=    22.08 kcal/mol

-------------------
GIBBS FREE ENTHALPY
-------------------

The Gibbs free enthalpy is G = H - T*S

Total enthalpy                    ...   -289.93421456 Eh
Total entropy correction          ...     -0.03649127 Eh    -22.90 kcal/mol
-----------------------------------------------------------------------
Final Gibbs free enthalpy         ...   -289.97070583 Eh

For completeness - the Gibbs free enthalpy minus the electronic energy
G-E(el)                           ...      0.14823040 Eh     93.02 kcal/mol

                             ****ORCA TERMINATED NORMALLY****
TOTAL RUN TIME: 0 days 0 hours 54 minutes 45 seconds 590 msec
