                         Program Version 3.0.3 - RELEASE   -
|  1> ! NORI PBE0 def2-TZVP UseSym TightOPT Freq TightSCF Grid3 FinalGrid5 XYZFile
|  2> % pal
|  3>     nprocs 8
|  4> end
|  5> %method
|  6>     SymThresh 5.0e-2
|  7> end
|  8> % geom
|  9>     MaxIter 10
| 10> end
| 11> % maxcore 2000
| 12> % output
| 13>     printlevel mini
| 14>     print[ P_Basis ] 0
| 15>     print[ P_SCFInfo ] 1
| 16>     print[ P_SCFIterInfo ] 1
| 17>     print[ P_OrbEn ] 0
| 18>     print[ P_Cartesian ] 0
| 19> end
| 20> % elprop
| 21>     Dipole false
| 22> end
| 23> *xyz 1 1
| 24>  C        1.3880104675     0.4994282789     0.4837108715
| 25>  C        2.7022446290    -0.0291115633     0.0117693786
| 26>  C        2.8926113962    -1.4976531359    -0.3171239414
| 27>  C        4.3655807044    -1.7201744815    -0.1402009129
| 28>  C        4.9945564551    -0.6304915712     0.2987826880
| 29>  C        4.0303651633     0.4880771507     0.4213750156
| 30>  N        3.4660000256     0.8699261425    -0.9244719298
| 31>  H        0.6049582421     0.3183151913    -0.2553762112
| 32>  H        1.4285151984     1.5681069875     0.7044936821
| 33>  H        1.1093252627    -0.0164818844     1.4038251703
| 34>  H        2.3108416128    -2.1023829144     0.3862804893
| 35>  H        2.5255897178    -1.7581948977    -1.3147189959
| 36>  H        4.8394649053    -2.6706742284    -0.3498650745
| 37>  H        6.0462721508    -0.5331255985     0.5295736848
| 38>  H        4.1675602338     1.3298702191     1.0889708576
| 39>  H        3.1028047152     1.8083714963    -1.0528560053
| 40>  H        3.9261491199     0.4682448089    -1.7359487669
| 41> *
| 42>
| 43>                          ****END OF INPUT****
 Total Charge           Charge          ....    1
 Multiplicity           Mult            ....    1
 Number of Electrons    NEL             ....   52
FINAL SINGLE POINT ENERGY      -288.885340703864

CARTESIAN COORDINATES (ANGSTROEM)
---------------------------------
  C      2.176224    0.000008    0.123191
  C      0.687236   -0.104421    0.091518
  C     -0.018800   -1.065728   -0.845557
  C     -1.380134   -0.461387   -1.025602
  C     -1.504880    0.705840   -0.394900
  C     -0.254977    1.013402    0.339581
  N      0.000217    0.000076    1.427793
  H      2.630617   -0.958811    0.380185
  H      2.521790    0.757706    0.829707
  H      2.531754    0.287219   -0.867787
  H      0.526603   -1.109272   -1.794184
  H     -0.040302   -2.090703   -0.462150
  H     -2.156099   -0.939489   -1.609696
  H     -2.371095    1.352640   -0.385608
  H      0.058467    2.016934    0.599178
  H      0.578230    0.267102    2.217730
  H     -0.766324   -0.630052    1.644755

FINAL SINGLE POINT ENERGY      -288.885341336499
                    ***********************HURRAY********************
 Multiplicity           Mult            ....    1
 Number of Electrons    NEL             ....   52
 Basis Dimension        Dim             ....  277
FINAL SINGLE POINT ENERGY      -288.885341538673

VIBRATIONAL FREQUENCIES
-----------------------

   0:         0.00 cm**-1
   1:         0.00 cm**-1
   2:         0.00 cm**-1
   3:         0.00 cm**-1
   4:         0.00 cm**-1
   5:         0.00 cm**-1
   6:       204.93 cm**-1
   7:       230.84 cm**-1
   8:       297.98 cm**-1
   9:       360.97 cm**-1
  10:       406.53 cm**-1
  11:       504.60 cm**-1
  12:       584.66 cm**-1
  13:       691.10 cm**-1
  14:       748.93 cm**-1
  15:       789.37 cm**-1
  16:       832.37 cm**-1
  17:       874.37 cm**-1
  18:       906.35 cm**-1
  19:       935.51 cm**-1
  20:       971.95 cm**-1
  21:       976.47 cm**-1
  22:       994.57 cm**-1
  23:      1007.96 cm**-1
  24:      1015.32 cm**-1
  25:      1076.53 cm**-1
  26:      1079.79 cm**-1
  27:      1117.81 cm**-1
  28:      1165.08 cm**-1
  29:      1203.73 cm**-1
  30:      1275.42 cm**-1
  31:      1284.46 cm**-1
  32:      1339.72 cm**-1
  33:      1380.51 cm**-1
  34:      1414.93 cm**-1
  35:      1439.29 cm**-1
  36:      1457.32 cm**-1
  37:      1475.68 cm**-1
  38:      1489.50 cm**-1
  39:      1601.42 cm**-1
  40:      1672.53 cm**-1
  41:      3062.84 cm**-1
  42:      3065.86 cm**-1
  43:      3101.41 cm**-1
  44:      3143.62 cm**-1
  45:      3150.06 cm**-1
  46:      3221.63 cm**-1
  47:      3232.54 cm**-1
  48:      3254.88 cm**-1
  49:      3487.87 cm**-1
  50:      3607.48 cm**-1

IR SPECTRUM
-----------

 Mode    freq (cm**-1)   T**2         TX         TY         TZ
-------------------------------------------------------------------
   6:       204.93    0.155109  (  0.186533  -0.161881  -0.306772)
   7:       230.84    0.868547  ( -0.067433  -0.744847   0.556060)
   8:       297.98    1.009586  ( -0.383858  -0.151861  -0.916066)
   9:       360.97    1.128788  (  1.043346   0.199893   0.016104)
  10:       406.53    2.949574  ( -0.521247   1.539932  -0.553610)
  11:       504.60    1.943649  ( -1.039262  -0.146938   0.917602)
  12:       584.66    1.673249  ( -0.138503   1.194107   0.477675)
  13:       691.10    5.635250  ( -2.236802  -0.732850   0.308057)
  14:       748.93   31.685229  (  2.304603   3.028478  -4.147572)
  15:       789.37   26.264480  ( -0.519736  -1.355090   4.915087)
  16:       832.37   11.369634  (  0.308246   1.243531  -3.119014)
  17:       874.37   18.052002  ( -0.440261   1.523247   3.941813)
  18:       906.35    4.425049  ( -1.988722  -0.418164   0.543297)
  19:       935.51   15.003494  ( -0.816440   3.440503  -1.581095)
  20:       971.95    7.033121  ( -2.336047   1.091796  -0.619668)
  21:       976.47    9.196859  (  0.774765  -1.689050  -2.396604)
  22:       994.57   56.959266  (  4.149951  -5.786305  -2.501168)
  23:      1007.96   12.427128  ( -1.969103   2.913411   0.248598)
  24:      1015.32    1.096491  ( -0.454090   0.540467  -0.773426)
  25:      1076.53    6.642044  ( -1.610752   0.134399   2.007351)
  26:      1079.79    7.213026  ( -2.330193  -0.842320  -1.036206)
  27:      1117.81    1.763452  (  0.028597  -1.020506   0.849236)
  28:      1165.08    1.353153  ( -0.835622  -0.807214   0.057399)
  29:      1203.73    6.666091  (  0.330996   1.631540  -1.973476)
  30:      1275.42    0.367697  ( -0.192719  -0.546598  -0.178289)
  31:      1284.46    1.347073  (  1.148418   0.131605   0.104354)
  32:      1339.72   17.069283  ( -1.610900  -2.349554  -2.992304)
  33:      1380.51   11.225349  ( -0.888191  -2.578255  -1.946552)
  34:      1414.93    7.112410  ( -0.178008   2.570318   0.688615)
  35:      1439.29   26.812537  (  4.423895  -1.998321  -1.802334)
  36:      1457.32    4.733228  ( -0.992479  -1.735581  -0.857889)
  37:      1475.68   10.177052  (  0.122211   2.253897  -2.254344)
  38:      1489.50   14.570463  ( -0.279711  -3.099954  -2.209640)
  39:      1601.42   84.454518  (  2.259679   2.574259  -8.527694)
  40:      1672.53    5.218412  (  0.364700   2.234948   0.300685)
  41:      3062.84    0.608650  (  0.054062   0.309069   0.714286)
  42:      3065.86    1.109313  (  0.571467  -0.094516   0.879661)
  43:      3101.41    0.123361  ( -0.105438   0.111482   0.315936)
  44:      3143.62    1.860938  (  0.188906   1.154658   0.701439)
  45:      3150.06    0.623241  ( -0.774321   0.147846  -0.042546)
  46:      3221.63    0.846645  (  0.123149  -0.845594   0.341247)
  47:      3232.54    2.894564  (  0.091934   1.498144   0.801048)
  48:      3254.88    3.003559  ( -1.450017   0.940195  -0.130549)
  49:      3487.87   76.136329  (  2.221433   2.248759  -8.132936)
  50:      3607.48   93.679764  ( -7.272356  -4.816777  -4.194194)

--------------------------
THERMOCHEMISTRY AT 298.15K
--------------------------

Temperature         ... 298.15 K
Pressure            ... 1.00 atm
Total Mass          ... 96.15 AMU

Throughout the following assumptions are being made:
  (1) The electronic state is orbitally nondegenerate
  (2) There are no thermally accessible electronically excited states
  (3) Hindered rotations indicated by low frequency modes) are not
      treated as such but are treated as vibrations and this may
      case some error
  (4) All equations used are the standard statistical mechanics
      equations for an ideal gas
  (5) All vibrations are strinctly harmonic

------------
INNER ENERGY
------------

The inner energy is: U= E(el) + E(ZPE) + E(vib) + E(rot) + E(trans)
    E(el)   - is the total energy from the electronic structure calculation
              = E(kin-el) + E(nuc-el) + E(el-el) + E(nuc-nuc)
    E(ZPE)  - the the zero temperature vibrational energy from the frequency calculation
    E(vib)  - the the finite temperature correction to E(ZPE) due to population
              of excietd vibrational states
    E(rot)  - is the rotational thermal energy
    E(trans)- is the translational thermal energy

Summary of contributions to the inner energy U:
Electronic energy                ...   -288.88534154 Eh
Zero point energy                ...      0.15294868 Eh      95.98 kcal/mol
Thermal vibrational correction   ...      0.00343290 Eh       2.15 kcal/mol
Thermal rotational correction    ...      0.00141627 Eh       0.89 kcal/mol
Thermal translational correction ...      0.00141627 Eh       0.89 kcal/mol
-----------------------------------------------------------------------
Total thermal energy                   -288.72612742 Eh

Summary of corrections to the electronic energy:
(perhaps to be used in another calculation)
Total thermal correction                  0.00626544 Eh       3.93 kcal/mol
Non-thermal (ZPE) correction              0.15294868 Eh      95.98 kcal/mol
-----------------------------------------------------------------------
Total correction                          0.15921412 Eh      99.91 kcal/mol

--------
ENTHALPY
--------

The enthalpy is H = U + kB*T
                kB is Boltzmann's constant
Total free energy                 ...   -288.72612742 Eh
Thermal Enthalpy correction       ...      0.00094421 Eh       0.59 kcal/mol
-----------------------------------------------------------------------
Total Enthalpy                    ...   -288.72518321 Eh

-------
ENTROPY
-------

The entropy contributions are T*S = T*(S(el)+S(vib)+S(rot)+S(trans)
     S(el)   - electronic entropy
     S(vib)  - vibrational entropy
     S(rot)  - rotational entropy
     S(trans)- translational entropy
The entropies will be listed as mutliplied by the temperature to get
units of energy

Electronic entropy                ...      0.00000000 Eh      0.00 kcal/mol
Vibrational entropy               ...      0.00517974 Eh      3.25 kcal/mol
Rotational entropy                ...      0.01171940 Eh      7.35 kcal/mol
Translational entropy             ...      0.01881568 Eh     11.81 kcal/mol
-----------------------------------------------------------------------
Final entropy term                ...      0.03571483 Eh     22.41 kcal/mol

CAUTION: The rotational entropy is not quite correctly treated here
         because it includes a symmetry number that is not yet correctly
         implemented in ORCA!
For a nonlinear molecule the correct rotational entropy is:
    S(rot) = R*(ln(qrot/sn)+1.5)
    R    = 8.31441 J/mol/K = 1.987191683e-3 kcal/mol/K
    qrot = 164531.3972530
    sn is the rotational symmetry number. We have assumed 3 here
       if it is different for your molecule then you should correct
       the printed rotational entropy by manually evaluating the equation
       as given above

For convenience we print out the resulting values for sn=1 - 12:
 sn= 1  qrot/sn=  164531.3973 T*S(rot)=     8.00 kcal/mol T*S(tot)=    23.06 kcal/mol
 sn= 2  qrot/sn=   82265.6986 T*S(rot)=     7.59 kcal/mol T*S(tot)=    22.65 kcal/mol
 sn= 3  qrot/sn=   54843.7991 T*S(rot)=     7.35 kcal/mol T*S(tot)=    22.41 kcal/mol
 sn= 4  qrot/sn=   41132.8493 T*S(rot)=     7.18 kcal/mol T*S(tot)=    22.24 kcal/mol
 sn= 5  qrot/sn=   32906.2795 T*S(rot)=     7.05 kcal/mol T*S(tot)=    22.11 kcal/mol
 sn= 6  qrot/sn=   27421.8995 T*S(rot)=     6.94 kcal/mol T*S(tot)=    22.00 kcal/mol
 sn= 7  qrot/sn=   23504.4853 T*S(rot)=     6.85 kcal/mol T*S(tot)=    21.91 kcal/mol
 sn= 8  qrot/sn=   20566.4247 T*S(rot)=     6.77 kcal/mol T*S(tot)=    21.83 kcal/mol
 sn= 9  qrot/sn=   18281.2664 T*S(rot)=     6.70 kcal/mol T*S(tot)=    21.76 kcal/mol
 sn=10  qrot/sn=   16453.1397 T*S(rot)=     6.64 kcal/mol T*S(tot)=    21.70 kcal/mol
 sn=11  qrot/sn=   14957.3998 T*S(rot)=     6.58 kcal/mol T*S(tot)=    21.64 kcal/mol
 sn=12  qrot/sn=   13710.9498 T*S(rot)=     6.53 kcal/mol T*S(tot)=    21.59 kcal/mol

-------------------
GIBBS FREE ENTHALPY
-------------------

The Gibbs free enthalpy is G = H - T*S

Total enthalpy                    ...   -288.72518321 Eh
Total entropy correction          ...     -0.03571483 Eh    -22.41 kcal/mol
-----------------------------------------------------------------------
Final Gibbs free enthalpy         ...   -288.76089803 Eh

For completeness - the Gibbs free enthalpy minus the electronic energy
G-E(el)                           ...      0.12444351 Eh     78.09 kcal/mol

                             ****ORCA TERMINATED NORMALLY****
TOTAL RUN TIME: 0 days 0 hours 48 minutes 10 seconds 280 msec
