                         Program Version 3.0.3 - RELEASE   -
|  1> ! NORI PBE0 def2-TZVP UseSym TightOPT Freq TightSCF Grid3 FinalGrid5 XYZFile
|  2> % pal
|  3>     nprocs 8
|  4> end
|  5> %method
|  6>     SymThresh 5.0e-2
|  7> end
|  8> % geom
|  9>     MaxIter 10
| 10> end
| 11> % maxcore 2000
| 12> % output
| 13>     printlevel mini
| 14>     print[ P_Basis ] 0
| 15>     print[ P_SCFInfo ] 1
| 16>     print[ P_SCFIterInfo ] 1
| 17>     print[ P_OrbEn ] 0
| 18>     print[ P_Cartesian ] 0
| 19> end
| 20> % elprop
| 21>     Dipole false
| 22> end
| 23> *xyz 1 1
| 24>  C        1.1014716559    -0.1090248801    -0.1041186730
| 25>  C        2.5723975624     0.1282677082    -0.1691836812
| 26>  C        3.5045893636    -0.4606457739    -1.2504729733
| 27>  C        4.5696543882    -0.2953282240    -0.1592662645
| 28>  C        4.6539388869     1.2102772222     0.0388093260
| 29>  C        3.1384181191     1.5323292219     0.0375717506
| 30>  N        3.4691101514    -0.6484347574     0.8370854632
| 31>  H        0.6227543640     0.4403359564    -0.9179602852
| 32>  H        0.6774644492     0.2585662308     0.8332870655
| 33>  H        0.8465995686    -1.1639386111    -0.2226577324
| 34>  H        3.6335126293     0.1186823742    -2.1616825993
| 35>  H        3.2810360852    -1.5021293242    -1.4862742228
| 36>  H        5.4689346282    -0.9028737906    -0.0991377673
| 37>  H        5.1978661385     1.6738881274    -0.7832413620
| 38>  H        5.1566047838     1.4852690540     0.9672689902
| 39>  H        2.7884892222     1.9836875143     0.9682176642
| 40>  H        2.8344926492     2.1848304044    -0.7805983945
| 41>  H        3.2542162221    -1.6444017964     0.8530996598
| 42>  H        3.5497091321    -0.2899866563     1.7891640359
| 43> *
| 44>
| 45>                          ****END OF INPUT****
 Total Charge           Charge          ....    1
 Multiplicity           Mult            ....    1
 Number of Electrons    NEL             ....   54
FINAL SINGLE POINT ENERGY      -290.112527521138
FINAL SINGLE POINT ENERGY      -290.112528698080

CARTESIAN COORDINATES (ANGSTROEM)
---------------------------------
  C      2.180526   -0.000263   -0.166047
  C      0.689671    0.020885   -0.136657
  C     -0.170304    1.277007   -0.396127
  C     -1.193630    0.528982    0.467353
  C     -1.542291   -0.696433   -0.364207
  C     -0.113120   -1.085307   -0.820146
  N     -0.000317    0.000595    1.257609
  H      2.510617    0.103546   -1.202167
  H      2.574899   -0.946510    0.211101
  H      2.616554    0.822611    0.403634
  H     -0.447479    1.482908   -1.427333
  H      0.229370    2.173922    0.080656
  H     -1.962386    1.024282    1.054531
  H     -2.202401   -0.424677   -1.186821
  H     -2.039701   -1.473096    0.218905
  H      0.192944   -2.080039   -0.490650
  H      0.025152   -1.037508   -1.899772
  H      0.393806    0.694813    1.891056
  H     -0.099566   -0.895637    1.735188

FINAL SINGLE POINT ENERGY      -290.112529238151
                    ***********************HURRAY********************
 Multiplicity           Mult            ....    1
 Number of Electrons    NEL             ....   54
 Basis Dimension        Dim             ....  289
FINAL SINGLE POINT ENERGY      -290.112529457982

VIBRATIONAL FREQUENCIES
-----------------------

   0:         0.00 cm**-1
   1:         0.00 cm**-1
   2:         0.00 cm**-1
   3:         0.00 cm**-1
   4:         0.00 cm**-1
   5:         0.00 cm**-1
   6:       217.63 cm**-1
   7:       256.29 cm**-1
   8:       297.61 cm**-1
   9:       356.24 cm**-1
  10:       440.83 cm**-1
  11:       500.53 cm**-1
  12:       593.38 cm**-1
  13:       645.66 cm**-1
  14:       770.42 cm**-1
  15:       821.59 cm**-1
  16:       830.30 cm**-1
  17:       868.01 cm**-1
  18:       915.49 cm**-1
  19:       938.02 cm**-1
  20:       956.85 cm**-1
  21:       963.71 cm**-1
  22:       978.69 cm**-1
  23:      1008.19 cm**-1
  24:      1042.93 cm**-1
  25:      1069.75 cm**-1
  26:      1111.85 cm**-1
  27:      1130.44 cm**-1
  28:      1157.64 cm**-1
  29:      1183.99 cm**-1
  30:      1225.19 cm**-1
  31:      1242.03 cm**-1
  32:      1263.34 cm**-1
  33:      1280.27 cm**-1
  34:      1301.52 cm**-1
  35:      1323.39 cm**-1
  36:      1337.27 cm**-1
  37:      1382.53 cm**-1
  38:      1427.23 cm**-1
  39:      1477.48 cm**-1
  40:      1479.73 cm**-1
  41:      1488.49 cm**-1
  42:      1492.73 cm**-1
  43:      1512.27 cm**-1
  44:      1643.79 cm**-1
  45:      3060.28 cm**-1
  46:      3094.43 cm**-1
  47:      3101.30 cm**-1
  48:      3103.12 cm**-1
  49:      3140.47 cm**-1
  50:      3143.09 cm**-1
  51:      3148.26 cm**-1
  52:      3161.32 cm**-1
  53:      3180.12 cm**-1
  54:      3183.00 cm**-1
  55:      3451.63 cm**-1
  56:      3541.09 cm**-1

IR SPECTRUM
-----------

 Mode    freq (cm**-1)   T**2         TX         TY         TZ
-------------------------------------------------------------------
   6:       217.63    0.237396  ( -0.094536   0.460652  -0.127508)
   7:       256.29    0.149703  ( -0.098244  -0.374234   0.000038)
   8:       297.61    0.650862  (  0.506360  -0.567688  -0.268686)
   9:       356.24    0.992048  (  0.991627  -0.071755   0.059789)
  10:       440.83    1.958871  (  0.380487   0.958810   0.945931)
  11:       500.53    2.891723  (  0.520347   1.604272  -0.217422)
  12:       593.38    0.868104  (  0.566373  -0.528793  -0.517401)
  13:       645.66    4.307436  (  1.854256  -0.094805  -0.927461)
  14:       770.42    4.377620  (  1.308513  -0.539979  -1.540726)
  15:       821.59    0.459169  ( -0.373943  -0.149225   0.545039)
  16:       830.30    5.274587  ( -1.801758  -0.080715  -1.421880)
  17:       868.01    2.120534  ( -0.124749   0.717823  -1.260834)
  18:       915.49    1.301529  ( -0.862645   0.702129   0.253748)
  19:       938.02    0.242181  (  0.363092   0.298305  -0.146147)
  20:       956.85    0.796215  ( -0.507654  -0.377075  -0.629537)
  21:       963.71    3.712319  ( -0.358271  -1.865462   0.322506)
  22:       978.69    2.728409  (  0.281615   0.724886  -1.457272)
  23:      1008.19    0.513910  (  0.695410  -0.002829   0.174090)
  24:      1042.93    6.929446  ( -1.434060  -0.159037   2.201732)
  25:      1069.75    3.004517  ( -0.115583   0.037125   1.729098)
  26:      1111.85    3.052514  ( -0.456031   1.640295   0.392406)
  27:      1130.44   10.078033  (  1.977566  -1.426219  -2.033019)
  28:      1157.64   21.000382  (  4.083289   0.458544  -2.029008)
  29:      1183.99   13.613744  ( -3.618440  -0.115442  -0.712259)
  30:      1225.19    5.344231  (  1.554289  -1.642446  -0.480403)
  31:      1242.03   28.664512  (  4.648460  -1.344191  -2.291176)
  32:      1263.34   17.099148  (  3.026885  -2.374050  -1.516904)
  33:      1280.27   15.789653  ( -2.527635   2.510818   1.759690)
  34:      1301.52    3.834014  (  1.552003   0.296392  -1.156482)
  35:      1323.39    3.919439  (  1.364026   1.042507   0.985926)
  36:      1337.27    5.436500  ( -2.084744   0.802625   0.667936)
  37:      1382.53   24.931881  (  4.877698  -0.020982  -1.067477)
  38:      1427.23   33.230209  (  5.644916   0.188612  -1.153067)
  39:      1477.48    5.602906  (  0.703099   2.106313   0.819759)
  40:      1479.73    9.049497  (  0.262441  -1.606017   2.530085)
  41:      1488.49    4.929555  ( -1.286558   1.587813   0.867856)
  42:      1492.73   18.493871  (  0.697500   4.241063  -0.144036)
  43:      1512.27   15.294209  (  1.951249   0.247725   3.380158)
  44:      1643.79   61.308187  (  1.618626  -0.955991   7.600942)
  45:      3060.28    1.153513  ( -0.293048  -0.052771  -1.031916)
  46:      3094.43    5.136677  ( -1.862413   1.238206   0.367342)
  47:      3101.30    5.285280  (  1.265751   1.917359   0.082986)
  48:      3103.12    1.368849  (  0.193852   0.733795  -0.890402)
  49:      3140.47    1.229154  (  0.873351  -0.668832   0.138117)
  50:      3143.09    3.369361  (  0.813462   1.564521   0.509819)
  51:      3148.26    0.114061  (  0.021214  -0.299182   0.155245)
  52:      3161.32    1.651869  ( -0.190383  -1.195364   0.432119)
  53:      3180.12    1.952338  ( -1.114781   0.544298   0.642916)
  54:      3183.00    0.759786  (  0.319906   0.410716   0.699113)
  55:      3451.63   44.150678  (  0.816502  -1.497768   6.421892)
  56:      3541.09   52.471924  (  2.386769   6.482313   2.180568)

--------------------------
THERMOCHEMISTRY AT 298.15K
--------------------------

Temperature         ... 298.15 K
Pressure            ... 1.00 atm
Total Mass          ... 98.17 AMU

Throughout the following assumptions are being made:
  (1) The electronic state is orbitally nondegenerate
  (2) There are no thermally accessible electronically excited states
  (3) Hindered rotations indicated by low frequency modes) are not
      treated as such but are treated as vibrations and this may
      case some error
  (4) All equations used are the standard statistical mechanics
      equations for an ideal gas
  (5) All vibrations are strinctly harmonic

------------
INNER ENERGY
------------

The inner energy is: U= E(el) + E(ZPE) + E(vib) + E(rot) + E(trans)
    E(el)   - is the total energy from the electronic structure calculation
              = E(kin-el) + E(nuc-el) + E(el-el) + E(nuc-nuc)
    E(ZPE)  - the the zero temperature vibrational energy from the frequency calculation
    E(vib)  - the the finite temperature correction to E(ZPE) due to population
              of excietd vibrational states
    E(rot)  - is the rotational thermal energy
    E(trans)- is the translational thermal energy

Summary of contributions to the inner energy U:
Electronic energy                ...   -290.11252946 Eh
Zero point energy                ...      0.17824703 Eh     111.85 kcal/mol
Thermal vibrational correction   ...      0.00340591 Eh       2.14 kcal/mol
Thermal rotational correction    ...      0.00141627 Eh       0.89 kcal/mol
Thermal translational correction ...      0.00141627 Eh       0.89 kcal/mol
-----------------------------------------------------------------------
Total thermal energy                   -289.92804397 Eh

Summary of corrections to the electronic energy:
(perhaps to be used in another calculation)
Total thermal correction                  0.00623845 Eh       3.91 kcal/mol
Non-thermal (ZPE) correction              0.17824703 Eh     111.85 kcal/mol
-----------------------------------------------------------------------
Total correction                          0.18448549 Eh     115.77 kcal/mol

--------
ENTHALPY
--------

The enthalpy is H = U + kB*T
                kB is Boltzmann's constant
Total free energy                 ...   -289.92804397 Eh
Thermal Enthalpy correction       ...      0.00094421 Eh       0.59 kcal/mol
-----------------------------------------------------------------------
Total Enthalpy                    ...   -289.92709976 Eh

-------
ENTROPY
-------

The entropy contributions are T*S = T*(S(el)+S(vib)+S(rot)+S(trans)
     S(el)   - electronic entropy
     S(vib)  - vibrational entropy
     S(rot)  - rotational entropy
     S(trans)- translational entropy
The entropies will be listed as mutliplied by the temperature to get
units of energy

Electronic entropy                ...      0.00000000 Eh      0.00 kcal/mol
Vibrational entropy               ...      0.00506123 Eh      3.18 kcal/mol
Rotational entropy                ...      0.01171429 Eh      7.35 kcal/mol
Translational entropy             ...      0.01884507 Eh     11.83 kcal/mol
-----------------------------------------------------------------------
Final entropy term                ...      0.03562059 Eh     22.35 kcal/mol

CAUTION: The rotational entropy is not quite correctly treated here
         because it includes a symmetry number that is not yet correctly
         implemented in ORCA!
For a nonlinear molecule the correct rotational entropy is:
    S(rot) = R*(ln(qrot/sn)+1.5)
    R    = 8.31441 J/mol/K = 1.987191683e-3 kcal/mol/K
    qrot = 163642.8591555
    sn is the rotational symmetry number. We have assumed 3 here
       if it is different for your molecule then you should correct
       the printed rotational entropy by manually evaluating the equation
       as given above

For convenience we print out the resulting values for sn=1 - 12:
 sn= 1  qrot/sn=  163642.8592 T*S(rot)=     8.00 kcal/mol T*S(tot)=    23.00 kcal/mol
 sn= 2  qrot/sn=   81821.4296 T*S(rot)=     7.59 kcal/mol T*S(tot)=    22.59 kcal/mol
 sn= 3  qrot/sn=   54547.6197 T*S(rot)=     7.35 kcal/mol T*S(tot)=    22.35 kcal/mol
 sn= 4  qrot/sn=   40910.7148 T*S(rot)=     7.18 kcal/mol T*S(tot)=    22.18 kcal/mol
 sn= 5  qrot/sn=   32728.5718 T*S(rot)=     7.05 kcal/mol T*S(tot)=    22.05 kcal/mol
 sn= 6  qrot/sn=   27273.8099 T*S(rot)=     6.94 kcal/mol T*S(tot)=    21.94 kcal/mol
 sn= 7  qrot/sn=   23377.5513 T*S(rot)=     6.85 kcal/mol T*S(tot)=    21.85 kcal/mol
 sn= 8  qrot/sn=   20455.3574 T*S(rot)=     6.77 kcal/mol T*S(tot)=    21.77 kcal/mol
 sn= 9  qrot/sn=   18182.5399 T*S(rot)=     6.70 kcal/mol T*S(tot)=    21.70 kcal/mol
 sn=10  qrot/sn=   16364.2859 T*S(rot)=     6.64 kcal/mol T*S(tot)=    21.64 kcal/mol
 sn=11  qrot/sn=   14876.6236 T*S(rot)=     6.58 kcal/mol T*S(tot)=    21.58 kcal/mol
 sn=12  qrot/sn=   13636.9049 T*S(rot)=     6.53 kcal/mol T*S(tot)=    21.53 kcal/mol

-------------------
GIBBS FREE ENTHALPY
-------------------

The Gibbs free enthalpy is G = H - T*S

Total enthalpy                    ...   -289.92709976 Eh
Total entropy correction          ...     -0.03562059 Eh    -22.35 kcal/mol
-----------------------------------------------------------------------
Final Gibbs free enthalpy         ...   -289.96272035 Eh

For completeness - the Gibbs free enthalpy minus the electronic energy
G-E(el)                           ...      0.14980910 Eh     94.01 kcal/mol

                             ****ORCA TERMINATED NORMALLY****
TOTAL RUN TIME: 0 days 0 hours 56 minutes 4 seconds 608 msec
