                         Program Version 3.0.3 - RELEASE   -
|  1> ! NORI PBE0 def2-TZVP UseSym TightOPT Freq TightSCF Grid3 FinalGrid5 XYZFile
|  2> % pal
|  3>     nprocs 8
|  4> end
|  5> %method
|  6>     SymThresh 5.0e-2
|  7> end
|  8> % geom
|  9>     MaxIter 10
| 10> end
| 11> % maxcore 2000
| 12> % output
| 13>     printlevel mini
| 14>     print[ P_Basis ] 0
| 15>     print[ P_SCFInfo ] 1
| 16>     print[ P_SCFIterInfo ] 1
| 17>     print[ P_OrbEn ] 0
| 18>     print[ P_Cartesian ] 0
| 19> end
| 20> % elprop
| 21>     Dipole false
| 22> end
| 23> *xyz 1 1
| 24>  C        1.4500006530    -0.2126492818    -0.3467918419
| 25>  C        2.8257219330     0.0661383696     0.1677208602
| 26>  C        3.6753125301    -1.0246564811     0.6821410478
| 27>  N        3.9972699692    -0.4449932806    -0.6393416067
| 28>  C        5.0578879087     0.5919514789    -0.7433999954
| 29>  C        4.3398236441     1.8883891726    -0.3875809334
| 30>  C        3.2144913971     1.4810164918     0.5727607717
| 31>  H        1.1760497519     0.4914830599    -1.1346296188
| 32>  H        0.7382151056    -0.0906437510     0.4724869480
| 33>  H        1.3474981408    -1.2320469361    -0.7239217234
| 34>  H        4.4197570516    -0.8170585354     1.4414316567
| 35>  H        3.3122815235    -2.0449876590     0.6442114600
| 36>  H        3.8160355469    -1.0262421860    -1.4498076985
| 37>  H        5.4567445042     0.5738021988    -1.7565468648
| 38>  H        5.8599866424     0.3360969940    -0.0505742819
| 39>  H        3.9172841272     2.3323587686    -1.2912196592
| 40>  H        5.0193317790     2.6195940014     0.0491821733
| 41>  H        2.3568238800     2.1483808716     0.4937662730
| 42>  H        3.5484539116     1.4976467040     1.6118530332
| 43> *
| 44>
| 45>                          ****END OF INPUT****
 Total Charge           Charge          ....    1
 Multiplicity           Mult            ....    1
 Number of Electrons    NEL             ....   54
FINAL SINGLE POINT ENERGY      -290.109387068013

CARTESIAN COORDINATES (ANGSTROEM)
---------------------------------
  C      2.091816    0.000194   -0.446492
  C      0.648695   -0.346626   -0.266627
  C      0.238370   -1.408229    0.671976
  N      0.000237    0.000073    1.053979
  C     -1.344494    0.597399    0.839574
  C     -1.324043    1.032991   -0.620844
  C     -0.369115    0.058782   -1.323551
  H      2.213153    1.055664   -0.697827
  H      2.493075   -0.588576   -1.274174
  H      2.686409   -0.229001    0.440125
  H     -0.670456   -1.969081    0.489427
  H      0.990316   -1.910338    1.269579
  H      0.577100    0.375482    1.798197
  H     -1.470636    1.419741    1.542280
  H     -2.097302   -0.161317    1.055429
  H     -0.937684    2.051759   -0.693334
  H     -2.322295    1.029879   -1.057247
  H      0.129496    0.526085   -2.172053
  H     -0.896477   -0.821058   -1.697214

FINAL SINGLE POINT ENERGY      -290.109387930471
                    ***********************HURRAY********************
 Multiplicity           Mult            ....    1
 Number of Electrons    NEL             ....   54
 Basis Dimension        Dim             ....  289
FINAL SINGLE POINT ENERGY      -290.109388579352

VIBRATIONAL FREQUENCIES
-----------------------

   0:         0.00 cm**-1
   1:         0.00 cm**-1
   2:         0.00 cm**-1
   3:         0.00 cm**-1
   4:         0.00 cm**-1
   5:         0.00 cm**-1
   6:       124.88 cm**-1
   7:       212.42 cm**-1
   8:       235.50 cm**-1
   9:       337.76 cm**-1
  10:       390.27 cm**-1
  11:       440.43 cm**-1
  12:       576.65 cm**-1
  13:       609.11 cm**-1
  14:       729.11 cm**-1
  15:       782.66 cm**-1
  16:       824.05 cm**-1
  17:       872.39 cm**-1
  18:       888.51 cm**-1
  19:       937.78 cm**-1
  20:       943.32 cm**-1
  21:       963.93 cm**-1
  22:       988.80 cm**-1
  23:      1048.03 cm**-1
  24:      1057.93 cm**-1
  25:      1084.35 cm**-1
  26:      1096.30 cm**-1
  27:      1126.47 cm**-1
  28:      1176.91 cm**-1
  29:      1217.91 cm**-1
  30:      1234.79 cm**-1
  31:      1282.81 cm**-1
  32:      1303.55 cm**-1
  33:      1342.03 cm**-1
  34:      1352.88 cm**-1
  35:      1364.84 cm**-1
  36:      1368.71 cm**-1
  37:      1421.26 cm**-1
  38:      1440.81 cm**-1
  39:      1475.28 cm**-1
  40:      1482.31 cm**-1
  41:      1488.67 cm**-1
  42:      1497.01 cm**-1
  43:      1500.51 cm**-1
  44:      1518.56 cm**-1
  45:      3060.91 cm**-1
  46:      3089.21 cm**-1
  47:      3093.88 cm**-1
  48:      3105.45 cm**-1
  49:      3142.37 cm**-1
  50:      3145.17 cm**-1
  51:      3147.04 cm**-1
  52:      3155.06 cm**-1
  53:      3156.37 cm**-1
  54:      3168.35 cm**-1
  55:      3256.31 cm**-1
  56:      3562.32 cm**-1

IR SPECTRUM
-----------

 Mode    freq (cm**-1)   T**2         TX         TY         TZ
-------------------------------------------------------------------
   6:       124.88    0.071765  ( -0.211449  -0.053806  -0.155433)
   7:       212.42    0.037697  ( -0.142124   0.032973   0.128102)
   8:       235.50    0.227219  (  0.182415  -0.440034  -0.017719)
   9:       337.76    0.872039  ( -0.351010  -0.583019   0.639468)
  10:       390.27    0.470357  (  0.008631   0.674965   0.121264)
  11:       440.43    0.339225  ( -0.186902  -0.383608  -0.396406)
  12:       576.65    1.630002  ( -0.964423  -0.378583   0.746032)
  13:       609.11    0.940457  ( -0.031949  -0.858408  -0.450080)
  14:       729.11    2.504780  ( -1.158432   0.133452   1.070049)
  15:       782.66    9.955485  (  0.859362  -1.425492  -2.680476)
  16:       824.05    2.126647  ( -0.012241  -0.479478   1.377170)
  17:       872.39    1.898779  (  0.427456  -1.309047   0.049563)
  18:       888.51    2.550993  ( -0.384717   0.671609  -1.397114)
  19:       937.78    8.282310  (  1.489134   0.604988  -2.387211)
  20:       943.32    9.929764  ( -0.674131  -2.198632   2.154374)
  21:       963.93    2.382653  ( -0.741332  -1.287339  -0.419332)
  22:       988.80   22.232944  ( -3.653565  -1.032238   2.796228)
  23:      1048.03    3.219357  (  0.730910   0.022303  -1.638484)
  24:      1057.93   12.313367  ( -1.757096   2.954925  -0.703133)
  25:      1084.35    4.154398  ( -1.924610  -0.321582   0.588948)
  26:      1096.30   12.318457  (  2.240305  -1.953266  -1.866613)
  27:      1126.47    8.264641  ( -1.393754   2.321624  -0.965481)
  28:      1176.91    2.838285  (  0.684754  -1.019918  -1.152894)
  29:      1217.91    6.906456  (  0.094308  -0.255548   2.613859)
  30:      1234.79    0.530506  (  0.231348  -0.467596   0.508270)
  31:      1282.81    1.640296  ( -0.659035  -1.019699   0.407656)
  32:      1303.55    4.334939  ( -0.008102   1.434373   1.509121)
  33:      1342.03    3.990783  ( -1.780236   0.839565  -0.341573)
  34:      1352.88    3.655401  ( -0.528749   1.801311  -0.362083)
  35:      1364.84    0.922109  ( -0.258833   0.591960   0.710421)
  36:      1368.71    3.693920  (  1.626255  -0.550353  -0.863901)
  37:      1421.26    7.020366  (  1.341902   2.225008   0.518658)
  38:      1440.81   39.104056  ( -4.950992   3.236816   2.028487)
  39:      1475.28    9.030335  (  0.284395   2.895003   0.753930)
  40:      1482.31    9.474484  ( -0.474324   0.721450   2.954490)
  41:      1488.67   17.161558  ( -0.782599   2.690503  -3.051277)
  42:      1497.01    4.457222  ( -0.116417   0.869293   1.920416)
  43:      1500.51    9.846027  ( -1.256216  -1.441019   2.488255)
  44:      1518.56   14.469721  ( -3.371746  -1.245680   1.244720)
  45:      3060.91    1.232834  ( -0.467519  -0.433028  -0.909256)
  46:      3089.21    1.897817  ( -0.260801   1.190541  -0.642194)
  47:      3093.88    5.077059  ( -0.100727   1.978246   1.073991)
  48:      3105.45    3.412116  ( -1.140191  -0.700016   1.273600)
  49:      3142.37    1.583270  (  1.098385  -0.084116   0.608066)
  50:      3145.17    1.715741  ( -0.250345   0.822509  -0.988204)
  51:      3147.04    1.160358  (  0.290117  -0.702172   0.763639)
  52:      3155.06    1.124054  ( -0.803410  -0.628434   0.289234)
  53:      3156.37    0.433947  (  0.165064   0.619350  -0.152009)
  54:      3168.35    0.676077  (  0.613518   0.541057   0.083247)
  55:      3256.31    1.576419  ( -1.122204  -0.103763  -0.553453)
  56:      3562.32   84.727304  (  3.970360   3.619483   7.474148)

--------------------------
THERMOCHEMISTRY AT 298.15K
--------------------------

Temperature         ... 298.15 K
Pressure            ... 1.00 atm
Total Mass          ... 98.17 AMU

Throughout the following assumptions are being made:
  (1) The electronic state is orbitally nondegenerate
  (2) There are no thermally accessible electronically excited states
  (3) Hindered rotations indicated by low frequency modes) are not
      treated as such but are treated as vibrations and this may
      case some error
  (4) All equations used are the standard statistical mechanics
      equations for an ideal gas
  (5) All vibrations are strinctly harmonic

------------
INNER ENERGY
------------

The inner energy is: U= E(el) + E(ZPE) + E(vib) + E(rot) + E(trans)
    E(el)   - is the total energy from the electronic structure calculation
              = E(kin-el) + E(nuc-el) + E(el-el) + E(nuc-nuc)
    E(ZPE)  - the the zero temperature vibrational energy from the frequency calculation
    E(vib)  - the the finite temperature correction to E(ZPE) due to population
              of excietd vibrational states
    E(rot)  - is the rotational thermal energy
    E(trans)- is the translational thermal energy

Summary of contributions to the inner energy U:
Electronic energy                ...   -290.10938858 Eh
Zero point energy                ...      0.17729139 Eh     111.25 kcal/mol
Thermal vibrational correction   ...      0.00386260 Eh       2.42 kcal/mol
Thermal rotational correction    ...      0.00141627 Eh       0.89 kcal/mol
Thermal translational correction ...      0.00141627 Eh       0.89 kcal/mol
-----------------------------------------------------------------------
Total thermal energy                   -289.92540204 Eh

Summary of corrections to the electronic energy:
(perhaps to be used in another calculation)
Total thermal correction                  0.00669515 Eh       4.20 kcal/mol
Non-thermal (ZPE) correction              0.17729139 Eh     111.25 kcal/mol
-----------------------------------------------------------------------
Total correction                          0.18398654 Eh     115.45 kcal/mol

--------
ENTHALPY
--------

The enthalpy is H = U + kB*T
                kB is Boltzmann's constant
Total free energy                 ...   -289.92540204 Eh
Thermal Enthalpy correction       ...      0.00094421 Eh       0.59 kcal/mol
-----------------------------------------------------------------------
Total Enthalpy                    ...   -289.92445783 Eh

-------
ENTROPY
-------

The entropy contributions are T*S = T*(S(el)+S(vib)+S(rot)+S(trans)
     S(el)   - electronic entropy
     S(vib)  - vibrational entropy
     S(rot)  - rotational entropy
     S(trans)- translational entropy
The entropies will be listed as mutliplied by the temperature to get
units of energy

Electronic entropy                ...      0.00000000 Eh      0.00 kcal/mol
Vibrational entropy               ...      0.00617133 Eh      3.87 kcal/mol
Rotational entropy                ...      0.01180240 Eh      7.41 kcal/mol
Translational entropy             ...      0.01884507 Eh     11.83 kcal/mol
-----------------------------------------------------------------------
Final entropy term                ...      0.03681880 Eh     23.10 kcal/mol

CAUTION: The rotational entropy is not quite correctly treated here
         because it includes a symmetry number that is not yet correctly
         implemented in ORCA!
For a nonlinear molecule the correct rotational entropy is:
    S(rot) = R*(ln(qrot/sn)+1.5)
    R    = 8.31441 J/mol/K = 1.987191683e-3 kcal/mol/K
    qrot = 179649.4868422
    sn is the rotational symmetry number. We have assumed 3 here
       if it is different for your molecule then you should correct
       the printed rotational entropy by manually evaluating the equation
       as given above

For convenience we print out the resulting values for sn=1 - 12:
 sn= 1  qrot/sn=  179649.4868 T*S(rot)=     8.06 kcal/mol T*S(tot)=    23.76 kcal/mol
 sn= 2  qrot/sn=   89824.7434 T*S(rot)=     7.65 kcal/mol T*S(tot)=    23.34 kcal/mol
 sn= 3  qrot/sn=   59883.1623 T*S(rot)=     7.41 kcal/mol T*S(tot)=    23.10 kcal/mol
 sn= 4  qrot/sn=   44912.3717 T*S(rot)=     7.24 kcal/mol T*S(tot)=    22.93 kcal/mol
 sn= 5  qrot/sn=   35929.8974 T*S(rot)=     7.10 kcal/mol T*S(tot)=    22.80 kcal/mol
 sn= 6  qrot/sn=   29941.5811 T*S(rot)=     7.00 kcal/mol T*S(tot)=    22.69 kcal/mol
 sn= 7  qrot/sn=   25664.2124 T*S(rot)=     6.90 kcal/mol T*S(tot)=    22.60 kcal/mol
 sn= 8  qrot/sn=   22456.1859 T*S(rot)=     6.82 kcal/mol T*S(tot)=    22.52 kcal/mol
 sn= 9  qrot/sn=   19961.0541 T*S(rot)=     6.76 kcal/mol T*S(tot)=    22.45 kcal/mol
 sn=10  qrot/sn=   17964.9487 T*S(rot)=     6.69 kcal/mol T*S(tot)=    22.39 kcal/mol
 sn=11  qrot/sn=   16331.7715 T*S(rot)=     6.64 kcal/mol T*S(tot)=    22.33 kcal/mol
 sn=12  qrot/sn=   14970.7906 T*S(rot)=     6.58 kcal/mol T*S(tot)=    22.28 kcal/mol

-------------------
GIBBS FREE ENTHALPY
-------------------

The Gibbs free enthalpy is G = H - T*S

Total enthalpy                    ...   -289.92445783 Eh
Total entropy correction          ...     -0.03681880 Eh    -23.10 kcal/mol
-----------------------------------------------------------------------
Final Gibbs free enthalpy         ...   -289.96127663 Eh

For completeness - the Gibbs free enthalpy minus the electronic energy
G-E(el)                           ...      0.14811195 Eh     92.94 kcal/mol

                             ****ORCA TERMINATED NORMALLY****
TOTAL RUN TIME: 0 days 0 hours 58 minutes 58 seconds 214 msec
