                         Program Version 3.0.3 - RELEASE   -
|  1> ! NORI PBE0 def2-TZVP UseSym TightOPT Freq TightSCF Grid3 FinalGrid5 XYZFile
|  2> % pal
|  3>     nprocs 8
|  4> end
|  5> %method
|  6>     SymThresh 5.0e-2
|  7> end
|  8> % geom
|  9>     MaxIter 10
| 10> end
| 11> % maxcore 2000
| 12> % output
| 13>     printlevel mini
| 14>     print[ P_Basis ] 0
| 15>     print[ P_SCFInfo ] 1
| 16>     print[ P_SCFIterInfo ] 1
| 17>     print[ P_OrbEn ] 0
| 18>     print[ P_Cartesian ] 0
| 19> end
| 20> % elprop
| 21>     Dipole false
| 22> end
| 23> *xyz 1 1
| 24>  C        1.0919793320    -0.1247198852    -0.0184841447
| 25>  C        2.5856927265    -0.0796580689    -0.0067358181
| 26>  C        3.5188449730    -0.6063597831    -1.1122119320
| 27>  C        4.6025139697    -0.4240332439    -0.0271463322
| 28>  C        3.5062150383    -0.8040592365     0.9918247659
| 29>  C        4.6423279413     1.0880353991     0.1154335341
| 30>  N        3.1414543774     1.3404836651     0.1301974583
| 31>  H        0.6752312738     0.4387099948    -0.8574531900
| 32>  H        0.6664593541     0.2628764499     0.9110804626
| 33>  H        0.7651066333    -1.1597775218    -0.1225435531
| 34>  H        3.5979768420    -0.0463879111    -2.0475387063
| 35>  H        3.3132506638    -1.6541463521    -1.3204939459
| 36>  H        5.5646531231    -0.9259887225    -0.0691372008
| 37>  H        3.2980786469    -1.8722024942     0.9995058164
| 38>  H        3.5734891596    -0.4272770983     2.0158201626
| 39>  H        5.0886072202     1.6130729802    -0.7276543906
| 40>  H        5.0773936841     1.4462853039     1.0470626525
| 41>  H        2.8293081542     1.7793035908     0.9958716961
| 42>  H        2.8392068868     1.9345729340    -0.6412773348
| 43> *
| 44>
| 45>                          ****END OF INPUT****
 Total Charge           Charge          ....    1
 Multiplicity           Mult            ....    1
 Number of Electrons    NEL             ....   54
FINAL SINGLE POINT ENERGY      -290.108363275028

CARTESIAN COORDINATES (ANGSTROEM)
---------------------------------
  C      0.009964   -2.190563    0.000000
  C     -0.098510   -0.699988   -0.000000
  C     -0.818457    0.157375    1.056575
  C     -0.649342    1.270794    0.000000
  C     -0.818457    0.157375   -1.056575
  C      0.857436    1.466908    0.000000
  N      1.263407   -0.000021   -0.000000
  H      0.528548   -2.560061    0.888664
  H      0.528548   -2.560061   -0.888664
  H     -0.991030   -2.623120    0.000000
  H     -0.357907    0.278577    2.040359
  H     -1.854352   -0.157990    1.165035
  H     -1.249309    2.175878    0.000000
  H     -1.854352   -0.157990   -1.165035
  H     -0.357907    0.278577   -2.040359
  H      1.253587    1.950980    0.891275
  H      1.253587    1.950980   -0.891275
  H      1.810883   -0.252039   -0.822214
  H      1.810883   -0.252039    0.822214

FINAL SINGLE POINT ENERGY      -290.108363534366
                    ***********************HURRAY********************
 Multiplicity           Mult            ....    1
 Number of Electrons    NEL             ....   54
 Basis Dimension        Dim             ....  289
FINAL SINGLE POINT ENERGY      -290.108363593806

VIBRATIONAL FREQUENCIES
-----------------------

   0:         0.00 cm**-1
   1:         0.00 cm**-1
   2:         0.00 cm**-1
   3:         0.00 cm**-1
   4:         0.00 cm**-1
   5:         0.00 cm**-1
   6:       220.53 cm**-1
   7:       250.48 cm**-1
   8:       305.63 cm**-1
   9:       350.70 cm**-1
  10:       445.09 cm**-1
  11:       518.88 cm**-1
  12:       593.20 cm**-1
  13:       685.47 cm**-1
  14:       781.81 cm**-1
  15:       845.26 cm**-1
  16:       859.94 cm**-1
  17:       890.72 cm**-1
  18:       898.02 cm**-1
  19:       921.46 cm**-1
  20:       938.01 cm**-1
  21:       960.54 cm**-1
  22:       990.62 cm**-1
  23:      1002.14 cm**-1
  24:      1029.59 cm**-1
  25:      1075.66 cm**-1
  26:      1094.56 cm**-1
  27:      1146.96 cm**-1
  28:      1170.10 cm**-1
  29:      1199.77 cm**-1
  30:      1226.88 cm**-1
  31:      1229.32 cm**-1
  32:      1269.28 cm**-1
  33:      1295.29 cm**-1
  34:      1309.62 cm**-1
  35:      1315.61 cm**-1
  36:      1360.67 cm**-1
  37:      1386.74 cm**-1
  38:      1430.03 cm**-1
  39:      1476.08 cm**-1
  40:      1476.65 cm**-1
  41:      1485.19 cm**-1
  42:      1501.75 cm**-1
  43:      1518.26 cm**-1
  44:      1652.65 cm**-1
  45:      3055.27 cm**-1
  46:      3081.94 cm**-1
  47:      3084.88 cm**-1
  48:      3115.14 cm**-1
  49:      3127.99 cm**-1
  50:      3151.83 cm**-1
  51:      3168.56 cm**-1
  52:      3174.27 cm**-1
  53:      3178.49 cm**-1
  54:      3185.67 cm**-1
  55:      3465.91 cm**-1
  56:      3528.25 cm**-1

IR SPECTRUM
-----------

 Mode    freq (cm**-1)   T**2         TX         TY         TZ
-------------------------------------------------------------------
   6:       220.53    0.170912  ( -0.000000   0.000000   0.413415)
   7:       250.48    1.618418  (  0.000015   0.000017  -1.272171)
   8:       305.63    1.698674  (  0.713260   1.090841   0.000019)
   9:       350.70    1.182951  (  0.000003  -0.000001  -1.087636)
  10:       445.09    2.853797  (  0.000005   0.000001   1.689319)
  11:       518.88    1.010584  ( -0.989492  -0.177452  -0.000001)
  12:       593.20    2.423242  (  1.521919  -0.327115  -0.000005)
  13:       685.47    1.147482  ( -1.055453  -0.183032   0.000004)
  14:       781.81    2.203348  (  0.749248   1.281396   0.000001)
  15:       845.26    0.812778  (  0.000002   0.000007  -0.901542)
  16:       859.94    3.262123  (  0.000005   0.000007   1.806135)
  17:       890.72    0.064657  ( -0.000014   0.000021   0.254277)
  18:       898.02    3.254617  ( -1.278695   1.272618  -0.000010)
  19:       921.46    1.230504  (  1.109171   0.015618  -0.000005)
  20:       938.01   10.421827  (  0.622673  -3.167666   0.000005)
  21:       960.54    0.000702  (  0.000004  -0.000004   0.026489)
  22:       990.62    0.972422  ( -0.000026  -0.000028   0.986114)
  23:      1002.14    1.794753  (  0.972520   0.921389   0.000018)
  24:      1029.59    7.159564  ( -2.646705   0.393085  -0.000004)
  25:      1075.66    1.227910  (  0.000042   0.000006   1.108111)
  26:      1094.56    9.065306  (  2.933109   0.679838  -0.000030)
  27:      1146.96    1.882854  (  0.000012   0.000006   1.372171)
  28:      1170.10    5.403597  ( -0.000043  -0.000052  -2.324564)
  29:      1199.77   37.372166  (  3.131281   5.250452  -0.000014)
  30:      1226.88    2.860137  ( -0.000022   0.000020   1.691194)
  31:      1229.32    2.375824  ( -1.349347   0.745041  -0.000027)
  32:      1269.28   12.892086  ( -3.316499  -1.375835  -0.000010)
  33:      1295.29    0.702415  (  0.000012  -0.000003   0.838102)
  34:      1309.62    0.311499  ( -0.000019  -0.000002  -0.558121)
  35:      1315.61    3.377152  (  1.748944   0.564223   0.000003)
  36:      1360.67    1.197100  ( -0.766990   0.780273   0.000006)
  37:      1386.74   59.359759  (  1.696928   7.515331   0.000011)
  38:      1430.03   30.990586  (  0.899433   5.493779   0.000002)
  39:      1476.08    8.151689  ( -2.693248  -0.947685  -0.000006)
  40:      1476.65   11.397364  ( -0.000018  -0.000008  -3.375998)
  41:      1485.19   15.529712  (  0.000024   0.000009  -3.940776)
  42:      1501.75    8.980670  (  2.881039   0.824794  -0.000006)
  43:      1518.26    4.847513  ( -1.204732   1.842860  -0.000003)
  44:      1652.65   53.527925  (  6.935820  -2.328588  -0.000008)
  45:      3055.27    2.553842  ( -1.405060   0.761346  -0.000002)
  46:      3081.94   18.300838  ( -0.000008   0.000004   4.277948)
  47:      3084.88    1.838069  (  1.334971  -0.236474   0.000023)
  48:      3115.14    3.398043  (  1.321797   1.284872   0.000002)
  49:      3127.99    3.698766  (  0.000000  -0.000000  -1.923218)
  50:      3151.83    0.836286  ( -0.523418   0.749880   0.000001)
  51:      3168.56    3.679437  (  0.000013   0.000055  -1.918186)
  52:      3174.27    0.821983  (  0.577549   0.698870   0.000041)
  53:      3178.49    0.820410  ( -0.000014  -0.000005   0.905765)
  54:      3185.67    0.995064  (  0.008854   0.997490   0.000065)
  55:      3465.91   47.242480  ( -6.424048   2.444194   0.000005)
  56:      3528.25   59.527187  (  0.000000   0.000000   7.715386)

--------------------------
THERMOCHEMISTRY AT 298.15K
--------------------------

Temperature         ... 298.15 K
Pressure            ... 1.00 atm
Total Mass          ... 98.17 AMU

Throughout the following assumptions are being made:
  (1) The electronic state is orbitally nondegenerate
  (2) There are no thermally accessible electronically excited states
  (3) Hindered rotations indicated by low frequency modes) are not
      treated as such but are treated as vibrations and this may
      case some error
  (4) All equations used are the standard statistical mechanics
      equations for an ideal gas
  (5) All vibrations are strinctly harmonic

------------
INNER ENERGY
------------

The inner energy is: U= E(el) + E(ZPE) + E(vib) + E(rot) + E(trans)
    E(el)   - is the total energy from the electronic structure calculation
              = E(kin-el) + E(nuc-el) + E(el-el) + E(nuc-nuc)
    E(ZPE)  - the the zero temperature vibrational energy from the frequency calculation
    E(vib)  - the the finite temperature correction to E(ZPE) due to population
              of excietd vibrational states
    E(rot)  - is the rotational thermal energy
    E(trans)- is the translational thermal energy

Summary of contributions to the inner energy U:
Electronic energy                ...   -290.10836359 Eh
Zero point energy                ...      0.17867068 Eh     112.12 kcal/mol
Thermal vibrational correction   ...      0.00335592 Eh       2.11 kcal/mol
Thermal rotational correction    ...      0.00141627 Eh       0.89 kcal/mol
Thermal translational correction ...      0.00141627 Eh       0.89 kcal/mol
-----------------------------------------------------------------------
Total thermal energy                   -289.92350445 Eh

Summary of corrections to the electronic energy:
(perhaps to be used in another calculation)
Total thermal correction                  0.00618846 Eh       3.88 kcal/mol
Non-thermal (ZPE) correction              0.17867068 Eh     112.12 kcal/mol
-----------------------------------------------------------------------
Total correction                          0.18485914 Eh     116.00 kcal/mol

--------
ENTHALPY
--------

The enthalpy is H = U + kB*T
                kB is Boltzmann's constant
Total free energy                 ...   -289.92350445 Eh
Thermal Enthalpy correction       ...      0.00094421 Eh       0.59 kcal/mol
-----------------------------------------------------------------------
Total Enthalpy                    ...   -289.92256024 Eh

-------
ENTROPY
-------

The entropy contributions are T*S = T*(S(el)+S(vib)+S(rot)+S(trans)
     S(el)   - electronic entropy
     S(vib)  - vibrational entropy
     S(rot)  - rotational entropy
     S(trans)- translational entropy
The entropies will be listed as mutliplied by the temperature to get
units of energy

Electronic entropy                ...      0.00000000 Eh      0.00 kcal/mol
Vibrational entropy               ...      0.00498693 Eh      3.13 kcal/mol
Rotational entropy                ...      0.01171179 Eh      7.35 kcal/mol
Translational entropy             ...      0.01884507 Eh     11.83 kcal/mol
-----------------------------------------------------------------------
Final entropy term                ...      0.03554378 Eh     22.30 kcal/mol

CAUTION: The rotational entropy is not quite correctly treated here
         because it includes a symmetry number that is not yet correctly
         implemented in ORCA!
For a nonlinear molecule the correct rotational entropy is:
    S(rot) = R*(ln(qrot/sn)+1.5)
    R    = 8.31441 J/mol/K = 1.987191683e-3 kcal/mol/K
    qrot = 163209.2500052
    sn is the rotational symmetry number. We have assumed 3 here
       if it is different for your molecule then you should correct
       the printed rotational entropy by manually evaluating the equation
       as given above

For convenience we print out the resulting values for sn=1 - 12:
 sn= 1  qrot/sn=  163209.2500 T*S(rot)=     8.00 kcal/mol T*S(tot)=    22.95 kcal/mol
 sn= 2  qrot/sn=   81604.6250 T*S(rot)=     7.59 kcal/mol T*S(tot)=    22.54 kcal/mol
 sn= 3  qrot/sn=   54403.0833 T*S(rot)=     7.35 kcal/mol T*S(tot)=    22.30 kcal/mol
 sn= 4  qrot/sn=   40802.3125 T*S(rot)=     7.18 kcal/mol T*S(tot)=    22.13 kcal/mol
 sn= 5  qrot/sn=   32641.8500 T*S(rot)=     7.05 kcal/mol T*S(tot)=    22.00 kcal/mol
 sn= 6  qrot/sn=   27201.5417 T*S(rot)=     6.94 kcal/mol T*S(tot)=    21.89 kcal/mol
 sn= 7  qrot/sn=   23315.6071 T*S(rot)=     6.85 kcal/mol T*S(tot)=    21.80 kcal/mol
 sn= 8  qrot/sn=   20401.1563 T*S(rot)=     6.77 kcal/mol T*S(tot)=    21.72 kcal/mol
 sn= 9  qrot/sn=   18134.3611 T*S(rot)=     6.70 kcal/mol T*S(tot)=    21.65 kcal/mol
 sn=10  qrot/sn=   16320.9250 T*S(rot)=     6.64 kcal/mol T*S(tot)=    21.59 kcal/mol
 sn=11  qrot/sn=   14837.2045 T*S(rot)=     6.58 kcal/mol T*S(tot)=    21.53 kcal/mol
 sn=12  qrot/sn=   13600.7708 T*S(rot)=     6.53 kcal/mol T*S(tot)=    21.48 kcal/mol

-------------------
GIBBS FREE ENTHALPY
-------------------

The Gibbs free enthalpy is G = H - T*S

Total enthalpy                    ...   -289.92256024 Eh
Total entropy correction          ...     -0.03554378 Eh    -22.30 kcal/mol
-----------------------------------------------------------------------
Final Gibbs free enthalpy         ...   -289.95810403 Eh

For completeness - the Gibbs free enthalpy minus the electronic energy
G-E(el)                           ...      0.15025957 Eh     94.29 kcal/mol

                             ****ORCA TERMINATED NORMALLY****
TOTAL RUN TIME: 0 days 0 hours 54 minutes 47 seconds 378 msec
