                         Program Version 3.0.3 - RELEASE   -
|  1> ! NORI PBE0 def2-TZVP UseSym TightOPT Freq TightSCF Grid3 FinalGrid5 XYZFile
|  2> % pal
|  3>     nprocs 8
|  4> end
|  5> %method
|  6>     SymThresh 5.0e-2
|  7> end
|  8> % geom
|  9>     MaxIter 10
| 10> end
| 11> % maxcore 2000
| 12> % output
| 13>     printlevel mini
| 14>     print[ P_Basis ] 0
| 15>     print[ P_SCFInfo ] 1
| 16>     print[ P_SCFIterInfo ] 1
| 17>     print[ P_OrbEn ] 0
| 18>     print[ P_Cartesian ] 0
| 19> end
| 20> % elprop
| 21>     Dipole false
| 22> end
| 23> *xyz 1 1
| 24>  C        0.9905549779     0.1729725499    -0.4743805746
| 25>  C        2.2172679338     0.0456283231     0.3631385495
| 26>  C        2.7330212806    -1.2809214184     0.9943924453
| 27>  C        4.0687223889    -0.5045974562     0.9864795992
| 28>  N        3.6082266168     0.0781470756    -0.3542712654
| 29>  C        3.7503536165     0.6790504923     1.8850764690
| 30>  C        2.5394730484     1.0427452866     1.4734670616
| 31>  H        0.9344651529    -0.6031916652    -1.2397777794
| 32>  H        0.9299379668     1.1531394200    -0.9516110769
| 33>  H        0.1167822644     0.0642810660     0.1721305070
| 34>  H        2.7043306717    -2.1335377971     0.3103881163
| 35>  H        2.3305118112    -1.5415184732     1.9682344701
| 36>  H        5.0498148005    -0.9695523431     0.9942999390
| 37>  H        3.9759728307     0.9967253032    -0.6063938277
| 38>  H        3.6778776932    -0.5758117830    -1.1362923611
| 39>  H        4.3888820964     1.0802514379     2.6578126021
| 40>  H        1.8861448492     1.8350399816     1.8091371259
| 41> *
| 42>
| 43>                          ****END OF INPUT****
 Total Charge           Charge          ....    1
 Multiplicity           Mult            ....    1
 Number of Electrons    NEL             ....   52
FINAL SINGLE POINT ENERGY      -288.857147923113

CARTESIAN COORDINATES (ANGSTROEM)
---------------------------------
  C      2.147621    0.000166   -0.240588
  C      0.659465   -0.020397   -0.156099
  C     -0.231151   -1.274886   -0.395758
  C     -1.223302   -0.458605    0.462330
  N      0.000179   -0.000411    1.263497
  C     -1.430888    0.782196   -0.390666
  C     -0.196804    1.072220   -0.792016
  H      2.599823   -0.835034    0.296738
  H      2.558690    0.937272    0.140351
  H      2.436401   -0.086144   -1.290633
  H      0.144110   -2.179828    0.089934
  H     -0.525605   -1.470026   -1.422347
  H     -2.037597   -0.889470    1.037064
  H     -0.068308    0.906483    1.727696
  H      0.372602   -0.712187    1.894928
  H     -2.375759    1.264459   -0.591677
  H      0.173901    1.867487   -1.422338

FINAL SINGLE POINT ENERGY      -288.857148572464
                    ***********************HURRAY********************
 Multiplicity           Mult            ....    1
 Number of Electrons    NEL             ....   52
 Basis Dimension        Dim             ....  277
FINAL SINGLE POINT ENERGY      -288.857148987715

VIBRATIONAL FREQUENCIES
-----------------------

   0:         0.00 cm**-1
   1:         0.00 cm**-1
   2:         0.00 cm**-1
   3:         0.00 cm**-1
   4:         0.00 cm**-1
   5:         0.00 cm**-1
   6:       214.71 cm**-1
   7:       289.80 cm**-1
   8:       298.75 cm**-1
   9:       477.12 cm**-1
  10:       525.16 cm**-1
  11:       533.04 cm**-1
  12:       621.27 cm**-1
  13:       665.12 cm**-1
  14:       721.91 cm**-1
  15:       798.32 cm**-1
  16:       832.46 cm**-1
  17:       869.07 cm**-1
  18:       923.70 cm**-1
  19:       948.37 cm**-1
  20:       958.21 cm**-1
  21:       966.66 cm**-1
  22:       982.85 cm**-1
  23:      1045.89 cm**-1
  24:      1072.20 cm**-1
  25:      1082.29 cm**-1
  26:      1108.01 cm**-1
  27:      1129.76 cm**-1
  28:      1194.75 cm**-1
  29:      1232.47 cm**-1
  30:      1243.21 cm**-1
  31:      1265.12 cm**-1
  32:      1279.37 cm**-1
  33:      1318.13 cm**-1
  34:      1372.74 cm**-1
  35:      1426.12 cm**-1
  36:      1477.04 cm**-1
  37:      1479.80 cm**-1
  38:      1497.79 cm**-1
  39:      1616.73 cm**-1
  40:      1649.32 cm**-1
  41:      3063.56 cm**-1
  42:      3086.36 cm**-1
  43:      3142.57 cm**-1
  44:      3149.33 cm**-1
  45:      3192.39 cm**-1
  46:      3200.05 cm**-1
  47:      3254.53 cm**-1
  48:      3277.41 cm**-1
  49:      3427.09 cm**-1
  50:      3524.25 cm**-1

IR SPECTRUM
-----------

 Mode    freq (cm**-1)   T**2         TX         TY         TZ
-------------------------------------------------------------------
   6:       214.71    0.226726  (  0.064578   0.465337   0.077566)
   7:       289.80    0.372071  (  0.506063  -0.331710   0.077070)
   8:       298.75    0.963813  ( -0.883079  -0.256721   0.343626)
   9:       477.12    4.253448  ( -0.057534   2.013955   0.440596)
  10:       525.16    4.155741  ( -0.549369   1.952662  -0.202596)
  11:       533.04    0.644439  ( -0.631715   0.221286   0.443179)
  12:       621.27    0.464643  (  0.411628  -0.538348   0.073394)
  13:       665.12    3.117269  ( -1.263368  -1.233357   0.001336)
  14:       721.91   38.370038  (  0.366708   4.125367   4.606182)
  15:       798.32   18.499299  (  0.179207   1.283603   4.101164)
  16:       832.46   10.131952  ( -1.759944  -1.020994  -2.447881)
  17:       869.07    1.889081  (  0.485197  -0.698389  -1.079777)
  18:       923.70    1.335926  ( -1.037734  -0.044312   0.507022)
  19:       948.37    2.350880  ( -0.357058  -1.489653  -0.065769)
  20:       958.21    1.957427  ( -0.762435   0.034283  -1.172580)
  21:       966.66    0.333194  (  0.250859   0.116152   0.506727)
  22:       982.85    5.230408  (  0.442567  -2.174094  -0.554849)
  23:      1045.89   11.737195  ( -1.561915   0.827679   2.934717)
  24:      1072.20    1.543758  ( -0.906879   0.324703  -0.784791)
  25:      1082.29    3.662939  ( -0.317018  -0.633911  -1.777806)
  26:      1108.01   16.844224  ( -2.990892   0.751538   2.708132)
  27:      1129.76   11.052938  ( -0.727657  -2.925312   1.402142)
  28:      1194.75   13.098691  ( -3.472109  -1.017847  -0.084484)
  29:      1232.47    7.962874  (  2.484315   0.801494  -1.071757)
  30:      1243.21   35.664762  (  5.016065   2.243736  -2.338697)
  31:      1265.12    9.192437  (  2.324633   1.152750  -1.568338)
  32:      1279.37    4.163411  (  1.760845   0.169831  -1.016855)
  33:      1318.13    1.696483  ( -0.302431  -0.556308   1.138218)
  34:      1372.74   64.231988  ( -7.703844  -0.727038   2.086672)
  35:      1426.12   33.703924  ( -5.628919   0.012918   1.420925)
  36:      1477.04   11.823627  ( -0.256536  -3.427290   0.107236)
  37:      1479.80    8.671046  ( -0.330871   0.276550  -2.912918)
  38:      1497.79   15.007369  (  0.944350   2.921552   2.362225)
  39:      1616.73   62.767410  ( -2.168708  -0.758134  -7.582173)
  40:      1649.32    4.758506  (  0.505005  -0.662001  -2.016242)
  41:      3063.56    0.895614  (  0.040826   0.005499  -0.945472)
  42:      3086.36    8.282816  (  1.096128  -2.476612   0.973505)
  43:      3142.57    1.151965  (  1.052455   0.209628  -0.018927)
  44:      3149.33    2.077926  ( -0.648750   1.255073  -0.286079)
  45:      3192.39    0.704437  (  0.773605   0.245702  -0.213549)
  46:      3200.05    0.501088  (  0.176239  -0.674152  -0.124689)
  47:      3254.53    6.854087  ( -2.233012  -0.908785   1.020714)
  48:      3277.41    7.403303  ( -1.521780   1.902688  -1.211308)
  49:      3427.09   36.817222  (  0.680433   1.397910   5.865158)
  50:      3524.25   47.625096  (  1.697943  -6.685501   0.214845)

--------------------------
THERMOCHEMISTRY AT 298.15K
--------------------------

Temperature         ... 298.15 K
Pressure            ... 1.00 atm
Total Mass          ... 96.15 AMU

Throughout the following assumptions are being made:
  (1) The electronic state is orbitally nondegenerate
  (2) There are no thermally accessible electronically excited states
  (3) Hindered rotations indicated by low frequency modes) are not
      treated as such but are treated as vibrations and this may
      case some error
  (4) All equations used are the standard statistical mechanics
      equations for an ideal gas
  (5) All vibrations are strinctly harmonic

------------
INNER ENERGY
------------

The inner energy is: U= E(el) + E(ZPE) + E(vib) + E(rot) + E(trans)
    E(el)   - is the total energy from the electronic structure calculation
              = E(kin-el) + E(nuc-el) + E(el-el) + E(nuc-nuc)
    E(ZPE)  - the the zero temperature vibrational energy from the frequency calculation
    E(vib)  - the the finite temperature correction to E(ZPE) due to population
              of excietd vibrational states
    E(rot)  - is the rotational thermal energy
    E(trans)- is the translational thermal energy

Summary of contributions to the inner energy U:
Electronic energy                ...   -288.85714899 Eh
Zero point energy                ...      0.15362775 Eh      96.40 kcal/mol
Thermal vibrational correction   ...      0.00309916 Eh       1.94 kcal/mol
Thermal rotational correction    ...      0.00141627 Eh       0.89 kcal/mol
Thermal translational correction ...      0.00141627 Eh       0.89 kcal/mol
-----------------------------------------------------------------------
Total thermal energy                   -288.69758954 Eh

Summary of corrections to the electronic energy:
(perhaps to be used in another calculation)
Total thermal correction                  0.00593170 Eh       3.72 kcal/mol
Non-thermal (ZPE) correction              0.15362775 Eh      96.40 kcal/mol
-----------------------------------------------------------------------
Total correction                          0.15955945 Eh     100.12 kcal/mol

--------
ENTHALPY
--------

The enthalpy is H = U + kB*T
                kB is Boltzmann's constant
Total free energy                 ...   -288.69758954 Eh
Thermal Enthalpy correction       ...      0.00094421 Eh       0.59 kcal/mol
-----------------------------------------------------------------------
Total Enthalpy                    ...   -288.69664533 Eh

-------
ENTROPY
-------

The entropy contributions are T*S = T*(S(el)+S(vib)+S(rot)+S(trans)
     S(el)   - electronic entropy
     S(vib)  - vibrational entropy
     S(rot)  - rotational entropy
     S(trans)- translational entropy
The entropies will be listed as mutliplied by the temperature to get
units of energy

Electronic entropy                ...      0.00000000 Eh      0.00 kcal/mol
Vibrational entropy               ...      0.00454753 Eh      2.85 kcal/mol
Rotational entropy                ...      0.01163817 Eh      7.30 kcal/mol
Translational entropy             ...      0.01881568 Eh     11.81 kcal/mol
-----------------------------------------------------------------------
Final entropy term                ...      0.03500138 Eh     21.96 kcal/mol

CAUTION: The rotational entropy is not quite correctly treated here
         because it includes a symmetry number that is not yet correctly
         implemented in ORCA!
For a nonlinear molecule the correct rotational entropy is:
    S(rot) = R*(ln(qrot/sn)+1.5)
    R    = 8.31441 J/mol/K = 1.987191683e-3 kcal/mol/K
    qrot = 150967.7913514
    sn is the rotational symmetry number. We have assumed 3 here
       if it is different for your molecule then you should correct
       the printed rotational entropy by manually evaluating the equation
       as given above

For convenience we print out the resulting values for sn=1 - 12:
 sn= 1  qrot/sn=  150967.7914 T*S(rot)=     7.95 kcal/mol T*S(tot)=    22.61 kcal/mol
 sn= 2  qrot/sn=   75483.8957 T*S(rot)=     7.54 kcal/mol T*S(tot)=    22.20 kcal/mol
 sn= 3  qrot/sn=   50322.5971 T*S(rot)=     7.30 kcal/mol T*S(tot)=    21.96 kcal/mol
 sn= 4  qrot/sn=   37741.9478 T*S(rot)=     7.13 kcal/mol T*S(tot)=    21.79 kcal/mol
 sn= 5  qrot/sn=   30193.5583 T*S(rot)=     7.00 kcal/mol T*S(tot)=    21.66 kcal/mol
 sn= 6  qrot/sn=   25161.2986 T*S(rot)=     6.89 kcal/mol T*S(tot)=    21.55 kcal/mol
 sn= 7  qrot/sn=   21566.8273 T*S(rot)=     6.80 kcal/mol T*S(tot)=    21.46 kcal/mol
 sn= 8  qrot/sn=   18870.9739 T*S(rot)=     6.72 kcal/mol T*S(tot)=    21.38 kcal/mol
 sn= 9  qrot/sn=   16774.1990 T*S(rot)=     6.65 kcal/mol T*S(tot)=    21.31 kcal/mol
 sn=10  qrot/sn=   15096.7791 T*S(rot)=     6.59 kcal/mol T*S(tot)=    21.25 kcal/mol
 sn=11  qrot/sn=   13724.3447 T*S(rot)=     6.53 kcal/mol T*S(tot)=    21.19 kcal/mol
 sn=12  qrot/sn=   12580.6493 T*S(rot)=     6.48 kcal/mol T*S(tot)=    21.14 kcal/mol

-------------------
GIBBS FREE ENTHALPY
-------------------

The Gibbs free enthalpy is G = H - T*S

Total enthalpy                    ...   -288.69664533 Eh
Total entropy correction          ...     -0.03500138 Eh    -21.96 kcal/mol
-----------------------------------------------------------------------
Final Gibbs free enthalpy         ...   -288.73164671 Eh

For completeness - the Gibbs free enthalpy minus the electronic energy
G-E(el)                           ...      0.12550228 Eh     78.75 kcal/mol

                             ****ORCA TERMINATED NORMALLY****
TOTAL RUN TIME: 0 days 0 hours 43 minutes 27 seconds 725 msec
