                         Program Version 3.0.3 - RELEASE   -
|  1> ! NORI PBE0 def2-TZVP UseSym TightOPT Freq TightSCF Grid3 FinalGrid5 XYZFile
|  2> % pal
|  3>     nprocs 8
|  4> end
|  5> %method
|  6>     SymThresh 5.0e-2
|  7> end
|  8> % geom
|  9>     MaxIter 10
| 10> end
| 11> % maxcore 2000
| 12> % output
| 13>     printlevel mini
| 14>     print[ P_Basis ] 0
| 15>     print[ P_SCFInfo ] 1
| 16>     print[ P_SCFIterInfo ] 1
| 17>     print[ P_OrbEn ] 0
| 18>     print[ P_Cartesian ] 0
| 19> end
| 20> % elprop
| 21>     Dipole false
| 22> end
| 23> *xyz 1 1
| 24>  C        1.5132601846    -0.3207757085    -0.4025140468
| 25>  C        2.9140999951     0.0091635232     0.0235363637
| 26>  C        3.8024538154    -1.0400052162     0.6243701868
| 27>  C        4.1124838108    -0.4931880256    -0.7276313498
| 28>  N        5.1324385639     0.5919547548    -0.7491705454
| 29>  C        4.4143270131     1.8755995357    -0.3926289923
| 30>  C        3.2364772776     1.4363984318     0.4664558659
| 31>  H        1.1703316586     0.3513715588    -1.1926678975
| 32>  H        0.8288371403    -0.2257282136     0.4431406710
| 33>  H        1.4420117105    -1.3449874324    -0.7719910863
| 34>  H        4.4459352622    -0.7693796065     1.4561165610
| 35>  H        3.4437871888    -2.0614756957     0.6533488901
| 36>  H        4.0820443781    -1.0932562530    -1.6272241307
| 37>  H        5.5711907344     0.6626621694    -1.6671146621
| 38>  H        5.8824131928     0.3958236294    -0.0840405543
| 39>  H        4.0784906603     2.3045210719    -1.3364295745
| 40>  H        5.1151504671     2.5617464695     0.0819191472
| 41>  H        2.3884647548     2.0997169076     0.2945776833
| 42>  H        3.4757421914     1.4836580994     1.5309174709
| 43> *
| 44>
| 45>                          ****END OF INPUT****
 Total Charge           Charge          ....    1
 Multiplicity           Mult            ....    1
 Number of Electrons    NEL             ....   54
FINAL SINGLE POINT ENERGY      -290.104925361015

CARTESIAN COORDINATES (ANGSTROEM)
---------------------------------
  C      0.988384   -0.000051   -1.965084
  C      0.102164   -0.147166   -0.762667
  C     -0.388910   -1.497326   -0.330145
  C      0.593006   -0.760809    0.516128
  N      0.000200    0.000082    1.650904
  C     -0.499900    1.311864    1.085588
  C     -0.816479    1.011064   -0.373107
  H      1.607435    0.897338   -1.893959
  H      0.385245    0.076002   -2.872127
  H      1.648789   -0.861403   -2.078666
  H     -1.411228   -1.595444    0.022616
  H     -0.010545   -2.371168   -0.846283
  H      1.598913   -1.115590    0.695461
  H      0.690722    0.158956    2.384446
  H     -0.762087   -0.527353    2.079938
  H      0.329189    2.013477    1.174719
  H     -1.335587    1.668741    1.686524
  H     -0.614219    1.891983   -0.982400
  H     -1.868750    0.754740   -0.511695

FINAL SINGLE POINT ENERGY      -290.104925969096
                    ***********************HURRAY********************
 Multiplicity           Mult            ....    1
 Number of Electrons    NEL             ....   54
 Basis Dimension        Dim             ....  289
FINAL SINGLE POINT ENERGY      -290.104926246726

VIBRATIONAL FREQUENCIES
-----------------------

   0:         0.00 cm**-1
   1:         0.00 cm**-1
   2:         0.00 cm**-1
   3:         0.00 cm**-1
   4:         0.00 cm**-1
   5:         0.00 cm**-1
   6:       115.16 cm**-1
   7:       208.93 cm**-1
   8:       225.12 cm**-1
   9:       323.04 cm**-1
  10:       378.88 cm**-1
  11:       438.98 cm**-1
  12:       577.95 cm**-1
  13:       610.45 cm**-1
  14:       746.86 cm**-1
  15:       823.79 cm**-1
  16:       837.29 cm**-1
  17:       850.80 cm**-1
  18:       877.30 cm**-1
  19:       936.96 cm**-1
  20:       947.36 cm**-1
  21:       960.67 cm**-1
  22:       975.93 cm**-1
  23:      1023.47 cm**-1
  24:      1061.47 cm**-1
  25:      1082.63 cm**-1
  26:      1094.55 cm**-1
  27:      1114.01 cm**-1
  28:      1138.42 cm**-1
  29:      1211.19 cm**-1
  30:      1247.49 cm**-1
  31:      1282.82 cm**-1
  32:      1296.23 cm**-1
  33:      1316.40 cm**-1
  34:      1341.84 cm**-1
  35:      1372.96 cm**-1
  36:      1401.37 cm**-1
  37:      1416.47 cm**-1
  38:      1430.44 cm**-1
  39:      1479.22 cm**-1
  40:      1484.57 cm**-1
  41:      1492.12 cm**-1
  42:      1501.98 cm**-1
  43:      1505.00 cm**-1
  44:      1652.66 cm**-1
  45:      3058.55 cm**-1
  46:      3090.45 cm**-1
  47:      3108.76 cm**-1
  48:      3134.42 cm**-1
  49:      3139.00 cm**-1
  50:      3142.12 cm**-1
  51:      3144.91 cm**-1
  52:      3172.38 cm**-1
  53:      3222.04 cm**-1
  54:      3235.92 cm**-1
  55:      3449.28 cm**-1
  56:      3511.24 cm**-1

IR SPECTRUM
-----------

 Mode    freq (cm**-1)   T**2         TX         TY         TZ
-------------------------------------------------------------------
   6:       115.16    0.976623  (  0.806597  -0.056122   0.568220)
   7:       208.93    4.211760  (  1.756831   1.028591   0.259432)
   8:       225.12    0.941382  ( -0.925565  -0.148590  -0.250267)
   9:       323.04    0.052516  (  0.051519  -0.120331  -0.188101)
  10:       378.88    0.366154  (  0.602352   0.049408  -0.029761)
  11:       438.98    2.460951  (  0.008963   1.308971   0.864561)
  12:       577.95    0.520436  ( -0.115076  -0.260644   0.662765)
  13:       610.45    3.982411  ( -1.468203   0.461818  -1.270242)
  14:       746.86    1.046431  (  0.749078  -0.359578   0.596671)
  15:       823.79    6.962855  ( -0.066019   1.531723  -2.147631)
  16:       837.29    3.937860  ( -1.753771  -0.845868  -0.382955)
  17:       850.80    2.887918  (  0.532612   1.604068   0.176656)
  18:       877.30    3.581482  ( -1.870018  -0.137796  -0.255984)
  19:       936.96    0.681522  (  0.713336   0.269516   0.316283)
  20:       947.36    0.728261  ( -0.665361   0.272024   0.459956)
  21:       960.67    0.407240  (  0.135174  -0.603088   0.158912)
  22:       975.93    5.494425  (  0.537463   1.964785  -1.159817)
  23:      1023.47    9.200332  (  1.103917  -2.535407   1.246359)
  24:      1061.47    2.813121  ( -0.112550  -1.278503   1.079761)
  25:      1082.63    0.914537  ( -0.077582  -0.232526  -0.924364)
  26:      1094.55    2.992224  ( -0.466350   1.017375  -1.318973)
  27:      1114.01    1.308825  (  0.203533  -0.608006  -0.947485)
  28:      1138.42    4.499836  (  1.749398   0.327688   1.154150)
  29:      1211.19    0.699469  (  0.234437   0.463475  -0.655514)
  30:      1247.49    4.568752  ( -0.013649  -2.136163  -0.073299)
  31:      1282.82   18.130423  (  1.232682  -3.581475  -1.945239)
  32:      1296.23    3.734481  ( -1.028807   1.574440   0.444043)
  33:      1316.40    1.956034  (  0.468751  -1.183522   0.579294)
  34:      1341.84    9.424990  ( -1.115085   1.862267   2.171068)
  35:      1372.96   31.994398  ( -3.349532   4.511988   0.645757)
  36:      1401.37    2.884750  (  0.609542  -1.525452  -0.431513)
  37:      1416.47    3.558707  (  1.167447   1.475450  -0.137193)
  38:      1430.44    5.364880  ( -0.755757   1.369788   1.708038)
  39:      1479.22    9.747445  ( -1.877569   0.819042  -2.356130)
  40:      1484.57    8.993778  ( -1.743933  -2.430663   0.210597)
  41:      1492.12    9.320627  (  0.381622   2.674838   1.421349)
  42:      1501.98    9.674990  ( -2.671673  -1.305527  -0.912553)
  43:      1505.00   11.755685  (  2.450432  -2.398085   0.015938)
  44:      1652.66   65.467292  (  1.214046   2.201941  -7.690568)
  45:      3058.55    6.079676  (  1.656091   0.746167  -1.667415)
  46:      3090.45    3.865389  ( -1.808613   0.542861  -0.547367)
  47:      3108.76    2.473533  (  0.184147   1.000347   1.199553)
  48:      3134.42    5.403651  (  1.224280   1.790658   0.835663)
  49:      3139.00    2.137816  ( -0.878237   0.524651   1.044633)
  50:      3142.12    3.920761  ( -1.228252   1.397494  -0.677620)
  51:      3144.91    1.857811  ( -0.151052  -1.345484   0.157058)
  52:      3172.38    0.614169  ( -0.709246   0.247126   0.223760)
  53:      3222.04    0.535045  ( -0.676866   0.273174  -0.047679)
  54:      3235.92    0.390659  ( -0.052462   0.622816   0.002520)
  55:      3449.28   48.352959  ( -1.324883  -2.809918   6.221094)
  56:      3511.24   81.383435  ( -7.337719  -2.907244  -4.369124)

--------------------------
THERMOCHEMISTRY AT 298.15K
--------------------------

Temperature         ... 298.15 K
Pressure            ... 1.00 atm
Total Mass          ... 98.17 AMU

Throughout the following assumptions are being made:
  (1) The electronic state is orbitally nondegenerate
  (2) There are no thermally accessible electronically excited states
  (3) Hindered rotations indicated by low frequency modes) are not
      treated as such but are treated as vibrations and this may
      case some error
  (4) All equations used are the standard statistical mechanics
      equations for an ideal gas
  (5) All vibrations are strinctly harmonic

------------
INNER ENERGY
------------

The inner energy is: U= E(el) + E(ZPE) + E(vib) + E(rot) + E(trans)
    E(el)   - is the total energy from the electronic structure calculation
              = E(kin-el) + E(nuc-el) + E(el-el) + E(nuc-nuc)
    E(ZPE)  - the the zero temperature vibrational energy from the frequency calculation
    E(vib)  - the the finite temperature correction to E(ZPE) due to population
              of excietd vibrational states
    E(rot)  - is the rotational thermal energy
    E(trans)- is the translational thermal energy

Summary of contributions to the inner energy U:
Electronic energy                ...   -290.10492625 Eh
Zero point energy                ...      0.17813415 Eh     111.78 kcal/mol
Thermal vibrational correction   ...      0.00392281 Eh       2.46 kcal/mol
Thermal rotational correction    ...      0.00141627 Eh       0.89 kcal/mol
Thermal translational correction ...      0.00141627 Eh       0.89 kcal/mol
-----------------------------------------------------------------------
Total thermal energy                   -289.92003674 Eh

Summary of corrections to the electronic energy:
(perhaps to be used in another calculation)
Total thermal correction                  0.00675535 Eh       4.24 kcal/mol
Non-thermal (ZPE) correction              0.17813415 Eh     111.78 kcal/mol
-----------------------------------------------------------------------
Total correction                          0.18488950 Eh     116.02 kcal/mol

--------
ENTHALPY
--------

The enthalpy is H = U + kB*T
                kB is Boltzmann's constant
Total free energy                 ...   -289.92003674 Eh
Thermal Enthalpy correction       ...      0.00094421 Eh       0.59 kcal/mol
-----------------------------------------------------------------------
Total Enthalpy                    ...   -289.91909254 Eh

-------
ENTROPY
-------

The entropy contributions are T*S = T*(S(el)+S(vib)+S(rot)+S(trans)
     S(el)   - electronic entropy
     S(vib)  - vibrational entropy
     S(rot)  - rotational entropy
     S(trans)- translational entropy
The entropies will be listed as mutliplied by the temperature to get
units of energy

Electronic entropy                ...      0.00000000 Eh      0.00 kcal/mol
Vibrational entropy               ...      0.00634387 Eh      3.98 kcal/mol
Rotational entropy                ...      0.01182071 Eh      7.42 kcal/mol
Translational entropy             ...      0.01884507 Eh     11.83 kcal/mol
-----------------------------------------------------------------------
Final entropy term                ...      0.03700965 Eh     23.22 kcal/mol

CAUTION: The rotational entropy is not quite correctly treated here
         because it includes a symmetry number that is not yet correctly
         implemented in ORCA!
For a nonlinear molecule the correct rotational entropy is:
    S(rot) = R*(ln(qrot/sn)+1.5)
    R    = 8.31441 J/mol/K = 1.987191683e-3 kcal/mol/K
    qrot = 183165.9111062
    sn is the rotational symmetry number. We have assumed 3 here
       if it is different for your molecule then you should correct
       the printed rotational entropy by manually evaluating the equation
       as given above

For convenience we print out the resulting values for sn=1 - 12:
 sn= 1  qrot/sn=  183165.9111 T*S(rot)=     8.07 kcal/mol T*S(tot)=    23.87 kcal/mol
 sn= 2  qrot/sn=   91582.9556 T*S(rot)=     7.66 kcal/mol T*S(tot)=    23.46 kcal/mol
 sn= 3  qrot/sn=   61055.3037 T*S(rot)=     7.42 kcal/mol T*S(tot)=    23.22 kcal/mol
 sn= 4  qrot/sn=   45791.4778 T*S(rot)=     7.25 kcal/mol T*S(tot)=    23.05 kcal/mol
 sn= 5  qrot/sn=   36633.1822 T*S(rot)=     7.11 kcal/mol T*S(tot)=    22.92 kcal/mol
 sn= 6  qrot/sn=   30527.6519 T*S(rot)=     7.01 kcal/mol T*S(tot)=    22.81 kcal/mol
 sn= 7  qrot/sn=   26166.5587 T*S(rot)=     6.92 kcal/mol T*S(tot)=    22.72 kcal/mol
 sn= 8  qrot/sn=   22895.7389 T*S(rot)=     6.84 kcal/mol T*S(tot)=    22.64 kcal/mol
 sn= 9  qrot/sn=   20351.7679 T*S(rot)=     6.77 kcal/mol T*S(tot)=    22.57 kcal/mol
 sn=10  qrot/sn=   18316.5911 T*S(rot)=     6.70 kcal/mol T*S(tot)=    22.51 kcal/mol
 sn=11  qrot/sn=   16651.4465 T*S(rot)=     6.65 kcal/mol T*S(tot)=    22.45 kcal/mol
 sn=12  qrot/sn=   15263.8259 T*S(rot)=     6.60 kcal/mol T*S(tot)=    22.40 kcal/mol

-------------------
GIBBS FREE ENTHALPY
-------------------

The Gibbs free enthalpy is G = H - T*S

Total enthalpy                    ...   -289.91909254 Eh
Total entropy correction          ...     -0.03700965 Eh    -23.22 kcal/mol
-----------------------------------------------------------------------
Final Gibbs free enthalpy         ...   -289.95610218 Eh

For completeness - the Gibbs free enthalpy minus the electronic energy
G-E(el)                           ...      0.14882406 Eh     93.39 kcal/mol

                             ****ORCA TERMINATED NORMALLY****
TOTAL RUN TIME: 0 days 0 hours 56 minutes 15 seconds 190 msec
