                         Program Version 3.0.3 - RELEASE   -
|  1> ! NORI PBE0 def2-TZVP UseSym TightOPT Freq TightSCF Grid3 FinalGrid5 XYZFile
|  2> % pal
|  3>     nprocs 8
|  4> end
|  5> %method
|  6>     SymThresh 5.0e-2
|  7> end
|  8> % geom
|  9>     MaxIter 10
| 10> end
| 11> % maxcore 2000
| 12> % output
| 13>     printlevel mini
| 14>     print[ P_Basis ] 0
| 15>     print[ P_SCFInfo ] 1
| 16>     print[ P_SCFIterInfo ] 1
| 17>     print[ P_OrbEn ] 0
| 18>     print[ P_Cartesian ] 0
| 19> end
| 20> % elprop
| 21>     Dipole false
| 22> end
| 23> *xyz 1 1
| 24>  C        0.9501467036    -0.1703935952    -0.0430078886
| 25>  C        2.4359171671     0.0009915117    -0.0171242379
| 26>  C        3.3683373916    -0.5901185317    -1.1015298720
| 27>  N        4.4270831665    -0.4107834380    -0.0380411487
| 28>  C        3.3534036385    -0.7665103215     0.9645225003
| 29>  C        4.5257160410     1.0823790904     0.0904013495
| 30>  C        3.0212572318     1.4184806219     0.1087575832
| 31>  H        0.5147080317     0.3770495709    -0.8816000680
| 32>  H        0.5015865249     0.2198917561     0.8730645680
| 33>  H        0.6673131571    -1.2201508650    -0.1384924090
| 34>  H        3.5647992588    -0.0328837349    -2.0168391408
| 35>  H        3.2164930556    -1.6507280278    -1.2943433416
| 36>  H        5.3044864197    -0.9268451180    -0.0758756816
| 37>  H        3.1996441492    -1.8446041053     0.9726325567
| 38>  H        3.5365325559    -0.3726145619     1.9638999294
| 39>  H        5.0709421198     1.4766002865    -0.7656311138
| 40>  H        5.0584308180     1.3245027249     1.0084992493
| 41>  H        2.7158051248     1.9037996542     1.0359518095
| 42>  H        2.7288074444     2.0560970827    -0.7257546440
| 43> *
| 44>
| 45>                          ****END OF INPUT****
 Total Charge           Charge          ....    1
 Multiplicity           Mult            ....    1
 Number of Electrons    NEL             ....   54
FINAL SINGLE POINT ENERGY      -290.099862172726

CARTESIAN COORDINATES (ANGSTROEM)
---------------------------------
  C     -1.976533    1.023717    0.000000
  C     -0.651627    0.329209   -0.000000
  C      0.456090    0.633651    1.036595
  N      1.355105   -0.000033    0.000000
  C      0.456090    0.633651   -1.036595
  C      0.909713   -1.434689   -0.000000
  C     -0.615487   -1.209297   -0.000000
  H     -2.557703    0.743142    0.880893
  H     -2.557703    0.743142   -0.880893
  H     -1.862324    2.109252   -0.000000
  H      0.462252    0.120298    1.997487
  H      0.698121    1.690595    1.137100
  H      2.359634    0.168333    0.000000
  H      0.698121    1.690595   -1.137100
  H      0.462252    0.120298   -1.997487
  H      1.298238   -1.926439    0.890235
  H      1.298238   -1.926439   -0.890235
  H     -1.096248   -1.627973   -0.884052
  H     -1.096248   -1.627973    0.884052

FINAL SINGLE POINT ENERGY      -290.099862638234
                    ***********************HURRAY********************
 Multiplicity           Mult            ....    1
 Number of Electrons    NEL             ....   54
 Basis Dimension        Dim             ....  289
FINAL SINGLE POINT ENERGY      -290.099862730056

VIBRATIONAL FREQUENCIES
-----------------------

   0:         0.00 cm**-1
   1:         0.00 cm**-1
   2:         0.00 cm**-1
   3:         0.00 cm**-1
   4:         0.00 cm**-1
   5:         0.00 cm**-1
   6:       213.74 cm**-1
   7:       255.49 cm**-1
   8:       295.78 cm**-1
   9:       357.17 cm**-1
  10:       448.62 cm**-1
  11:       532.38 cm**-1
  12:       598.10 cm**-1
  13:       701.35 cm**-1
  14:       829.06 cm**-1
  15:       848.44 cm**-1
  16:       853.40 cm**-1
  17:       877.14 cm**-1
  18:       886.43 cm**-1
  19:       945.13 cm**-1
  20:       958.11 cm**-1
  21:       965.15 cm**-1
  22:      1006.08 cm**-1
  23:      1032.10 cm**-1
  24:      1041.64 cm**-1
  25:      1102.28 cm**-1
  26:      1168.77 cm**-1
  27:      1180.34 cm**-1
  28:      1192.11 cm**-1
  29:      1204.81 cm**-1
  30:      1246.78 cm**-1
  31:      1265.53 cm**-1
  32:      1266.05 cm**-1
  33:      1282.25 cm**-1
  34:      1326.02 cm**-1
  35:      1326.09 cm**-1
  36:      1379.83 cm**-1
  37:      1403.22 cm**-1
  38:      1434.54 cm**-1
  39:      1485.19 cm**-1
  40:      1485.98 cm**-1
  41:      1490.32 cm**-1
  42:      1499.32 cm**-1
  43:      1503.49 cm**-1
  44:      1539.57 cm**-1
  45:      3062.52 cm**-1
  46:      3104.30 cm**-1
  47:      3107.41 cm**-1
  48:      3111.62 cm**-1
  49:      3118.70 cm**-1
  50:      3139.82 cm**-1
  51:      3142.75 cm**-1
  52:      3155.10 cm**-1
  53:      3181.38 cm**-1
  54:      3187.80 cm**-1
  55:      3190.24 cm**-1
  56:      3509.12 cm**-1

IR SPECTRUM
-----------

 Mode    freq (cm**-1)   T**2         TX         TY         TZ
-------------------------------------------------------------------
   6:       213.74    0.170657  (  0.000000   0.000000   0.413106)
   7:       255.49    0.142338  (  0.000000   0.000001  -0.377277)
   8:       295.78    0.275096  ( -0.160420   0.499360   0.000003)
   9:       357.17    0.336988  (  0.000002  -0.000003   0.580507)
  10:       448.62    0.140826  ( -0.000002   0.000001   0.375267)
  11:       532.38    0.051029  ( -0.175296   0.142479  -0.000003)
  12:       598.10    0.196863  ( -0.042587   0.441644  -0.000000)
  13:       701.35    0.816252  ( -0.870803   0.240738   0.000007)
  14:       829.06    1.445861  (  0.000007   0.000001  -1.202440)
  15:       848.44    1.205147  (  0.000003   0.000021   1.097792)
  16:       853.40    2.456961  (  0.777701  -1.360934   0.000002)
  17:       877.14    2.363641  (  0.000002   0.000001  -1.537414)
  18:       886.43    3.561189  ( -1.372999  -1.294628   0.000009)
  19:       945.13    0.010448  ( -0.080149   0.063437   0.000004)
  20:       958.11    2.352750  (  1.380732  -0.668078  -0.000009)
  21:       965.15    0.130459  (  0.000016  -0.000011   0.361191)
  22:      1006.08    3.731028  (  0.275006  -1.911910   0.000009)
  23:      1032.10    2.449684  (  0.000006  -0.000018  -1.565147)
  24:      1041.64    1.305425  ( -1.123615  -0.207159  -0.000014)
  25:      1102.28    0.153163  (  0.000003   0.000011   0.391361)
  26:      1168.77    3.265821  (  0.091726   1.804829   0.000036)
  27:      1180.34   13.274455  ( -0.000007   0.000015  -3.643412)
  28:      1192.11    8.716202  ( -0.000004   0.000009  -2.952321)
  29:      1204.81    0.557935  (  0.722127   0.190967  -0.000097)
  30:      1246.78    0.185996  (  0.000018  -0.000002   0.431273)
  31:      1265.53    0.893027  ( -0.000180   0.000122  -0.945001)
  32:      1266.05    0.396097  (  0.516986  -0.358919  -0.000295)
  33:      1282.25   11.285124  ( -0.621561  -3.301331   0.000017)
  34:      1326.02   23.066566  (  0.005387  -0.014667   4.802741)
  35:      1326.09   14.586039  ( -1.310740   3.587145   0.019693)
  36:      1379.83    9.866819  ( -1.823051  -2.557988   0.000050)
  37:      1403.22   12.760372  ( -2.238336   2.783923  -0.000004)
  38:      1434.54   18.715210  (  3.934119  -1.799420   0.000000)
  39:      1485.19   13.217389  (  0.000000  -0.000006   3.635573)
  40:      1485.98    6.882183  (  0.703834   2.527212   0.000007)
  41:      1490.32   12.975804  (  0.000000   0.000000  -3.602194)
  42:      1499.32    6.956181  ( -2.598628  -0.450904  -0.000001)
  43:      1503.49   13.236844  ( -1.109910  -3.464815   0.000000)
  44:      1539.57    5.325469  (  2.286900  -0.309126  -0.000000)
  45:      3062.52    2.316081  (  1.170427  -0.972718   0.000000)
  46:      3104.30    3.748871  ( -1.727547  -0.874329   0.000000)
  47:      3107.41    3.668400  (  0.000000  -0.000001  -1.915307)
  48:      3111.62    0.517340  ( -0.175925   0.697417  -0.000000)
  49:      3118.70    1.814136  (  0.957600  -0.947174   0.000000)
  50:      3139.82    2.229634  (  0.000000  -0.000000  -1.493196)
  51:      3142.75    4.329036  (  0.553410   2.005685  -0.000000)
  52:      3155.10    1.048774  ( -0.000002   0.000002  -1.024097)
  53:      3181.38    0.003620  ( -0.000004   0.000003   0.060167)
  54:      3187.80    1.697706  (  0.000001  -0.000001  -1.302961)
  55:      3190.24    0.529959  ( -0.010727  -0.727904  -0.000000)
  56:      3509.12   66.714198  ( -8.073431  -1.238511   0.000000)

--------------------------
THERMOCHEMISTRY AT 298.15K
--------------------------

Temperature         ... 298.15 K
Pressure            ... 1.00 atm
Total Mass          ... 98.17 AMU

Throughout the following assumptions are being made:
  (1) The electronic state is orbitally nondegenerate
  (2) There are no thermally accessible electronically excited states
  (3) Hindered rotations indicated by low frequency modes) are not
      treated as such but are treated as vibrations and this may
      case some error
  (4) All equations used are the standard statistical mechanics
      equations for an ideal gas
  (5) All vibrations are strinctly harmonic

------------
INNER ENERGY
------------

The inner energy is: U= E(el) + E(ZPE) + E(vib) + E(rot) + E(trans)
    E(el)   - is the total energy from the electronic structure calculation
              = E(kin-el) + E(nuc-el) + E(el-el) + E(nuc-nuc)
    E(ZPE)  - the the zero temperature vibrational energy from the frequency calculation
    E(vib)  - the the finite temperature correction to E(ZPE) due to population
              of excietd vibrational states
    E(rot)  - is the rotational thermal energy
    E(trans)- is the translational thermal energy

Summary of contributions to the inner energy U:
Electronic energy                ...   -290.09986273 Eh
Zero point energy                ...      0.17869623 Eh     112.13 kcal/mol
Thermal vibrational correction   ...      0.00330220 Eh       2.07 kcal/mol
Thermal rotational correction    ...      0.00141627 Eh       0.89 kcal/mol
Thermal translational correction ...      0.00141627 Eh       0.89 kcal/mol
-----------------------------------------------------------------------
Total thermal energy                   -289.91503176 Eh

Summary of corrections to the electronic energy:
(perhaps to be used in another calculation)
Total thermal correction                  0.00613474 Eh       3.85 kcal/mol
Non-thermal (ZPE) correction              0.17869623 Eh     112.13 kcal/mol
-----------------------------------------------------------------------
Total correction                          0.18483097 Eh     115.98 kcal/mol

--------
ENTHALPY
--------

The enthalpy is H = U + kB*T
                kB is Boltzmann's constant
Total free energy                 ...   -289.91503176 Eh
Thermal Enthalpy correction       ...      0.00094421 Eh       0.59 kcal/mol
-----------------------------------------------------------------------
Total Enthalpy                    ...   -289.91408755 Eh

-------
ENTROPY
-------

The entropy contributions are T*S = T*(S(el)+S(vib)+S(rot)+S(trans)
     S(el)   - electronic entropy
     S(vib)  - vibrational entropy
     S(rot)  - rotational entropy
     S(trans)- translational entropy
The entropies will be listed as mutliplied by the temperature to get
units of energy

Electronic entropy                ...      0.00000000 Eh      0.00 kcal/mol
Vibrational entropy               ...      0.00492543 Eh      3.09 kcal/mol
Rotational entropy                ...      0.01170968 Eh      7.35 kcal/mol
Translational entropy             ...      0.01884507 Eh     11.83 kcal/mol
-----------------------------------------------------------------------
Final entropy term                ...      0.03548018 Eh     22.26 kcal/mol

CAUTION: The rotational entropy is not quite correctly treated here
         because it includes a symmetry number that is not yet correctly
         implemented in ORCA!
For a nonlinear molecule the correct rotational entropy is:
    S(rot) = R*(ln(qrot/sn)+1.5)
    R    = 8.31441 J/mol/K = 1.987191683e-3 kcal/mol/K
    qrot = 162845.8153900
    sn is the rotational symmetry number. We have assumed 3 here
       if it is different for your molecule then you should correct
       the printed rotational entropy by manually evaluating the equation
       as given above

For convenience we print out the resulting values for sn=1 - 12:
 sn= 1  qrot/sn=  162845.8154 T*S(rot)=     8.00 kcal/mol T*S(tot)=    22.92 kcal/mol
 sn= 2  qrot/sn=   81422.9077 T*S(rot)=     7.59 kcal/mol T*S(tot)=    22.50 kcal/mol
 sn= 3  qrot/sn=   54281.9385 T*S(rot)=     7.35 kcal/mol T*S(tot)=    22.26 kcal/mol
 sn= 4  qrot/sn=   40711.4538 T*S(rot)=     7.18 kcal/mol T*S(tot)=    22.09 kcal/mol
 sn= 5  qrot/sn=   32569.1631 T*S(rot)=     7.05 kcal/mol T*S(tot)=    21.96 kcal/mol
 sn= 6  qrot/sn=   27140.9692 T*S(rot)=     6.94 kcal/mol T*S(tot)=    21.85 kcal/mol
 sn= 7  qrot/sn=   23263.6879 T*S(rot)=     6.85 kcal/mol T*S(tot)=    21.76 kcal/mol
 sn= 8  qrot/sn=   20355.7269 T*S(rot)=     6.77 kcal/mol T*S(tot)=    21.68 kcal/mol
 sn= 9  qrot/sn=   18093.9795 T*S(rot)=     6.70 kcal/mol T*S(tot)=    21.61 kcal/mol
 sn=10  qrot/sn=   16284.5815 T*S(rot)=     6.63 kcal/mol T*S(tot)=    21.55 kcal/mol
 sn=11  qrot/sn=   14804.1650 T*S(rot)=     6.58 kcal/mol T*S(tot)=    21.49 kcal/mol
 sn=12  qrot/sn=   13570.4846 T*S(rot)=     6.53 kcal/mol T*S(tot)=    21.44 kcal/mol

-------------------
GIBBS FREE ENTHALPY
-------------------

The Gibbs free enthalpy is G = H - T*S

Total enthalpy                    ...   -289.91408755 Eh
Total entropy correction          ...     -0.03548018 Eh    -22.26 kcal/mol
-----------------------------------------------------------------------
Final Gibbs free enthalpy         ...   -289.94956773 Eh

For completeness - the Gibbs free enthalpy minus the electronic energy
G-E(el)                           ...      0.15029500 Eh     94.31 kcal/mol

                             ****ORCA TERMINATED NORMALLY****
TOTAL RUN TIME: 0 days 0 hours 53 minutes 15 seconds 287 msec
