                         Program Version 3.0.3 - RELEASE   -
|  1> ! NORI PBE0 def2-TZVP UseSym TightOPT Freq TightSCF Grid3 FinalGrid5 XYZFile
|  2> % pal
|  3>     nprocs 8
|  4> end
|  5> %method
|  6>     SymThresh 5.0e-2
|  7> end
|  8> % geom
|  9>     MaxIter 10
| 10> end
| 11> % maxcore 2000
| 12> % output
| 13>     printlevel mini
| 14>     print[ P_Basis ] 0
| 15>     print[ P_SCFInfo ] 1
| 16>     print[ P_SCFIterInfo ] 1
| 17>     print[ P_OrbEn ] 0
| 18>     print[ P_Cartesian ] 0
| 19> end
| 20> % elprop
| 21>     Dipole false
| 22> end
| 23> *xyz 1 1
| 24>  C        1.4706266162    -0.1687604809    -0.3224688169
| 25>  C        2.8603336101     0.0891798419     0.1860367319
| 26>  C        3.6864613170    -1.0111738668     0.7724214046
| 27>  C        4.1007736746    -0.4052498316    -0.5327501361
| 28>  C        5.1447064765     0.6777415227    -0.4910421467
| 29>  N        4.3544484462     1.9256852930    -0.1600705670
| 30>  C        3.1855467526     1.4829796239     0.6885559897
| 31>  H        1.1831156858     0.5446743452    -1.0995344433
| 32>  H        0.7397060708    -0.1019826129     0.4869415921
| 33>  H        1.3991836643    -1.1709947987    -0.7464473796
| 34>  H        4.2951571812    -0.8061503355     1.6469647226
| 35>  H        3.2684084216    -2.0093613955     0.7435534973
| 36>  H        4.0056291021    -0.9813575909    -1.4441092487
| 37>  H        5.6637770222     0.8310793028    -1.4362148287
| 38>  H        5.8840357154     0.5480123640     0.3011361681
| 39>  H        3.9993603800     2.3302669874    -1.0269226869
| 40>  H        4.9217085996     2.6429097887     0.2944742568
| 41>  H        2.3681116483     2.1913180442     0.5557750919
| 42>  H        3.5150496156     1.5104037988     1.7281807991
| 43> *
| 44>
| 45>                          ****END OF INPUT****
 Total Charge           Charge          ....    1
 Multiplicity           Mult            ....    1
 Number of Electrons    NEL             ....   54
FINAL SINGLE POINT ENERGY      -290.106514940345

CARTESIAN COORDINATES (ANGSTROEM)
---------------------------------
  C      1.631493    0.000116   -1.449477
  C      0.400063    0.239306   -0.622976
  C     -0.946924    0.369147   -1.260656
  C     -0.658712   -0.823968   -0.403001
  C     -1.106956   -0.766769    1.032463
  N     -0.000028   -0.000186    1.723854
  C      0.562355    0.960022    0.701870
  H      2.409963   -0.514766   -0.879801
  H      2.045712    0.942690   -1.815072
  H      1.394142   -0.612858   -2.319819
  H     -1.639941    1.114019   -0.883617
  H     -1.003180    0.207522   -2.329752
  H     -0.551751   -1.798552   -0.861273
  H     -1.207493   -1.742372    1.505828
  H     -2.028798   -0.203250    1.184446
  H      0.731860   -0.655507    1.999787
  H     -0.316757    0.469668    2.573341
  H      1.601020    1.171174    0.954097
  H     -0.015931    1.882001    0.775123

FINAL SINGLE POINT ENERGY      -290.106515749364
                    ***********************HURRAY********************
 Multiplicity           Mult            ....    1
 Number of Electrons    NEL             ....   54
 Basis Dimension        Dim             ....  289
FINAL SINGLE POINT ENERGY      -290.106516239458

VIBRATIONAL FREQUENCIES
-----------------------

   0:         0.00 cm**-1
   1:         0.00 cm**-1
   2:         0.00 cm**-1
   3:         0.00 cm**-1
   4:         0.00 cm**-1
   5:         0.00 cm**-1
   6:       143.05 cm**-1
   7:       204.42 cm**-1
   8:       222.11 cm**-1
   9:       327.47 cm**-1
  10:       370.77 cm**-1
  11:       440.02 cm**-1
  12:       576.28 cm**-1
  13:       597.93 cm**-1
  14:       749.84 cm**-1
  15:       835.13 cm**-1
  16:       851.38 cm**-1
  17:       870.82 cm**-1
  18:       882.05 cm**-1
  19:       934.83 cm**-1
  20:       949.71 cm**-1
  21:       954.96 cm**-1
  22:       972.32 cm**-1
  23:      1002.25 cm**-1
  24:      1059.30 cm**-1
  25:      1085.25 cm**-1
  26:      1108.11 cm**-1
  27:      1113.04 cm**-1
  28:      1144.26 cm**-1
  29:      1200.08 cm**-1
  30:      1246.62 cm**-1
  31:      1296.61 cm**-1
  32:      1301.86 cm**-1
  33:      1323.32 cm**-1
  34:      1382.29 cm**-1
  35:      1386.46 cm**-1
  36:      1390.08 cm**-1
  37:      1416.87 cm**-1
  38:      1432.11 cm**-1
  39:      1479.96 cm**-1
  40:      1488.67 cm**-1
  41:      1494.02 cm**-1
  42:      1496.84 cm**-1
  43:      1507.50 cm**-1
  44:      1646.53 cm**-1
  45:      3052.94 cm**-1
  46:      3100.84 cm**-1
  47:      3101.75 cm**-1
  48:      3123.45 cm**-1
  49:      3144.80 cm**-1
  50:      3146.34 cm**-1
  51:      3164.15 cm**-1
  52:      3166.20 cm**-1
  53:      3211.77 cm**-1
  54:      3240.72 cm**-1
  55:      3453.06 cm**-1
  56:      3514.11 cm**-1

IR SPECTRUM
-----------

 Mode    freq (cm**-1)   T**2         TX         TY         TZ
-------------------------------------------------------------------
   6:       143.05    5.057917  ( -1.574487   1.207511   1.058690)
   7:       204.42    0.195954  (  0.386588   0.215429  -0.009725)
   8:       222.11    0.058805  (  0.080286   0.225665  -0.037880)
   9:       327.47    0.503362  ( -0.352092  -0.230586   0.571160)
  10:       370.77    0.439364  ( -0.273498   0.575552  -0.182490)
  11:       440.02    2.651258  (  0.324298   0.288127   1.569418)
  12:       576.28    3.463094  (  1.024395   0.455008  -1.485488)
  13:       597.93    4.704808  (  0.083429  -1.707191  -1.335420)
  14:       749.84    1.466032  ( -0.724350  -0.969394  -0.040303)
  15:       835.13    4.974735  (  1.749308   1.111288  -0.824436)
  16:       851.38    4.143265  (  1.418784  -1.358197   0.534433)
  17:       870.82    4.876031  (  1.625179  -0.031931   1.494592)
  18:       882.05    2.603259  (  0.143045  -0.850828   1.363411)
  19:       934.83    9.124455  (  1.000584   2.190201   1.823816)
  20:       949.71    4.470587  (  1.445203   0.756095  -1.345472)
  21:       954.96    4.538167  (  0.698557   1.320232   1.518938)
  22:       972.32    2.716937  (  1.317681   0.092303  -0.985969)
  23:      1002.25    3.916196  (  1.813081   0.331793  -0.720310)
  24:      1059.30    6.769074  ( -2.466167  -0.428269   0.709704)
  25:      1085.25    2.698373  (  0.818642   1.281762   0.620714)
  26:      1108.11    1.104412  ( -0.311780   0.209396  -0.981509)
  27:      1113.04    1.646921  ( -0.039703  -1.176436  -0.511217)
  28:      1144.26    5.658188  ( -0.753093  -0.871883   2.081071)
  29:      1200.08    3.274272  ( -0.766795  -1.637077  -0.079230)
  30:      1246.62   16.707843  (  2.769002   3.001525  -0.176966)
  31:      1296.61    2.753261  (  1.478616   0.412703  -0.629787)
  32:      1301.86    1.900968  (  0.873975   0.971858  -0.438895)
  33:      1323.32    2.999595  (  0.329424  -1.682528  -0.245301)
  34:      1382.29    0.929316  ( -0.666968  -0.233562  -0.655681)
  35:      1386.46    0.327356  (  0.188531   0.539588  -0.025616)
  36:      1390.08   26.500139  (  3.793752   3.398624  -0.746285)
  37:      1416.87   11.421191  (  1.145483   3.137833  -0.512900)
  38:      1432.11   11.367540  ( -1.863504  -0.801038   2.693182)
  39:      1479.96   12.978330  ( -0.532270  -3.562365   0.067620)
  40:      1488.67   15.379588  (  2.640349   0.069882   2.898838)
  41:      1494.02    6.291290  (  2.093537   1.209549  -0.667371)
  42:      1496.84    3.360995  (  0.928881   1.294879   0.906346)
  43:      1507.50   17.722646  ( -2.496424   2.274807   2.513119)
  44:      1646.53   67.479006  (  2.799992  -1.453385   7.584637)
  45:      3052.94    8.940111  (  2.939269  -0.459255  -0.299818)
  46:      3100.84    2.684230  ( -1.196440  -1.106348   0.169577)
  47:      3101.75    4.943052  (  0.838286  -0.875514  -1.863814)
  48:      3123.45    7.676741  (  1.010983  -1.872242   1.774645)
  49:      3144.80    2.781359  ( -0.178176   1.393611   0.898587)
  50:      3146.34    3.472846  ( -1.655318  -0.374974  -0.769522)
  51:      3164.15    0.353527  ( -0.481462   0.272651   0.217675)
  52:      3166.20    0.118405  ( -0.252813   0.173385   0.156295)
  53:      3211.77    0.233271  (  0.071947   0.390988   0.274268)
  54:      3240.72    0.416052  (  0.579998  -0.271685  -0.076433)
  55:      3453.06   51.801056  (  1.870431  -0.685909   6.916074)
  56:      3514.11   67.637237  (  5.484878  -5.762149  -2.085903)

--------------------------
THERMOCHEMISTRY AT 298.15K
--------------------------

Temperature         ... 298.15 K
Pressure            ... 1.00 atm
Total Mass          ... 98.17 AMU

Throughout the following assumptions are being made:
  (1) The electronic state is orbitally nondegenerate
  (2) There are no thermally accessible electronically excited states
  (3) Hindered rotations indicated by low frequency modes) are not
      treated as such but are treated as vibrations and this may
      case some error
  (4) All equations used are the standard statistical mechanics
      equations for an ideal gas
  (5) All vibrations are strinctly harmonic

------------
INNER ENERGY
------------

The inner energy is: U= E(el) + E(ZPE) + E(vib) + E(rot) + E(trans)
    E(el)   - is the total energy from the electronic structure calculation
              = E(kin-el) + E(nuc-el) + E(el-el) + E(nuc-nuc)
    E(ZPE)  - the the zero temperature vibrational energy from the frequency calculation
    E(vib)  - the the finite temperature correction to E(ZPE) due to population
              of excietd vibrational states
    E(rot)  - is the rotational thermal energy
    E(trans)- is the translational thermal energy

Summary of contributions to the inner energy U:
Electronic energy                ...   -290.10651624 Eh
Zero point energy                ...      0.17839248 Eh     111.94 kcal/mol
Thermal vibrational correction   ...      0.00388123 Eh       2.44 kcal/mol
Thermal rotational correction    ...      0.00141627 Eh       0.89 kcal/mol
Thermal translational correction ...      0.00141627 Eh       0.89 kcal/mol
-----------------------------------------------------------------------
Total thermal energy                   -289.92140999 Eh

Summary of corrections to the electronic energy:
(perhaps to be used in another calculation)
Total thermal correction                  0.00671377 Eh       4.21 kcal/mol
Non-thermal (ZPE) correction              0.17839248 Eh     111.94 kcal/mol
-----------------------------------------------------------------------
Total correction                          0.18510625 Eh     116.16 kcal/mol

--------
ENTHALPY
--------

The enthalpy is H = U + kB*T
                kB is Boltzmann's constant
Total free energy                 ...   -289.92140999 Eh
Thermal Enthalpy correction       ...      0.00094421 Eh       0.59 kcal/mol
-----------------------------------------------------------------------
Total Enthalpy                    ...   -289.92046578 Eh

-------
ENTROPY
-------

The entropy contributions are T*S = T*(S(el)+S(vib)+S(rot)+S(trans)
     S(el)   - electronic entropy
     S(vib)  - vibrational entropy
     S(rot)  - rotational entropy
     S(trans)- translational entropy
The entropies will be listed as mutliplied by the temperature to get
units of energy

Electronic entropy                ...      0.00000000 Eh      0.00 kcal/mol
Vibrational entropy               ...      0.00617481 Eh      3.87 kcal/mol
Rotational entropy                ...      0.01182272 Eh      7.42 kcal/mol
Translational entropy             ...      0.01884507 Eh     11.83 kcal/mol
-----------------------------------------------------------------------
Final entropy term                ...      0.03684260 Eh     23.12 kcal/mol

CAUTION: The rotational entropy is not quite correctly treated here
         because it includes a symmetry number that is not yet correctly
         implemented in ORCA!
For a nonlinear molecule the correct rotational entropy is:
    S(rot) = R*(ln(qrot/sn)+1.5)
    R    = 8.31441 J/mol/K = 1.987191683e-3 kcal/mol/K
    qrot = 183557.7326479
    sn is the rotational symmetry number. We have assumed 3 here
       if it is different for your molecule then you should correct
       the printed rotational entropy by manually evaluating the equation
       as given above

For convenience we print out the resulting values for sn=1 - 12:
 sn= 1  qrot/sn=  183557.7326 T*S(rot)=     8.07 kcal/mol T*S(tot)=    23.77 kcal/mol
 sn= 2  qrot/sn=   91778.8663 T*S(rot)=     7.66 kcal/mol T*S(tot)=    23.36 kcal/mol
 sn= 3  qrot/sn=   61185.9109 T*S(rot)=     7.42 kcal/mol T*S(tot)=    23.12 kcal/mol
 sn= 4  qrot/sn=   45889.4332 T*S(rot)=     7.25 kcal/mol T*S(tot)=    22.95 kcal/mol
 sn= 5  qrot/sn=   36711.5465 T*S(rot)=     7.12 kcal/mol T*S(tot)=    22.82 kcal/mol
 sn= 6  qrot/sn=   30592.9554 T*S(rot)=     7.01 kcal/mol T*S(tot)=    22.71 kcal/mol
 sn= 7  qrot/sn=   26222.5332 T*S(rot)=     6.92 kcal/mol T*S(tot)=    22.62 kcal/mol
 sn= 8  qrot/sn=   22944.7166 T*S(rot)=     6.84 kcal/mol T*S(tot)=    22.54 kcal/mol
 sn= 9  qrot/sn=   20395.3036 T*S(rot)=     6.77 kcal/mol T*S(tot)=    22.47 kcal/mol
 sn=10  qrot/sn=   18355.7733 T*S(rot)=     6.71 kcal/mol T*S(tot)=    22.41 kcal/mol
 sn=11  qrot/sn=   16687.0666 T*S(rot)=     6.65 kcal/mol T*S(tot)=    22.35 kcal/mol
 sn=12  qrot/sn=   15296.4777 T*S(rot)=     6.60 kcal/mol T*S(tot)=    22.30 kcal/mol

-------------------
GIBBS FREE ENTHALPY
-------------------

The Gibbs free enthalpy is G = H - T*S

Total enthalpy                    ...   -289.92046578 Eh
Total entropy correction          ...     -0.03684260 Eh    -23.12 kcal/mol
-----------------------------------------------------------------------
Final Gibbs free enthalpy         ...   -289.95730838 Eh

For completeness - the Gibbs free enthalpy minus the electronic energy
G-E(el)                           ...      0.14920786 Eh     93.63 kcal/mol

                             ****ORCA TERMINATED NORMALLY****
TOTAL RUN TIME: 0 days 0 hours 54 minutes 18 seconds 947 msec
