                         Program Version 3.0.3 - RELEASE   -
|  1> ! NORI PBE0 def2-TZVP UseSym TightOPT Freq TightSCF Grid3 FinalGrid5 XYZFile
|  2> % pal
|  3>     nprocs 8
|  4> end
|  5> %method
|  6>     SymThresh 5.0e-2
|  7> end
|  8> % geom
|  9>     MaxIter 10
| 10> end
| 11> % maxcore 2000
| 12> % output
| 13>     printlevel mini
| 14>     print[ P_Basis ] 0
| 15>     print[ P_SCFInfo ] 1
| 16>     print[ P_SCFIterInfo ] 1
| 17>     print[ P_OrbEn ] 0
| 18>     print[ P_Cartesian ] 0
| 19> end
| 20> % elprop
| 21>     Dipole false
| 22> end
| 23> *xyz 1 1
| 24>  C        1.0702896622     0.0271709708    -0.1303934703
| 25>  C        2.5623939503     0.1470395583    -0.0473432732
| 26>  C        3.5309492139    -0.4286517970    -1.1186871198
| 27>  C        4.5576875443    -0.2926778423     0.0069154966
| 28>  C        3.4294353528    -0.6288270699     0.9836720315
| 29>  N        4.6109457912     1.2138674535     0.1539853454
| 30>  C        3.1268495964     1.5563898136     0.1143707885
| 31>  H        0.6761922044     0.5849153655    -0.9834251618
| 32>  H        0.5921691500     0.4132022909     0.7733014771
| 33>  H        0.7737324491    -1.0160230952    -0.2459542726
| 34>  H        3.6895966015     0.1220981073    -2.0491510047
| 35>  H        3.3262467449    -1.4753852881    -1.3336410846
| 36>  H        5.5521884724    -0.7328514571     0.0128131152
| 37>  H        3.2138030719    -1.6956449743     0.9774985733
| 38>  H        3.4943535648    -0.2639107557     2.0121036890
| 39>  H        5.1292908583     1.6532751232    -0.6057192439
| 40>  H        5.0482583970     1.4952153133     1.0306487830
| 41>  H        2.8452126485     2.0491948886     1.0444715208
| 42>  H        2.9313847261     2.2185033945    -0.7287161894
| 43> *
| 44>
| 45>                          ****END OF INPUT****
 Total Charge           Charge          ....    1
 Multiplicity           Mult            ....    1
 Number of Electrons    NEL             ....   54
FINAL SINGLE POINT ENERGY      -290.105220197426
FINAL SINGLE POINT ENERGY      -290.105220929138

CARTESIAN COORDINATES (ANGSTROEM)
---------------------------------
  C     -1.927747   -1.105750    0.000000
  C     -0.644005   -0.331077    0.000000
  C     -0.296962    0.755079    1.056974
  C      0.717868    1.193583    0.000000
  C     -0.296962    0.755078   -1.056974
  N      1.651258   -0.000268    0.000000
  C      0.647093   -1.146694   -0.000000
  H     -2.003497   -1.743986    0.883601
  H     -2.003497   -1.743986   -0.883601
  H     -2.784419   -0.430692    0.000000
  H      0.064375    0.449002    2.041924
  H     -1.092114    1.490897    1.161616
  H      1.265756    2.132878    0.000000
  H     -1.092114    1.490897   -1.161616
  H      0.064375    0.449002   -2.041924
  H      2.252459   -0.013684    0.823011
  H      2.252459   -0.013684   -0.823011
  H      0.794473   -1.755067   -0.891471
  H      0.794473   -1.755067    0.891471

FINAL SINGLE POINT ENERGY      -290.105221037346
                    ***********************HURRAY********************
 Multiplicity           Mult            ....    1
 Number of Electrons    NEL             ....   54
 Basis Dimension        Dim             ....  289
FINAL SINGLE POINT ENERGY      -290.105221051288

VIBRATIONAL FREQUENCIES
-----------------------

   0:         0.00 cm**-1
   1:         0.00 cm**-1
   2:         0.00 cm**-1
   3:         0.00 cm**-1
   4:         0.00 cm**-1
   5:         0.00 cm**-1
   6:       213.74 cm**-1
   7:       255.95 cm**-1
   8:       294.14 cm**-1
   9:       348.41 cm**-1
  10:       444.01 cm**-1
  11:       519.38 cm**-1
  12:       591.69 cm**-1
  13:       689.89 cm**-1
  14:       832.21 cm**-1
  15:       834.07 cm**-1
  16:       862.71 cm**-1
  17:       864.71 cm**-1
  18:       893.01 cm**-1
  19:       911.59 cm**-1
  20:       943.66 cm**-1
  21:       964.82 cm**-1
  22:       984.76 cm**-1
  23:       999.29 cm**-1
  24:      1034.71 cm**-1
  25:      1067.82 cm**-1
  26:      1123.85 cm**-1
  27:      1155.60 cm**-1
  28:      1169.03 cm**-1
  29:      1209.90 cm**-1
  30:      1220.80 cm**-1
  31:      1261.49 cm**-1
  32:      1271.08 cm**-1
  33:      1291.71 cm**-1
  34:      1305.34 cm**-1
  35:      1320.32 cm**-1
  36:      1368.89 cm**-1
  37:      1390.65 cm**-1
  38:      1425.91 cm**-1
  39:      1476.09 cm**-1
  40:      1484.03 cm**-1
  41:      1487.14 cm**-1
  42:      1500.02 cm**-1
  43:      1517.15 cm**-1
  44:      1654.93 cm**-1
  45:      3059.13 cm**-1
  46:      3082.89 cm**-1
  47:      3085.46 cm**-1
  48:      3110.17 cm**-1
  49:      3131.51 cm**-1
  50:      3146.72 cm**-1
  51:      3167.65 cm**-1
  52:      3170.97 cm**-1
  53:      3174.23 cm**-1
  54:      3174.68 cm**-1
  55:      3469.62 cm**-1
  56:      3531.14 cm**-1

IR SPECTRUM
-----------

 Mode    freq (cm**-1)   T**2         TX         TY         TZ
-------------------------------------------------------------------
   6:       213.74    0.006730  (  0.000000   0.000001  -0.082038)
   7:       255.95    2.900099  ( -0.000001   0.000001  -1.702968)
   8:       294.14    0.626130  ( -0.128656  -0.780754   0.000005)
   9:       348.41    0.638656  (  0.000000  -0.000001  -0.799159)
  10:       444.01    2.606672  ( -0.000001  -0.000009   1.614519)
  11:       519.38    0.651140  (  0.722149  -0.360057   0.000005)
  12:       591.69    1.440123  (  1.141068   0.371599   0.000006)
  13:       689.89    1.896152  ( -1.338069   0.325151   0.000001)
  14:       832.21    1.162722  ( -0.374174  -1.011294   0.000028)
  15:       834.07    0.081070  (  0.000025   0.000050   0.284728)
  16:       862.71    3.280231  (  0.000216   0.000019   1.811141)
  17:       864.71    8.243074  (  2.865413   0.180229  -0.000138)
  18:       893.01    0.000050  (  0.000014  -0.000003  -0.007080)
  19:       911.59    1.644794  (  0.406629   1.216325   0.000005)
  20:       943.66    0.587686  ( -0.504311   0.577371  -0.000017)
  21:       964.82    3.212144  (  0.000003  -0.000001   1.792245)
  22:       984.76    0.342950  ( -0.000003  -0.000055  -0.585619)
  23:       999.29    5.497761  ( -0.126062   2.341339  -0.000004)
  24:      1034.71    3.816131  (  0.881318   1.743390  -0.000034)
  25:      1067.82    1.972836  ( -0.000009  -0.000040  -1.404577)
  26:      1123.85    2.849939  (  0.473257   1.620483   0.000007)
  27:      1155.60    4.679448  ( -0.000004  -0.000003   2.163203)
  28:      1169.03    0.094933  (  0.000002  -0.000013  -0.308111)
  29:      1209.90   10.851241  (  2.014026  -2.606711  -0.000000)
  30:      1220.80    0.935820  (  0.000006   0.000007   0.967378)
  31:      1261.49   30.231761  (  0.554631   5.470297  -0.000001)
  32:      1271.08    0.173826  ( -0.414452   0.045340  -0.000006)
  33:      1291.71    0.717605  ( -0.000008   0.000008  -0.847116)
  34:      1305.34    5.946949  ( -2.098408   1.242430  -0.000002)
  35:      1320.32    0.495422  ( -0.000027  -0.000030   0.703862)
  36:      1368.89   43.416121  (  1.477006   6.421415  -0.000001)
  37:      1390.65   10.690603  ( -2.522744  -2.079992  -0.000009)
  38:      1425.91   10.747327  (  3.091097   1.091992  -0.000007)
  39:      1476.09   13.045251  (  0.000008   0.000001  -3.611821)
  40:      1484.03    6.895841  ( -1.286549   2.289242  -0.000098)
  41:      1487.14   12.013054  (  0.000025  -0.000049  -3.465985)
  42:      1500.02   17.046298  (  2.437933  -3.332084   0.000010)
  43:      1517.15    1.364241  ( -1.167978  -0.008293  -0.000014)
  44:      1654.93   63.333249  ( -7.936872   0.582509   0.000002)
  45:      3059.13    4.185998  (  1.433273   1.460043   0.000014)
  46:      3082.89   17.407328  ( -0.000013   0.000012  -4.172209)
  47:      3085.46    1.460032  ( -1.091381   0.518574   0.000053)
  48:      3110.17    3.512516  (  0.499147  -1.806479  -0.000002)
  49:      3131.51    4.789146  (  0.000005  -0.000000  -2.188412)
  50:      3146.72    3.594982  ( -0.993570   1.614869  -0.000000)
  51:      3167.65    3.547797  ( -0.000004  -0.000002   1.883560)
  52:      3170.97    2.807314  (  1.449790   0.839895   0.000002)
  53:      3174.23    1.417015  (  0.000001   0.000028  -1.190384)
  54:      3174.68    0.726298  ( -0.097248  -0.846664  -0.000075)
  55:      3469.62   63.060773  ( -7.938511  -0.202015   0.000000)
  56:      3531.14   69.965783  ( -0.000000   0.000000   8.364555)

--------------------------
THERMOCHEMISTRY AT 298.15K
--------------------------

Temperature         ... 298.15 K
Pressure            ... 1.00 atm
Total Mass          ... 98.17 AMU

Throughout the following assumptions are being made:
  (1) The electronic state is orbitally nondegenerate
  (2) There are no thermally accessible electronically excited states
  (3) Hindered rotations indicated by low frequency modes) are not
      treated as such but are treated as vibrations and this may
      case some error
  (4) All equations used are the standard statistical mechanics
      equations for an ideal gas
  (5) All vibrations are strinctly harmonic

------------
INNER ENERGY
------------

The inner energy is: U= E(el) + E(ZPE) + E(vib) + E(rot) + E(trans)
    E(el)   - is the total energy from the electronic structure calculation
              = E(kin-el) + E(nuc-el) + E(el-el) + E(nuc-nuc)
    E(ZPE)  - the the zero temperature vibrational energy from the frequency calculation
    E(vib)  - the the finite temperature correction to E(ZPE) due to population
              of excietd vibrational states
    E(rot)  - is the rotational thermal energy
    E(trans)- is the translational thermal energy

Summary of contributions to the inner energy U:
Electronic energy                ...   -290.10522105 Eh
Zero point energy                ...      0.17881034 Eh     112.20 kcal/mol
Thermal vibrational correction   ...      0.00336555 Eh       2.11 kcal/mol
Thermal rotational correction    ...      0.00141627 Eh       0.89 kcal/mol
Thermal translational correction ...      0.00141627 Eh       0.89 kcal/mol
-----------------------------------------------------------------------
Total thermal energy                   -289.92021262 Eh

Summary of corrections to the electronic energy:
(perhaps to be used in another calculation)
Total thermal correction                  0.00619810 Eh       3.89 kcal/mol
Non-thermal (ZPE) correction              0.17881034 Eh     112.20 kcal/mol
-----------------------------------------------------------------------
Total correction                          0.18500843 Eh     116.09 kcal/mol

--------
ENTHALPY
--------

The enthalpy is H = U + kB*T
                kB is Boltzmann's constant
Total free energy                 ...   -289.92021262 Eh
Thermal Enthalpy correction       ...      0.00094421 Eh       0.59 kcal/mol
-----------------------------------------------------------------------
Total Enthalpy                    ...   -289.91926841 Eh

-------
ENTROPY
-------

The entropy contributions are T*S = T*(S(el)+S(vib)+S(rot)+S(trans)
     S(el)   - electronic entropy
     S(vib)  - vibrational entropy
     S(rot)  - rotational entropy
     S(trans)- translational entropy
The entropies will be listed as mutliplied by the temperature to get
units of energy

Electronic entropy                ...      0.00000000 Eh      0.00 kcal/mol
Vibrational entropy               ...      0.00501861 Eh      3.15 kcal/mol
Rotational entropy                ...      0.01172061 Eh      7.35 kcal/mol
Translational entropy             ...      0.01884507 Eh     11.83 kcal/mol
-----------------------------------------------------------------------
Final entropy term                ...      0.03558429 Eh     22.33 kcal/mol

CAUTION: The rotational entropy is not quite correctly treated here
         because it includes a symmetry number that is not yet correctly
         implemented in ORCA!
For a nonlinear molecule the correct rotational entropy is:
    S(rot) = R*(ln(qrot/sn)+1.5)
    R    = 8.31441 J/mol/K = 1.987191683e-3 kcal/mol/K
    qrot = 164740.9925242
    sn is the rotational symmetry number. We have assumed 3 here
       if it is different for your molecule then you should correct
       the printed rotational entropy by manually evaluating the equation
       as given above

For convenience we print out the resulting values for sn=1 - 12:
 sn= 1  qrot/sn=  164740.9925 T*S(rot)=     8.01 kcal/mol T*S(tot)=    22.98 kcal/mol
 sn= 2  qrot/sn=   82370.4963 T*S(rot)=     7.60 kcal/mol T*S(tot)=    22.57 kcal/mol
 sn= 3  qrot/sn=   54913.6642 T*S(rot)=     7.35 kcal/mol T*S(tot)=    22.33 kcal/mol
 sn= 4  qrot/sn=   41185.2481 T*S(rot)=     7.18 kcal/mol T*S(tot)=    22.16 kcal/mol
 sn= 5  qrot/sn=   32948.1985 T*S(rot)=     7.05 kcal/mol T*S(tot)=    22.03 kcal/mol
 sn= 6  qrot/sn=   27456.8321 T*S(rot)=     6.94 kcal/mol T*S(tot)=    21.92 kcal/mol
 sn= 7  qrot/sn=   23534.4275 T*S(rot)=     6.85 kcal/mol T*S(tot)=    21.83 kcal/mol
 sn= 8  qrot/sn=   20592.6241 T*S(rot)=     6.77 kcal/mol T*S(tot)=    21.75 kcal/mol
 sn= 9  qrot/sn=   18304.5547 T*S(rot)=     6.70 kcal/mol T*S(tot)=    21.68 kcal/mol
 sn=10  qrot/sn=   16474.0993 T*S(rot)=     6.64 kcal/mol T*S(tot)=    21.62 kcal/mol
 sn=11  qrot/sn=   14976.4539 T*S(rot)=     6.58 kcal/mol T*S(tot)=    21.56 kcal/mol
 sn=12  qrot/sn=   13728.4160 T*S(rot)=     6.53 kcal/mol T*S(tot)=    21.51 kcal/mol

-------------------
GIBBS FREE ENTHALPY
-------------------

The Gibbs free enthalpy is G = H - T*S

Total enthalpy                    ...   -289.91926841 Eh
Total entropy correction          ...     -0.03558429 Eh    -22.33 kcal/mol
-----------------------------------------------------------------------
Final Gibbs free enthalpy         ...   -289.95485270 Eh

For completeness - the Gibbs free enthalpy minus the electronic energy
G-E(el)                           ...      0.15036835 Eh     94.36 kcal/mol

                             ****ORCA TERMINATED NORMALLY****
TOTAL RUN TIME: 0 days 0 hours 57 minutes 41 seconds 178 msec
