                         Program Version 3.0.3 - RELEASE   -
|  1> ! NORI PBE0 def2-TZVP UseSym TightOPT Freq TightSCF Grid3 FinalGrid5 XYZFile
|  2> % pal
|  3>     nprocs 8
|  4> end
|  5> %method
|  6>     SymThresh 5.0e-2
|  7> end
|  8> % geom
|  9>     MaxIter 10
| 10> end
| 11> % maxcore 2000
| 12> % output
| 13>     printlevel mini
| 14>     print[ P_Basis ] 0
| 15>     print[ P_SCFInfo ] 1
| 16>     print[ P_SCFIterInfo ] 1
| 17>     print[ P_OrbEn ] 0
| 18>     print[ P_Cartesian ] 0
| 19> end
| 20> % elprop
| 21>     Dipole false
| 22> end
| 23> *xyz 1 1
| 24>  C        1.1314053748     0.0096545618     0.0915536090
| 25>  C        2.6405790131     0.0118346219    -0.0022130516
| 26>  C        3.2946418929    -0.9765092133    -0.9967112658
| 27>  C        4.7862283547    -0.7476762465    -0.8055314681
| 28>  C        4.7871110491     0.8061574073    -0.7692876883
| 29>  C        3.2956587573     1.0454100321    -0.9489193737
| 30>  N        2.9929384622     0.0609313297    -2.0809061920
| 31>  H        0.7852700268     0.8779576760     0.6550274857
| 32>  H        0.7858994230    -0.8828575496     0.6162855322
| 33>  H        0.6201250848     0.0300459706    -0.8760902177
| 34>  H        3.0897389806    -0.0117007179     0.9910062747
| 35>  H        2.9136469682    -1.9774350752    -1.1869365333
| 36>  H        5.3850626289    -1.1625439354    -1.6177524701
| 37>  H        5.1257602227    -1.2030145067     0.1238278614
| 38>  H        5.1282995178     1.2175991243     0.1796698058
| 39>  H        5.3855019087     1.2573880744    -1.5621592922
| 40>  H        2.9158471374     2.0546688605    -1.0915626895
| 41>  H        3.5906440133     0.0802937631    -2.9073156109
| 42>  H        2.0127911837     0.0680458229    -2.3551647156
| 43> *
| 44>
| 45>                          ****END OF INPUT****
 Total Charge           Charge          ....    1
 Multiplicity           Mult            ....    1
 Number of Electrons    NEL             ....   54
FINAL SINGLE POINT ENERGY      -290.104125627383

CARTESIAN COORDINATES (ANGSTROEM)
---------------------------------
  C     -0.457115   -2.260181   -0.000000
  C     -0.667484   -0.762546    0.000000
  C      0.152337    0.073531    1.011228
  C     -0.329679    1.497281    0.777170
  C     -0.329679    1.497281   -0.777170
  C      0.152337    0.073531   -1.011228
  N      1.298858   -0.000071    0.000000
  H     -0.920886   -2.707744   -0.880539
  H     -0.920886   -2.707744    0.880539
  H      0.593728   -2.567177   -0.000000
  H     -1.730756   -0.521836    0.000000
  H      0.391770   -0.265627    2.016532
  H      0.335953    2.245425    1.210141
  H     -1.318445    1.641526    1.210610
  H     -1.318445    1.641526   -1.210610
  H      0.335953    2.245425   -1.210141
  H      0.391770   -0.265627   -2.016532
  H      1.988615    0.751327   -0.000000
  H      1.764151   -0.905339    0.000000

FINAL SINGLE POINT ENERGY      -290.104126285088
                    ***********************HURRAY********************
 Multiplicity           Mult            ....    1
 Number of Electrons    NEL             ....   54
 Basis Dimension        Dim             ....  289
FINAL SINGLE POINT ENERGY      -290.104126450268

VIBRATIONAL FREQUENCIES
-----------------------

   0:         0.00 cm**-1
   1:         0.00 cm**-1
   2:         0.00 cm**-1
   3:         0.00 cm**-1
   4:         0.00 cm**-1
   5:         0.00 cm**-1
   6:       199.63 cm**-1
   7:       265.32 cm**-1
   8:       271.00 cm**-1
   9:       317.57 cm**-1
  10:       442.31 cm**-1
  11:       529.72 cm**-1
  12:       654.62 cm**-1
  13:       792.89 cm**-1
  14:       796.77 cm**-1
  15:       805.53 cm**-1
  16:       845.74 cm**-1
  17:       877.97 cm**-1
  18:       932.10 cm**-1
  19:       946.99 cm**-1
  20:       963.90 cm**-1
  21:       993.84 cm**-1
  22:      1009.39 cm**-1
  23:      1032.22 cm**-1
  24:      1083.69 cm**-1
  25:      1084.43 cm**-1
  26:      1119.41 cm**-1
  27:      1124.17 cm**-1
  28:      1159.13 cm**-1
  29:      1186.88 cm**-1
  30:      1225.16 cm**-1
  31:      1251.06 cm**-1
  32:      1267.44 cm**-1
  33:      1283.71 cm**-1
  34:      1297.57 cm**-1
  35:      1315.10 cm**-1
  36:      1331.05 cm**-1
  37:      1339.11 cm**-1
  38:      1404.03 cm**-1
  39:      1429.28 cm**-1
  40:      1475.14 cm**-1
  41:      1487.76 cm**-1
  42:      1499.09 cm**-1
  43:      1508.32 cm**-1
  44:      1637.71 cm**-1
  45:      3049.89 cm**-1
  46:      3099.18 cm**-1
  47:      3105.15 cm**-1
  48:      3115.73 cm**-1
  49:      3133.01 cm**-1
  50:      3148.65 cm**-1
  51:      3151.20 cm**-1
  52:      3163.75 cm**-1
  53:      3171.23 cm**-1
  54:      3172.36 cm**-1
  55:      3462.54 cm**-1
  56:      3549.42 cm**-1

IR SPECTRUM
-----------

 Mode    freq (cm**-1)   T**2         TX         TY         TZ
-------------------------------------------------------------------
   6:       199.63    0.064644  (  0.000000   0.000000   0.254253)
   7:       265.32    4.062489  ( -1.580109  -1.251297   0.000013)
   8:       271.00    0.108553  (  0.000054   0.000044   0.329474)
   9:       317.57    0.810671  (  0.000002   0.000002   0.900373)
  10:       442.31    6.287361  ( -0.307890  -2.488486   0.000001)
  11:       529.72    2.969492  ( -0.558898  -1.630069  -0.000001)
  12:       654.62    0.102252  (  0.000000   0.000001  -0.319768)
  13:       792.89    1.807345  (  0.000004   0.000010   1.344375)
  14:       796.77    1.730794  (  0.062731   1.314100  -0.000011)
  15:       805.53    5.747970  ( -1.942567   1.405134   0.000002)
  16:       845.74    5.564513  ( -2.350679  -0.197031   0.000001)
  17:       877.97    0.216205  (  0.000007   0.000002   0.464979)
  18:       932.10    0.643550  ( -0.643061   0.479606  -0.000004)
  19:       946.99    3.321377  ( -0.000000   0.000003   1.822464)
  20:       963.90    5.950012  (  1.516645   1.910445  -0.000004)
  21:       993.84    0.830520  (  0.000002   0.000004   0.911329)
  22:      1009.39    3.366862  ( -0.812420   1.645246  -0.000000)
  23:      1032.22    2.146963  (  0.253590  -1.443141   0.000000)
  24:      1083.69    1.683739  (  0.224693   1.277987   0.000002)
  25:      1084.43    2.934880  (  0.000001  -0.000001   1.713149)
  26:      1119.41    4.568667  ( -1.555728  -1.465734   0.000000)
  27:      1124.17    0.581756  (  0.000007   0.000007  -0.762730)
  28:      1159.13   25.592686  (  0.000000   0.000001  -5.058921)
  29:      1186.88    6.168552  (  1.012057   2.268103   0.000004)
  30:      1225.16    6.130128  ( -0.000001  -0.000000   2.475909)
  31:      1251.06   27.396010  (  0.000000  -0.000001   5.234120)
  32:      1267.44    5.593625  ( -1.071318   2.108531  -0.000002)
  33:      1283.71   15.680889  ( -0.000001   0.000001   3.959910)
  34:      1297.57    2.117938  (  0.000000  -0.000000  -1.455314)
  35:      1315.10    1.429840  (  0.116586  -1.190062  -0.000005)
  36:      1331.05    1.015872  (  0.215211   0.984661   0.000004)
  37:      1339.11   17.366109  (  0.000000  -0.000001   4.167266)
  38:      1404.03    0.460788  (  0.422642   0.531189   0.000001)
  39:      1429.28    4.198183  ( -0.004110   2.048943  -0.000000)
  40:      1475.14   13.720453  (  0.000000  -0.000000   3.704113)
  41:      1487.76    2.588329  ( -0.000000   0.000001  -1.608829)
  42:      1499.09    4.212018  ( -1.195751  -1.667992  -0.000000)
  43:      1508.32   19.260134  (  3.313447  -2.877708  -0.000001)
  44:      1637.71   94.123791  ( -9.700197  -0.173142  -0.000000)
  45:      3049.89   10.614721  ( -2.975904   1.326165   0.000000)
  46:      3099.18    3.661371  ( -0.000000  -0.000000  -1.913471)
  47:      3105.15    4.092531  (  1.021542   1.746133  -0.000000)
  48:      3115.73    3.942958  (  1.595475   1.182125   0.000000)
  49:      3133.01    7.847394  ( -2.781490   0.332725   0.000000)
  50:      3148.65    1.343438  ( -0.000000   0.000000   1.159068)
  51:      3151.20    0.005995  ( -0.000000  -0.000000  -0.077430)
  52:      3163.75    1.845075  ( -0.782122  -1.110567   0.000000)
  53:      3171.23    3.103340  ( -0.000000   0.000000  -1.761630)
  54:      3172.36    0.425814  (  0.186774  -0.625243  -0.000001)
  55:      3462.54   42.714631  (  6.533609  -0.163038   0.000000)
  56:      3549.42   64.812472  ( -0.134781   8.049491   0.000000)

--------------------------
THERMOCHEMISTRY AT 298.15K
--------------------------

Temperature         ... 298.15 K
Pressure            ... 1.00 atm
Total Mass          ... 98.17 AMU

Throughout the following assumptions are being made:
  (1) The electronic state is orbitally nondegenerate
  (2) There are no thermally accessible electronically excited states
  (3) Hindered rotations indicated by low frequency modes) are not
      treated as such but are treated as vibrations and this may
      case some error
  (4) All equations used are the standard statistical mechanics
      equations for an ideal gas
  (5) All vibrations are strinctly harmonic

------------
INNER ENERGY
------------

The inner energy is: U= E(el) + E(ZPE) + E(vib) + E(rot) + E(trans)
    E(el)   - is the total energy from the electronic structure calculation
              = E(kin-el) + E(nuc-el) + E(el-el) + E(nuc-nuc)
    E(ZPE)  - the the zero temperature vibrational energy from the frequency calculation
    E(vib)  - the the finite temperature correction to E(ZPE) due to population
              of excietd vibrational states
    E(rot)  - is the rotational thermal energy
    E(trans)- is the translational thermal energy

Summary of contributions to the inner energy U:
Electronic energy                ...   -290.10412645 Eh
Zero point energy                ...      0.17885640 Eh     112.23 kcal/mol
Thermal vibrational correction   ...      0.00335952 Eh       2.11 kcal/mol
Thermal rotational correction    ...      0.00141627 Eh       0.89 kcal/mol
Thermal translational correction ...      0.00141627 Eh       0.89 kcal/mol
-----------------------------------------------------------------------
Total thermal energy                   -289.91907799 Eh

Summary of corrections to the electronic energy:
(perhaps to be used in another calculation)
Total thermal correction                  0.00619206 Eh       3.89 kcal/mol
Non-thermal (ZPE) correction              0.17885640 Eh     112.23 kcal/mol
-----------------------------------------------------------------------
Total correction                          0.18504846 Eh     116.12 kcal/mol

--------
ENTHALPY
--------

The enthalpy is H = U + kB*T
                kB is Boltzmann's constant
Total free energy                 ...   -289.91907799 Eh
Thermal Enthalpy correction       ...      0.00094421 Eh       0.59 kcal/mol
-----------------------------------------------------------------------
Total Enthalpy                    ...   -289.91813378 Eh

-------
ENTROPY
-------

The entropy contributions are T*S = T*(S(el)+S(vib)+S(rot)+S(trans)
     S(el)   - electronic entropy
     S(vib)  - vibrational entropy
     S(rot)  - rotational entropy
     S(trans)- translational entropy
The entropies will be listed as mutliplied by the temperature to get
units of energy

Electronic entropy                ...      0.00000000 Eh      0.00 kcal/mol
Vibrational entropy               ...      0.00507168 Eh      3.18 kcal/mol
Rotational entropy                ...      0.01173788 Eh      7.37 kcal/mol
Translational entropy             ...      0.01884507 Eh     11.83 kcal/mol
-----------------------------------------------------------------------
Final entropy term                ...      0.03565463 Eh     22.37 kcal/mol

CAUTION: The rotational entropy is not quite correctly treated here
         because it includes a symmetry number that is not yet correctly
         implemented in ORCA!
For a nonlinear molecule the correct rotational entropy is:
    S(rot) = R*(ln(qrot/sn)+1.5)
    R    = 8.31441 J/mol/K = 1.987191683e-3 kcal/mol/K
    qrot = 167783.2410551
    sn is the rotational symmetry number. We have assumed 3 here
       if it is different for your molecule then you should correct
       the printed rotational entropy by manually evaluating the equation
       as given above

For convenience we print out the resulting values for sn=1 - 12:
 sn= 1  qrot/sn=  167783.2411 T*S(rot)=     8.02 kcal/mol T*S(tot)=    23.02 kcal/mol
 sn= 2  qrot/sn=   83891.6205 T*S(rot)=     7.61 kcal/mol T*S(tot)=    22.61 kcal/mol
 sn= 3  qrot/sn=   55927.7470 T*S(rot)=     7.37 kcal/mol T*S(tot)=    22.37 kcal/mol
 sn= 4  qrot/sn=   41945.8103 T*S(rot)=     7.20 kcal/mol T*S(tot)=    22.20 kcal/mol
 sn= 5  qrot/sn=   33556.6482 T*S(rot)=     7.06 kcal/mol T*S(tot)=    22.07 kcal/mol
 sn= 6  qrot/sn=   27963.8735 T*S(rot)=     6.95 kcal/mol T*S(tot)=    21.96 kcal/mol
 sn= 7  qrot/sn=   23969.0344 T*S(rot)=     6.86 kcal/mol T*S(tot)=    21.87 kcal/mol
 sn= 8  qrot/sn=   20972.9051 T*S(rot)=     6.78 kcal/mol T*S(tot)=    21.79 kcal/mol
 sn= 9  qrot/sn=   18642.5823 T*S(rot)=     6.71 kcal/mol T*S(tot)=    21.72 kcal/mol
 sn=10  qrot/sn=   16778.3241 T*S(rot)=     6.65 kcal/mol T*S(tot)=    21.66 kcal/mol
 sn=11  qrot/sn=   15253.0219 T*S(rot)=     6.60 kcal/mol T*S(tot)=    21.60 kcal/mol
 sn=12  qrot/sn=   13981.9368 T*S(rot)=     6.54 kcal/mol T*S(tot)=    21.55 kcal/mol

-------------------
GIBBS FREE ENTHALPY
-------------------

The Gibbs free enthalpy is G = H - T*S

Total enthalpy                    ...   -289.91813378 Eh
Total entropy correction          ...     -0.03565463 Eh    -22.37 kcal/mol
-----------------------------------------------------------------------
Final Gibbs free enthalpy         ...   -289.95378841 Eh

For completeness - the Gibbs free enthalpy minus the electronic energy
G-E(el)                           ...      0.15033804 Eh     94.34 kcal/mol

                             ****ORCA TERMINATED NORMALLY****
TOTAL RUN TIME: 0 days 0 hours 57 minutes 46 seconds 624 msec
