                         Program Version 3.0.3 - RELEASE   -
|  1> ! NORI PBE0 def2-TZVP UseSym TightOPT Freq TightSCF Grid3 FinalGrid5 XYZFile
|  2> % pal
|  3>     nprocs 8
|  4> end
|  5> %method
|  6>     SymThresh 5.0e-2
|  7> end
|  8> % geom
|  9>     MaxIter 10
| 10> end
| 11> % maxcore 2000
| 12> % output
| 13>     printlevel mini
| 14>     print[ P_Basis ] 0
| 15>     print[ P_SCFInfo ] 1
| 16>     print[ P_SCFIterInfo ] 1
| 17>     print[ P_OrbEn ] 0
| 18>     print[ P_Cartesian ] 0
| 19> end
| 20> % elprop
| 21>     Dipole false
| 22> end
| 23> *xyz 1 1
| 24>  C        0.6263276727     0.0004343420    -0.3331035025
| 25>  C        2.0633487653    -0.1557510606     0.0438902422
| 26>  C        3.0556884637    -1.0767413725    -0.5531435762
| 27>  C        2.8191148798    -1.7420386911    -1.8836276697
| 28>  C        2.4706787649    -0.6210786774    -2.8787685638
| 29>  C        2.9619877174     0.6847944861    -2.2510056020
| 30>  N        3.1642896093     0.3901146526    -0.8128916968
| 31>  H        0.3132508932     1.0418645789    -0.2407055921
| 32>  H        0.0362795857    -0.5800650828     0.3788912510
| 33>  H        0.3865570399    -0.3598441773    -1.3298600465
| 34>  H        2.2713746682     0.0921707116     1.0808945858
| 35>  H        3.8166586479    -1.4831143512     0.1034304369
| 36>  H        3.7324194050    -2.2614149352    -2.1781036348
| 37>  H        2.0306808597    -2.4936243805    -1.8155447016
| 38>  H        2.9525923026    -0.7843992317    -3.8417820563
| 39>  H        1.4005204284    -0.5763870468    -3.0715030623
| 40>  H        2.2679592719     1.5177804423    -2.3612413905
| 41>  H        3.9354449659     0.9887192885    -2.6366092878
| 42>  H        3.8810060586     0.9246405052    -0.3356361331
| 43> *
| 44>
| 45>                          ****END OF INPUT****
 Total Charge           Charge          ....    1
 Multiplicity           Mult            ....    1
 Number of Electrons    NEL             ....   54
FINAL SINGLE POINT ENERGY      -290.108456726909
FINAL SINGLE POINT ENERGY      -290.108459588324
FINAL SINGLE POINT ENERGY      -290.108464127932
FINAL SINGLE POINT ENERGY      -290.108466153370
FINAL SINGLE POINT ENERGY      -290.108468417748

CARTESIAN COORDINATES (ANGSTROEM)
---------------------------------
  C      1.968334   -0.002123   -0.594259
  C      1.089454    0.714112    0.377840
  C     -0.319276    1.123010    0.184484
  C     -1.164581    0.553091   -0.924303
  C     -1.080611   -0.978663   -0.797381
  C     -0.571841   -1.273447    0.615665
  N     -0.002284    0.000025    1.115365
  H      2.655782   -0.670642   -0.072860
  H      2.573485    0.748357   -1.107154
  H      1.427710   -0.563951   -1.351495
  H      1.632435    1.344986    1.075820
  H     -0.640813    2.039395    0.665995
  H     -2.188860    0.905952   -0.796536
  H     -0.822988    0.904261   -1.899210
  H     -2.054927   -1.440452   -0.952734
  H     -0.413329   -1.404184   -1.544581
  H      0.186189   -2.055213    0.658645
  H     -1.379104   -1.533535    1.300882
  H     -0.047380    0.157356    2.115474

FINAL SINGLE POINT ENERGY      -290.108469288651
                    ***********************HURRAY********************
 Multiplicity           Mult            ....    1
 Number of Electrons    NEL             ....   54
 Basis Dimension        Dim             ....  289
FINAL SINGLE POINT ENERGY      -290.108469699417

VIBRATIONAL FREQUENCIES
-----------------------

   0:         0.00 cm**-1
   1:         0.00 cm**-1
   2:         0.00 cm**-1
   3:         0.00 cm**-1
   4:         0.00 cm**-1
   5:         0.00 cm**-1
   6:       134.30 cm**-1
   7:       157.13 cm**-1
   8:       176.28 cm**-1
   9:       258.81 cm**-1
  10:       421.72 cm**-1
  11:       498.52 cm**-1
  12:       669.81 cm**-1
  13:       692.86 cm**-1
  14:       738.37 cm**-1
  15:       761.60 cm**-1
  16:       815.21 cm**-1
  17:       886.39 cm**-1
  18:       896.99 cm**-1
  19:       928.08 cm**-1
  20:       973.65 cm**-1
  21:       978.49 cm**-1
  22:      1028.76 cm**-1
  23:      1038.46 cm**-1
  24:      1075.96 cm**-1
  25:      1112.16 cm**-1
  26:      1137.04 cm**-1
  27:      1160.76 cm**-1
  28:      1177.37 cm**-1
  29:      1232.81 cm**-1
  30:      1250.12 cm**-1
  31:      1272.93 cm**-1
  32:      1288.33 cm**-1
  33:      1331.69 cm**-1
  34:      1344.26 cm**-1
  35:      1358.51 cm**-1
  36:      1394.79 cm**-1
  37:      1413.31 cm**-1
  38:      1437.02 cm**-1
  39:      1458.08 cm**-1
  40:      1475.13 cm**-1
  41:      1484.63 cm**-1
  42:      1492.73 cm**-1
  43:      1509.71 cm**-1
  44:      1521.35 cm**-1
  45:      3078.22 cm**-1
  46:      3096.62 cm**-1
  47:      3104.42 cm**-1
  48:      3115.59 cm**-1
  49:      3137.63 cm**-1
  50:      3144.68 cm**-1
  51:      3151.96 cm**-1
  52:      3167.08 cm**-1
  53:      3168.27 cm**-1
  54:      3191.51 cm**-1
  55:      3203.41 cm**-1
  56:      3564.90 cm**-1

IR SPECTRUM
-----------

 Mode    freq (cm**-1)   T**2         TX         TY         TZ
-------------------------------------------------------------------
   6:       134.30    0.064311  (  0.104400  -0.057549   0.223831)
   7:       157.13    0.106222  ( -0.161896   0.068332  -0.274485)
   8:       176.28    0.045730  ( -0.191562  -0.089374  -0.032338)
   9:       258.81    0.243740  (  0.439635  -0.105209  -0.198476)
  10:       421.72    0.856462  ( -0.339222   0.780088  -0.364490)
  11:       498.52    4.772657  ( -2.178347  -0.160494   0.041282)
  12:       669.81    1.401037  ( -1.133319   0.341503   0.000319)
  13:       692.86    1.214755  (  0.583386  -0.007312  -0.935074)
  14:       738.37    5.866399  (  0.379170   1.399225  -1.940309)
  15:       761.60   10.336319  ( -0.116877  -2.668862   1.788807)
  16:       815.21    5.709052  ( -2.185321   0.035227   0.965496)
  17:       886.39    2.018571  (  0.547059   0.548161   1.191141)
  18:       896.99    1.217082  ( -0.196259   0.964630  -0.498049)
  19:       928.08    1.675356  (  0.185998   0.414342   1.212057)
  20:       973.65   10.224845  ( -2.909536  -1.319387   0.136617)
  21:       978.49    9.934190  (  3.121839  -0.399711   0.168942)
  22:      1028.76    2.365359  ( -1.286709   0.654220   0.530787)
  23:      1038.46   15.329008  ( -2.919385   2.454828  -0.883187)
  24:      1075.96    4.991865  ( -2.213330  -0.271508   0.138999)
  25:      1112.16   20.527187  ( -1.780032  -3.639695   2.027632)
  26:      1137.04    0.570572  ( -0.458014   0.170774   0.575874)
  27:      1160.76    4.265049  (  1.460952   1.459653  -0.009011)
  28:      1177.37    2.990409  ( -1.238809   0.906139  -0.796663)
  29:      1232.81    1.499132  ( -1.193232  -0.134456   0.239273)
  30:      1250.12    2.419682  ( -0.690173  -0.374069  -1.342913)
  31:      1272.93    1.959204  ( -0.774393   1.123670   0.311266)
  32:      1288.33    0.717859  ( -0.273135  -0.783631  -0.170818)
  33:      1331.69    0.856509  ( -0.202290   0.643267   0.633874)
  34:      1344.26    2.874032  ( -1.340937   0.911353   0.495333)
  35:      1358.51    9.519143  ( -1.503040  -2.375142   1.272286)
  36:      1394.79    5.867323  (  1.133841  -2.110328  -0.358112)
  37:      1413.31   17.195303  (  1.887684   3.166364  -1.898971)
  38:      1437.02   11.364141  ( -1.350102   2.844787   1.203557)
  39:      1458.08   12.496222  (  2.478726   2.516222   0.144109)
  40:      1475.13   15.543622  (  0.651871  -3.142352   2.290045)
  41:      1484.63    2.139730  (  1.259844   0.681648  -0.296442)
  42:      1492.73    6.020086  (  1.377398  -1.409092   1.461958)
  43:      1509.71   15.941556  ( -0.392744   0.372404  -3.955834)
  44:      1521.35   13.700125  ( -1.393871  -2.681193  -2.137394)
  45:      3078.22    0.401589  (  0.124585   0.621270  -0.009558)
  46:      3096.62    2.638787  (  0.846739  -1.360107   0.268193)
  47:      3104.42    2.272574  (  0.078796   0.772018  -1.292422)
  48:      3115.59    2.771502  (  0.447933  -1.150519  -1.116765)
  49:      3137.63    0.149517  (  0.178806  -0.306364   0.153903)
  50:      3144.68    0.511127  ( -0.640546   0.186548   0.256960)
  51:      3151.96    0.833112  (  0.875430   0.134422  -0.220602)
  52:      3167.08    1.942387  ( -1.302589   0.263192   0.419975)
  53:      3168.27    0.531712  (  0.345989   0.404804   0.498134)
  54:      3191.51    2.279436  (  0.124759  -0.618693  -1.371529)
  55:      3203.41    0.280021  ( -0.313348   0.421281  -0.065999)
  56:      3564.90   96.898512  ( -0.866845   0.704029   9.780155)

--------------------------
THERMOCHEMISTRY AT 298.15K
--------------------------

Temperature         ... 298.15 K
Pressure            ... 1.00 atm
Total Mass          ... 98.17 AMU

Throughout the following assumptions are being made:
  (1) The electronic state is orbitally nondegenerate
  (2) There are no thermally accessible electronically excited states
  (3) Hindered rotations indicated by low frequency modes) are not
      treated as such but are treated as vibrations and this may
      case some error
  (4) All equations used are the standard statistical mechanics
      equations for an ideal gas
  (5) All vibrations are strinctly harmonic

------------
INNER ENERGY
------------

The inner energy is: U= E(el) + E(ZPE) + E(vib) + E(rot) + E(trans)
    E(el)   - is the total energy from the electronic structure calculation
              = E(kin-el) + E(nuc-el) + E(el-el) + E(nuc-nuc)
    E(ZPE)  - the the zero temperature vibrational energy from the frequency calculation
    E(vib)  - the the finite temperature correction to E(ZPE) due to population
              of excietd vibrational states
    E(rot)  - is the rotational thermal energy
    E(trans)- is the translational thermal energy

Summary of contributions to the inner energy U:
Electronic energy                ...   -290.10846970 Eh
Zero point energy                ...      0.17794405 Eh     111.66 kcal/mol
Thermal vibrational correction   ...      0.00394151 Eh       2.47 kcal/mol
Thermal rotational correction    ...      0.00141627 Eh       0.89 kcal/mol
Thermal translational correction ...      0.00141627 Eh       0.89 kcal/mol
-----------------------------------------------------------------------
Total thermal energy                   -289.92375159 Eh

Summary of corrections to the electronic energy:
(perhaps to be used in another calculation)
Total thermal correction                  0.00677406 Eh       4.25 kcal/mol
Non-thermal (ZPE) correction              0.17794405 Eh     111.66 kcal/mol
-----------------------------------------------------------------------
Total correction                          0.18471811 Eh     115.91 kcal/mol

--------
ENTHALPY
--------

The enthalpy is H = U + kB*T
                kB is Boltzmann's constant
Total free energy                 ...   -289.92375159 Eh
Thermal Enthalpy correction       ...      0.00094421 Eh       0.59 kcal/mol
-----------------------------------------------------------------------
Total Enthalpy                    ...   -289.92280738 Eh

-------
ENTROPY
-------

The entropy contributions are T*S = T*(S(el)+S(vib)+S(rot)+S(trans)
     S(el)   - electronic entropy
     S(vib)  - vibrational entropy
     S(rot)  - rotational entropy
     S(trans)- translational entropy
The entropies will be listed as mutliplied by the temperature to get
units of energy

Electronic entropy                ...      0.00000000 Eh      0.00 kcal/mol
Vibrational entropy               ...      0.00655303 Eh      4.11 kcal/mol
Rotational entropy                ...      0.01178933 Eh      7.40 kcal/mol
Translational entropy             ...      0.01884507 Eh     11.83 kcal/mol
-----------------------------------------------------------------------
Final entropy term                ...      0.03718743 Eh     23.34 kcal/mol

CAUTION: The rotational entropy is not quite correctly treated here
         because it includes a symmetry number that is not yet correctly
         implemented in ORCA!
For a nonlinear molecule the correct rotational entropy is:
    S(rot) = R*(ln(qrot/sn)+1.5)
    R    = 8.31441 J/mol/K = 1.987191683e-3 kcal/mol/K
    qrot = 177179.5434658
    sn is the rotational symmetry number. We have assumed 3 here
       if it is different for your molecule then you should correct
       the printed rotational entropy by manually evaluating the equation
       as given above

For convenience we print out the resulting values for sn=1 - 12:
 sn= 1  qrot/sn=  177179.5435 T*S(rot)=     8.05 kcal/mol T*S(tot)=    23.99 kcal/mol
 sn= 2  qrot/sn=   88589.7717 T*S(rot)=     7.64 kcal/mol T*S(tot)=    23.58 kcal/mol
 sn= 3  qrot/sn=   59059.8478 T*S(rot)=     7.40 kcal/mol T*S(tot)=    23.34 kcal/mol
 sn= 4  qrot/sn=   44294.8859 T*S(rot)=     7.23 kcal/mol T*S(tot)=    23.16 kcal/mol
 sn= 5  qrot/sn=   35435.9087 T*S(rot)=     7.10 kcal/mol T*S(tot)=    23.03 kcal/mol
 sn= 6  qrot/sn=   29529.9239 T*S(rot)=     6.99 kcal/mol T*S(tot)=    22.92 kcal/mol
 sn= 7  qrot/sn=   25311.3634 T*S(rot)=     6.90 kcal/mol T*S(tot)=    22.83 kcal/mol
 sn= 8  qrot/sn=   22147.4429 T*S(rot)=     6.82 kcal/mol T*S(tot)=    22.75 kcal/mol
 sn= 9  qrot/sn=   19686.6159 T*S(rot)=     6.75 kcal/mol T*S(tot)=    22.68 kcal/mol
 sn=10  qrot/sn=   17717.9543 T*S(rot)=     6.68 kcal/mol T*S(tot)=    22.62 kcal/mol
 sn=11  qrot/sn=   16107.2312 T*S(rot)=     6.63 kcal/mol T*S(tot)=    22.57 kcal/mol
 sn=12  qrot/sn=   14764.9620 T*S(rot)=     6.58 kcal/mol T*S(tot)=    22.51 kcal/mol

-------------------
GIBBS FREE ENTHALPY
-------------------

The Gibbs free enthalpy is G = H - T*S

Total enthalpy                    ...   -289.92280738 Eh
Total entropy correction          ...     -0.03718743 Eh    -23.34 kcal/mol
-----------------------------------------------------------------------
Final Gibbs free enthalpy         ...   -289.95999481 Eh

For completeness - the Gibbs free enthalpy minus the electronic energy
G-E(el)                           ...      0.14847489 Eh     93.17 kcal/mol

                             ****ORCA TERMINATED NORMALLY****
TOTAL RUN TIME: 0 days 1 hours 11 minutes 43 seconds 661 msec
