                         Program Version 3.0.3 - RELEASE   -
|  1> ! NORI PBE0 def2-TZVP UseSym TightOPT Freq TightSCF Grid3 FinalGrid5 XYZFile
|  2> % pal
|  3>     nprocs 8
|  4> end
|  5> %method
|  6>     SymThresh 5.0e-2
|  7> end
|  8> % geom
|  9>     MaxIter 10
| 10> end
| 11> % maxcore 2000
| 12> % output
| 13>     printlevel mini
| 14>     print[ P_Basis ] 0
| 15>     print[ P_SCFInfo ] 1
| 16>     print[ P_SCFIterInfo ] 1
| 17>     print[ P_OrbEn ] 0
| 18>     print[ P_Cartesian ] 0
| 19> end
| 20> % elprop
| 21>     Dipole false
| 22> end
| 23> *xyz 1 1
| 24>  C        0.9512335972     0.0097951121    -0.5007037253
| 25>  C        2.2228891807    -0.2981034649     0.2118898230
| 26>  C        3.3671799197    -1.0714106080    -0.3403675633
| 27>  C        3.4543466768    -1.2714810223    -1.8041143352
| 28>  C        3.5938746723    -0.1176818810    -2.4439372000
| 29>  C        3.6447476939     1.0466669044    -1.5070993368
| 30>  N        3.4874359475     0.4127678108    -0.1737390196
| 31>  H        0.2065148360    -0.7272223125    -0.1927374817
| 32>  H        1.0465135089    -0.0406871783    -1.5847824101
| 33>  H        0.5767997681     0.9935597692    -0.2111813100
| 34>  H        2.1472690891    -0.3291508234     1.2951583181
| 35>  H        3.9545750283    -1.6839396457     0.3355208148
| 36>  H        3.4022297256    -2.2535890289    -2.2529363975
| 37>  H        3.6570906338     0.0126939461    -3.5162559980
| 38>  H        2.8459050772     1.7758808573    -1.6669646223
| 39>  H        4.5999298794     1.5769856600    -1.5289113531
| 40>  H        4.0539047656     0.7755659050     0.5836217973
| 41> *
| 42>
| 43>                          ****END OF INPUT****
 Total Charge           Charge          ....    1
 Multiplicity           Mult            ....    1
 Number of Electrons    NEL             ....   52
FINAL SINGLE POINT ENERGY      -288.876260065701

CARTESIAN COORDINATES (ANGSTROEM)
---------------------------------
  C      1.932215   -0.000757   -0.641151
  C      1.074670    0.732785    0.331843
  C     -0.351507    1.104566    0.130848
  C     -1.124446    0.424247   -0.932176
  C     -1.229473   -0.877321   -0.698107
  C     -0.560487   -1.278987    0.577511
  N     -0.000261    0.000413    1.080752
  H      2.519380    0.735692   -1.193619
  H      1.358453   -0.582281   -1.361268
  H      2.634238   -0.653758   -0.119136
  H      1.610116    1.381029    1.019455
  H     -0.715181    2.026220    0.572700
  H     -1.530266    0.960312   -1.778717
  H     -1.723202   -1.600881   -1.332869
  H      0.243573   -2.007439    0.442952
  H     -1.255016   -1.671504    1.324101
  H     -0.059351    0.174612    2.076827

FINAL SINGLE POINT ENERGY      -288.876260985758
                    ***********************HURRAY********************
 Multiplicity           Mult            ....    1
 Number of Electrons    NEL             ....   52
 Basis Dimension        Dim             ....  277
FINAL SINGLE POINT ENERGY      -288.876261136286

VIBRATIONAL FREQUENCIES
-----------------------

   0:         0.00 cm**-1
   1:         0.00 cm**-1
   2:         0.00 cm**-1
   3:         0.00 cm**-1
   4:         0.00 cm**-1
   5:         0.00 cm**-1
   6:       191.07 cm**-1
   7:       225.63 cm**-1
   8:       229.67 cm**-1
   9:       364.11 cm**-1
  10:       474.17 cm**-1
  11:       564.70 cm**-1
  12:       702.76 cm**-1
  13:       725.04 cm**-1
  14:       746.47 cm**-1
  15:       782.51 cm**-1
  16:       826.85 cm**-1
  17:       906.09 cm**-1
  18:       950.02 cm**-1
  19:       971.22 cm**-1
  20:       974.26 cm**-1
  21:       990.49 cm**-1
  22:      1016.86 cm**-1
  23:      1030.48 cm**-1
  24:      1090.06 cm**-1
  25:      1102.76 cm**-1
  26:      1134.67 cm**-1
  27:      1165.11 cm**-1
  28:      1169.88 cm**-1
  29:      1243.49 cm**-1
  30:      1261.52 cm**-1
  31:      1326.72 cm**-1
  32:      1354.49 cm**-1
  33:      1393.90 cm**-1
  34:      1411.80 cm**-1
  35:      1436.23 cm**-1
  36:      1439.12 cm**-1
  37:      1473.87 cm**-1
  38:      1485.62 cm**-1
  39:      1493.12 cm**-1
  40:      1697.75 cm**-1
  41:      3072.54 cm**-1
  42:      3079.22 cm**-1
  43:      3125.03 cm**-1
  44:      3145.20 cm**-1
  45:      3164.36 cm**-1
  46:      3180.32 cm**-1
  47:      3195.67 cm**-1
  48:      3239.73 cm**-1
  49:      3258.88 cm**-1
  50:      3573.50 cm**-1

IR SPECTRUM
-----------

 Mode    freq (cm**-1)   T**2         TX         TY         TZ
-------------------------------------------------------------------
   6:       191.07    0.109681  (  0.184183  -0.148680   0.231629)
   7:       225.63    0.193931  (  0.287506  -0.181603  -0.279806)
   8:       229.67    0.136793  ( -0.306294  -0.202150   0.045961)
   9:       364.11    0.303837  ( -0.214347   0.269079  -0.430684)
  10:       474.17    0.480268  ( -0.556023  -0.396366  -0.118319)
  11:       564.70   20.991281  ( -4.375843  -0.161919   1.347985)
  12:       702.76    1.034709  (  0.696942  -0.467663  -0.574694)
  13:       725.04    0.462156  ( -0.347217   0.503742  -0.296378)
  14:       746.47   25.302575  (  4.211166  -2.423607  -1.301840)
  15:       782.51   33.152783  (  3.161838   1.858096  -4.438811)
  16:       826.85    1.758115  (  1.181285  -0.042320   0.600740)
  17:       906.09    4.424377  (  0.545389   2.011139   0.286791)
  18:       950.02    9.159753  (  2.959027  -0.184003  -0.608321)
  19:       971.22    6.028462  (  2.232420  -0.943702  -0.392670)
  20:       974.26    1.778555  ( -1.152179  -0.109325  -0.662636)
  21:       990.49   11.609502  (  3.228974  -0.648523   0.873298)
  22:      1016.86    6.222421  (  1.542974   1.758137  -0.866376)
  23:      1030.48   13.899919  (  3.229883  -1.832577  -0.330813)
  24:      1090.06   13.733610  ( -0.414772   3.539779  -1.015647)
  25:      1102.76   14.769221  ( -3.484663  -0.580474   1.513075)
  26:      1134.67    1.600691  ( -0.668596   0.347299   1.016392)
  27:      1165.11    1.314306  (  0.960995   0.624924  -0.016281)
  28:      1169.88    4.964547  (  1.217513  -0.706096   1.727321)
  29:      1243.49    1.402856  (  0.554952   1.029686   0.186094)
  30:      1261.52    0.688492  (  0.117220   0.819765  -0.052314)
  31:      1326.72    0.557550  (  0.194287   0.682862  -0.231306)
  32:      1354.49    6.361862  ( -1.766411  -1.448342   1.069560)
  33:      1393.90    7.587264  (  1.699845  -1.888928  -1.062893)
  34:      1411.80   13.365665  ( -0.177786  -2.782275   2.364953)
  35:      1436.23   17.701630  ( -1.208474   3.889246   1.055929)
  36:      1439.12   29.345262  (  3.541486   4.080678  -0.388856)
  37:      1473.87   17.785585  ( -0.429184  -3.873880   1.610726)
  38:      1485.62    5.942561  ( -0.497721  -0.089982  -2.384688)
  39:      1493.12    9.434433  (  0.872559  -1.611132   2.465223)
  40:      1697.75    1.911672  (  0.411930   1.083166   0.754147)
  41:      3072.54    0.548131  (  0.073224   0.680945  -0.281217)
  42:      3079.22    0.894587  ( -0.201541   0.799530  -0.463379)
  43:      3125.03    0.185828  (  0.417853  -0.092616  -0.051473)
  44:      3145.20    0.379226  ( -0.570694   0.078933   0.217495)
  45:      3164.36    0.638468  ( -0.386746  -0.433752  -0.548411)
  46:      3180.32    1.043603  ( -0.803195   0.083211   0.625745)
  47:      3195.67    0.544034  (  0.554460  -0.448636  -0.187972)
  48:      3239.73    5.824635  ( -0.396900  -2.371756   0.204647)
  49:      3258.88    8.341198  (  1.438407  -0.351623   2.479626)
  50:      3573.50  110.996901  ( -0.764656   1.059355  10.454184)

--------------------------
THERMOCHEMISTRY AT 298.15K
--------------------------

Temperature         ... 298.15 K
Pressure            ... 1.00 atm
Total Mass          ... 96.15 AMU

Throughout the following assumptions are being made:
  (1) The electronic state is orbitally nondegenerate
  (2) There are no thermally accessible electronically excited states
  (3) Hindered rotations indicated by low frequency modes) are not
      treated as such but are treated as vibrations and this may
      case some error
  (4) All equations used are the standard statistical mechanics
      equations for an ideal gas
  (5) All vibrations are strinctly harmonic

------------
INNER ENERGY
------------

The inner energy is: U= E(el) + E(ZPE) + E(vib) + E(rot) + E(trans)
    E(el)   - is the total energy from the electronic structure calculation
              = E(kin-el) + E(nuc-el) + E(el-el) + E(nuc-nuc)
    E(ZPE)  - the the zero temperature vibrational energy from the frequency calculation
    E(vib)  - the the finite temperature correction to E(ZPE) due to population
              of excietd vibrational states
    E(rot)  - is the rotational thermal energy
    E(trans)- is the translational thermal energy

Summary of contributions to the inner energy U:
Electronic energy                ...   -288.87626114 Eh
Zero point energy                ...      0.15351877 Eh      96.33 kcal/mol
Thermal vibrational correction   ...      0.00333396 Eh       2.09 kcal/mol
Thermal rotational correction    ...      0.00141627 Eh       0.89 kcal/mol
Thermal translational correction ...      0.00141627 Eh       0.89 kcal/mol
-----------------------------------------------------------------------
Total thermal energy                   -288.71657587 Eh

Summary of corrections to the electronic energy:
(perhaps to be used in another calculation)
Total thermal correction                  0.00616650 Eh       3.87 kcal/mol
Non-thermal (ZPE) correction              0.15351877 Eh      96.33 kcal/mol
-----------------------------------------------------------------------
Total correction                          0.15968527 Eh     100.20 kcal/mol

--------
ENTHALPY
--------

The enthalpy is H = U + kB*T
                kB is Boltzmann's constant
Total free energy                 ...   -288.71657587 Eh
Thermal Enthalpy correction       ...      0.00094421 Eh       0.59 kcal/mol
-----------------------------------------------------------------------
Total Enthalpy                    ...   -288.71563166 Eh

-------
ENTROPY
-------

The entropy contributions are T*S = T*(S(el)+S(vib)+S(rot)+S(trans)
     S(el)   - electronic entropy
     S(vib)  - vibrational entropy
     S(rot)  - rotational entropy
     S(trans)- translational entropy
The entropies will be listed as mutliplied by the temperature to get
units of energy

Electronic entropy                ...      0.00000000 Eh      0.00 kcal/mol
Vibrational entropy               ...      0.00514390 Eh      3.23 kcal/mol
Rotational entropy                ...      0.01169477 Eh      7.34 kcal/mol
Translational entropy             ...      0.01881568 Eh     11.81 kcal/mol
-----------------------------------------------------------------------
Final entropy term                ...      0.03565435 Eh     22.37 kcal/mol

CAUTION: The rotational entropy is not quite correctly treated here
         because it includes a symmetry number that is not yet correctly
         implemented in ORCA!
For a nonlinear molecule the correct rotational entropy is:
    S(rot) = R*(ln(qrot/sn)+1.5)
    R    = 8.31441 J/mol/K = 1.987191683e-3 kcal/mol/K
    qrot = 160293.7299208
    sn is the rotational symmetry number. We have assumed 3 here
       if it is different for your molecule then you should correct
       the printed rotational entropy by manually evaluating the equation
       as given above

For convenience we print out the resulting values for sn=1 - 12:
 sn= 1  qrot/sn=  160293.7299 T*S(rot)=     7.99 kcal/mol T*S(tot)=    23.02 kcal/mol
 sn= 2  qrot/sn=   80146.8650 T*S(rot)=     7.58 kcal/mol T*S(tot)=    22.61 kcal/mol
 sn= 3  qrot/sn=   53431.2433 T*S(rot)=     7.34 kcal/mol T*S(tot)=    22.37 kcal/mol
 sn= 4  qrot/sn=   40073.4325 T*S(rot)=     7.17 kcal/mol T*S(tot)=    22.20 kcal/mol
 sn= 5  qrot/sn=   32058.7460 T*S(rot)=     7.04 kcal/mol T*S(tot)=    22.07 kcal/mol
 sn= 6  qrot/sn=   26715.6217 T*S(rot)=     6.93 kcal/mol T*S(tot)=    21.96 kcal/mol
 sn= 7  qrot/sn=   22899.1043 T*S(rot)=     6.84 kcal/mol T*S(tot)=    21.87 kcal/mol
 sn= 8  qrot/sn=   20036.7162 T*S(rot)=     6.76 kcal/mol T*S(tot)=    21.79 kcal/mol
 sn= 9  qrot/sn=   17810.4144 T*S(rot)=     6.69 kcal/mol T*S(tot)=    21.72 kcal/mol
 sn=10  qrot/sn=   16029.3730 T*S(rot)=     6.63 kcal/mol T*S(tot)=    21.66 kcal/mol
 sn=11  qrot/sn=   14572.1573 T*S(rot)=     6.57 kcal/mol T*S(tot)=    21.60 kcal/mol
 sn=12  qrot/sn=   13357.8108 T*S(rot)=     6.52 kcal/mol T*S(tot)=    21.55 kcal/mol

-------------------
GIBBS FREE ENTHALPY
-------------------

The Gibbs free enthalpy is G = H - T*S

Total enthalpy                    ...   -288.71563166 Eh
Total entropy correction          ...     -0.03565435 Eh    -22.37 kcal/mol
-----------------------------------------------------------------------
Final Gibbs free enthalpy         ...   -288.75128601 Eh

For completeness - the Gibbs free enthalpy minus the electronic energy
G-E(el)                           ...      0.12497513 Eh     78.42 kcal/mol

                             ****ORCA TERMINATED NORMALLY****
TOTAL RUN TIME: 0 days 0 hours 41 minutes 31 seconds 191 msec
