                         Program Version 3.0.3 - RELEASE   -
|  1> ! NORI PBE0 def2-TZVP UseSym TightOPT Freq TightSCF Grid3 FinalGrid5 XYZFile
|  2> % pal
|  3>     nprocs 8
|  4> end
|  5> %method
|  6>     SymThresh 5.0e-2
|  7> end
|  8> % geom
|  9>     MaxIter 10
| 10> end
| 11> % maxcore 2000
| 12> % output
| 13>     printlevel mini
| 14>     print[ P_Basis ] 0
| 15>     print[ P_SCFInfo ] 1
| 16>     print[ P_SCFIterInfo ] 1
| 17>     print[ P_OrbEn ] 0
| 18>     print[ P_Cartesian ] 0
| 19> end
| 20> % elprop
| 21>     Dipole false
| 22> end
| 23> *xyz 1 1
| 24>  C        1.0539731941     0.0940729036     0.0658486502
| 25>  C        2.5479847311     0.1654831607    -0.0712036625
| 26>  C        3.1986286317     1.1943933010    -1.0281818391
| 27>  C        2.8742745945     0.1916542273    -2.1473092572
| 28>  N        3.1691040441    -0.8260816339    -1.0699764590
| 29>  C        4.6395738374    -0.6391049206    -0.8371341271
| 30>  C        4.6866468645     0.9081138293    -0.8037815493
| 31>  H        0.7454938617    -0.8523443786     0.5155762516
| 32>  H        0.5106099649     0.2337431073    -0.8678400109
| 33>  H        0.7443231108     0.8881165292     0.7487922949
| 34>  H        3.0304600271     0.0589034930     0.9026987221
| 35>  H        2.8637352643     2.2255538321    -1.0673510758
| 36>  H        1.8320267172     0.1380224756    -2.4446070185
| 37>  H        3.5376056177     0.1170435723    -3.0079993636
| 38>  H        2.8327014216    -1.7852033732    -1.1427723959
| 39>  H        5.1919766413    -1.0907758368    -1.6594416606
| 40>  H        4.9163007026    -1.1209524698     0.0990383107
| 41>  H        5.0430599768     1.2878683498     0.1530887021
| 42>  H        5.3147607966     1.3178338318    -1.5938545124
| 43> *
| 44>
| 45>                          ****END OF INPUT****
 Total Charge           Charge          ....    1
 Multiplicity           Mult            ....    1
 Number of Electrons    NEL             ....   54
FINAL SINGLE POINT ENERGY      -290.097186207072

CARTESIAN COORDINATES (ANGSTROEM)
---------------------------------
  C      2.275900   -0.000691   -0.212147
  C      0.840916   -0.444973   -0.223927
  C     -0.227217    0.375345   -0.988056
  C     -0.242695    1.294840    0.243401
  N     -0.000042    0.000551    0.984745
  C     -1.285962   -0.743408    0.773342
  C     -1.482066   -0.466923   -0.737477
  H      2.829720   -0.483071    0.596180
  H      2.411283    1.077799   -0.137410
  H      2.732016   -0.324998   -1.149792
  H      0.773541   -1.528510   -0.340768
  H     -0.043857    0.757485   -1.986599
  H      0.610501    1.957531    0.347668
  H     -1.168838    1.791416    0.528787
  H      0.384763   -0.003883    1.928178
  H     -2.055453   -0.316974    1.414686
  H     -1.137026   -1.791681    1.026521
  H     -1.491012   -1.384208   -1.325282
  H     -2.401021    0.081891   -0.939367

FINAL SINGLE POINT ENERGY      -290.097186996066
                    ***********************HURRAY********************
 Multiplicity           Mult            ....    1
 Number of Electrons    NEL             ....   54
 Basis Dimension        Dim             ....  289
FINAL SINGLE POINT ENERGY      -290.097187183102

VIBRATIONAL FREQUENCIES
-----------------------

   0:         0.00 cm**-1
   1:         0.00 cm**-1
   2:         0.00 cm**-1
   3:         0.00 cm**-1
   4:         0.00 cm**-1
   5:         0.00 cm**-1
   6:       196.60 cm**-1
   7:       270.50 cm**-1
   8:       294.14 cm**-1
   9:       332.41 cm**-1
  10:       473.66 cm**-1
  11:       532.81 cm**-1
  12:       662.35 cm**-1
  13:       782.26 cm**-1
  14:       812.92 cm**-1
  15:       856.68 cm**-1
  16:       861.72 cm**-1
  17:       864.22 cm**-1
  18:       927.38 cm**-1
  19:       948.91 cm**-1
  20:       975.84 cm**-1
  21:      1008.38 cm**-1
  22:      1028.88 cm**-1
  23:      1041.23 cm**-1
  24:      1093.71 cm**-1
  25:      1103.52 cm**-1
  26:      1116.98 cm**-1
  27:      1148.05 cm**-1
  28:      1182.28 cm**-1
  29:      1220.11 cm**-1
  30:      1239.83 cm**-1
  31:      1254.87 cm**-1
  32:      1277.23 cm**-1
  33:      1286.85 cm**-1
  34:      1294.55 cm**-1
  35:      1326.95 cm**-1
  36:      1348.03 cm**-1
  37:      1372.83 cm**-1
  38:      1409.70 cm**-1
  39:      1425.65 cm**-1
  40:      1481.06 cm**-1
  41:      1485.92 cm**-1
  42:      1500.08 cm**-1
  43:      1509.24 cm**-1
  44:      1530.32 cm**-1
  45:      3069.48 cm**-1
  46:      3106.62 cm**-1
  47:      3109.86 cm**-1
  48:      3118.42 cm**-1
  49:      3128.37 cm**-1
  50:      3141.24 cm**-1
  51:      3160.10 cm**-1
  52:      3160.94 cm**-1
  53:      3182.31 cm**-1
  54:      3201.07 cm**-1
  55:      3212.99 cm**-1
  56:      3504.17 cm**-1

IR SPECTRUM
-----------

 Mode    freq (cm**-1)   T**2         TX         TY         TZ
-------------------------------------------------------------------
   6:       196.60    0.188259  (  0.022183  -0.406766   0.149361)
   7:       270.50    0.367914  (  0.528101   0.021230  -0.297611)
   8:       294.14    0.098731  ( -0.108979   0.234970   0.177886)
   9:       332.41    0.107366  (  0.279448  -0.168827  -0.027782)
  10:       473.66    0.237095  ( -0.432124   0.184629   0.127579)
  11:       532.81    0.942124  ( -0.657959   0.624905   0.344541)
  12:       662.35    2.487534  (  0.916341   0.154100  -1.274404)
  13:       782.26    1.241769  (  0.895138  -0.517062  -0.416106)
  14:       812.92    6.367706  (  2.406672  -0.693922  -0.306774)
  15:       856.68    3.073384  ( -0.946118   1.457703   0.230965)
  16:       861.72    3.317264  (  1.531153   0.915104  -0.367992)
  17:       864.22    4.112823  ( -0.987676   0.691707  -1.630601)
  18:       927.38    0.787800  ( -0.490770  -0.296549   0.677499)
  19:       948.91    2.801420  ( -1.253913  -1.107737   0.045180)
  20:       975.84    3.447003  ( -1.411842  -1.177711   0.258265)
  21:      1008.38    1.188070  ( -0.148504   0.484025  -0.965265)
  22:      1028.88    1.596020  (  0.325720  -0.016034   1.220520)
  23:      1041.23    7.285867  (  1.284482  -0.531734  -2.313705)
  24:      1093.71    3.121351  (  0.692080  -0.414801  -1.571724)
  25:      1103.52    1.197337  (  0.064798   1.091923  -0.029028)
  26:      1116.98    6.891732  (  2.120776  -1.542352  -0.123246)
  27:      1148.05    6.651784  (  1.887855  -0.420658  -1.706116)
  28:      1182.28    3.535751  ( -0.787534   1.618945   0.542731)
  29:      1220.11    9.954158  ( -2.268006   2.003479   0.892401)
  30:      1239.83    0.261762  (  0.025442   0.493246  -0.133502)
  31:      1254.87    9.099768  (  2.055533   2.109790   0.650646)
  32:      1277.23    1.800434  ( -0.384897  -1.285019   0.031850)
  33:      1286.85   19.207436  ( -3.965431  -0.316859   1.839129)
  34:      1294.55    5.726441  (  1.964733  -1.049784  -0.874197)
  35:      1326.95   32.949263  ( -2.875323   4.895361   0.846888)
  36:      1348.03   11.088515  ( -0.341339  -2.119993   2.545119)
  37:      1372.83    7.382290  (  1.714175   2.072256   0.386844)
  38:      1409.70    4.515151  (  1.823428   0.903414  -0.611640)
  39:      1425.65   17.434095  (  4.026655   0.544247  -0.961219)
  40:      1481.06   13.075742  ( -0.119898  -0.655807   3.554052)
  41:      1485.92    1.815085  (  0.238556   1.289793   0.307587)
  42:      1500.08    6.024933  (  0.718004  -0.500023   2.293334)
  43:      1509.24   22.508051  (  1.437046   4.505866   0.374324)
  44:      1530.32   10.185766  ( -2.053247   1.730526   1.724884)
  45:      3069.48    1.199215  (  0.403369   0.543191   0.861076)
  46:      3106.62    3.631577  ( -0.016247  -1.864241  -0.394866)
  47:      3109.86    3.559320  (  1.163606   0.360226   1.440687)
  48:      3118.42    2.163689  ( -0.763219  -0.886400   0.891898)
  49:      3128.37    1.919845  ( -0.724622   1.016476   0.601286)
  50:      3141.24    1.263316  (  0.920577  -0.392385   0.511750)
  51:      3160.10    0.278667  ( -0.493440  -0.083110   0.168157)
  52:      3160.94    5.496159  ( -0.290055   2.325114  -0.076621)
  53:      3182.31    0.526352  ( -0.388635   0.599593   0.125710)
  54:      3201.07    0.012394  ( -0.001778   0.041128   0.103435)
  55:      3212.99    0.530725  (  0.715476   0.123560  -0.059597)
  56:      3504.17   55.400937  ( -2.306932  -0.020015  -7.076624)

--------------------------
THERMOCHEMISTRY AT 298.15K
--------------------------

Temperature         ... 298.15 K
Pressure            ... 1.00 atm
Total Mass          ... 98.17 AMU

Throughout the following assumptions are being made:
  (1) The electronic state is orbitally nondegenerate
  (2) There are no thermally accessible electronically excited states
  (3) Hindered rotations indicated by low frequency modes) are not
      treated as such but are treated as vibrations and this may
      case some error
  (4) All equations used are the standard statistical mechanics
      equations for an ideal gas
  (5) All vibrations are strinctly harmonic

------------
INNER ENERGY
------------

The inner energy is: U= E(el) + E(ZPE) + E(vib) + E(rot) + E(trans)
    E(el)   - is the total energy from the electronic structure calculation
              = E(kin-el) + E(nuc-el) + E(el-el) + E(nuc-nuc)
    E(ZPE)  - the the zero temperature vibrational energy from the frequency calculation
    E(vib)  - the the finite temperature correction to E(ZPE) due to population
              of excietd vibrational states
    E(rot)  - is the rotational thermal energy
    E(trans)- is the translational thermal energy

Summary of contributions to the inner energy U:
Electronic energy                ...   -290.09718718 Eh
Zero point energy                ...      0.17900527 Eh     112.33 kcal/mol
Thermal vibrational correction   ...      0.00324410 Eh       2.04 kcal/mol
Thermal rotational correction    ...      0.00141627 Eh       0.89 kcal/mol
Thermal translational correction ...      0.00141627 Eh       0.89 kcal/mol
-----------------------------------------------------------------------
Total thermal energy                   -289.91210527 Eh

Summary of corrections to the electronic energy:
(perhaps to be used in another calculation)
Total thermal correction                  0.00607664 Eh       3.81 kcal/mol
Non-thermal (ZPE) correction              0.17900527 Eh     112.33 kcal/mol
-----------------------------------------------------------------------
Total correction                          0.18508191 Eh     116.14 kcal/mol

--------
ENTHALPY
--------

The enthalpy is H = U + kB*T
                kB is Boltzmann's constant
Total free energy                 ...   -289.91210527 Eh
Thermal Enthalpy correction       ...      0.00094421 Eh       0.59 kcal/mol
-----------------------------------------------------------------------
Total Enthalpy                    ...   -289.91116106 Eh

-------
ENTROPY
-------

The entropy contributions are T*S = T*(S(el)+S(vib)+S(rot)+S(trans)
     S(el)   - electronic entropy
     S(vib)  - vibrational entropy
     S(rot)  - rotational entropy
     S(trans)- translational entropy
The entropies will be listed as mutliplied by the temperature to get
units of energy

Electronic entropy                ...      0.00000000 Eh      0.00 kcal/mol
Vibrational entropy               ...      0.00487225 Eh      3.06 kcal/mol
Rotational entropy                ...      0.01171889 Eh      7.35 kcal/mol
Translational entropy             ...      0.01884507 Eh     11.83 kcal/mol
-----------------------------------------------------------------------
Final entropy term                ...      0.03543621 Eh     22.24 kcal/mol

CAUTION: The rotational entropy is not quite correctly treated here
         because it includes a symmetry number that is not yet correctly
         implemented in ORCA!
For a nonlinear molecule the correct rotational entropy is:
    S(rot) = R*(ln(qrot/sn)+1.5)
    R    = 8.31441 J/mol/K = 1.987191683e-3 kcal/mol/K
    qrot = 164442.1463547
    sn is the rotational symmetry number. We have assumed 3 here
       if it is different for your molecule then you should correct
       the printed rotational entropy by manually evaluating the equation
       as given above

For convenience we print out the resulting values for sn=1 - 12:
 sn= 1  qrot/sn=  164442.1464 T*S(rot)=     8.00 kcal/mol T*S(tot)=    22.89 kcal/mol
 sn= 2  qrot/sn=   82221.0732 T*S(rot)=     7.59 kcal/mol T*S(tot)=    22.48 kcal/mol
 sn= 3  qrot/sn=   54814.0488 T*S(rot)=     7.35 kcal/mol T*S(tot)=    22.24 kcal/mol
 sn= 4  qrot/sn=   41110.5366 T*S(rot)=     7.18 kcal/mol T*S(tot)=    22.07 kcal/mol
 sn= 5  qrot/sn=   32888.4293 T*S(rot)=     7.05 kcal/mol T*S(tot)=    21.93 kcal/mol
 sn= 6  qrot/sn=   27407.0244 T*S(rot)=     6.94 kcal/mol T*S(tot)=    21.83 kcal/mol
 sn= 7  qrot/sn=   23491.7352 T*S(rot)=     6.85 kcal/mol T*S(tot)=    21.73 kcal/mol
 sn= 8  qrot/sn=   20555.2683 T*S(rot)=     6.77 kcal/mol T*S(tot)=    21.66 kcal/mol
 sn= 9  qrot/sn=   18271.3496 T*S(rot)=     6.70 kcal/mol T*S(tot)=    21.59 kcal/mol
 sn=10  qrot/sn=   16444.2146 T*S(rot)=     6.64 kcal/mol T*S(tot)=    21.52 kcal/mol
 sn=11  qrot/sn=   14949.2860 T*S(rot)=     6.58 kcal/mol T*S(tot)=    21.47 kcal/mol
 sn=12  qrot/sn=   13703.5122 T*S(rot)=     6.53 kcal/mol T*S(tot)=    21.42 kcal/mol

-------------------
GIBBS FREE ENTHALPY
-------------------

The Gibbs free enthalpy is G = H - T*S

Total enthalpy                    ...   -289.91116106 Eh
Total entropy correction          ...     -0.03543621 Eh    -22.24 kcal/mol
-----------------------------------------------------------------------
Final Gibbs free enthalpy         ...   -289.94659727 Eh

For completeness - the Gibbs free enthalpy minus the electronic energy
G-E(el)                           ...      0.15058991 Eh     94.50 kcal/mol

                             ****ORCA TERMINATED NORMALLY****
TOTAL RUN TIME: 0 days 1 hours 5 minutes 56 seconds 772 msec
