                         Program Version 3.0.3 - RELEASE   -
|  1> ! NORI PBE0 def2-TZVP UseSym TightOPT Freq TightSCF Grid3 FinalGrid5 XYZFile
|  2> % pal
|  3>     nprocs 8
|  4> end
|  5> %method
|  6>     SymThresh 5.0e-2
|  7> end
|  8> % geom
|  9>     MaxIter 10
| 10> end
| 11> % maxcore 2000
| 12> % output
| 13>     printlevel mini
| 14>     print[ P_Basis ] 0
| 15>     print[ P_SCFInfo ] 1
| 16>     print[ P_SCFIterInfo ] 1
| 17>     print[ P_OrbEn ] 0
| 18>     print[ P_Cartesian ] 0
| 19> end
| 20> % elprop
| 21>     Dipole false
| 22> end
| 23> *xyz 1 1
| 24>  C        0.7984964048     0.0794079158    -0.1969342366
| 25>  C        2.2752218043     0.0458006952     0.0797240037
| 26>  C        3.2335368690    -0.9243561370    -0.5554102539
| 27>  C        2.7773467779    -1.6811843857    -1.7903653842
| 28>  C        2.8913061481    -0.6864374332    -2.9424429852
| 29>  N        2.8286166184     0.6804070967    -2.2936089978
| 30>  C        3.3041215361     0.5342141229    -0.8908315716
| 31>  H        0.3894512138     1.0754282982    -0.0112110784
| 32>  H        0.2808184064    -0.6129196733     0.4689566500
| 33>  H        0.5260000765    -0.2195104257    -1.2134681758
| 34>  H        2.5295158631     0.3046961882     1.1024848693
| 35>  H        4.0083284514    -1.3621182437     0.0599718900
| 36>  H        3.4208992973    -2.5396927093    -1.9783617508
| 37>  H        1.7591022446    -2.0589126809    -1.6859099019
| 38>  H        3.8653852560    -0.7485315418    -3.4271311058
| 39>  H        2.1115100485    -0.7566967559    -3.7006801130
| 40>  H        1.8719802150     1.0401428153    -2.3064306058
| 41>  H        3.4021792467     1.3530124345    -2.8008608699
| 42>  H        4.1074635222     1.2071204199    -0.6242603822
| 43> *
| 44>
| 45>                          ****END OF INPUT****
 Total Charge           Charge          ....    1
 Multiplicity           Mult            ....    1
 Number of Electrons    NEL             ....   54
FINAL SINGLE POINT ENERGY      -290.102819995012
FINAL SINGLE POINT ENERGY      -290.102821542884

CARTESIAN COORDINATES (ANGSTROEM)
---------------------------------
  C      1.897268    0.001613   -0.879064
  C      0.694719    0.901622   -0.826759
  C     -0.728757    0.416058   -0.829039
  C     -0.991835   -1.047061   -0.518602
  C     -0.864044   -1.170783    0.997492
  N     -0.000165   -0.000936    1.419310
  C     -0.156464    1.066072    0.393385
  H      2.768614    0.488660   -0.435472
  H      2.145377   -0.225133   -1.917520
  H      1.756662   -0.964813   -0.384862
  H      0.834949    1.841207   -1.351649
  H     -1.455711    0.955213   -1.421682
  H     -1.995909   -1.334560   -0.828448
  H     -0.294578   -1.707766   -1.035989
  H     -1.825727   -1.031725    1.490291
  H     -0.411204   -2.095215    1.355054
  H      0.979433   -0.284948    1.487522
  H     -0.271136    0.341239    2.340425
  H     -0.447850    2.026527    0.795398

FINAL SINGLE POINT ENERGY      -290.102822308863
                    ***********************HURRAY********************
 Multiplicity           Mult            ....    1
 Number of Electrons    NEL             ....   54
 Basis Dimension        Dim             ....  289
FINAL SINGLE POINT ENERGY      -290.102822495511

VIBRATIONAL FREQUENCIES
-----------------------

   0:         0.00 cm**-1
   1:         0.00 cm**-1
   2:         0.00 cm**-1
   3:         0.00 cm**-1
   4:         0.00 cm**-1
   5:         0.00 cm**-1
   6:        91.13 cm**-1
   7:       163.12 cm**-1
   8:       242.48 cm**-1
   9:       266.74 cm**-1
  10:       435.30 cm**-1
  11:       544.01 cm**-1
  12:       606.39 cm**-1
  13:       697.58 cm**-1
  14:       772.28 cm**-1
  15:       778.64 cm**-1
  16:       841.67 cm**-1
  17:       875.93 cm**-1
  18:       882.03 cm**-1
  19:       914.49 cm**-1
  20:       969.67 cm**-1
  21:       983.71 cm**-1
  22:      1003.17 cm**-1
  23:      1055.07 cm**-1
  24:      1073.77 cm**-1
  25:      1094.26 cm**-1
  26:      1114.54 cm**-1
  27:      1146.78 cm**-1
  28:      1152.38 cm**-1
  29:      1224.97 cm**-1
  30:      1234.80 cm**-1
  31:      1257.84 cm**-1
  32:      1285.23 cm**-1
  33:      1329.26 cm**-1
  34:      1349.79 cm**-1
  35:      1362.77 cm**-1
  36:      1380.47 cm**-1
  37:      1401.92 cm**-1
  38:      1421.97 cm**-1
  39:      1456.91 cm**-1
  40:      1481.67 cm**-1
  41:      1494.12 cm**-1
  42:      1504.12 cm**-1
  43:      1508.74 cm**-1
  44:      1644.51 cm**-1
  45:      3048.85 cm**-1
  46:      3099.07 cm**-1
  47:      3108.37 cm**-1
  48:      3116.04 cm**-1
  49:      3138.62 cm**-1
  50:      3147.43 cm**-1
  51:      3171.70 cm**-1
  52:      3177.28 cm**-1
  53:      3215.27 cm**-1
  54:      3226.63 cm**-1
  55:      3439.54 cm**-1
  56:      3513.82 cm**-1

IR SPECTRUM
-----------

 Mode    freq (cm**-1)   T**2         TX         TY         TZ
-------------------------------------------------------------------
   6:        91.13    0.653315  (  0.163480  -0.691481  -0.385284)
   7:       163.12    1.585093  (  1.007731  -0.083648  -0.750050)
   8:       242.48    5.259904  ( -1.514895   0.268490   1.700855)
   9:       266.74    4.830955  (  1.533235  -0.066547  -1.573442)
  10:       435.30    1.394263  (  0.179332  -0.172437  -1.154283)
  11:       544.01    6.695970  (  2.013210   0.618182  -1.503598)
  12:       606.39    4.360636  (  1.146952  -1.076577  -1.373361)
  13:       697.58    4.180480  ( -1.094024  -0.758633  -1.551795)
  14:       772.28   13.666580  (  0.295336   1.334499   3.434890)
  15:       778.64    5.418623  (  2.100333   0.611008  -0.796174)
  16:       841.67    1.009405  (  0.117092   0.933936   0.351364)
  17:       875.93    1.784504  ( -0.002801   0.828903   1.047576)
  18:       882.03    5.497661  ( -2.273100   0.534340   0.212504)
  19:       914.49    3.416021  ( -1.789138   0.456741   0.079957)
  20:       969.67    1.055307  (  0.566435   0.794143  -0.322172)
  21:       983.71    0.995038  ( -0.104045  -0.504122   0.854443)
  22:      1003.17    1.981725  ( -0.186886  -0.560954   1.277548)
  23:      1055.07    0.269697  (  0.462057   0.108386   0.210838)
  24:      1073.77    7.386633  ( -1.440321  -2.232578  -0.572454)
  25:      1094.26    2.382016  ( -0.046729   1.391204   0.666622)
  26:      1114.54    2.965330  ( -0.068503   0.880374   1.478370)
  27:      1146.78    0.603620  (  0.442013   0.420622   0.480959)
  28:      1152.38    4.399224  (  1.785886  -0.312203  -1.054687)
  29:      1224.97    1.911761  (  0.624941  -0.590874  -1.082626)
  30:      1234.80    1.289311  ( -0.518493  -1.002610  -0.123486)
  31:      1257.84    6.431492  ( -1.860491  -1.451632   0.928885)
  32:      1285.23   17.252896  ( -1.150939  -3.559461   1.805125)
  33:      1329.26    0.714090  (  0.073216   0.111663  -0.834422)
  34:      1349.79    9.051151  ( -0.322577   2.152979  -2.076481)
  35:      1362.77    3.676451  ( -0.386342  -1.829868   0.422817)
  36:      1380.47   20.973334  (  1.044660   4.354444  -0.959605)
  37:      1401.92    2.928695  ( -1.030369  -1.308826  -0.392440)
  38:      1421.97    7.582426  (  1.368336  -2.387107   0.108646)
  39:      1456.91    9.500880  ( -1.138135  -2.430337   1.516241)
  40:      1481.67   14.758025  ( -0.979454  -2.373687  -2.857325)
  41:      1494.12    4.956350  (  0.703022  -0.014793  -2.112319)
  42:      1504.12    4.321629  (  1.489355   1.257195  -0.723127)
  43:      1508.74   11.642340  ( -1.555604  -3.011358   0.392635)
  44:      1644.51   69.612956  (  3.404988  -0.923733   7.560802)
  45:      3048.85   13.011117  ( -0.674408   2.767752  -2.212654)
  46:      3099.07    3.871292  ( -0.528987   1.455566   1.213587)
  47:      3108.37    3.199398  ( -0.546961  -0.977183   1.394756)
  48:      3116.04   11.480324  ( -1.789775  -2.572470   1.288188)
  49:      3138.62    0.887945  ( -0.644974  -0.316472  -0.609754)
  50:      3147.43    0.378366  ( -0.325395   0.200819   0.481825)
  51:      3171.70    0.488670  (  0.320524  -0.591860  -0.188776)
  52:      3177.28    0.192781  ( -0.121347   0.366584   0.208979)
  53:      3215.27    0.159518  ( -0.186434  -0.056673  -0.348638)
  54:      3226.63    0.827212  ( -0.388668   0.797790  -0.199199)
  55:      3439.54   39.717876  (  5.693482   0.094147   2.700606)
  56:      3513.82   97.368796  ( -4.697695   3.139553   8.089726)

--------------------------
THERMOCHEMISTRY AT 298.15K
--------------------------

Temperature         ... 298.15 K
Pressure            ... 1.00 atm
Total Mass          ... 98.17 AMU

Throughout the following assumptions are being made:
  (1) The electronic state is orbitally nondegenerate
  (2) There are no thermally accessible electronically excited states
  (3) Hindered rotations indicated by low frequency modes) are not
      treated as such but are treated as vibrations and this may
      case some error
  (4) All equations used are the standard statistical mechanics
      equations for an ideal gas
  (5) All vibrations are strinctly harmonic

------------
INNER ENERGY
------------

The inner energy is: U= E(el) + E(ZPE) + E(vib) + E(rot) + E(trans)
    E(el)   - is the total energy from the electronic structure calculation
              = E(kin-el) + E(nuc-el) + E(el-el) + E(nuc-nuc)
    E(ZPE)  - the the zero temperature vibrational energy from the frequency calculation
    E(vib)  - the the finite temperature correction to E(ZPE) due to population
              of excietd vibrational states
    E(rot)  - is the rotational thermal energy
    E(trans)- is the translational thermal energy

Summary of contributions to the inner energy U:
Electronic energy                ...   -290.10282250 Eh
Zero point energy                ...      0.17871501 Eh     112.15 kcal/mol
Thermal vibrational correction   ...      0.00387815 Eh       2.43 kcal/mol
Thermal rotational correction    ...      0.00141627 Eh       0.89 kcal/mol
Thermal translational correction ...      0.00141627 Eh       0.89 kcal/mol
-----------------------------------------------------------------------
Total thermal energy                   -289.91739680 Eh

Summary of corrections to the electronic energy:
(perhaps to be used in another calculation)
Total thermal correction                  0.00671069 Eh       4.21 kcal/mol
Non-thermal (ZPE) correction              0.17871501 Eh     112.15 kcal/mol
-----------------------------------------------------------------------
Total correction                          0.18542570 Eh     116.36 kcal/mol

--------
ENTHALPY
--------

The enthalpy is H = U + kB*T
                kB is Boltzmann's constant
Total free energy                 ...   -289.91739680 Eh
Thermal Enthalpy correction       ...      0.00094421 Eh       0.59 kcal/mol
-----------------------------------------------------------------------
Total Enthalpy                    ...   -289.91645259 Eh

-------
ENTROPY
-------

The entropy contributions are T*S = T*(S(el)+S(vib)+S(rot)+S(trans)
     S(el)   - electronic entropy
     S(vib)  - vibrational entropy
     S(rot)  - rotational entropy
     S(trans)- translational entropy
The entropies will be listed as mutliplied by the temperature to get
units of energy

Electronic entropy                ...      0.00000000 Eh      0.00 kcal/mol
Vibrational entropy               ...      0.00653573 Eh      4.10 kcal/mol
Rotational entropy                ...      0.01179914 Eh      7.40 kcal/mol
Translational entropy             ...      0.01884507 Eh     11.83 kcal/mol
-----------------------------------------------------------------------
Final entropy term                ...      0.03717993 Eh     23.33 kcal/mol

CAUTION: The rotational entropy is not quite correctly treated here
         because it includes a symmetry number that is not yet correctly
         implemented in ORCA!
For a nonlinear molecule the correct rotational entropy is:
    S(rot) = R*(ln(qrot/sn)+1.5)
    R    = 8.31441 J/mol/K = 1.987191683e-3 kcal/mol/K
    qrot = 179028.8682295
    sn is the rotational symmetry number. We have assumed 3 here
       if it is different for your molecule then you should correct
       the printed rotational entropy by manually evaluating the equation
       as given above

For convenience we print out the resulting values for sn=1 - 12:
 sn= 1  qrot/sn=  179028.8682 T*S(rot)=     8.05 kcal/mol T*S(tot)=    23.98 kcal/mol
 sn= 2  qrot/sn=   89514.4341 T*S(rot)=     7.64 kcal/mol T*S(tot)=    23.57 kcal/mol
 sn= 3  qrot/sn=   59676.2894 T*S(rot)=     7.40 kcal/mol T*S(tot)=    23.33 kcal/mol
 sn= 4  qrot/sn=   44757.2171 T*S(rot)=     7.23 kcal/mol T*S(tot)=    23.16 kcal/mol
 sn= 5  qrot/sn=   35805.7736 T*S(rot)=     7.10 kcal/mol T*S(tot)=    23.03 kcal/mol
 sn= 6  qrot/sn=   29838.1447 T*S(rot)=     6.99 kcal/mol T*S(tot)=    22.92 kcal/mol
 sn= 7  qrot/sn=   25575.5526 T*S(rot)=     6.90 kcal/mol T*S(tot)=    22.83 kcal/mol
 sn= 8  qrot/sn=   22378.6085 T*S(rot)=     6.82 kcal/mol T*S(tot)=    22.75 kcal/mol
 sn= 9  qrot/sn=   19892.0965 T*S(rot)=     6.75 kcal/mol T*S(tot)=    22.68 kcal/mol
 sn=10  qrot/sn=   17902.8868 T*S(rot)=     6.69 kcal/mol T*S(tot)=    22.62 kcal/mol
 sn=11  qrot/sn=   16275.3517 T*S(rot)=     6.63 kcal/mol T*S(tot)=    22.56 kcal/mol
 sn=12  qrot/sn=   14919.0724 T*S(rot)=     6.58 kcal/mol T*S(tot)=    22.51 kcal/mol

-------------------
GIBBS FREE ENTHALPY
-------------------

The Gibbs free enthalpy is G = H - T*S

Total enthalpy                    ...   -289.91645259 Eh
Total entropy correction          ...     -0.03717993 Eh    -23.33 kcal/mol
-----------------------------------------------------------------------
Final Gibbs free enthalpy         ...   -289.95363252 Eh

For completeness - the Gibbs free enthalpy minus the electronic energy
G-E(el)                           ...      0.14918997 Eh     93.62 kcal/mol

                             ****ORCA TERMINATED NORMALLY****
TOTAL RUN TIME: 0 days 0 hours 54 minutes 50 seconds 807 msec
