                         Program Version 3.0.3 - RELEASE   -
|  1> ! NORI PBE0 def2-TZVP UseSym TightOPT Freq TightSCF Grid3 FinalGrid5 XYZFile
|  2> % pal
|  3>     nprocs 8
|  4> end
|  5> %method
|  6>     SymThresh 5.0e-2
|  7> end
|  8> % geom
|  9>     MaxIter 10
| 10> end
| 11> % maxcore 2000
| 12> % output
| 13>     printlevel mini
| 14>     print[ P_Basis ] 0
| 15>     print[ P_SCFInfo ] 1
| 16>     print[ P_SCFIterInfo ] 1
| 17>     print[ P_OrbEn ] 0
| 18>     print[ P_Cartesian ] 0
| 19> end
| 20> % elprop
| 21>     Dipole false
| 22> end
| 23> *xyz 1 1
| 24>  C        1.0845836736     0.0496107200     0.1123333325
| 25>  C        2.5902128643     0.0544937528    -0.0152652602
| 26>  C        3.2338200936     1.0872004840    -0.9871360049
| 27>  C        2.9372912471     0.0829591947    -2.1257024160
| 28>  C        3.2062890950    -0.9421208019    -1.0207858381
| 29>  N        4.6789915660    -0.6928746797    -0.7729479864
| 30>  C        4.7128483540     0.8388735389    -0.7497335779
| 31>  H        0.7483696071    -0.8472815981     0.6364922400
| 32>  H        0.5681407499     0.0911158890    -0.8463424569
| 33>  H        0.7642406672     0.9121821279     0.6993078879
| 34>  H        3.0370226719     0.0221627679     0.9859443483
| 35>  H        2.9226729079     2.1279106775    -1.0247613966
| 36>  H        1.8963122362     0.0784063153    -2.4322721953
| 37>  H        3.5791010575     0.0791371653    -3.0098813768
| 38>  H        2.9800041427    -2.0055365671    -1.0736388778
| 39>  H        5.2636210412    -1.0782831800    -1.5133945476
| 40>  H        4.9895715980    -1.0954328917     0.1104696387
| 41>  H        5.0831685632     1.1723844641     0.2183602345
| 42>  H        5.3710378638     1.1918526209    -1.5421057473
| 43> *
| 44>
| 45>                          ****END OF INPUT****
 Total Charge           Charge          ....    1
 Multiplicity           Mult            ....    1
 Number of Electrons    NEL             ....   54
FINAL SINGLE POINT ENERGY      -290.099173763012
FINAL SINGLE POINT ENERGY      -290.099175167776

CARTESIAN COORDINATES (ANGSTROEM)
---------------------------------
  C      1.336843   -0.000823   -1.896466
  C      0.737631   -0.369507   -0.558922
  C     -0.812206   -0.489437   -0.463604
  C     -0.841626    1.045822   -0.279635
  C      0.486694    0.785033    0.435057
  N      0.000043   -0.000102    1.634814
  C     -0.986201   -0.964636    0.968206
  H      2.389094    0.266181   -1.782656
  H      0.830362    0.831880   -2.384933
  H      1.286400   -0.858880   -2.568604
  H      1.292927   -1.216565   -0.138119
  H     -1.406714   -1.003514   -1.214140
  H     -0.697409    1.590364   -1.207333
  H     -1.659708    1.496253    0.286722
  H      1.214237    1.543388    0.717345
  H     -0.453820    0.595881    2.325808
  H      0.760790   -0.493238    2.100614
  H     -0.663018   -1.987884    1.152776
  H     -1.978028   -0.805875    1.388226

FINAL SINGLE POINT ENERGY      -290.099175551958
                    ***********************HURRAY********************
 Multiplicity           Mult            ....    1
 Number of Electrons    NEL             ....   54
 Basis Dimension        Dim             ....  289
FINAL SINGLE POINT ENERGY      -290.099175628961

VIBRATIONAL FREQUENCIES
-----------------------

   0:         0.00 cm**-1
   1:         0.00 cm**-1
   2:         0.00 cm**-1
   3:         0.00 cm**-1
   4:         0.00 cm**-1
   5:         0.00 cm**-1
   6:       191.89 cm**-1
   7:       268.59 cm**-1
   8:       282.58 cm**-1
   9:       322.68 cm**-1
  10:       465.05 cm**-1
  11:       522.47 cm**-1
  12:       663.28 cm**-1
  13:       787.09 cm**-1
  14:       834.71 cm**-1
  15:       842.84 cm**-1
  16:       864.70 cm**-1
  17:       881.69 cm**-1
  18:       884.55 cm**-1
  19:       937.49 cm**-1
  20:       960.38 cm**-1
  21:       992.24 cm**-1
  22:      1016.00 cm**-1
  23:      1027.27 cm**-1
  24:      1077.66 cm**-1
  25:      1098.65 cm**-1
  26:      1105.34 cm**-1
  27:      1127.18 cm**-1
  28:      1164.06 cm**-1
  29:      1197.91 cm**-1
  30:      1231.85 cm**-1
  31:      1247.32 cm**-1
  32:      1264.77 cm**-1
  33:      1292.39 cm**-1
  34:      1298.62 cm**-1
  35:      1319.56 cm**-1
  36:      1351.52 cm**-1
  37:      1364.20 cm**-1
  38:      1401.96 cm**-1
  39:      1423.76 cm**-1
  40:      1485.91 cm**-1
  41:      1487.56 cm**-1
  42:      1503.08 cm**-1
  43:      1510.88 cm**-1
  44:      1651.55 cm**-1
  45:      3042.25 cm**-1
  46:      3070.31 cm**-1
  47:      3095.06 cm**-1
  48:      3115.68 cm**-1
  49:      3143.78 cm**-1
  50:      3152.68 cm**-1
  51:      3163.34 cm**-1
  52:      3176.10 cm**-1
  53:      3179.70 cm**-1
  54:      3199.72 cm**-1
  55:      3470.12 cm**-1
  56:      3532.07 cm**-1

IR SPECTRUM
-----------

 Mode    freq (cm**-1)   T**2         TX         TY         TZ
-------------------------------------------------------------------
   6:       191.89    0.104455  (  0.021684  -0.318421  -0.050915)
   7:       268.59    1.660664  (  1.270748   0.197640   0.082471)
   8:       282.58    2.144513  ( -1.071754   0.796351   0.601399)
   9:       322.68    2.042736  ( -0.793104   1.132426   0.362400)
  10:       465.05    2.073832  ( -1.108299   0.908629   0.141070)
  11:       522.47    0.854774  (  0.491253  -0.509120   0.595183)
  12:       663.28    2.378096  ( -0.014331   0.223512  -1.525757)
  13:       787.09    0.259584  ( -0.160872   0.305585   0.374596)
  14:       834.71    1.023967  (  0.924332   0.178996   0.370862)
  15:       842.84    0.304848  ( -0.437111  -0.115954  -0.316760)
  16:       864.70    7.678387  ( -0.709634  -1.026007  -2.474291)
  17:       881.69    6.702316  (  2.004470  -1.630235   0.163553)
  18:       884.55    0.519538  (  0.488235   0.276304  -0.452572)
  19:       937.49    4.537492  ( -0.782170  -1.816115   0.792103)
  20:       960.38    2.479986  ( -0.218728  -1.287978  -0.879350)
  21:       992.24    0.731631  ( -0.591877  -0.416129  -0.456233)
  22:      1016.00    3.869237  ( -0.955698  -1.552274   0.739136)
  23:      1027.27    1.407558  (  0.320026   1.085054  -0.357490)
  24:      1077.66    0.488485  ( -0.489479  -0.402637  -0.294582)
  25:      1098.65    4.313500  (  1.760216   0.039365  -1.101630)
  26:      1105.34    0.736782  (  0.601666  -0.462028  -0.401635)
  27:      1127.18    2.725596  ( -0.765256   1.283314   0.702200)
  28:      1164.06    3.183586  ( -1.517478   0.168402  -0.923302)
  29:      1197.91    9.465269  ( -2.570383   1.634637   0.431698)
  30:      1231.85    3.486268  (  0.648129  -0.019279  -1.750950)
  31:      1247.32   21.726157  ( -2.749606  -3.295872   1.817429)
  32:      1264.77    1.115298  ( -0.629596  -0.513125  -0.674988)
  33:      1292.39    3.359395  ( -0.039237   0.402756  -1.787636)
  34:      1298.62    0.446081  (  0.481817  -0.163415   0.432699)
  35:      1319.56    2.721597  ( -1.219972   1.057454   0.339200)
  36:      1351.52   17.682254  (  2.166237   3.576578  -0.444702)
  37:      1364.20   28.314849  (  3.515402   3.994326   0.046393)
  38:      1401.96    4.699342  (  1.705871   1.330720  -0.136126)
  39:      1423.76    4.445842  ( -1.101381  -0.315076   1.770178)
  40:      1485.91    9.138165  (  1.839202   2.069931   1.212801)
  41:      1487.56    2.095751  ( -0.624757  -0.809881  -1.024462)
  42:      1503.08   19.564711  ( -0.948884   3.678798  -2.265122)
  43:      1510.88   14.390225  (  3.339015  -1.766168   0.349081)
  44:      1651.55   68.840804  (  1.446449   0.236780   8.166549)
  45:      3042.25   19.886197  ( -2.047759   3.293872  -2.200748)
  46:      3070.31    5.031837  (  1.132967   0.605857  -1.838793)
  47:      3095.06   10.046707  (  2.253451  -1.700216  -1.441503)
  48:      3115.68    3.523925  (  0.983280   1.099738  -1.160888)
  49:      3143.78    3.550564  (  1.570562   0.747765   0.724394)
  50:      3152.68    8.701392  (  1.845334  -2.262468   0.421160)
  51:      3163.34    2.674082  ( -1.016906  -0.933952  -0.876195)
  52:      3176.10    0.753719  ( -0.542745  -0.677357  -0.018303)
  53:      3179.70    0.612304  (  0.613610  -0.457750  -0.162024)
  54:      3199.72    0.566088  ( -0.623687   0.200664   0.369913)
  55:      3470.12   60.494325  ( -2.000238  -0.874311  -7.465183)
  56:      3532.07   68.849017  ( -6.092886   5.489159   1.262888)

--------------------------
THERMOCHEMISTRY AT 298.15K
--------------------------

Temperature         ... 298.15 K
Pressure            ... 1.00 atm
Total Mass          ... 98.17 AMU

Throughout the following assumptions are being made:
  (1) The electronic state is orbitally nondegenerate
  (2) There are no thermally accessible electronically excited states
  (3) Hindered rotations indicated by low frequency modes) are not
      treated as such but are treated as vibrations and this may
      case some error
  (4) All equations used are the standard statistical mechanics
      equations for an ideal gas
  (5) All vibrations are strinctly harmonic

------------
INNER ENERGY
------------

The inner energy is: U= E(el) + E(ZPE) + E(vib) + E(rot) + E(trans)
    E(el)   - is the total energy from the electronic structure calculation
              = E(kin-el) + E(nuc-el) + E(el-el) + E(nuc-nuc)
    E(ZPE)  - the the zero temperature vibrational energy from the frequency calculation
    E(vib)  - the the finite temperature correction to E(ZPE) due to population
              of excietd vibrational states
    E(rot)  - is the rotational thermal energy
    E(trans)- is the translational thermal energy

Summary of contributions to the inner energy U:
Electronic energy                ...   -290.09917563 Eh
Zero point energy                ...      0.17927371 Eh     112.50 kcal/mol
Thermal vibrational correction   ...      0.00331191 Eh       2.08 kcal/mol
Thermal rotational correction    ...      0.00141627 Eh       0.89 kcal/mol
Thermal translational correction ...      0.00141627 Eh       0.89 kcal/mol
-----------------------------------------------------------------------
Total thermal energy                   -289.91375747 Eh

Summary of corrections to the electronic energy:
(perhaps to be used in another calculation)
Total thermal correction                  0.00614445 Eh       3.86 kcal/mol
Non-thermal (ZPE) correction              0.17927371 Eh     112.50 kcal/mol
-----------------------------------------------------------------------
Total correction                          0.18541816 Eh     116.35 kcal/mol

--------
ENTHALPY
--------

The enthalpy is H = U + kB*T
                kB is Boltzmann's constant
Total free energy                 ...   -289.91375747 Eh
Thermal Enthalpy correction       ...      0.00094421 Eh       0.59 kcal/mol
-----------------------------------------------------------------------
Total Enthalpy                    ...   -289.91281326 Eh

-------
ENTROPY
-------

The entropy contributions are T*S = T*(S(el)+S(vib)+S(rot)+S(trans)
     S(el)   - electronic entropy
     S(vib)  - vibrational entropy
     S(rot)  - rotational entropy
     S(trans)- translational entropy
The entropies will be listed as mutliplied by the temperature to get
units of energy

Electronic entropy                ...      0.00000000 Eh      0.00 kcal/mol
Vibrational entropy               ...      0.00499863 Eh      3.14 kcal/mol
Rotational entropy                ...      0.01173957 Eh      7.37 kcal/mol
Translational entropy             ...      0.01884507 Eh     11.83 kcal/mol
-----------------------------------------------------------------------
Final entropy term                ...      0.03558328 Eh     22.33 kcal/mol

CAUTION: The rotational entropy is not quite correctly treated here
         because it includes a symmetry number that is not yet correctly
         implemented in ORCA!
For a nonlinear molecule the correct rotational entropy is:
    S(rot) = R*(ln(qrot/sn)+1.5)
    R    = 8.31441 J/mol/K = 1.987191683e-3 kcal/mol/K
    qrot = 168083.6129930
    sn is the rotational symmetry number. We have assumed 3 here
       if it is different for your molecule then you should correct
       the printed rotational entropy by manually evaluating the equation
       as given above

For convenience we print out the resulting values for sn=1 - 12:
 sn= 1  qrot/sn=  168083.6130 T*S(rot)=     8.02 kcal/mol T*S(tot)=    22.98 kcal/mol
 sn= 2  qrot/sn=   84041.8065 T*S(rot)=     7.61 kcal/mol T*S(tot)=    22.57 kcal/mol
 sn= 3  qrot/sn=   56027.8710 T*S(rot)=     7.37 kcal/mol T*S(tot)=    22.33 kcal/mol
 sn= 4  qrot/sn=   42020.9032 T*S(rot)=     7.20 kcal/mol T*S(tot)=    22.16 kcal/mol
 sn= 5  qrot/sn=   33616.7226 T*S(rot)=     7.06 kcal/mol T*S(tot)=    22.03 kcal/mol
 sn= 6  qrot/sn=   28013.9355 T*S(rot)=     6.96 kcal/mol T*S(tot)=    21.92 kcal/mol
 sn= 7  qrot/sn=   24011.9447 T*S(rot)=     6.86 kcal/mol T*S(tot)=    21.83 kcal/mol
 sn= 8  qrot/sn=   21010.4516 T*S(rot)=     6.79 kcal/mol T*S(tot)=    21.75 kcal/mol
 sn= 9  qrot/sn=   18675.9570 T*S(rot)=     6.72 kcal/mol T*S(tot)=    21.68 kcal/mol
 sn=10  qrot/sn=   16808.3613 T*S(rot)=     6.65 kcal/mol T*S(tot)=    21.62 kcal/mol
 sn=11  qrot/sn=   15280.3285 T*S(rot)=     6.60 kcal/mol T*S(tot)=    21.56 kcal/mol
 sn=12  qrot/sn=   14006.9677 T*S(rot)=     6.55 kcal/mol T*S(tot)=    21.51 kcal/mol

-------------------
GIBBS FREE ENTHALPY
-------------------

The Gibbs free enthalpy is G = H - T*S

Total enthalpy                    ...   -289.91281326 Eh
Total entropy correction          ...     -0.03558328 Eh    -22.33 kcal/mol
-----------------------------------------------------------------------
Final Gibbs free enthalpy         ...   -289.94839654 Eh

For completeness - the Gibbs free enthalpy minus the electronic energy
G-E(el)                           ...      0.15077909 Eh     94.62 kcal/mol

                             ****ORCA TERMINATED NORMALLY****
TOTAL RUN TIME: 0 days 0 hours 57 minutes 59 seconds 586 msec
