                         Program Version 3.0.3 - RELEASE   -
|  1> ! NORI PBE0 def2-TZVP UseSym TightOPT Freq TightSCF Grid3 FinalGrid5 XYZFile
|  2> % pal
|  3>     nprocs 8
|  4> end
|  5> %method
|  6>     SymThresh 5.0e-2
|  7> end
|  8> % geom
|  9>     MaxIter 10
| 10> end
| 11> % maxcore 2000
| 12> % output
| 13>     printlevel mini
| 14>     print[ P_Basis ] 0
| 15>     print[ P_SCFInfo ] 1
| 16>     print[ P_SCFIterInfo ] 1
| 17>     print[ P_OrbEn ] 0
| 18>     print[ P_Cartesian ] 0
| 19> end
| 20> % elprop
| 21>     Dipole false
| 22> end
| 23> *xyz 1 1
| 24>  C        0.9710664198    -0.0725585904    -0.2431563510
| 25>  C        2.4039202309     0.2602094465     0.0528050449
| 26>  C        3.5793183584    -0.5621117174    -0.5688045187
| 27>  N        4.4385315026     0.6799163021    -0.2855871220
| 28>  C        3.1506815373     1.4001927606    -0.7122008833
| 29>  C        3.0922715912     0.9315846564    -2.1562124029
| 30>  C        3.3757013726    -0.3655230621    -2.0610479260
| 31>  H        0.3175094755     0.7168064256     0.1333359208
| 32>  H        0.6878429418    -0.9971048956     0.2631585135
| 33>  H        0.7876503862    -0.1932120370    -1.3109018179
| 34>  H        2.5541618911     0.3720832432     1.1334533500
| 35>  H        3.9486415137    -1.5026041586    -0.1693729711
| 36>  H        4.6747778289     0.8039701632     0.7005793812
| 37>  H        5.2542642319     0.8142085781    -0.8851072954
| 38>  H        3.0839250346     2.4547976821    -0.4588662185
| 39>  H        2.8601068746     1.5436808977    -3.0146484223
| 40>  H        3.4451388093    -1.1317856943    -2.8185262813
| 41> *
| 42>
| 43>                          ****END OF INPUT****
 Total Charge           Charge          ....    1
 Multiplicity           Mult            ....    1
 Number of Electrons    NEL             ....   52
FINAL SINGLE POINT ENERGY      -288.850777943228

CARTESIAN COORDINATES (ANGSTROEM)
---------------------------------
  C     -1.752202    1.251282    0.000000
  C     -0.268527    1.027993   -0.000000
  C      0.408833    0.042539    1.006849
  N      1.568547   -0.000208    0.000000
  C      0.408833    0.042539   -1.006849
  C     -0.240902   -1.287502   -0.665582
  C     -0.240902   -1.287502    0.665582
  H     -2.044520    1.828451   -0.879168
  H     -2.044520    1.828451    0.879168
  H     -2.310647    0.315069    0.000000
  H      0.261468    1.988064   -0.000000
  H      0.670980    0.295419    2.030561
  H      2.148017    0.841385    0.000000
  H      2.139523   -0.847130    0.000000
  H      0.670980    0.295419   -2.030561
  H     -0.607293   -2.016126   -1.372885
  H     -0.607293   -2.016126    1.372885

FINAL SINGLE POINT ENERGY      -288.850778171724
                    ***********************HURRAY********************
 Multiplicity           Mult            ....    1
 Number of Electrons    NEL             ....   52
 Basis Dimension        Dim             ....  277
FINAL SINGLE POINT ENERGY      -288.850778201291

VIBRATIONAL FREQUENCIES
-----------------------

   0:         0.00 cm**-1
   1:         0.00 cm**-1
   2:         0.00 cm**-1
   3:         0.00 cm**-1
   4:         0.00 cm**-1
   5:         0.00 cm**-1
   6:       215.96 cm**-1
   7:       269.70 cm**-1
   8:       274.32 cm**-1
   9:       500.47 cm**-1
  10:       542.55 cm**-1
  11:       581.67 cm**-1
  12:       718.96 cm**-1
  13:       729.88 cm**-1
  14:       765.16 cm**-1
  15:       804.97 cm**-1
  16:       814.04 cm**-1
  17:       864.11 cm**-1
  18:       939.33 cm**-1
  19:       945.21 cm**-1
  20:       967.71 cm**-1
  21:      1000.37 cm**-1
  22:      1028.25 cm**-1
  23:      1054.03 cm**-1
  24:      1060.00 cm**-1
  25:      1128.20 cm**-1
  26:      1135.51 cm**-1
  27:      1151.56 cm**-1
  28:      1190.39 cm**-1
  29:      1214.34 cm**-1
  30:      1262.41 cm**-1
  31:      1263.79 cm**-1
  32:      1276.37 cm**-1
  33:      1291.92 cm**-1
  34:      1357.07 cm**-1
  35:      1405.74 cm**-1
  36:      1432.33 cm**-1
  37:      1487.22 cm**-1
  38:      1488.40 cm**-1
  39:      1612.53 cm**-1
  40:      1642.41 cm**-1
  41:      3057.44 cm**-1
  42:      3070.41 cm**-1
  43:      3144.12 cm**-1
  44:      3158.20 cm**-1
  45:      3186.03 cm**-1
  46:      3186.08 cm**-1
  47:      3260.95 cm**-1
  48:      3281.97 cm**-1
  49:      3426.85 cm**-1
  50:      3521.05 cm**-1

IR SPECTRUM
-----------

 Mode    freq (cm**-1)   T**2         TX         TY         TZ
-------------------------------------------------------------------
   6:       215.96    0.061655  (  0.000000  -0.000000   0.248305)
   7:       269.70    0.422369  ( -0.219574   0.611683  -0.000000)
   8:       274.32    0.684487  (  0.000000  -0.000000  -0.827337)
   9:       500.47   11.349749  ( -0.778625   3.277727  -0.000000)
  10:       542.55    0.033581  (  0.000000  -0.000000   0.183252)
  11:       581.67    3.599525  ( -1.169088   1.494242   0.000000)
  12:       718.96   22.356545  (  3.762589  -2.863472  -0.000000)
  13:       729.88    0.303948  ( -0.000000   0.000000   0.551315)
  14:       765.16   20.400861  ( -3.627234   2.691475  -0.000000)
  15:       804.97    0.302201  (  0.000000  -0.000000   0.549728)
  16:       814.04   25.169122  (  5.003537  -0.365698  -0.000000)
  17:       864.11    1.315425  ( -0.000000   0.000000  -1.146920)
  18:       939.33    2.933896  (  0.000000  -0.000000   1.712862)
  19:       945.21    7.382468  (  2.694076  -0.352735   0.000000)
  20:       967.71    0.000207  (  0.000000  -0.000000   0.014390)
  21:      1000.37    2.202697  ( -0.487202   1.401903  -0.000000)
  22:      1028.25    8.466534  ( -0.475434   2.870626   0.000000)
  23:      1054.03    6.495959  (  1.802903  -1.801527   0.000000)
  24:      1060.00    2.067468  (  0.000000  -0.000000  -1.437869)
  25:      1128.20    2.399564  ( -0.000000   0.000000   1.549053)
  26:      1135.51    2.405953  ( -0.626598  -1.418918   0.000000)
  27:      1151.56   16.336127  ( -0.000000   0.000000  -4.041798)
  28:      1190.39    0.884954  ( -0.235523   0.910759  -0.000000)
  29:      1214.34   10.335211  ( -0.000000   0.000000  -3.214842)
  30:      1262.41   31.757006  (  0.000000  -0.000000   5.635336)
  31:      1263.79    4.695415  ( -0.234282  -2.154188   0.000000)
  32:      1276.37    3.324961  (  0.000000  -0.000000   1.823448)
  33:      1291.92    3.690336  (  1.056945  -1.604121   0.000000)
  34:      1357.07   51.318719  ( -0.000000   0.000000   7.163708)
  35:      1405.74    5.747792  (  2.081709   1.189235  -0.000000)
  36:      1432.33    9.078912  ( -2.358687   1.874969  -0.000000)
  37:      1487.22    9.672611  ( -0.000000   0.000000  -3.110082)
  38:      1488.40    8.365168  (  0.943292   2.734112   0.000000)
  39:      1612.53   79.959613  ( -8.941514  -0.094597  -0.000000)
  40:      1642.41    6.271459  ( -2.356631   0.847202   0.000000)
  41:      3057.44   12.682819  ( -2.386872  -2.643040  -0.000000)
  42:      3070.41    1.027706  (  0.904977  -0.456861   0.000000)
  43:      3144.12    1.279635  (  0.000000  -0.000000   1.131209)
  44:      3158.20    3.135339  (  0.721892   1.616852  -0.000000)
  45:      3186.03    0.024733  ( -0.021533   0.155785   0.000000)
  46:      3186.08    1.177602  (  0.000000  -0.000000  -1.085174)
  47:      3260.95    8.843912  (  0.000000  -0.000000  -2.973872)
  48:      3281.97    8.633360  (  1.334888   2.617524   0.000000)
  49:      3426.85   43.796654  ( -6.592454   0.579832  -0.000000)
  50:      3521.05   51.461218  ( -0.172058   7.171584   0.000000)

--------------------------
THERMOCHEMISTRY AT 298.15K
--------------------------

Temperature         ... 298.15 K
Pressure            ... 1.00 atm
Total Mass          ... 96.15 AMU

Throughout the following assumptions are being made:
  (1) The electronic state is orbitally nondegenerate
  (2) There are no thermally accessible electronically excited states
  (3) Hindered rotations indicated by low frequency modes) are not
      treated as such but are treated as vibrations and this may
      case some error
  (4) All equations used are the standard statistical mechanics
      equations for an ideal gas
  (5) All vibrations are strinctly harmonic

------------
INNER ENERGY
------------

The inner energy is: U= E(el) + E(ZPE) + E(vib) + E(rot) + E(trans)
    E(el)   - is the total energy from the electronic structure calculation
              = E(kin-el) + E(nuc-el) + E(el-el) + E(nuc-nuc)
    E(ZPE)  - the the zero temperature vibrational energy from the frequency calculation
    E(vib)  - the the finite temperature correction to E(ZPE) due to population
              of excietd vibrational states
    E(rot)  - is the rotational thermal energy
    E(trans)- is the translational thermal energy

Summary of contributions to the inner energy U:
Electronic energy                ...   -288.85077820 Eh
Zero point energy                ...      0.15425466 Eh      96.80 kcal/mol
Thermal vibrational correction   ...      0.00299513 Eh       1.88 kcal/mol
Thermal rotational correction    ...      0.00141627 Eh       0.89 kcal/mol
Thermal translational correction ...      0.00141627 Eh       0.89 kcal/mol
-----------------------------------------------------------------------
Total thermal energy                   -288.69069587 Eh

Summary of corrections to the electronic energy:
(perhaps to be used in another calculation)
Total thermal correction                  0.00582768 Eh       3.66 kcal/mol
Non-thermal (ZPE) correction              0.15425466 Eh      96.80 kcal/mol
-----------------------------------------------------------------------
Total correction                          0.16008233 Eh     100.45 kcal/mol

--------
ENTHALPY
--------

The enthalpy is H = U + kB*T
                kB is Boltzmann's constant
Total free energy                 ...   -288.69069587 Eh
Thermal Enthalpy correction       ...      0.00094421 Eh       0.59 kcal/mol
-----------------------------------------------------------------------
Total Enthalpy                    ...   -288.68975166 Eh

-------
ENTROPY
-------

The entropy contributions are T*S = T*(S(el)+S(vib)+S(rot)+S(trans)
     S(el)   - electronic entropy
     S(vib)  - vibrational entropy
     S(rot)  - rotational entropy
     S(trans)- translational entropy
The entropies will be listed as mutliplied by the temperature to get
units of energy

Electronic entropy                ...      0.00000000 Eh      0.00 kcal/mol
Vibrational entropy               ...      0.00443742 Eh      2.78 kcal/mol
Rotational entropy                ...      0.01164864 Eh      7.31 kcal/mol
Translational entropy             ...      0.01881568 Eh     11.81 kcal/mol
-----------------------------------------------------------------------
Final entropy term                ...      0.03490174 Eh     21.90 kcal/mol

CAUTION: The rotational entropy is not quite correctly treated here
         because it includes a symmetry number that is not yet correctly
         implemented in ORCA!
For a nonlinear molecule the correct rotational entropy is:
    S(rot) = R*(ln(qrot/sn)+1.5)
    R    = 8.31441 J/mol/K = 1.987191683e-3 kcal/mol/K
    qrot = 152650.6328108
    sn is the rotational symmetry number. We have assumed 3 here
       if it is different for your molecule then you should correct
       the printed rotational entropy by manually evaluating the equation
       as given above

For convenience we print out the resulting values for sn=1 - 12:
 sn= 1  qrot/sn=  152650.6328 T*S(rot)=     7.96 kcal/mol T*S(tot)=    22.55 kcal/mol
 sn= 2  qrot/sn=   76325.3164 T*S(rot)=     7.55 kcal/mol T*S(tot)=    22.14 kcal/mol
 sn= 3  qrot/sn=   50883.5443 T*S(rot)=     7.31 kcal/mol T*S(tot)=    21.90 kcal/mol
 sn= 4  qrot/sn=   38162.6582 T*S(rot)=     7.14 kcal/mol T*S(tot)=    21.73 kcal/mol
 sn= 5  qrot/sn=   30530.1266 T*S(rot)=     7.01 kcal/mol T*S(tot)=    21.60 kcal/mol
 sn= 6  qrot/sn=   25441.7721 T*S(rot)=     6.90 kcal/mol T*S(tot)=    21.49 kcal/mol
 sn= 7  qrot/sn=   21807.2333 T*S(rot)=     6.81 kcal/mol T*S(tot)=    21.40 kcal/mol
 sn= 8  qrot/sn=   19081.3291 T*S(rot)=     6.73 kcal/mol T*S(tot)=    21.32 kcal/mol
 sn= 9  qrot/sn=   16961.1814 T*S(rot)=     6.66 kcal/mol T*S(tot)=    21.25 kcal/mol
 sn=10  qrot/sn=   15265.0633 T*S(rot)=     6.60 kcal/mol T*S(tot)=    21.19 kcal/mol
 sn=11  qrot/sn=   13877.3303 T*S(rot)=     6.54 kcal/mol T*S(tot)=    21.13 kcal/mol
 sn=12  qrot/sn=   12720.8861 T*S(rot)=     6.49 kcal/mol T*S(tot)=    21.08 kcal/mol

-------------------
GIBBS FREE ENTHALPY
-------------------

The Gibbs free enthalpy is G = H - T*S

Total enthalpy                    ...   -288.68975166 Eh
Total entropy correction          ...     -0.03490174 Eh    -21.90 kcal/mol
-----------------------------------------------------------------------
Final Gibbs free enthalpy         ...   -288.72465340 Eh

For completeness - the Gibbs free enthalpy minus the electronic energy
G-E(el)                           ...      0.12612480 Eh     79.14 kcal/mol

                             ****ORCA TERMINATED NORMALLY****
TOTAL RUN TIME: 0 days 0 hours 46 minutes 40 seconds 90 msec
