                         Program Version 3.0.3 - RELEASE   -
|  1> ! NORI PBE0 def2-TZVP UseSym TightOPT Freq TightSCF Grid3 FinalGrid5 XYZFile
|  2> % pal
|  3>     nprocs 8
|  4> end
|  5> %method
|  6>     SymThresh 5.0e-2
|  7> end
|  8> % geom
|  9>     MaxIter 10
| 10> end
| 11> % maxcore 2000
| 12> % output
| 13>     printlevel mini
| 14>     print[ P_Basis ] 0
| 15>     print[ P_SCFInfo ] 1
| 16>     print[ P_SCFIterInfo ] 1
| 17>     print[ P_OrbEn ] 0
| 18>     print[ P_Cartesian ] 0
| 19> end
| 20> % elprop
| 21>     Dipole false
| 22> end
| 23> *xyz 1 1
| 24>  C        0.8877369183     0.1505983191    -0.1290295834
| 25>  C        2.3852985639     0.1478175929    -0.0051320989
| 26>  C        3.2230750477    -0.8493730262    -0.7470026297
| 27>  C        3.2350305484     0.5905881596    -1.1624196347
| 28>  C        4.4522250011     1.4286979859    -1.0322557447
| 29>  C        4.4324018808     2.7564652624    -0.3938541217
| 30>  N        5.0279279766     1.6101458964     0.3339972524
| 31>  H        0.4670639868     1.1337592466     0.0933360353
| 32>  H        0.4445288383    -0.5692493412     0.5611989870
| 33>  H        0.5814438731    -0.1253888284    -1.1400829864
| 34>  H        2.7367554761     0.3845232411     0.9994843439
| 35>  H        4.1027676297    -1.2478291105    -0.2539754833
| 36>  H        2.7233224404    -1.5544418482    -1.3990360592
| 37>  H        2.6985027938     0.8359104676    -2.0746347654
| 38>  H        5.2372068442     1.2613922559    -1.7643842120
| 39>  H        3.5068259291     3.1069924629     0.0442508956
| 40>  H        5.1484708602     3.5138943965    -0.6854621123
| 41>  H        6.0342838477     1.5786299557     0.4520410076
| 42>  H        4.4994715437     1.2272869120     1.1113209099
| 43> *
| 44>
| 45>                          ****END OF INPUT****
 Total Charge           Charge          ....    1
 Multiplicity           Mult            ....    1
 Number of Electrons    NEL             ....   54
FINAL SINGLE POINT ENERGY      -290.067382428205
FINAL SINGLE POINT ENERGY      -290.067384083559
FINAL SINGLE POINT ENERGY      -290.067385660452
FINAL SINGLE POINT ENERGY      -290.067386551104

CARTESIAN COORDINATES (ANGSTROEM)
---------------------------------
  C      1.322970    0.004709   -2.250687
  C      0.730969    0.476185   -0.952248
  C     -0.452811    1.394150   -0.929901
  C     -0.611360   -0.036044   -0.510802
  C     -0.948502   -0.404543    0.886081
  C     -0.207887   -1.436117    1.633135
  N      0.008164   -0.006992    1.962251
  H      1.860224   -0.938214   -2.129807
  H      2.022542    0.744698   -2.643641
  H      0.542056   -0.145774   -2.999245
  H      1.478093    0.671236   -0.181942
  H     -0.494193    2.161756   -0.165131
  H     -0.889370    1.689357   -1.875753
  H     -1.118053   -0.692271   -1.212564
  H     -1.974702   -0.232821    1.198542
  H      0.649293   -1.901844    1.163531
  H     -0.696641   -2.001103    2.416131
  H     -0.357373    0.352024    2.836857
  H      0.886048    0.409844    1.668708

FINAL SINGLE POINT ENERGY      -290.067387498186
                    ***********************HURRAY********************
 Multiplicity           Mult            ....    1
 Number of Electrons    NEL             ....   54
 Basis Dimension        Dim             ....  289
FINAL SINGLE POINT ENERGY      -290.067387976545

VIBRATIONAL FREQUENCIES
-----------------------

   0:         0.00 cm**-1
   1:         0.00 cm**-1
   2:         0.00 cm**-1
   3:         0.00 cm**-1
   4:         0.00 cm**-1
   5:         0.00 cm**-1
   6:        51.58 cm**-1
   7:       144.49 cm**-1
   8:       196.96 cm**-1
   9:       222.69 cm**-1
  10:       317.69 cm**-1
  11:       357.06 cm**-1
  12:       462.16 cm**-1
  13:       507.92 cm**-1
  14:       721.18 cm**-1
  15:       814.69 cm**-1
  16:       828.64 cm**-1
  17:       859.50 cm**-1
  18:       865.91 cm**-1
  19:       884.44 cm**-1
  20:       911.75 cm**-1
  21:       947.26 cm**-1
  22:       981.07 cm**-1
  23:      1026.93 cm**-1
  24:      1057.16 cm**-1
  25:      1081.44 cm**-1
  26:      1098.22 cm**-1
  27:      1111.78 cm**-1
  28:      1132.58 cm**-1
  29:      1158.61 cm**-1
  30:      1167.81 cm**-1
  31:      1185.09 cm**-1
  32:      1216.09 cm**-1
  33:      1238.02 cm**-1
  34:      1255.73 cm**-1
  35:      1278.37 cm**-1
  36:      1343.01 cm**-1
  37:      1406.09 cm**-1
  38:      1419.02 cm**-1
  39:      1455.12 cm**-1
  40:      1480.62 cm**-1
  41:      1488.89 cm**-1
  42:      1491.04 cm**-1
  43:      1516.18 cm**-1
  44:      1617.16 cm**-1
  45:      3058.71 cm**-1
  46:      3095.14 cm**-1
  47:      3135.57 cm**-1
  48:      3140.87 cm**-1
  49:      3151.75 cm**-1
  50:      3167.03 cm**-1
  51:      3172.83 cm**-1
  52:      3176.03 cm**-1
  53:      3240.60 cm**-1
  54:      3276.86 cm**-1
  55:      3503.57 cm**-1
  56:      3612.77 cm**-1

IR SPECTRUM
-----------

 Mode    freq (cm**-1)   T**2         TX         TY         TZ
-------------------------------------------------------------------
   6:        51.58    2.375520  (  1.336182  -0.763708   0.082989)
   7:       144.49    1.048144  ( -0.560054   0.505079   0.692373)
   8:       196.96    7.279854  (  0.828262   0.914405  -2.399521)
   9:       222.69    4.108512  (  0.322140   0.634353  -1.897982)
  10:       317.69    2.629910  (  0.058389   0.026461   1.620432)
  11:       357.06    0.368378  (  0.099891  -0.298507   0.518935)
  12:       462.16    0.634992  (  0.708830   0.357731   0.067683)
  13:       507.92    4.427012  (  0.019531  -1.144036   1.765732)
  14:       721.18    2.729239  ( -1.569799  -0.501975   0.113985)
  15:       814.69   11.737023  ( -2.197160  -1.928470  -1.786202)
  16:       828.64    3.788413  (  0.046781  -1.182751  -1.545097)
  17:       859.50    2.770163  ( -1.462481   0.704393   0.367619)
  18:       865.91    3.022042  (  0.072405   1.734033  -0.099643)
  19:       884.44    8.342849  ( -0.530328  -0.351500  -2.817454)
  20:       911.75    3.550504  ( -1.710050   0.686537   0.393574)
  21:       947.26   12.117351  ( -1.463771  -2.703664  -1.632460)
  22:       981.07    5.974154  ( -1.863644  -1.019103  -1.209303)
  23:      1026.93   98.861822  ( -5.125262   5.865357  -6.179895)
  24:      1057.16    4.324093  (  1.767000   0.677585  -0.861790)
  25:      1081.44    4.975454  (  2.217919   0.232151  -0.048943)
  26:      1098.22   10.299165  ( -0.300624   2.850967  -1.442491)
  27:      1111.78    6.591622  (  2.343814   0.992753  -0.335558)
  28:      1132.58    0.143495  ( -0.179740   0.269122   0.196883)
  29:      1158.61    9.009282  ( -0.243138  -0.828671   2.874625)
  30:      1167.81    2.437037  (  1.338602   0.640520  -0.484681)
  31:      1185.09    0.764130  (  0.591537  -0.007220   0.643554)
  32:      1216.09    3.054900  ( -0.952425   0.448311  -1.395279)
  33:      1238.02    1.280400  (  0.271865   1.095582   0.078674)
  34:      1255.73    5.052029  ( -0.913211  -1.368312   1.531599)
  35:      1278.37    4.058999  ( -1.782102  -0.935839  -0.085540)
  36:      1343.01    1.950221  ( -0.414022  -0.332605  -1.291581)
  37:      1406.09    7.704053  (  1.290712  -0.497302  -2.406409)
  38:      1419.02    3.411185  ( -1.035245  -1.249848  -0.881665)
  39:      1455.12   10.783378  ( -1.748481  -1.745628   2.163094)
  40:      1480.62    3.755834  (  0.250745   1.898379  -0.298525)
  41:      1488.89   10.203778  ( -2.932104  -1.267137   0.030116)
  42:      1491.04   24.683201  (  2.396882  -3.743561   2.218989)
  43:      1516.18    7.525974  (  1.027658  -1.173105  -2.256927)
  44:      1617.16   81.914655  (  4.142686   3.872905   7.053610)
  45:      3058.71    8.260623  ( -1.292886   1.243714   2.245494)
  46:      3095.14   29.927402  (  1.472607   0.241647   5.263120)
  47:      3135.57   11.165716  (  2.030954  -2.094826   1.628695)
  48:      3140.87    7.969316  (  2.381212   1.305373   0.771456)
  49:      3151.75    3.704959  ( -0.254803   1.244668   1.445972)
  50:      3167.03    0.217508  ( -0.119474   0.203734   0.402152)
  51:      3172.83    2.652549  ( -0.316571   1.457827  -0.653508)
  52:      3176.03    2.166850  (  0.245202  -0.460299   1.376536)
  53:      3240.60    0.719878  ( -0.179503   0.522841   0.643656)
  54:      3276.86    5.012450  ( -1.695281  -0.057099   1.461236)
  55:      3503.57   67.737335  ( -4.080681  -6.231531  -3.500486)
  56:      3612.77  154.777452  (  6.693012  -0.579000 -10.471189)

--------------------------
THERMOCHEMISTRY AT 298.15K
--------------------------

Temperature         ... 298.15 K
Pressure            ... 1.00 atm
Total Mass          ... 98.17 AMU

Throughout the following assumptions are being made:
  (1) The electronic state is orbitally nondegenerate
  (2) There are no thermally accessible electronically excited states
  (3) Hindered rotations indicated by low frequency modes) are not
      treated as such but are treated as vibrations and this may
      case some error
  (4) All equations used are the standard statistical mechanics
      equations for an ideal gas
  (5) All vibrations are strinctly harmonic

------------
INNER ENERGY
------------

The inner energy is: U= E(el) + E(ZPE) + E(vib) + E(rot) + E(trans)
    E(el)   - is the total energy from the electronic structure calculation
              = E(kin-el) + E(nuc-el) + E(el-el) + E(nuc-nuc)
    E(ZPE)  - the the zero temperature vibrational energy from the frequency calculation
    E(vib)  - the the finite temperature correction to E(ZPE) due to population
              of excietd vibrational states
    E(rot)  - is the rotational thermal energy
    E(trans)- is the translational thermal energy

Summary of contributions to the inner energy U:
Electronic energy                ...   -290.06738798 Eh
Zero point energy                ...      0.17549103 Eh     110.12 kcal/mol
Thermal vibrational correction   ...      0.00469276 Eh       2.94 kcal/mol
Thermal rotational correction    ...      0.00141627 Eh       0.89 kcal/mol
Thermal translational correction ...      0.00141627 Eh       0.89 kcal/mol
-----------------------------------------------------------------------
Total thermal energy                   -289.88437164 Eh

Summary of corrections to the electronic energy:
(perhaps to be used in another calculation)
Total thermal correction                  0.00752530 Eh       4.72 kcal/mol
Non-thermal (ZPE) correction              0.17549103 Eh     110.12 kcal/mol
-----------------------------------------------------------------------
Total correction                          0.18301633 Eh     114.84 kcal/mol

--------
ENTHALPY
--------

The enthalpy is H = U + kB*T
                kB is Boltzmann's constant
Total free energy                 ...   -289.88437164 Eh
Thermal Enthalpy correction       ...      0.00094421 Eh       0.59 kcal/mol
-----------------------------------------------------------------------
Total Enthalpy                    ...   -289.88342743 Eh

-------
ENTROPY
-------

The entropy contributions are T*S = T*(S(el)+S(vib)+S(rot)+S(trans)
     S(el)   - electronic entropy
     S(vib)  - vibrational entropy
     S(rot)  - rotational entropy
     S(trans)- translational entropy
The entropies will be listed as mutliplied by the temperature to get
units of energy

Electronic entropy                ...      0.00000000 Eh      0.00 kcal/mol
Vibrational entropy               ...      0.00843097 Eh      5.29 kcal/mol
Rotational entropy                ...      0.01205186 Eh      7.56 kcal/mol
Translational entropy             ...      0.01884507 Eh     11.83 kcal/mol
-----------------------------------------------------------------------
Final entropy term                ...      0.03932790 Eh     24.68 kcal/mol

CAUTION: The rotational entropy is not quite correctly treated here
         because it includes a symmetry number that is not yet correctly
         implemented in ORCA!
For a nonlinear molecule the correct rotational entropy is:
    S(rot) = R*(ln(qrot/sn)+1.5)
    R    = 8.31441 J/mol/K = 1.987191683e-3 kcal/mol/K
    qrot = 233973.2385617
    sn is the rotational symmetry number. We have assumed 3 here
       if it is different for your molecule then you should correct
       the printed rotational entropy by manually evaluating the equation
       as given above

For convenience we print out the resulting values for sn=1 - 12:
 sn= 1  qrot/sn=  233973.2386 T*S(rot)=     8.21 kcal/mol T*S(tot)=    25.33 kcal/mol
 sn= 2  qrot/sn=  116986.6193 T*S(rot)=     7.80 kcal/mol T*S(tot)=    24.92 kcal/mol
 sn= 3  qrot/sn=   77991.0795 T*S(rot)=     7.56 kcal/mol T*S(tot)=    24.68 kcal/mol
 sn= 4  qrot/sn=   58493.3096 T*S(rot)=     7.39 kcal/mol T*S(tot)=    24.51 kcal/mol
 sn= 5  qrot/sn=   46794.6477 T*S(rot)=     7.26 kcal/mol T*S(tot)=    24.38 kcal/mol
 sn= 6  qrot/sn=   38995.5398 T*S(rot)=     7.15 kcal/mol T*S(tot)=    24.27 kcal/mol
 sn= 7  qrot/sn=   33424.7484 T*S(rot)=     7.06 kcal/mol T*S(tot)=    24.18 kcal/mol
 sn= 8  qrot/sn=   29246.6548 T*S(rot)=     6.98 kcal/mol T*S(tot)=    24.10 kcal/mol
 sn= 9  qrot/sn=   25997.0265 T*S(rot)=     6.91 kcal/mol T*S(tot)=    24.03 kcal/mol
 sn=10  qrot/sn=   23397.3239 T*S(rot)=     6.85 kcal/mol T*S(tot)=    23.97 kcal/mol
 sn=11  qrot/sn=   21270.2944 T*S(rot)=     6.79 kcal/mol T*S(tot)=    23.91 kcal/mol
 sn=12  qrot/sn=   19497.7699 T*S(rot)=     6.74 kcal/mol T*S(tot)=    23.86 kcal/mol

-------------------
GIBBS FREE ENTHALPY
-------------------

The Gibbs free enthalpy is G = H - T*S

Total enthalpy                    ...   -289.88342743 Eh
Total entropy correction          ...     -0.03932790 Eh    -24.68 kcal/mol
-----------------------------------------------------------------------
Final Gibbs free enthalpy         ...   -289.92275533 Eh

For completeness - the Gibbs free enthalpy minus the electronic energy
G-E(el)                           ...      0.14463264 Eh     90.76 kcal/mol

                             ****ORCA TERMINATED NORMALLY****
TOTAL RUN TIME: 0 days 0 hours 55 minutes 6 seconds 402 msec
