                         Program Version 3.0.3 - RELEASE   -
|  1> ! NORI PBE0 def2-TZVP UseSym TightOPT Freq TightSCF Grid3 FinalGrid5 XYZFile
|  2> % pal
|  3>     nprocs 8
|  4> end
|  5> %method
|  6>     SymThresh 5.0e-2
|  7> end
|  8> % geom
|  9>     MaxIter 10
| 10> end
| 11> % maxcore 2000
| 12> % output
| 13>     printlevel mini
| 14>     print[ P_Basis ] 0
| 15>     print[ P_SCFInfo ] 1
| 16>     print[ P_SCFIterInfo ] 1
| 17>     print[ P_OrbEn ] 0
| 18>     print[ P_Cartesian ] 0
| 19> end
| 20> % elprop
| 21>     Dipole false
| 22> end
| 23> *xyz 1 1
| 24>  C        0.8024829172     0.1092009509    -0.0508414203
| 25>  C        2.2961486537     0.1036175780     0.1456680827
| 26>  C        3.1543403693    -0.7500004922    -0.7564537075
| 27>  C        3.1631951848     0.7296594061    -0.9195806042
| 28>  C        2.8065798523     0.2818277172     1.5244501253
| 29>  C        2.0223329852     0.8396521224     2.6370369416
| 30>  N        2.2476957874    -0.6245247379     2.6037858093
| 31>  H        0.5702692724    -0.0687522357    -1.1010436368
| 32>  H        0.3545567794     1.0691250558     0.2189691341
| 33>  H        0.2904101229    -0.6834392150     0.5077247572
| 34>  H        4.0373675265    -1.2220584405    -0.3422420013
| 35>  H        2.6349158094    -1.3479192604    -1.4944782002
| 36>  H        2.6421392911     1.1620672003    -1.7641137001
| 37>  H        4.0489212374     1.2757941422    -0.6182633084
| 38>  H        3.8852106307     0.3549311579     1.6219654960
| 39>  H        0.9902437471     1.1193369528     2.4717429292
| 40>  H        2.5243294457     1.3447084516     3.4521100682
| 41>  H        2.8787823746    -1.0376801212     3.2803408589
| 42>  H        1.4635480129    -1.2145762324     2.3478123763
| 43> *
| 44>
| 45>                          ****END OF INPUT****
 Total Charge           Charge          ....    1
 Multiplicity           Mult            ....    1
 Number of Electrons    NEL             ....   54
FINAL SINGLE POINT ENERGY      -290.070088713357

CARTESIAN COORDINATES (ANGSTROEM)
---------------------------------
  C      1.587340    0.000179   -0.714020
  C      0.097736    0.190017   -0.594142
  C     -0.533904    1.435883   -1.166777
  C     -0.737873    0.128807   -1.849550
  C     -0.570033   -0.366680    0.604921
  C      0.009716   -1.400426    1.476427
  N     -0.000689   -0.000220    1.961243
  H      1.947335    0.489175   -1.619369
  H      1.864337   -1.054503   -0.786980
  H      2.148052    0.451516    0.113385
  H     -1.377243    1.877602   -0.649186
  H      0.137541    2.155133   -1.617949
  H     -0.201522   -0.065850   -2.769327
  H     -1.718330   -0.329336   -1.802444
  H     -1.652005   -0.285631    0.621655
  H      1.003190   -1.775396    1.268174
  H     -0.639159   -2.064489    2.032602
  H     -0.631918    0.252371    2.712365
  H      0.881112    0.500198    1.969212

FINAL SINGLE POINT ENERGY      -290.070089707307
                    ***********************HURRAY********************
 Multiplicity           Mult            ....    1
 Number of Electrons    NEL             ....   54
 Basis Dimension        Dim             ....  289
FINAL SINGLE POINT ENERGY      -290.070090031271

VIBRATIONAL FREQUENCIES
-----------------------

   0:         0.00 cm**-1
   1:         0.00 cm**-1
   2:         0.00 cm**-1
   3:         0.00 cm**-1
   4:         0.00 cm**-1
   5:         0.00 cm**-1
   6:        75.86 cm**-1
   7:       212.45 cm**-1
   8:       220.92 cm**-1
   9:       248.84 cm**-1
  10:       328.26 cm**-1
  11:       346.72 cm**-1
  12:       427.78 cm**-1
  13:       494.88 cm**-1
  14:       676.24 cm**-1
  15:       752.51 cm**-1
  16:       788.38 cm**-1
  17:       846.45 cm**-1
  18:       869.76 cm**-1
  19:       887.67 cm**-1
  20:       897.91 cm**-1
  21:       951.19 cm**-1
  22:       969.35 cm**-1
  23:       974.78 cm**-1
  24:      1007.41 cm**-1
  25:      1043.08 cm**-1
  26:      1064.72 cm**-1
  27:      1096.38 cm**-1
  28:      1115.40 cm**-1
  29:      1124.86 cm**-1
  30:      1160.09 cm**-1
  31:      1182.44 cm**-1
  32:      1191.44 cm**-1
  33:      1250.42 cm**-1
  34:      1272.45 cm**-1
  35:      1303.71 cm**-1
  36:      1364.70 cm**-1
  37:      1421.37 cm**-1
  38:      1440.35 cm**-1
  39:      1466.41 cm**-1
  40:      1485.23 cm**-1
  41:      1492.56 cm**-1
  42:      1498.92 cm**-1
  43:      1508.94 cm**-1
  44:      1624.35 cm**-1
  45:      3031.61 cm**-1
  46:      3104.83 cm**-1
  47:      3147.55 cm**-1
  48:      3156.31 cm**-1
  49:      3161.12 cm**-1
  50:      3176.56 cm**-1
  51:      3191.49 cm**-1
  52:      3240.46 cm**-1
  53:      3252.87 cm**-1
  54:      3276.01 cm**-1
  55:      3519.14 cm**-1
  56:      3626.85 cm**-1

IR SPECTRUM
-----------

 Mode    freq (cm**-1)   T**2         TX         TY         TZ
-------------------------------------------------------------------
   6:        75.86    2.098542  ( -1.198665   0.810763  -0.066395)
   7:       212.45    4.108695  ( -1.320844  -0.757646   1.337923)
   8:       220.92    0.540955  (  0.186996   0.610363  -0.365301)
   9:       248.84    0.365227  ( -0.422069   0.086262   0.423844)
  10:       328.26    4.075888  (  0.547932   0.605376  -1.846396)
  11:       346.72    0.854682  ( -0.230267   0.193981   0.874088)
  12:       427.78    0.112758  (  0.229044  -0.196427  -0.147354)
  13:       494.88    0.593425  ( -0.205638  -0.732437  -0.121135)
  14:       676.24    5.248802  (  0.158564   0.578596  -2.211083)
  15:       752.51   28.619252  (  0.182973   1.437132   5.149798)
  16:       788.38    0.843802  (  0.479736   0.086467   0.778575)
  17:       846.45    0.910708  (  0.618718   0.703192   0.182803)
  18:       869.76   28.811965  (  1.018203  -0.173828   5.267353)
  19:       887.67    5.451641  (  1.885850   0.769463   1.141550)
  20:       897.91    4.293104  ( -1.646556   1.103466  -0.603589)
  21:       951.19    6.695589  ( -0.275530  -2.547013  -0.363865)
  22:       969.35    8.943834  (  1.812492  -1.374833   1.941273)
  23:       974.78   31.072771  (  2.506342  -1.461172   4.759832)
  24:      1007.41   63.454317  (  2.840815  -5.976738   4.434264)
  25:      1043.08   18.775190  (  1.194539  -2.526504   3.311351)
  26:      1064.72    4.251975  (  1.557907   0.617612  -1.201439)
  27:      1096.38    1.741740  ( -0.083836  -0.962521  -0.899035)
  28:      1115.40    9.581287  ( -0.484199  -1.571554   2.622414)
  29:      1124.86    2.152319  (  0.013316  -1.250547  -0.766990)
  30:      1160.09    0.823886  ( -0.759333  -0.045120  -0.495242)
  31:      1182.44    1.160033  ( -0.640001   0.243419  -0.831372)
  32:      1191.44    0.088986  (  0.154518   0.162562   0.196681)
  33:      1250.42    5.644595  (  1.074297   0.866761  -1.933703)
  34:      1272.45    2.503036  ( -1.059413  -0.947908  -0.694370)
  35:      1303.71    0.765201  ( -0.770667  -0.051286   0.410661)
  36:      1364.70    1.375139  ( -1.159585  -0.030184   0.172022)
  37:      1421.37    4.366556  ( -2.081195  -0.070208   0.173935)
  38:      1440.35    5.718695  (  0.737263  -0.176376  -2.268045)
  39:      1466.41   12.411603  (  0.673366   2.963725   1.781717)
  40:      1485.23    1.959587  ( -1.375849   0.094413  -0.240233)
  41:      1492.56   31.669729  ( -0.462440  -2.821606   4.847104)
  42:      1498.92   14.410098  ( -0.758621   3.696623  -0.411787)
  43:      1508.94    1.307192  ( -1.010985  -0.061082   0.530444)
  44:      1624.35   81.966797  (  2.113937   4.532739   7.546678)
  45:      3031.61   24.430373  ( -3.249257   0.168914  -3.720775)
  46:      3104.83   10.950620  ( -0.006354  -2.699870  -1.913448)
  47:      3147.55    2.766854  (  0.505201  -1.187441   1.049576)
  48:      3156.31    2.608965  ( -0.427773   1.354212   0.769472)
  49:      3161.12    1.114094  (  0.952618   0.453285   0.033858)
  50:      3176.56    1.714628  ( -0.194798   1.226218  -0.416017)
  51:      3191.49    0.546141  (  0.415524  -0.100126   0.602873)
  52:      3240.46    0.279018  (  0.176452  -0.393072  -0.305577)
  53:      3252.87    0.480085  ( -0.685442   0.095431  -0.033876)
  54:      3276.01    5.114517  ( -2.003380  -0.383357   0.976740)
  55:      3519.14   92.768662  ( -1.992270  -5.558022  -7.609725)
  56:      3626.85  127.067808  ( -9.284883  -1.166249   6.284792)

--------------------------
THERMOCHEMISTRY AT 298.15K
--------------------------

Temperature         ... 298.15 K
Pressure            ... 1.00 atm
Total Mass          ... 98.17 AMU

Throughout the following assumptions are being made:
  (1) The electronic state is orbitally nondegenerate
  (2) There are no thermally accessible electronically excited states
  (3) Hindered rotations indicated by low frequency modes) are not
      treated as such but are treated as vibrations and this may
      case some error
  (4) All equations used are the standard statistical mechanics
      equations for an ideal gas
  (5) All vibrations are strinctly harmonic

------------
INNER ENERGY
------------

The inner energy is: U= E(el) + E(ZPE) + E(vib) + E(rot) + E(trans)
    E(el)   - is the total energy from the electronic structure calculation
              = E(kin-el) + E(nuc-el) + E(el-el) + E(nuc-nuc)
    E(ZPE)  - the the zero temperature vibrational energy from the frequency calculation
    E(vib)  - the the finite temperature correction to E(ZPE) due to population
              of excietd vibrational states
    E(rot)  - is the rotational thermal energy
    E(trans)- is the translational thermal energy

Summary of contributions to the inner energy U:
Electronic energy                ...   -290.07009003 Eh
Zero point energy                ...      0.17535054 Eh     110.03 kcal/mol
Thermal vibrational correction   ...      0.00457364 Eh       2.87 kcal/mol
Thermal rotational correction    ...      0.00141627 Eh       0.89 kcal/mol
Thermal translational correction ...      0.00141627 Eh       0.89 kcal/mol
-----------------------------------------------------------------------
Total thermal energy                   -289.88733331 Eh

Summary of corrections to the electronic energy:
(perhaps to be used in another calculation)
Total thermal correction                  0.00740618 Eh       4.65 kcal/mol
Non-thermal (ZPE) correction              0.17535054 Eh     110.03 kcal/mol
-----------------------------------------------------------------------
Total correction                          0.18275672 Eh     114.68 kcal/mol

--------
ENTHALPY
--------

The enthalpy is H = U + kB*T
                kB is Boltzmann's constant
Total free energy                 ...   -289.88733331 Eh
Thermal Enthalpy correction       ...      0.00094421 Eh       0.59 kcal/mol
-----------------------------------------------------------------------
Total Enthalpy                    ...   -289.88638910 Eh

-------
ENTROPY
-------

The entropy contributions are T*S = T*(S(el)+S(vib)+S(rot)+S(trans)
     S(el)   - electronic entropy
     S(vib)  - vibrational entropy
     S(rot)  - rotational entropy
     S(trans)- translational entropy
The entropies will be listed as mutliplied by the temperature to get
units of energy

Electronic entropy                ...      0.00000000 Eh      0.00 kcal/mol
Vibrational entropy               ...      0.00769974 Eh      4.83 kcal/mol
Rotational entropy                ...      0.01196338 Eh      7.51 kcal/mol
Translational entropy             ...      0.01884507 Eh     11.83 kcal/mol
-----------------------------------------------------------------------
Final entropy term                ...      0.03850819 Eh     24.16 kcal/mol

CAUTION: The rotational entropy is not quite correctly treated here
         because it includes a symmetry number that is not yet correctly
         implemented in ORCA!
For a nonlinear molecule the correct rotational entropy is:
    S(rot) = R*(ln(qrot/sn)+1.5)
    R    = 8.31441 J/mol/K = 1.987191683e-3 kcal/mol/K
    qrot = 213043.4144092
    sn is the rotational symmetry number. We have assumed 3 here
       if it is different for your molecule then you should correct
       the printed rotational entropy by manually evaluating the equation
       as given above

For convenience we print out the resulting values for sn=1 - 12:
 sn= 1  qrot/sn=  213043.4144 T*S(rot)=     8.16 kcal/mol T*S(tot)=    24.82 kcal/mol
 sn= 2  qrot/sn=  106521.7072 T*S(rot)=     7.75 kcal/mol T*S(tot)=    24.40 kcal/mol
 sn= 3  qrot/sn=   71014.4715 T*S(rot)=     7.51 kcal/mol T*S(tot)=    24.16 kcal/mol
 sn= 4  qrot/sn=   53260.8536 T*S(rot)=     7.34 kcal/mol T*S(tot)=    23.99 kcal/mol
 sn= 5  qrot/sn=   42608.6829 T*S(rot)=     7.20 kcal/mol T*S(tot)=    23.86 kcal/mol
 sn= 6  qrot/sn=   35507.2357 T*S(rot)=     7.10 kcal/mol T*S(tot)=    23.75 kcal/mol
 sn= 7  qrot/sn=   30434.7735 T*S(rot)=     7.01 kcal/mol T*S(tot)=    23.66 kcal/mol
 sn= 8  qrot/sn=   26630.4268 T*S(rot)=     6.93 kcal/mol T*S(tot)=    23.58 kcal/mol
 sn= 9  qrot/sn=   23671.4905 T*S(rot)=     6.86 kcal/mol T*S(tot)=    23.51 kcal/mol
 sn=10  qrot/sn=   21304.3414 T*S(rot)=     6.79 kcal/mol T*S(tot)=    23.45 kcal/mol
 sn=11  qrot/sn=   19367.5831 T*S(rot)=     6.74 kcal/mol T*S(tot)=    23.39 kcal/mol
 sn=12  qrot/sn=   17753.6179 T*S(rot)=     6.69 kcal/mol T*S(tot)=    23.34 kcal/mol

-------------------
GIBBS FREE ENTHALPY
-------------------

The Gibbs free enthalpy is G = H - T*S

Total enthalpy                    ...   -289.88638910 Eh
Total entropy correction          ...     -0.03850819 Eh    -24.16 kcal/mol
-----------------------------------------------------------------------
Final Gibbs free enthalpy         ...   -289.92489728 Eh

For completeness - the Gibbs free enthalpy minus the electronic energy
G-E(el)                           ...      0.14519275 Eh     91.11 kcal/mol

                             ****ORCA TERMINATED NORMALLY****
TOTAL RUN TIME: 0 days 0 hours 48 minutes 25 seconds 558 msec
