                         Program Version 3.0.3 - RELEASE   -
|  1> ! NORI PBE0 def2-TZVP UseSym TightOPT Freq TightSCF Grid3 FinalGrid5 XYZFile
|  2> % pal
|  3>     nprocs 8
|  4> end
|  5> %method
|  6>     SymThresh 5.0e-2
|  7> end
|  8> % geom
|  9>     MaxIter 10
| 10> end
| 11> % maxcore 2000
| 12> % output
| 13>     printlevel mini
| 14>     print[ P_Basis ] 0
| 15>     print[ P_SCFInfo ] 1
| 16>     print[ P_SCFIterInfo ] 1
| 17>     print[ P_OrbEn ] 0
| 18>     print[ P_Cartesian ] 0
| 19> end
| 20> % elprop
| 21>     Dipole false
| 22> end
| 23> *xyz 1 1
| 24>  C        0.7712740538     0.1718276371    -0.6957863409
| 25>  C        2.1956944674    -0.0332632728    -0.2650705307
| 26>  C        3.0213583755    -1.1266181659    -0.8661350614
| 27>  C        3.3321251546     0.3040371438    -1.1906096182
| 28>  C        4.5942089005     0.9275056896    -0.6579086182
| 29>  C        4.4214605554     2.4226126543    -0.5020608192
| 30>  N        5.6925299732     3.0594295210     0.0090783579
| 31>  H        0.4389359655     1.1981023538    -0.5188705651
| 32>  H        0.1010465506    -0.4942153422    -0.1491040420
| 33>  H        0.6505668338    -0.0403343232    -1.7609306138
| 34>  H        2.3851044936     0.1558440756     0.7894261734
| 35>  H        3.7135998099    -1.6654978324    -0.2294613151
| 36>  H        2.5717169048    -1.7284137018    -1.6460014175
| 37>  H        3.0538766207     0.6364043036    -2.1869067834
| 38>  H        5.4338953015     0.7158937870    -1.3326411325
| 39>  H        4.8372187684     0.4791395290     0.3128212688
| 40>  H        3.6387437234     2.6692762610     0.2160108424
| 41>  H        4.1940788130     2.9115322824    -1.4503981795
| 42>  H        5.9551757063     2.6666771833     0.9154752351
| 43>  H        5.5977206307     4.0708223819     0.1203527649
| 44>  H        6.4680283975     2.8844878350    -0.6337996049
| 45> *
| 46>
| 47>                          ****END OF INPUT****
 Total Charge           Charge          ....    1
 Multiplicity           Mult            ....    1
 Number of Electrons    NEL             ....   56
FINAL SINGLE POINT ENERGY      -291.305706072451
FINAL SINGLE POINT ENERGY      -291.305707574633
FINAL SINGLE POINT ENERGY      -291.305708666900

CARTESIAN COORDINATES (ANGSTROEM)
---------------------------------
  C      1.430241    0.003360   -2.421079
  C      0.375965    0.524997   -1.486767
  C     -1.074286    0.296933   -1.772901
  C     -0.421314   -0.418601   -0.628352
  C     -0.784304   -0.047897    0.784089
  C      0.363699   -0.350893    1.722176
  N      0.001680    0.000284    3.145692
  H      2.388998   -0.133866   -1.914482
  H      1.588821    0.693821   -3.252263
  H      1.134413   -0.959413   -2.844695
  H      0.605663    1.485514   -1.030182
  H     -1.779231    1.087159   -1.543234
  H     -1.331307   -0.289958   -2.645915
  H     -0.229216   -1.477610   -0.778710
  H     -1.680648   -0.597041    1.100915
  H     -1.026625    1.020584    0.827075
  H      1.255002    0.226840    1.475517
  H      0.622959   -1.410400    1.725149
  H     -0.225874    0.993569    3.227444
  H      0.762777   -0.201950    3.796872
  H     -0.820566   -0.525551    3.450124

FINAL SINGLE POINT ENERGY      -291.305708913155
                    ***********************HURRAY********************
 Multiplicity           Mult            ....    1
 Number of Electrons    NEL             ....   56
 Basis Dimension        Dim             ....  301
FINAL SINGLE POINT ENERGY      -291.305709045108

VIBRATIONAL FREQUENCIES
-----------------------

   0:         0.00 cm**-1
   1:         0.00 cm**-1
   2:         0.00 cm**-1
   3:         0.00 cm**-1
   4:         0.00 cm**-1
   5:         0.00 cm**-1
   6:        82.26 cm**-1
   7:        90.28 cm**-1
   8:       126.05 cm**-1
   9:       210.97 cm**-1
  10:       223.84 cm**-1
  11:       272.08 cm**-1
  12:       284.26 cm**-1
  13:       350.14 cm**-1
  14:       436.18 cm**-1
  15:       467.30 cm**-1
  16:       764.54 cm**-1
  17:       811.43 cm**-1
  18:       825.64 cm**-1
  19:       873.79 cm**-1
  20:       884.48 cm**-1
  21:       906.55 cm**-1
  22:       928.23 cm**-1
  23:       976.40 cm**-1
  24:      1013.98 cm**-1
  25:      1042.45 cm**-1
  26:      1062.97 cm**-1
  27:      1106.36 cm**-1
  28:      1113.41 cm**-1
  29:      1135.55 cm**-1
  30:      1149.98 cm**-1
  31:      1203.41 cm**-1
  32:      1208.55 cm**-1
  33:      1244.69 cm**-1
  34:      1295.16 cm**-1
  35:      1323.89 cm**-1
  36:      1347.02 cm**-1
  37:      1361.00 cm**-1
  38:      1405.60 cm**-1
  39:      1416.09 cm**-1
  40:      1445.87 cm**-1
  41:      1476.22 cm**-1
  42:      1481.70 cm**-1
  43:      1490.18 cm**-1
  44:      1498.76 cm**-1
  45:      1504.72 cm**-1
  46:      1513.13 cm**-1
  47:      1657.47 cm**-1
  48:      1664.17 cm**-1
  49:      3022.02 cm**-1
  50:      3050.25 cm**-1
  51:      3068.33 cm**-1
  52:      3101.41 cm**-1
  53:      3117.99 cm**-1
  54:      3126.63 cm**-1
  55:      3139.00 cm**-1
  56:      3152.54 cm**-1
  57:      3153.17 cm**-1
  58:      3162.29 cm**-1
  59:      3239.91 cm**-1
  60:      3422.38 cm**-1
  61:      3503.70 cm**-1
  62:      3509.97 cm**-1

IR SPECTRUM
-----------

 Mode    freq (cm**-1)   T**2         TX         TY         TZ
-------------------------------------------------------------------
   6:        82.26    7.883898  (  1.755085   1.514447  -1.584305)
   7:        90.28    2.224881  (  0.098087  -1.479993  -0.157736)
   8:       126.05    4.175343  (  1.696391  -1.138582   0.035090)
   9:       210.97    0.018714  (  0.107295   0.055095   0.064543)
  10:       223.84    0.211841  (  0.178888  -0.052387   0.420827)
  11:       272.08    0.657264  (  0.690352  -0.159639   0.393946)
  12:       284.26    4.183455  (  0.778294   0.117008   1.887862)
  13:       350.14    5.257902  ( -0.640837  -0.270387  -2.184976)
  14:       436.18    0.641096  (  0.312496  -0.704001   0.218690)
  15:       467.30    6.609403  (  1.147492   0.091270   2.298768)
  16:       764.54    8.572606  (  0.564471   2.419583  -1.549063)
  17:       811.43    5.175604  ( -1.013698  -1.963674  -0.540373)
  18:       825.64    6.781752  ( -0.203502  -1.717602   1.946839)
  19:       873.79    2.265037  (  0.987506   0.533567   1.002584)
  20:       884.48    3.100164  (  0.636894   1.206735  -1.112799)
  21:       906.55   29.696812  ( -2.949196  -0.092665  -4.581535)
  22:       928.23    2.889445  (  0.414982  -1.564639   0.518788)
  23:       976.40    9.165253  (  2.770637   0.460151  -1.130082)
  24:      1013.98    4.065029  ( -0.147126   1.914998   0.613322)
  25:      1042.45   14.067926  (  0.544062   2.286051  -2.923336)
  26:      1062.97    6.528821  ( -1.654042  -1.940637   0.163991)
  27:      1106.36    8.142401  ( -1.283585   0.963684  -2.359264)
  28:      1113.41    0.389826  (  0.026352  -0.214582  -0.585736)
  29:      1135.55    0.902060  ( -0.311875  -0.268853   0.855869)
  30:      1149.98   10.997384  (  2.812022  -0.578962   1.659735)
  31:      1203.41    1.153577  ( -0.663438  -0.449672  -0.714997)
  32:      1208.55    1.163953  ( -0.137118   1.051577  -0.198336)
  33:      1244.69    2.058374  ( -0.654241   0.517851  -1.167121)
  34:      1295.16    3.632376  ( -0.215152   1.549430  -1.088739)
  35:      1323.89    1.821206  ( -0.002567  -0.641135   1.187495)
  36:      1347.02    4.105084  (  0.940679   1.656020  -0.691234)
  37:      1361.00    1.860585  ( -0.914753   0.581301   0.828192)
  38:      1405.60    6.994454  (  0.197526   0.305902   2.619515)
  39:      1416.09    7.093641  (  0.901132  -2.048984  -1.443352)
  40:      1445.87    1.027361  ( -0.693808   0.715231  -0.185568)
  41:      1476.22    0.594209  ( -0.586429  -0.448517  -0.221680)
  42:      1481.70    4.520948  ( -0.462054   1.316092  -1.604792)
  43:      1490.18   16.565483  (  2.703206   2.234051   2.065715)
  44:      1498.76   17.127247  ( -2.278952   0.637722  -3.395134)
  45:      1504.72  137.890290  ( -3.063185   2.361311  11.087443)
  46:      1513.13   17.109300  ( -2.206435   2.037979   2.843869)
  47:      1657.47   52.698465  (  2.394369   6.760865  -1.120787)
  48:      1664.17   36.356247  ( -5.363141   1.569112  -2.265140)
  49:      3022.02   25.365162  (  3.108311  -0.436981  -3.938606)
  50:      3050.25   16.773542  (  3.410672  -1.288331  -1.865760)
  51:      3068.33    8.551611  (  1.124912   2.561067  -0.852713)
  52:      3101.41    1.865672  ( -1.241796   0.498569  -0.273938)
  53:      3117.99    7.361831  ( -2.639499   0.099490  -0.620466)
  54:      3126.63   11.662943  ( -0.987482   0.883701  -3.147522)
  55:      3139.00   17.277052  (  1.951769   3.321244   1.561086)
  56:      3152.54    9.297035  ( -1.356673   2.728449  -0.109734)
  57:      3153.17    3.769658  (  1.045245   1.592536   0.375433)
  58:      3162.29    1.652221  ( -0.399903  -1.216109   0.115664)
  59:      3239.91    2.383847  ( -0.612772   1.148035   0.830887)
  60:      3422.38   48.135471  ( -1.046687   0.982688   6.787801)
  61:      3503.70   89.280917  (  4.180516   8.422454  -0.930846)
  62:      3509.97   96.345069  (  8.416397  -3.657664   3.482934)

--------------------------
THERMOCHEMISTRY AT 298.15K
--------------------------

Temperature         ... 298.15 K
Pressure            ... 1.00 atm
Total Mass          ... 100.18 AMU

Throughout the following assumptions are being made:
  (1) The electronic state is orbitally nondegenerate
  (2) There are no thermally accessible electronically excited states
  (3) Hindered rotations indicated by low frequency modes) are not
      treated as such but are treated as vibrations and this may
      case some error
  (4) All equations used are the standard statistical mechanics
      equations for an ideal gas
  (5) All vibrations are strinctly harmonic

------------
INNER ENERGY
------------

The inner energy is: U= E(el) + E(ZPE) + E(vib) + E(rot) + E(trans)
    E(el)   - is the total energy from the electronic structure calculation
              = E(kin-el) + E(nuc-el) + E(el-el) + E(nuc-nuc)
    E(ZPE)  - the the zero temperature vibrational energy from the frequency calculation
    E(vib)  - the the finite temperature correction to E(ZPE) due to population
              of excietd vibrational states
    E(rot)  - is the rotational thermal energy
    E(trans)- is the translational thermal energy

Summary of contributions to the inner energy U:
Electronic energy                ...   -291.30570905 Eh
Zero point energy                ...      0.19921741 Eh     125.01 kcal/mol
Thermal vibrational correction   ...      0.00588082 Eh       3.69 kcal/mol
Thermal rotational correction    ...      0.00141627 Eh       0.89 kcal/mol
Thermal translational correction ...      0.00141627 Eh       0.89 kcal/mol
-----------------------------------------------------------------------
Total thermal energy                   -291.09777827 Eh

Summary of corrections to the electronic energy:
(perhaps to be used in another calculation)
Total thermal correction                  0.00871337 Eh       5.47 kcal/mol
Non-thermal (ZPE) correction              0.19921741 Eh     125.01 kcal/mol
-----------------------------------------------------------------------
Total correction                          0.20793078 Eh     130.48 kcal/mol

--------
ENTHALPY
--------

The enthalpy is H = U + kB*T
                kB is Boltzmann's constant
Total free energy                 ...   -291.09777827 Eh
Thermal Enthalpy correction       ...      0.00094421 Eh       0.59 kcal/mol
-----------------------------------------------------------------------
Total Enthalpy                    ...   -291.09683406 Eh

-------
ENTROPY
-------

The entropy contributions are T*S = T*(S(el)+S(vib)+S(rot)+S(trans)
     S(el)   - electronic entropy
     S(vib)  - vibrational entropy
     S(rot)  - rotational entropy
     S(trans)- translational entropy
The entropies will be listed as mutliplied by the temperature to get
units of energy

Electronic entropy                ...      0.00000000 Eh      0.00 kcal/mol
Vibrational entropy               ...      0.01064271 Eh      6.68 kcal/mol
Rotational entropy                ...      0.01235538 Eh      7.75 kcal/mol
Translational entropy             ...      0.01887386 Eh     11.84 kcal/mol
-----------------------------------------------------------------------
Final entropy term                ...      0.04187195 Eh     26.27 kcal/mol

CAUTION: The rotational entropy is not quite correctly treated here
         because it includes a symmetry number that is not yet correctly
         implemented in ORCA!
For a nonlinear molecule the correct rotational entropy is:
    S(rot) = R*(ln(qrot/sn)+1.5)
    R    = 8.31441 J/mol/K = 1.987191683e-3 kcal/mol/K
    qrot = 322683.8778823
    sn is the rotational symmetry number. We have assumed 3 here
       if it is different for your molecule then you should correct
       the printed rotational entropy by manually evaluating the equation
       as given above

For convenience we print out the resulting values for sn=1 - 12:
 sn= 1  qrot/sn=  322683.8779 T*S(rot)=     8.40 kcal/mol T*S(tot)=    26.93 kcal/mol
 sn= 2  qrot/sn=  161341.9389 T*S(rot)=     7.99 kcal/mol T*S(tot)=    26.52 kcal/mol
 sn= 3  qrot/sn=  107561.2926 T*S(rot)=     7.75 kcal/mol T*S(tot)=    26.27 kcal/mol
 sn= 4  qrot/sn=   80670.9695 T*S(rot)=     7.58 kcal/mol T*S(tot)=    26.10 kcal/mol
 sn= 5  qrot/sn=   64536.7756 T*S(rot)=     7.45 kcal/mol T*S(tot)=    25.97 kcal/mol
 sn= 6  qrot/sn=   53780.6463 T*S(rot)=     7.34 kcal/mol T*S(tot)=    25.86 kcal/mol
 sn= 7  qrot/sn=   46097.6968 T*S(rot)=     7.25 kcal/mol T*S(tot)=    25.77 kcal/mol
 sn= 8  qrot/sn=   40335.4847 T*S(rot)=     7.17 kcal/mol T*S(tot)=    25.69 kcal/mol
 sn= 9  qrot/sn=   35853.7642 T*S(rot)=     7.10 kcal/mol T*S(tot)=    25.62 kcal/mol
 sn=10  qrot/sn=   32268.3878 T*S(rot)=     7.04 kcal/mol T*S(tot)=    25.56 kcal/mol
 sn=11  qrot/sn=   29334.8980 T*S(rot)=     6.98 kcal/mol T*S(tot)=    25.51 kcal/mol
 sn=12  qrot/sn=   26890.3232 T*S(rot)=     6.93 kcal/mol T*S(tot)=    25.45 kcal/mol

-------------------
GIBBS FREE ENTHALPY
-------------------

The Gibbs free enthalpy is G = H - T*S

Total enthalpy                    ...   -291.09683406 Eh
Total entropy correction          ...     -0.04187195 Eh    -26.27 kcal/mol
-----------------------------------------------------------------------
Final Gibbs free enthalpy         ...   -291.13870601 Eh

For completeness - the Gibbs free enthalpy minus the electronic energy
G-E(el)                           ...      0.16700303 Eh    104.80 kcal/mol

                             ****ORCA TERMINATED NORMALLY****
TOTAL RUN TIME: 0 days 1 hours 11 minutes 33 seconds 427 msec
