                         Program Version 3.0.3 - RELEASE   -
|  1> ! NORI PBE0 def2-TZVP UseSym TightOPT Freq TightSCF Grid3 FinalGrid5 XYZFile
|  2> % pal
|  3>     nprocs 8
|  4> end
|  5> %method
|  6>     SymThresh 5.0e-2
|  7> end
|  8> % geom
|  9>     MaxIter 10
| 10> end
| 11> % maxcore 2000
| 12> % output
| 13>     printlevel mini
| 14>     print[ P_Basis ] 0
| 15>     print[ P_SCFInfo ] 1
| 16>     print[ P_SCFIterInfo ] 1
| 17>     print[ P_OrbEn ] 0
| 18>     print[ P_Cartesian ] 0
| 19> end
| 20> % elprop
| 21>     Dipole false
| 22> end
| 23> *xyz 1 1
| 24>  C        0.8418386133    -0.6301293542    -0.7298762023
| 25>  C        1.5790559682     0.6391713710    -0.4124606827
| 26>  C        3.0486659478     0.6513288005    -0.1336205140
| 27>  C        2.5184065509     1.3030174577    -1.3922201200
| 28>  C        2.7998783282     0.6824605239    -2.7374494307
| 29>  C        2.4772644638     2.7975441423    -1.3879202651
| 30>  N        3.8671028076     3.3535511559    -1.6329008472
| 31>  H       -0.0370851460    -0.4373416088    -1.3486775180
| 32>  H        0.4994169665    -1.0959341329     0.1959599748
| 33>  H        1.4689432294    -1.3591567446    -1.2444267427
| 34>  H        1.0000878666     1.3364432685     0.1873878660
| 35>  H        3.4128562273     1.2690132169     0.6821005969
| 36>  H        3.5908432479    -0.2784198881    -0.2599059178
| 37>  H        2.0471286375     0.9709268261    -3.4765455489
| 38>  H        2.8019936225    -0.4045660402    -2.6772120584
| 39>  H        3.7857868246     0.9579877622    -3.1308852122
| 40>  H        1.8430693516     3.2099852815    -2.1754641172
| 41>  H        2.1589903072     3.1995609916    -0.4257321351
| 42>  H        4.2087376977     3.0676655366    -2.5520644297
| 43>  H        4.5125970504     2.9745004008    -0.9359232196
| 44>  H        3.8951714372     4.3733610335    -1.5854834762
| 45> *
| 46>
| 47>                          ****END OF INPUT****
 Total Charge           Charge          ....    1
 Multiplicity           Mult            ....    1
 Number of Electrons    NEL             ....   56
FINAL SINGLE POINT ENERGY      -291.310072220543
FINAL SINGLE POINT ENERGY      -291.310075643833

CARTESIAN COORDINATES (ANGSTROEM)
---------------------------------
  C      0.295203    0.000041   -2.567081
  C      0.560882    0.491643   -1.173153
  C     -0.465214    1.253336   -0.395708
  C     -0.069824   -0.139129    0.046524
  C     -1.044818   -1.281516   -0.090651
  C      0.816372   -0.215432    1.248240
  N     -0.003826   -0.000379    2.505865
  H      0.887893   -0.888037   -2.796495
  H      0.566167    0.774755   -3.286920
  H     -0.756185   -0.238763   -2.731229
  H      1.583499    0.826565   -1.020561
  H     -0.139508    2.115210    0.179010
  H     -1.449224    1.361952   -0.836273
  H     -0.526806   -2.242787   -0.149133
  H     -1.649089   -1.179528   -0.990243
  H     -1.759128   -1.330677    0.740578
  H      1.297609   -1.189000    1.363222
  H      1.579627    0.563012    1.250706
  H     -0.706294   -0.735805    2.602823
  H     -0.502073    0.890321    2.438360
  H      0.568686    0.007170    3.351361

FINAL SINGLE POINT ENERGY      -291.310077019785
                    ***********************HURRAY********************
 Multiplicity           Mult            ....    1
 Number of Electrons    NEL             ....   56
 Basis Dimension        Dim             ....  301
FINAL SINGLE POINT ENERGY      -291.310077271627

VIBRATIONAL FREQUENCIES
-----------------------

   0:         0.00 cm**-1
   1:         0.00 cm**-1
   2:         0.00 cm**-1
   3:         0.00 cm**-1
   4:         0.00 cm**-1
   5:         0.00 cm**-1
   6:        90.50 cm**-1
   7:       155.05 cm**-1
   8:       167.85 cm**-1
   9:       184.73 cm**-1
  10:       197.08 cm**-1
  11:       277.57 cm**-1
  12:       288.22 cm**-1
  13:       363.72 cm**-1
  14:       369.94 cm**-1
  15:       438.75 cm**-1
  16:       520.93 cm**-1
  17:       695.10 cm**-1
  18:       798.64 cm**-1
  19:       842.93 cm**-1
  20:       878.24 cm**-1
  21:       894.72 cm**-1
  22:       910.43 cm**-1
  23:       941.49 cm**-1
  24:       981.15 cm**-1
  25:      1019.12 cm**-1
  26:      1055.32 cm**-1
  27:      1062.48 cm**-1
  28:      1079.62 cm**-1
  29:      1120.45 cm**-1
  30:      1139.48 cm**-1
  31:      1169.90 cm**-1
  32:      1206.15 cm**-1
  33:      1281.84 cm**-1
  34:      1316.77 cm**-1
  35:      1375.66 cm**-1
  36:      1400.17 cm**-1
  37:      1411.48 cm**-1
  38:      1425.06 cm**-1
  39:      1433.02 cm**-1
  40:      1474.39 cm**-1
  41:      1476.43 cm**-1
  42:      1482.49 cm**-1
  43:      1485.94 cm**-1
  44:      1492.49 cm**-1
  45:      1499.77 cm**-1
  46:      1512.78 cm**-1
  47:      1646.82 cm**-1
  48:      1663.52 cm**-1
  49:      3028.32 cm**-1
  50:      3063.68 cm**-1
  51:      3090.70 cm**-1
  52:      3097.73 cm**-1
  53:      3132.32 cm**-1
  54:      3135.61 cm**-1
  55:      3137.88 cm**-1
  56:      3153.11 cm**-1
  57:      3156.81 cm**-1
  58:      3164.32 cm**-1
  59:      3225.47 cm**-1
  60:      3421.35 cm**-1
  61:      3502.42 cm**-1
  62:      3518.20 cm**-1

IR SPECTRUM
-----------

 Mode    freq (cm**-1)   T**2         TX         TY         TZ
-------------------------------------------------------------------
   6:        90.50    7.997220  ( -0.124379   2.695175  -0.847220)
   7:       155.05    5.221586  (  1.826231   0.072926   1.371549)
   8:       167.85    0.506001  ( -0.334358  -0.613900   0.131651)
   9:       184.73    2.914704  (  1.428004   0.524591   0.774799)
  10:       197.08    0.824031  (  0.663452   0.164658   0.597286)
  11:       277.57    0.145324  ( -0.319369   0.123051   0.167887)
  12:       288.22   12.256258  ( -0.911020  -0.606645  -3.325400)
  13:       363.72    7.190781  (  0.139169   0.746417   2.571823)
  14:       369.94    0.887838  ( -0.089147   0.560549   0.752114)
  15:       438.75    0.058520  ( -0.161978   0.176173  -0.035301)
  16:       520.93    3.943315  ( -0.656925   0.120656   1.870082)
  17:       695.10    5.286936  (  0.372811  -0.873592   2.093988)
  18:       798.64    5.118727  (  1.562178   1.503243   0.646985)
  19:       842.93    7.763929  ( -0.582419  -2.684601   0.466512)
  20:       878.24   14.231482  (  0.181663  -1.008626  -3.630586)
  21:       894.72    2.537668  ( -1.524915   0.061630  -0.456622)
  22:       910.43   18.102549  ( -0.153638   2.171507  -3.655613)
  23:       941.49    6.092740  ( -0.391882   2.137055  -1.171394)
  24:       981.15    6.699138  ( -0.631953  -1.081367   2.265043)
  25:      1019.12    2.664095  ( -0.390971  -1.549287   0.333085)
  26:      1055.32   22.298184  ( -1.817757   1.235790  -4.179326)
  27:      1062.48    4.668929  ( -1.363942  -0.588016   1.569340)
  28:      1079.62   11.706143  (  3.128183   0.164987   1.376007)
  29:      1120.45   10.453375  (  1.134959  -0.363846   3.005472)
  30:      1139.48    2.001316  (  0.229609   1.388010   0.148407)
  31:      1169.90    2.669339  (  1.039080  -0.939234   0.841125)
  32:      1206.15    1.287973  ( -0.276629   0.216894   1.079076)
  33:      1281.84    0.544156  (  0.464474   0.178183  -0.544675)
  34:      1316.77    7.055342  (  0.671190   2.434733  -0.822753)
  35:      1375.66    1.511010  (  0.588660  -0.765287   0.760805)
  36:      1400.17    9.628234  ( -0.241658  -0.637770   3.027059)
  37:      1411.48    3.891089  ( -0.843182  -1.027677   1.457400)
  38:      1425.06    3.979917  ( -0.847323  -1.595208  -0.846919)
  39:      1433.02   13.881972  ( -1.067619  -0.383649  -3.548940)
  40:      1474.39   49.657246  ( -0.354754   0.223714   7.034298)
  41:      1476.43    4.443153  ( -1.445204   1.530528  -0.109655)
  42:      1482.49   60.534269  (  5.801695  -0.343060  -5.172709)
  43:      1485.94   51.846062  ( -1.040950   0.338718   7.116724)
  44:      1492.49   13.139928  ( -0.976436   1.426393   3.186205)
  45:      1499.77   57.876237  (  5.114337  -3.034370  -4.744722)
  46:      1512.78   11.293863  ( -3.226276  -0.296889  -0.892670)
  47:      1646.82   46.389911  (  1.549239   6.608489  -0.563597)
  48:      1663.52   32.891602  ( -4.030827   0.867749  -3.986357)
  49:      3028.32   33.882805  (  2.946739   2.337244  -4.442615)
  50:      3063.68    8.012318  ( -0.371634  -1.262308  -2.506150)
  51:      3090.70    4.906280  ( -1.432769   0.686894  -1.543253)
  52:      3097.73   13.343350  ( -1.956308   2.070794   2.286486)
  53:      3132.32    4.553635  (  0.278309  -1.663457  -1.307322)
  54:      3135.61    5.463755  ( -0.716723   2.189529  -0.394998)
  55:      3137.88    3.861728  (  0.929633  -0.233918  -1.715457)
  56:      3153.11    5.409932  ( -2.323912  -0.025615  -0.093327)
  57:      3156.81    7.514989  (  2.244655   1.561351  -0.196709)
  58:      3164.32    4.416710  ( -1.817716   0.548832  -0.900778)
  59:      3225.47    2.708951  (  0.599620   0.979568   1.178921)
  60:      3421.35   28.076320  (  2.736244  -1.222769  -4.369682)
  61:      3502.42   81.838560  (  0.045288   8.629183  -2.715458)
  62:      3518.20  102.696739  ( -7.664045  -1.602544  -6.433584)

--------------------------
THERMOCHEMISTRY AT 298.15K
--------------------------

Temperature         ... 298.15 K
Pressure            ... 1.00 atm
Total Mass          ... 100.18 AMU

Throughout the following assumptions are being made:
  (1) The electronic state is orbitally nondegenerate
  (2) There are no thermally accessible electronically excited states
  (3) Hindered rotations indicated by low frequency modes) are not
      treated as such but are treated as vibrations and this may
      case some error
  (4) All equations used are the standard statistical mechanics
      equations for an ideal gas
  (5) All vibrations are strinctly harmonic

------------
INNER ENERGY
------------

The inner energy is: U= E(el) + E(ZPE) + E(vib) + E(rot) + E(trans)
    E(el)   - is the total energy from the electronic structure calculation
              = E(kin-el) + E(nuc-el) + E(el-el) + E(nuc-nuc)
    E(ZPE)  - the the zero temperature vibrational energy from the frequency calculation
    E(vib)  - the the finite temperature correction to E(ZPE) due to population
              of excietd vibrational states
    E(rot)  - is the rotational thermal energy
    E(trans)- is the translational thermal energy

Summary of contributions to the inner energy U:
Electronic energy                ...   -291.31007727 Eh
Zero point energy                ...      0.19832837 Eh     124.45 kcal/mol
Thermal vibrational correction   ...      0.00601464 Eh       3.77 kcal/mol
Thermal rotational correction    ...      0.00141627 Eh       0.89 kcal/mol
Thermal translational correction ...      0.00141627 Eh       0.89 kcal/mol
-----------------------------------------------------------------------
Total thermal energy                   -291.10290172 Eh

Summary of corrections to the electronic energy:
(perhaps to be used in another calculation)
Total thermal correction                  0.00884719 Eh       5.55 kcal/mol
Non-thermal (ZPE) correction              0.19832837 Eh     124.45 kcal/mol
-----------------------------------------------------------------------
Total correction                          0.20717555 Eh     130.00 kcal/mol

--------
ENTHALPY
--------

The enthalpy is H = U + kB*T
                kB is Boltzmann's constant
Total free energy                 ...   -291.10290172 Eh
Thermal Enthalpy correction       ...      0.00094421 Eh       0.59 kcal/mol
-----------------------------------------------------------------------
Total Enthalpy                    ...   -291.10195751 Eh

-------
ENTROPY
-------

The entropy contributions are T*S = T*(S(el)+S(vib)+S(rot)+S(trans)
     S(el)   - electronic entropy
     S(vib)  - vibrational entropy
     S(rot)  - rotational entropy
     S(trans)- translational entropy
The entropies will be listed as mutliplied by the temperature to get
units of energy

Electronic entropy                ...      0.00000000 Eh      0.00 kcal/mol
Vibrational entropy               ...      0.01040515 Eh      6.53 kcal/mol
Rotational entropy                ...      0.01211473 Eh      7.60 kcal/mol
Translational entropy             ...      0.01887386 Eh     11.84 kcal/mol
-----------------------------------------------------------------------
Final entropy term                ...      0.04139374 Eh     25.97 kcal/mol

CAUTION: The rotational entropy is not quite correctly treated here
         because it includes a symmetry number that is not yet correctly
         implemented in ORCA!
For a nonlinear molecule the correct rotational entropy is:
    S(rot) = R*(ln(qrot/sn)+1.5)
    R    = 8.31441 J/mol/K = 1.987191683e-3 kcal/mol/K
    qrot = 250083.5020256
    sn is the rotational symmetry number. We have assumed 3 here
       if it is different for your molecule then you should correct
       the printed rotational entropy by manually evaluating the equation
       as given above

For convenience we print out the resulting values for sn=1 - 12:
 sn= 1  qrot/sn=  250083.5020 T*S(rot)=     8.25 kcal/mol T*S(tot)=    26.63 kcal/mol
 sn= 2  qrot/sn=  125041.7510 T*S(rot)=     7.84 kcal/mol T*S(tot)=    26.22 kcal/mol
 sn= 3  qrot/sn=   83361.1673 T*S(rot)=     7.60 kcal/mol T*S(tot)=    25.97 kcal/mol
 sn= 4  qrot/sn=   62520.8755 T*S(rot)=     7.43 kcal/mol T*S(tot)=    25.80 kcal/mol
 sn= 5  qrot/sn=   50016.7004 T*S(rot)=     7.30 kcal/mol T*S(tot)=    25.67 kcal/mol
 sn= 6  qrot/sn=   41680.5837 T*S(rot)=     7.19 kcal/mol T*S(tot)=    25.56 kcal/mol
 sn= 7  qrot/sn=   35726.2146 T*S(rot)=     7.10 kcal/mol T*S(tot)=    25.47 kcal/mol
 sn= 8  qrot/sn=   31260.4378 T*S(rot)=     7.02 kcal/mol T*S(tot)=    25.39 kcal/mol
 sn= 9  qrot/sn=   27787.0558 T*S(rot)=     6.95 kcal/mol T*S(tot)=    25.32 kcal/mol
 sn=10  qrot/sn=   25008.3502 T*S(rot)=     6.89 kcal/mol T*S(tot)=    25.26 kcal/mol
 sn=11  qrot/sn=   22734.8638 T*S(rot)=     6.83 kcal/mol T*S(tot)=    25.21 kcal/mol
 sn=12  qrot/sn=   20840.2918 T*S(rot)=     6.78 kcal/mol T*S(tot)=    25.15 kcal/mol

-------------------
GIBBS FREE ENTHALPY
-------------------

The Gibbs free enthalpy is G = H - T*S

Total enthalpy                    ...   -291.10195751 Eh
Total entropy correction          ...     -0.04139374 Eh    -25.97 kcal/mol
-----------------------------------------------------------------------
Final Gibbs free enthalpy         ...   -291.14335125 Eh

For completeness - the Gibbs free enthalpy minus the electronic energy
G-E(el)                           ...      0.16672602 Eh    104.62 kcal/mol

                             ****ORCA TERMINATED NORMALLY****
TOTAL RUN TIME: 0 days 1 hours 1 minutes 34 seconds 678 msec
