                         Program Version 3.0.3 - RELEASE   -
|  1> ! NORI PBE0 def2-TZVP UseSym TightOPT Freq TightSCF Grid3 FinalGrid5 XYZFile
|  2> % pal
|  3>     nprocs 8
|  4> end
|  5> %method
|  6>     SymThresh 5.0e-2
|  7> end
|  8> % geom
|  9>     MaxIter 10
| 10> end
| 11> % maxcore 2000
| 12> % output
| 13>     printlevel mini
| 14>     print[ P_Basis ] 0
| 15>     print[ P_SCFInfo ] 1
| 16>     print[ P_SCFIterInfo ] 1
| 17>     print[ P_OrbEn ] 0
| 18>     print[ P_Cartesian ] 0
| 19> end
| 20> % elprop
| 21>     Dipole false
| 22> end
| 23> *xyz 1 1
| 24>  C        0.8866675083     0.0328446040    -0.1733431245
| 25>  C        2.3695676706    -0.1059257070    -0.0599980449
| 26>  C        3.1578316434    -0.9334045056    -0.9423842220
| 27>  C        3.2048728624     0.5874903095    -1.2464070271
| 28>  C        4.3251799533     1.2915784044    -0.8724657951
| 29>  N        5.0247025126     2.4113447139    -1.0487422473
| 30>  N        5.4248426246     1.2786844035    -0.1006848246
| 31>  H        0.5486273717     1.0201060803     0.1427451239
| 32>  H        0.4236448583    -0.7058861452     0.4871633373
| 33>  H        0.5362276988    -0.1594697653    -1.1885814811
| 34>  H        2.7959505431     0.1025569901     0.9161303606
| 35>  H        4.0880752452    -1.3627628523    -0.5918880340
| 36>  H        2.6579074351    -1.4776307293    -1.7357645944
| 37>  H        2.6298423033     0.9759909292    -2.0761435762
| 38>  H        5.6600846551     2.4606992457    -1.8464638631
| 39>  H        5.3249151143     1.6006740243     0.8627480125
| 40> *
| 41>
| 42>                          ****END OF INPUT****
 Total Charge           Charge          ....    1
 Multiplicity           Mult            ....    1
 Number of Electrons    NEL             ....   52
FINAL SINGLE POINT ENERGY      -304.820160066711

CARTESIAN COORDINATES (ANGSTROEM)
---------------------------------
  C     -1.171186   -0.990441   -2.238942
  C     -0.059457   -0.454890   -1.397013
  C      0.285227    0.945900   -1.337407
  C     -0.531664    0.415008   -0.129522
  C      0.131744    0.180332    1.051872
  N      0.000220   -0.000162    2.365085
  N      1.336235    0.000270    1.618990
  H     -1.632845   -1.868442   -1.786236
  H     -0.753132   -1.292939   -3.203494
  H     -1.938160   -0.237652   -2.427771
  H      0.726970   -1.157596   -1.140399
  H      1.302120    1.242369   -1.112177
  H     -0.292198    1.652729   -1.922473
  H     -1.587541    0.641519   -0.068409
  H     -0.086433    0.826653    2.957736
  H      1.717127   -0.946637    1.618643

FINAL SINGLE POINT ENERGY      -304.820160393945
                    ***********************HURRAY********************
 Multiplicity           Mult            ....    1
 Number of Electrons    NEL             ....   52
 Basis Dimension        Dim             ....  271
FINAL SINGLE POINT ENERGY      -304.820160511685

VIBRATIONAL FREQUENCIES
-----------------------

   0:         0.00 cm**-1
   1:         0.00 cm**-1
   2:         0.00 cm**-1
   3:         0.00 cm**-1
   4:         0.00 cm**-1
   5:         0.00 cm**-1
   6:        99.94 cm**-1
   7:       135.25 cm**-1
   8:       173.42 cm**-1
   9:       230.64 cm**-1
  10:       310.71 cm**-1
  11:       394.25 cm**-1
  12:       452.99 cm**-1
  13:       535.35 cm**-1
  14:       618.37 cm**-1
  15:       694.69 cm**-1
  16:       777.66 cm**-1
  17:       826.15 cm**-1
  18:       878.30 cm**-1
  19:       905.39 cm**-1
  20:       945.74 cm**-1
  21:       999.13 cm**-1
  22:      1045.49 cm**-1
  23:      1059.24 cm**-1
  24:      1081.57 cm**-1
  25:      1099.82 cm**-1
  26:      1105.36 cm**-1
  27:      1131.54 cm**-1
  28:      1209.13 cm**-1
  29:      1242.68 cm**-1
  30:      1246.70 cm**-1
  31:      1294.58 cm**-1
  32:      1362.05 cm**-1
  33:      1409.23 cm**-1
  34:      1428.71 cm**-1
  35:      1466.68 cm**-1
  36:      1483.02 cm**-1
  37:      1507.42 cm**-1
  38:      1784.03 cm**-1
  39:      3058.94 cm**-1
  40:      3133.05 cm**-1
  41:      3155.09 cm**-1
  42:      3159.47 cm**-1
  43:      3184.15 cm**-1
  44:      3229.58 cm**-1
  45:      3257.30 cm**-1
  46:      3478.60 cm**-1
  47:      3480.64 cm**-1

IR SPECTRUM
-----------

 Mode    freq (cm**-1)   T**2         TX         TY         TZ
-------------------------------------------------------------------
   6:        99.94    2.594851  ( -0.418111  -0.989595  -1.200307)
   7:       135.25    0.817259  (  0.290812  -0.855083   0.039007)
   8:       173.42    0.704532  (  0.734812   0.295217  -0.278263)
   9:       230.64    0.024832  (  0.149979  -0.033556  -0.034822)
  10:       310.71    0.874670  ( -0.381190   0.607703   0.600050)
  11:       394.25    0.098388  ( -0.234436  -0.007175  -0.208270)
  12:       452.99   27.674645  ( -1.478117   0.018991   5.048708)
  13:       535.35   11.294170  ( -0.362314   0.262222   3.330786)
  14:       618.37  114.104674  (  4.888946   3.217417   8.935945)
  15:       694.69   38.864177  (  6.197192   0.671897   0.086851)
  16:       777.66  222.263633  (-11.841962  -2.346602   8.747859)
  17:       826.15  122.518891  ( -0.221198  -0.786656 -11.038620)
  18:       878.30   28.199733  (  0.586237   1.283982   5.119321)
  19:       905.39   17.950630  ( -0.550116  -1.569333   3.896819)
  20:       945.74   55.179175  (  3.588397   3.477439   5.496362)
  21:       999.13  346.037263  (  6.228711  -2.807668  17.301949)
  22:      1045.49   30.559077  (  3.780154  -2.335691   3.288473)
  23:      1059.24   18.378176  ( -1.684628  -1.014250   3.809396)
  24:      1081.57    2.340152  (  1.021305  -0.499595  -1.023471)
  25:      1099.82    1.536970  ( -0.352930   0.966649  -0.691375)
  26:      1105.36   16.683307  ( -3.799955   0.432719  -1.434016)
  27:      1131.54    7.082435  (  0.268564   2.043514   1.683555)
  28:      1209.13    8.042876  ( -0.409431   0.237669  -2.796204)
  29:      1242.68    9.025246  ( -0.828763  -0.678269  -2.806840)
  30:      1246.70    2.694658  (  0.007170  -0.486716   1.567710)
  31:      1294.58    2.593171  ( -1.300475  -0.286224   0.905545)
  32:      1362.05    2.749918  ( -0.451821   0.165718   1.586920)
  33:      1409.23    4.958892  (  2.212973   0.196166  -0.152193)
  34:      1428.71    5.205238  (  0.143771   1.159921   1.959375)
  35:      1466.68   14.268258  ( -1.272857  -3.549289   0.225031)
  36:      1483.02   16.119230  ( -1.673307   3.205087   1.745478)
  37:      1507.42   16.592396  ( -2.407005  -1.052366  -3.113077)
  38:      1784.03  520.580464  ( -5.868752   0.839267 -22.032563)
  39:      3058.94    1.568420  (  0.249863  -0.585488  -1.078514)
  40:      3133.05    3.564547  ( -1.280207  -0.178966  -1.376077)
  41:      3155.09    1.727617  ( -0.028040  -1.302307  -0.175573)
  42:      3159.47    3.829665  ( -0.053564  -1.050608   1.650157)
  43:      3184.15    1.727259  ( -0.829810   0.277673  -0.980598)
  44:      3229.58    8.210516  ( -2.749447   0.794017  -0.143500)
  45:      3257.30    6.323756  ( -1.910173   0.894083  -1.369529)
  46:      3478.60  152.178815  ( -5.187998   9.836794   5.338630)
  47:      3480.64   93.905976  ( -3.305194   0.403314  -9.100495)

--------------------------
THERMOCHEMISTRY AT 298.15K
--------------------------

Temperature         ... 298.15 K
Pressure            ... 1.00 atm
Total Mass          ... 97.14 AMU

Throughout the following assumptions are being made:
  (1) The electronic state is orbitally nondegenerate
  (2) There are no thermally accessible electronically excited states
  (3) Hindered rotations indicated by low frequency modes) are not
      treated as such but are treated as vibrations and this may
      case some error
  (4) All equations used are the standard statistical mechanics
      equations for an ideal gas
  (5) All vibrations are strinctly harmonic

------------
INNER ENERGY
------------

The inner energy is: U= E(el) + E(ZPE) + E(vib) + E(rot) + E(trans)
    E(el)   - is the total energy from the electronic structure calculation
              = E(kin-el) + E(nuc-el) + E(el-el) + E(nuc-nuc)
    E(ZPE)  - the the zero temperature vibrational energy from the frequency calculation
    E(vib)  - the the finite temperature correction to E(ZPE) due to population
              of excietd vibrational states
    E(rot)  - is the rotational thermal energy
    E(trans)- is the translational thermal energy

Summary of contributions to the inner energy U:
Electronic energy                ...   -304.82016051 Eh
Zero point energy                ...      0.13685420 Eh      85.88 kcal/mol
Thermal vibrational correction   ...      0.00457325 Eh       2.87 kcal/mol
Thermal rotational correction    ...      0.00141627 Eh       0.89 kcal/mol
Thermal translational correction ...      0.00141627 Eh       0.89 kcal/mol
-----------------------------------------------------------------------
Total thermal energy                   -304.67590052 Eh

Summary of corrections to the electronic energy:
(perhaps to be used in another calculation)
Total thermal correction                  0.00740580 Eh       4.65 kcal/mol
Non-thermal (ZPE) correction              0.13685420 Eh      85.88 kcal/mol
-----------------------------------------------------------------------
Total correction                          0.14425999 Eh      90.52 kcal/mol

--------
ENTHALPY
--------

The enthalpy is H = U + kB*T
                kB is Boltzmann's constant
Total free energy                 ...   -304.67590052 Eh
Thermal Enthalpy correction       ...      0.00094421 Eh       0.59 kcal/mol
-----------------------------------------------------------------------
Total Enthalpy                    ...   -304.67495631 Eh

-------
ENTROPY
-------

The entropy contributions are T*S = T*(S(el)+S(vib)+S(rot)+S(trans)
     S(el)   - electronic entropy
     S(vib)  - vibrational entropy
     S(rot)  - rotational entropy
     S(trans)- translational entropy
The entropies will be listed as mutliplied by the temperature to get
units of energy

Electronic entropy                ...      0.00000000 Eh      0.00 kcal/mol
Vibrational entropy               ...      0.00787551 Eh      4.94 kcal/mol
Rotational entropy                ...      0.01200280 Eh      7.53 kcal/mol
Translational entropy             ...      0.01883016 Eh     11.82 kcal/mol
-----------------------------------------------------------------------
Final entropy term                ...      0.03870847 Eh     24.29 kcal/mol

CAUTION: The rotational entropy is not quite correctly treated here
         because it includes a symmetry number that is not yet correctly
         implemented in ORCA!
For a nonlinear molecule the correct rotational entropy is:
    S(rot) = R*(ln(qrot/sn)+1.5)
    R    = 8.31441 J/mol/K = 1.987191683e-3 kcal/mol/K
    qrot = 222127.9518236
    sn is the rotational symmetry number. We have assumed 3 here
       if it is different for your molecule then you should correct
       the printed rotational entropy by manually evaluating the equation
       as given above

For convenience we print out the resulting values for sn=1 - 12:
 sn= 1  qrot/sn=  222127.9518 T*S(rot)=     8.18 kcal/mol T*S(tot)=    24.94 kcal/mol
 sn= 2  qrot/sn=  111063.9759 T*S(rot)=     7.77 kcal/mol T*S(tot)=    24.53 kcal/mol
 sn= 3  qrot/sn=   74042.6506 T*S(rot)=     7.53 kcal/mol T*S(tot)=    24.29 kcal/mol
 sn= 4  qrot/sn=   55531.9880 T*S(rot)=     7.36 kcal/mol T*S(tot)=    24.12 kcal/mol
 sn= 5  qrot/sn=   44425.5904 T*S(rot)=     7.23 kcal/mol T*S(tot)=    23.99 kcal/mol
 sn= 6  qrot/sn=   37021.3253 T*S(rot)=     7.12 kcal/mol T*S(tot)=    23.88 kcal/mol
 sn= 7  qrot/sn=   31732.5645 T*S(rot)=     7.03 kcal/mol T*S(tot)=    23.79 kcal/mol
 sn= 8  qrot/sn=   27765.9940 T*S(rot)=     6.95 kcal/mol T*S(tot)=    23.71 kcal/mol
 sn= 9  qrot/sn=   24680.8835 T*S(rot)=     6.88 kcal/mol T*S(tot)=    23.64 kcal/mol
 sn=10  qrot/sn=   22212.7952 T*S(rot)=     6.82 kcal/mol T*S(tot)=    23.58 kcal/mol
 sn=11  qrot/sn=   20193.4502 T*S(rot)=     6.76 kcal/mol T*S(tot)=    23.52 kcal/mol
 sn=12  qrot/sn=   18510.6627 T*S(rot)=     6.71 kcal/mol T*S(tot)=    23.47 kcal/mol

-------------------
GIBBS FREE ENTHALPY
-------------------

The Gibbs free enthalpy is G = H - T*S

Total enthalpy                    ...   -304.67495631 Eh
Total entropy correction          ...     -0.03870847 Eh    -24.29 kcal/mol
-----------------------------------------------------------------------
Final Gibbs free enthalpy         ...   -304.71366478 Eh

For completeness - the Gibbs free enthalpy minus the electronic energy
G-E(el)                           ...      0.10649573 Eh     66.83 kcal/mol

                             ****ORCA TERMINATED NORMALLY****
TOTAL RUN TIME: 0 days 0 hours 36 minutes 6 seconds 614 msec
