                         Program Version 3.0.3 - RELEASE   -
|  1> ! NORI PBE0 def2-TZVP UseSym TightOPT Freq TightSCF Grid3 FinalGrid5 XYZFile
|  2> % pal
|  3>     nprocs 8
|  4> end
|  5> %method
|  6>     SymThresh 5.0e-2
|  7> end
|  8> % geom
|  9>     MaxIter 10
| 10> end
| 11> % maxcore 2000
| 12> % output
| 13>     printlevel mini
| 14>     print[ P_Basis ] 0
| 15>     print[ P_SCFInfo ] 1
| 16>     print[ P_SCFIterInfo ] 1
| 17>     print[ P_OrbEn ] 0
| 18>     print[ P_Cartesian ] 0
| 19> end
| 20> % elprop
| 21>     Dipole false
| 22> end
| 23> *xyz 1 1
| 24>  C        0.8509145894    -0.1996067747     0.1016167313
| 25>  C        2.3506851111    -0.1669322707     0.0280298814
| 26>  C        3.0813532486    -0.4622423818    -1.2512677067
| 27>  C        3.0395038824     0.9289748944    -0.7170399725
| 28>  N        4.2666808719     1.4985222210    -0.1682092804
| 29>  C        5.0255388923     2.5433858828    -0.8897485826
| 30>  C        4.3140371932     2.8796249754     0.3554349728
| 31>  H        0.5034826647    -1.2217691089     0.2603649417
| 32>  H        0.4011342356     0.1627865072    -0.8253693758
| 33>  H        0.4796423543     0.4141443006     0.9245622083
| 34>  H        2.8611172187    -0.5061093484     0.9266419137
| 35>  H        4.0158319619    -1.0087766437    -1.1920877008
| 36>  H        2.5070392140    -0.6587131263    -2.1482145901
| 37>  H        2.4530767862     1.6869138163    -1.2235028499
| 38>  H        4.8354092425     0.8270645306     0.3385259270
| 39>  H        4.5860589389     2.8152824264    -1.8403898670
| 40>  H        6.1010229212     2.4197872467    -0.8757719020
| 41>  H        3.3645380325     3.3956165359     0.2993608782
| 42>  H        4.8722426406     3.0008263170     1.2747343734
| 43> *
| 44>
| 45>                          ****END OF INPUT****
 Total Charge           Charge          ....    1
 Multiplicity           Mult            ....    1
 Number of Electrons    NEL             ....   54
FINAL SINGLE POINT ENERGY      -290.061849401289

CARTESIAN COORDINATES (ANGSTROEM)
---------------------------------
  C      0.903192   -0.000042   -2.589524
  C      0.607760    0.638394   -1.262480
  C     -0.737288    1.236176   -0.960429
  C     -0.315589   -0.031911   -0.299128
  N     -0.000095    0.000125    1.125855
  C     -0.906023   -0.593327    2.133177
  C      0.398669   -1.219532    1.859125
  H      1.192776    0.759732   -3.317318
  H      0.025980   -0.518435   -2.983117
  H      1.719565   -0.720493   -2.511231
  H      1.445941    1.163291   -0.809569
  H     -0.772734    2.141157   -0.364234
  H     -1.521271    1.162422   -1.704030
  H     -0.788961   -0.968389   -0.570255
  H      0.469955    0.851110    1.419073
  H     -1.801082   -1.025797    1.705430
  H     -1.039551   -0.004910    3.031731
  H      0.441009   -2.103568    1.236392
  H      1.213785   -1.086428    2.558734

FINAL SINGLE POINT ENERGY      -290.061850102143
                    ***********************HURRAY********************
 Multiplicity           Mult            ....    1
 Number of Electrons    NEL             ....   54
 Basis Dimension        Dim             ....  289
FINAL SINGLE POINT ENERGY      -290.061850342628

VIBRATIONAL FREQUENCIES
-----------------------

   0:         0.00 cm**-1
   1:         0.00 cm**-1
   2:         0.00 cm**-1
   3:         0.00 cm**-1
   4:         0.00 cm**-1
   5:         0.00 cm**-1
   6:        57.49 cm**-1
   7:       153.66 cm**-1
   8:       184.47 cm**-1
   9:       222.85 cm**-1
  10:       340.97 cm**-1
  11:       359.72 cm**-1
  12:       374.75 cm**-1
  13:       473.48 cm**-1
  14:       754.02 cm**-1
  15:       810.27 cm**-1
  16:       811.11 cm**-1
  17:       856.69 cm**-1
  18:       869.25 cm**-1
  19:       913.06 cm**-1
  20:       927.81 cm**-1
  21:       965.95 cm**-1
  22:      1035.55 cm**-1
  23:      1060.14 cm**-1
  24:      1082.96 cm**-1
  25:      1090.23 cm**-1
  26:      1102.97 cm**-1
  27:      1136.77 cm**-1
  28:      1149.12 cm**-1
  29:      1153.98 cm**-1
  30:      1173.77 cm**-1
  31:      1203.95 cm**-1
  32:      1213.82 cm**-1
  33:      1238.48 cm**-1
  34:      1253.63 cm**-1
  35:      1272.95 cm**-1
  36:      1343.43 cm**-1
  37:      1407.20 cm**-1
  38:      1427.62 cm**-1
  39:      1467.96 cm**-1
  40:      1477.37 cm**-1
  41:      1480.85 cm**-1
  42:      1489.59 cm**-1
  43:      1511.15 cm**-1
  44:      1518.63 cm**-1
  45:      3060.25 cm**-1
  46:      3131.48 cm**-1
  47:      3142.93 cm**-1
  48:      3149.30 cm**-1
  49:      3153.58 cm**-1
  50:      3172.95 cm**-1
  51:      3174.57 cm**-1
  52:      3195.20 cm**-1
  53:      3242.13 cm**-1
  54:      3271.09 cm**-1
  55:      3281.62 cm**-1
  56:      3540.20 cm**-1

IR SPECTRUM
-----------

 Mode    freq (cm**-1)   T**2         TX         TY         TZ
-------------------------------------------------------------------
   6:        57.49    0.623729  ( -0.706400   0.345318   0.074048)
   7:       153.66    0.682779  (  0.651868  -0.301865  -0.408320)
   8:       184.47    0.717612  (  0.409705  -0.045795   0.740038)
   9:       222.85    0.339078  ( -0.397211   0.036070  -0.424264)
  10:       340.97    1.572673  ( -0.292675   0.675220   1.015427)
  11:       359.72    2.252254  ( -0.200146  -0.412808   1.428911)
  12:       374.75    0.690382  (  0.179652   0.791735  -0.176812)
  13:       473.48    0.639496  ( -0.656479   0.248334  -0.383225)
  14:       754.02    0.989585  (  0.909509  -0.263969   0.304465)
  15:       810.27    3.260899  (  0.180718   1.780185   0.243272)
  16:       811.11    5.218538  (  1.697665   1.324115  -0.763671)
  17:       856.69    1.205376  ( -0.465218  -0.818510   0.564792)
  18:       869.25    6.762295  ( -1.013577   2.321571  -0.587591)
  19:       913.06   11.787363  (  0.755701   2.261013  -2.470648)
  20:       927.81   23.747512  (  4.259038   0.813300  -2.224107)
  21:       965.95   26.523858  (  0.904782  -4.057949   3.039454)
  22:      1035.55    9.961511  (  1.244260   0.683441  -2.818907)
  23:      1060.14    9.409020  ( -2.728424   1.360674   0.336584)
  24:      1082.96   24.229308  (  0.617308   3.152969  -3.729212)
  25:      1090.23    2.844341  (  0.977100   1.210742  -0.650938)
  26:      1102.97    0.165120  (  0.135529  -0.382035  -0.028302)
  27:      1136.77    1.221215  ( -0.403304   0.929209  -0.441738)
  28:      1149.12    7.528670  (  2.458517  -1.072629  -0.577783)
  29:      1153.98    0.818426  (  0.123806   0.471999   0.761784)
  30:      1173.77    0.898328  (  0.853878  -0.375864  -0.167170)
  31:      1203.95    0.890813  ( -0.903488  -0.135992   0.236704)
  32:      1213.82    6.029978  ( -2.105103   1.203864   0.386306)
  33:      1238.48    1.370516  (  0.488760   0.879095   0.599016)
  34:      1253.63    6.565979  ( -0.149337  -1.639299   1.963766)
  35:      1272.95   10.956518  (  1.022242   2.687640  -1.639552)
  36:      1343.43    4.434060  ( -1.270555  -1.654763   0.285498)
  37:      1407.20    3.080794  ( -0.199526   1.081180  -1.368223)
  38:      1427.62    7.523579  (  0.789192   0.844045   2.487638)
  39:      1467.96   16.862366  (  1.337116  -0.373732  -3.864558)
  40:      1477.37   15.810550  ( -3.475375   1.844356   0.575041)
  41:      1480.85    5.162011  (  0.395512   1.771630  -1.366349)
  42:      1489.59   20.069434  ( -3.874595   0.865525  -2.075528)
  43:      1511.15    8.511045  (  0.663410   2.830796  -0.239846)
  44:      1518.63   15.404051  (  0.239601  -2.027351   3.352087)
  45:      3060.25    6.462605  ( -0.371347   1.431393   2.067805)
  46:      3131.48    5.228889  (  1.937292  -0.124911  -1.208382)
  47:      3142.93    4.453846  (  0.922120  -1.618892   0.991327)
  48:      3149.30    6.147350  ( -2.027480  -0.981541  -1.035978)
  49:      3153.58    3.422068  (  0.633522   0.392399   1.693145)
  50:      3172.95    3.581261  ( -1.653085   0.894228   0.221197)
  51:      3174.57    2.129502  (  0.472230   0.732106  -1.170692)
  52:      3195.20    0.162877  (  0.095018  -0.007962   0.392154)
  53:      3242.13    0.094128  ( -0.304388   0.016026  -0.034923)
  54:      3271.09    0.062059  ( -0.172204   0.148352   0.101963)
  55:      3281.62   10.626828  (  1.401453   1.843289   2.294569)
  56:      3540.20   71.166580  (  3.821552   7.359173   1.550770)

--------------------------
THERMOCHEMISTRY AT 298.15K
--------------------------

Temperature         ... 298.15 K
Pressure            ... 1.00 atm
Total Mass          ... 98.17 AMU

Throughout the following assumptions are being made:
  (1) The electronic state is orbitally nondegenerate
  (2) There are no thermally accessible electronically excited states
  (3) Hindered rotations indicated by low frequency modes) are not
      treated as such but are treated as vibrations and this may
      case some error
  (4) All equations used are the standard statistical mechanics
      equations for an ideal gas
  (5) All vibrations are strinctly harmonic

------------
INNER ENERGY
------------

The inner energy is: U= E(el) + E(ZPE) + E(vib) + E(rot) + E(trans)
    E(el)   - is the total energy from the electronic structure calculation
              = E(kin-el) + E(nuc-el) + E(el-el) + E(nuc-nuc)
    E(ZPE)  - the the zero temperature vibrational energy from the frequency calculation
    E(vib)  - the the finite temperature correction to E(ZPE) due to population
              of excietd vibrational states
    E(rot)  - is the rotational thermal energy
    E(trans)- is the translational thermal energy

Summary of contributions to the inner energy U:
Electronic energy                ...   -290.06185034 Eh
Zero point energy                ...      0.17515232 Eh     109.91 kcal/mol
Thermal vibrational correction   ...      0.00472466 Eh       2.96 kcal/mol
Thermal rotational correction    ...      0.00141627 Eh       0.89 kcal/mol
Thermal translational correction ...      0.00141627 Eh       0.89 kcal/mol
-----------------------------------------------------------------------
Total thermal energy                   -289.87914082 Eh

Summary of corrections to the electronic energy:
(perhaps to be used in another calculation)
Total thermal correction                  0.00755721 Eh       4.74 kcal/mol
Non-thermal (ZPE) correction              0.17515232 Eh     109.91 kcal/mol
-----------------------------------------------------------------------
Total correction                          0.18270953 Eh     114.65 kcal/mol

--------
ENTHALPY
--------

The enthalpy is H = U + kB*T
                kB is Boltzmann's constant
Total free energy                 ...   -289.87914082 Eh
Thermal Enthalpy correction       ...      0.00094421 Eh       0.59 kcal/mol
-----------------------------------------------------------------------
Total Enthalpy                    ...   -289.87819661 Eh

-------
ENTROPY
-------

The entropy contributions are T*S = T*(S(el)+S(vib)+S(rot)+S(trans)
     S(el)   - electronic entropy
     S(vib)  - vibrational entropy
     S(rot)  - rotational entropy
     S(trans)- translational entropy
The entropies will be listed as mutliplied by the temperature to get
units of energy

Electronic entropy                ...      0.00000000 Eh      0.00 kcal/mol
Vibrational entropy               ...      0.00840834 Eh      5.28 kcal/mol
Rotational entropy                ...      0.01207901 Eh      7.58 kcal/mol
Translational entropy             ...      0.01884507 Eh     11.83 kcal/mol
-----------------------------------------------------------------------
Final entropy term                ...      0.03933243 Eh     24.68 kcal/mol

CAUTION: The rotational entropy is not quite correctly treated here
         because it includes a symmetry number that is not yet correctly
         implemented in ORCA!
For a nonlinear molecule the correct rotational entropy is:
    S(rot) = R*(ln(qrot/sn)+1.5)
    R    = 8.31441 J/mol/K = 1.987191683e-3 kcal/mol/K
    qrot = 240800.7625965
    sn is the rotational symmetry number. We have assumed 3 here
       if it is different for your molecule then you should correct
       the printed rotational entropy by manually evaluating the equation
       as given above

For convenience we print out the resulting values for sn=1 - 12:
 sn= 1  qrot/sn=  240800.7626 T*S(rot)=     8.23 kcal/mol T*S(tot)=    25.33 kcal/mol
 sn= 2  qrot/sn=  120400.3813 T*S(rot)=     7.82 kcal/mol T*S(tot)=    24.92 kcal/mol
 sn= 3  qrot/sn=   80266.9209 T*S(rot)=     7.58 kcal/mol T*S(tot)=    24.68 kcal/mol
 sn= 4  qrot/sn=   60200.1906 T*S(rot)=     7.41 kcal/mol T*S(tot)=    24.51 kcal/mol
 sn= 5  qrot/sn=   48160.1525 T*S(rot)=     7.28 kcal/mol T*S(tot)=    24.38 kcal/mol
 sn= 6  qrot/sn=   40133.4604 T*S(rot)=     7.17 kcal/mol T*S(tot)=    24.27 kcal/mol
 sn= 7  qrot/sn=   34400.1089 T*S(rot)=     7.08 kcal/mol T*S(tot)=    24.18 kcal/mol
 sn= 8  qrot/sn=   30100.0953 T*S(rot)=     7.00 kcal/mol T*S(tot)=    24.10 kcal/mol
 sn= 9  qrot/sn=   26755.6403 T*S(rot)=     6.93 kcal/mol T*S(tot)=    24.03 kcal/mol
 sn=10  qrot/sn=   24080.0763 T*S(rot)=     6.87 kcal/mol T*S(tot)=    23.97 kcal/mol
 sn=11  qrot/sn=   21890.9784 T*S(rot)=     6.81 kcal/mol T*S(tot)=    23.91 kcal/mol
 sn=12  qrot/sn=   20066.7302 T*S(rot)=     6.76 kcal/mol T*S(tot)=    23.86 kcal/mol

-------------------
GIBBS FREE ENTHALPY
-------------------

The Gibbs free enthalpy is G = H - T*S

Total enthalpy                    ...   -289.87819661 Eh
Total entropy correction          ...     -0.03933243 Eh    -24.68 kcal/mol
-----------------------------------------------------------------------
Final Gibbs free enthalpy         ...   -289.91752903 Eh

For completeness - the Gibbs free enthalpy minus the electronic energy
G-E(el)                           ...      0.14432131 Eh     90.56 kcal/mol

                             ****ORCA TERMINATED NORMALLY****
TOTAL RUN TIME: 0 days 0 hours 48 minutes 36 seconds 117 msec
