                         Program Version 3.0.3 - RELEASE   -
|  1> ! NORI PBE0 def2-TZVP UseSym TightOPT Freq TightSCF Grid3 FinalGrid5 XYZFile
|  2> % pal
|  3>     nprocs 8
|  4> end
|  5> %method
|  6>     SymThresh 5.0e-2
|  7> end
|  8> % geom
|  9>     MaxIter 10
| 10> end
| 11> % maxcore 2000
| 12> % output
| 13>     printlevel mini
| 14>     print[ P_Basis ] 0
| 15>     print[ P_SCFInfo ] 1
| 16>     print[ P_SCFIterInfo ] 1
| 17>     print[ P_OrbEn ] 0
| 18>     print[ P_Cartesian ] 0
| 19> end
| 20> % elprop
| 21>     Dipole false
| 22> end
| 23> *xyz 1 1
| 24>  C        0.7945021943    -0.7194214181    -0.4981114216
| 25>  C        2.0587554180    -0.1301289824     0.0554831369
| 26>  C        3.2618117790     0.0879457170    -0.7992028544
| 27>  C        2.4753354892     1.2601112298    -0.2881528987
| 28>  N        2.3037693726    -0.6239144960     1.4233578292
| 29>  C        3.1613765384     0.0251287124     2.4333854960
| 30>  C        1.7018886405     0.0134055001     2.6153132792
| 31>  H        0.6429219726    -0.3623683770    -1.5165161230
| 32>  H       -0.0786345338    -0.4271949399     0.0902991789
| 33>  H        0.8436232884    -1.8116384092    -0.5390556717
| 34>  H        4.2396862610    -0.0766818159    -0.3619432676
| 35>  H        3.1851233736    -0.1888403542    -1.8424509038
| 36>  H        1.8221732722     1.7903663102    -0.9698357613
| 37>  H        2.9434572681     1.9018322368     0.4475879556
| 38>  H        2.3258675487    -1.6398746501     1.4580797511
| 39>  H        3.6456507923     0.9322126369     2.1012900906
| 40>  H        3.7775052391    -0.6608913970     3.0006020828
| 41>  H        1.2503040843    -0.6668958619     3.3259950343
| 42>  H        1.1437220014     0.9103183586     2.3800550678
| 43> *
| 44>
| 45>                          ****END OF INPUT****
 Total Charge           Charge          ....    1
 Multiplicity           Mult            ....    1
 Number of Electrons    NEL             ....   54
FINAL SINGLE POINT ENERGY      -290.064073078566
FINAL SINGLE POINT ENERGY      -290.064075679353
FINAL SINGLE POINT ENERGY      -290.064077535486
FINAL SINGLE POINT ENERGY      -290.064078771195

CARTESIAN COORDINATES (ANGSTROEM)
---------------------------------
  C      1.918975   -0.005962   -0.579205
  C      0.449231    0.266165   -0.448389
  C     -0.204380    1.404542   -1.158219
  C     -0.490776   -0.009818   -1.572429
  N     -0.003854    0.004114    0.930760
  C     -1.390735   -0.282374    1.344860
  C     -0.379759   -1.349744    1.395012
  H      2.241875    0.222202   -1.594708
  H      2.155575   -1.054483   -0.381562
  H      2.506521    0.621145    0.097745
  H     -0.998765    1.939908   -0.651434
  H      0.424121    2.023503   -1.785240
  H     -0.040370   -0.391338   -2.479772
  H     -1.484064   -0.398942   -1.385993
  H      0.522296    0.548218    1.609325
  H     -2.114613   -0.277298    0.542432
  H     -1.692571    0.212612    2.258821
  H      0.045213   -1.647733    2.344544
  H     -0.366300   -2.087466    0.603202

FINAL SINGLE POINT ENERGY      -290.064079208092
                    ***********************HURRAY********************
 Multiplicity           Mult            ....    1
 Number of Electrons    NEL             ....   54
 Basis Dimension        Dim             ....  289
FINAL SINGLE POINT ENERGY      -290.064079497907

VIBRATIONAL FREQUENCIES
-----------------------

   0:         0.00 cm**-1
   1:         0.00 cm**-1
   2:         0.00 cm**-1
   3:         0.00 cm**-1
   4:         0.00 cm**-1
   5:         0.00 cm**-1
   6:        70.83 cm**-1
   7:       204.87 cm**-1
   8:       230.36 cm**-1
   9:       264.59 cm**-1
  10:       316.54 cm**-1
  11:       353.46 cm**-1
  12:       450.15 cm**-1
  13:       490.22 cm**-1
  14:       646.28 cm**-1
  15:       769.00 cm**-1
  16:       792.91 cm**-1
  17:       853.66 cm**-1
  18:       875.39 cm**-1
  19:       902.85 cm**-1
  20:       934.79 cm**-1
  21:       950.16 cm**-1
  22:       977.94 cm**-1
  23:       995.21 cm**-1
  24:      1053.62 cm**-1
  25:      1077.02 cm**-1
  26:      1103.45 cm**-1
  27:      1128.34 cm**-1
  28:      1149.83 cm**-1
  29:      1155.91 cm**-1
  30:      1175.35 cm**-1
  31:      1185.12 cm**-1
  32:      1199.18 cm**-1
  33:      1218.11 cm**-1
  34:      1265.57 cm**-1
  35:      1285.82 cm**-1
  36:      1369.76 cm**-1
  37:      1429.35 cm**-1
  38:      1448.73 cm**-1
  39:      1457.04 cm**-1
  40:      1474.30 cm**-1
  41:      1483.32 cm**-1
  42:      1485.39 cm**-1
  43:      1514.58 cm**-1
  44:      1525.35 cm**-1
  45:      3052.28 cm**-1
  46:      3122.96 cm**-1
  47:      3156.98 cm**-1
  48:      3160.22 cm**-1
  49:      3165.16 cm**-1
  50:      3173.75 cm**-1
  51:      3181.80 cm**-1
  52:      3243.36 cm**-1
  53:      3254.19 cm**-1
  54:      3274.78 cm**-1
  55:      3285.89 cm**-1
  56:      3520.65 cm**-1

IR SPECTRUM
-----------

 Mode    freq (cm**-1)   T**2         TX         TY         TZ
-------------------------------------------------------------------
   6:        70.83    0.531671  (  0.540210  -0.481879  -0.087389)
   7:       204.87    0.087729  (  0.221082  -0.184671   0.068904)
   8:       230.36    0.043948  (  0.204881   0.038681   0.021816)
   9:       264.59    0.475685  (  0.256377   0.528689  -0.361170)
  10:       316.54    2.791121  ( -1.046367  -0.353734   1.253439)
  11:       353.46    2.536133  (  0.930731   0.661478  -1.110099)
  12:       450.15    0.203148  (  0.360389   0.148302  -0.226439)
  13:       490.22    3.552524  ( -0.769952  -1.710692  -0.182294)
  14:       646.28    0.889882  ( -0.584428   0.569818  -0.472898)
  15:       769.00    0.240128  ( -0.270126   0.330571  -0.240588)
  16:       792.91    3.123740  (  0.142398  -0.425247   1.709569)
  17:       853.66    4.888762  ( -0.337406  -1.749868   1.308770)
  18:       875.39    1.561365  ( -1.225892   0.128224   0.205213)
  19:       902.85    3.204712  ( -0.218380   1.775824  -0.058911)
  20:       934.79    5.133528  (  2.064444  -0.904849   0.229885)
  21:       950.16    6.356634  (  0.444163   0.939643  -2.297047)
  22:       977.94   18.984774  (  3.945758  -1.738467  -0.627299)
  23:       995.21   33.992315  ( -4.057140  -3.779329   1.802388)
  24:      1053.62    6.979518  (  1.216177  -0.616791   2.262742)
  25:      1077.02   12.029044  ( -1.214436   1.553218  -2.853367)
  26:      1103.45    2.574367  (  0.917183   1.268842   0.350971)
  27:      1128.34    1.847463  (  0.718874  -0.945727  -0.660517)
  28:      1149.83    2.650612  ( -0.170490   1.495069   0.621540)
  29:      1155.91    8.066855  ( -2.337682   1.609651  -0.105463)
  30:      1175.35    0.523120  (  0.285135  -0.621289   0.236259)
  31:      1185.12    0.412113  (  0.375125   0.519453   0.039529)
  32:      1199.18    6.753820  (  1.100446   2.271778  -0.617952)
  33:      1218.11    9.115481  ( -2.442562   1.717695   0.445977)
  34:      1265.57    3.781756  (  0.228471   0.720089   1.791935)
  35:      1285.82   24.466394  (  3.091983   2.261156  -3.129410)
  36:      1369.76   11.894934  ( -2.434469  -0.990012   2.233422)
  37:      1429.35    5.779686  ( -2.063219   0.590174   1.083748)
  38:      1448.73   35.844328  ( -3.394859  -3.536107   3.437326)
  39:      1457.04   19.831372  (  0.890844  -3.968083  -1.814411)
  40:      1474.30    6.468796  ( -2.268545   1.136266   0.177208)
  41:      1483.32    8.272681  (  0.460142   1.234697   2.556653)
  42:      1485.39    5.569978  ( -1.021641   1.705922  -1.271243)
  43:      1514.58    6.909229  (  1.542340   0.011504   2.128447)
  44:      1525.35    7.947598  ( -2.598002   1.034420   0.357717)
  45:      3052.28    6.761872  ( -1.779408   0.608466  -1.795926)
  46:      3122.96    5.929720  (  0.391468   2.277756   0.767008)
  47:      3156.98    2.327149  ( -0.623538   0.691876  -1.208163)
  48:      3160.22    0.526925  ( -0.328421   0.359606   0.538282)
  49:      3165.16    2.624435  (  1.102240   0.465000  -1.092373)
  50:      3173.75    2.710670  (  0.309761  -1.529016   0.526145)
  51:      3181.80    1.630029  (  1.019196  -0.465688  -0.611885)
  52:      3243.36    0.306993  (  0.335063   0.439950  -0.034193)
  53:      3254.19    0.085134  ( -0.102430  -0.091988  -0.257256)
  54:      3274.78    0.905861  (  0.219080   0.398046   0.836316)
  55:      3285.89    9.233005  ( -0.512155  -0.668377  -2.919584)
  56:      3520.65   66.428138  (  4.785512   5.012695   4.289510)

--------------------------
THERMOCHEMISTRY AT 298.15K
--------------------------

Temperature         ... 298.15 K
Pressure            ... 1.00 atm
Total Mass          ... 98.17 AMU

Throughout the following assumptions are being made:
  (1) The electronic state is orbitally nondegenerate
  (2) There are no thermally accessible electronically excited states
  (3) Hindered rotations indicated by low frequency modes) are not
      treated as such but are treated as vibrations and this may
      case some error
  (4) All equations used are the standard statistical mechanics
      equations for an ideal gas
  (5) All vibrations are strinctly harmonic

------------
INNER ENERGY
------------

The inner energy is: U= E(el) + E(ZPE) + E(vib) + E(rot) + E(trans)
    E(el)   - is the total energy from the electronic structure calculation
              = E(kin-el) + E(nuc-el) + E(el-el) + E(nuc-nuc)
    E(ZPE)  - the the zero temperature vibrational energy from the frequency calculation
    E(vib)  - the the finite temperature correction to E(ZPE) due to population
              of excietd vibrational states
    E(rot)  - is the rotational thermal energy
    E(trans)- is the translational thermal energy

Summary of contributions to the inner energy U:
Electronic energy                ...   -290.06407950 Eh
Zero point energy                ...      0.17509168 Eh     109.87 kcal/mol
Thermal vibrational correction   ...      0.00451986 Eh       2.84 kcal/mol
Thermal rotational correction    ...      0.00141627 Eh       0.89 kcal/mol
Thermal translational correction ...      0.00141627 Eh       0.89 kcal/mol
-----------------------------------------------------------------------
Total thermal energy                   -289.88163542 Eh

Summary of corrections to the electronic energy:
(perhaps to be used in another calculation)
Total thermal correction                  0.00735240 Eh       4.61 kcal/mol
Non-thermal (ZPE) correction              0.17509168 Eh     109.87 kcal/mol
-----------------------------------------------------------------------
Total correction                          0.18244408 Eh     114.49 kcal/mol

--------
ENTHALPY
--------

The enthalpy is H = U + kB*T
                kB is Boltzmann's constant
Total free energy                 ...   -289.88163542 Eh
Thermal Enthalpy correction       ...      0.00094421 Eh       0.59 kcal/mol
-----------------------------------------------------------------------
Total Enthalpy                    ...   -289.88069121 Eh

-------
ENTROPY
-------

The entropy contributions are T*S = T*(S(el)+S(vib)+S(rot)+S(trans)
     S(el)   - electronic entropy
     S(vib)  - vibrational entropy
     S(rot)  - rotational entropy
     S(trans)- translational entropy
The entropies will be listed as mutliplied by the temperature to get
units of energy

Electronic entropy                ...      0.00000000 Eh      0.00 kcal/mol
Vibrational entropy               ...      0.00765790 Eh      4.81 kcal/mol
Rotational entropy                ...      0.01192048 Eh      7.48 kcal/mol
Translational entropy             ...      0.01884507 Eh     11.83 kcal/mol
-----------------------------------------------------------------------
Final entropy term                ...      0.03842345 Eh     24.11 kcal/mol

CAUTION: The rotational entropy is not quite correctly treated here
         because it includes a symmetry number that is not yet correctly
         implemented in ORCA!
For a nonlinear molecule the correct rotational entropy is:
    S(rot) = R*(ln(qrot/sn)+1.5)
    R    = 8.31441 J/mol/K = 1.987191683e-3 kcal/mol/K
    qrot = 203581.6968244
    sn is the rotational symmetry number. We have assumed 3 here
       if it is different for your molecule then you should correct
       the printed rotational entropy by manually evaluating the equation
       as given above

For convenience we print out the resulting values for sn=1 - 12:
 sn= 1  qrot/sn=  203581.6968 T*S(rot)=     8.13 kcal/mol T*S(tot)=    24.76 kcal/mol
 sn= 2  qrot/sn=  101790.8484 T*S(rot)=     7.72 kcal/mol T*S(tot)=    24.35 kcal/mol
 sn= 3  qrot/sn=   67860.5656 T*S(rot)=     7.48 kcal/mol T*S(tot)=    24.11 kcal/mol
 sn= 4  qrot/sn=   50895.4242 T*S(rot)=     7.31 kcal/mol T*S(tot)=    23.94 kcal/mol
 sn= 5  qrot/sn=   40716.3394 T*S(rot)=     7.18 kcal/mol T*S(tot)=    23.81 kcal/mol
 sn= 6  qrot/sn=   33930.2828 T*S(rot)=     7.07 kcal/mol T*S(tot)=    23.70 kcal/mol
 sn= 7  qrot/sn=   29083.0995 T*S(rot)=     6.98 kcal/mol T*S(tot)=    23.61 kcal/mol
 sn= 8  qrot/sn=   25447.7121 T*S(rot)=     6.90 kcal/mol T*S(tot)=    23.53 kcal/mol
 sn= 9  qrot/sn=   22620.1885 T*S(rot)=     6.83 kcal/mol T*S(tot)=    23.46 kcal/mol
 sn=10  qrot/sn=   20358.1697 T*S(rot)=     6.77 kcal/mol T*S(tot)=    23.40 kcal/mol
 sn=11  qrot/sn=   18507.4270 T*S(rot)=     6.71 kcal/mol T*S(tot)=    23.34 kcal/mol
 sn=12  qrot/sn=   16965.1414 T*S(rot)=     6.66 kcal/mol T*S(tot)=    23.29 kcal/mol

-------------------
GIBBS FREE ENTHALPY
-------------------

The Gibbs free enthalpy is G = H - T*S

Total enthalpy                    ...   -289.88069121 Eh
Total entropy correction          ...     -0.03842345 Eh    -24.11 kcal/mol
-----------------------------------------------------------------------
Final Gibbs free enthalpy         ...   -289.91911466 Eh

For completeness - the Gibbs free enthalpy minus the electronic energy
G-E(el)                           ...      0.14496484 Eh     90.97 kcal/mol

                             ****ORCA TERMINATED NORMALLY****
TOTAL RUN TIME: 0 days 1 hours 0 minutes 15 seconds 508 msec
