                         Program Version 3.0.3 - RELEASE   -
|  1> ! NORI PBE0 def2-TZVP UseSym TightOPT Freq TightSCF Grid3 FinalGrid5 XYZFile
|  2> % pal
|  3>     nprocs 8
|  4> end
|  5> %method
|  6>     SymThresh 5.0e-2
|  7> end
|  8> % geom
|  9>     MaxIter 10
| 10> end
| 11> % maxcore 2000
| 12> % output
| 13>     printlevel mini
| 14>     print[ P_Basis ] 0
| 15>     print[ P_SCFInfo ] 1
| 16>     print[ P_SCFIterInfo ] 1
| 17>     print[ P_OrbEn ] 0
| 18>     print[ P_Cartesian ] 0
| 19> end
| 20> % elprop
| 21>     Dipole false
| 22> end
| 23> *xyz 1 1
| 24>  C        0.8834225504     0.1127553879    -0.3272177038
| 25>  C        2.3608440539     0.0333956539    -0.0636577483
| 26>  C        3.2347426278    -0.9702687858    -0.7653858168
| 27>  C        3.3247078520     0.4758718396    -1.1106037224
| 28>  N        4.5192608073     1.3099925420    -0.7988272890
| 29>  C        4.1326564546     2.7468187152    -0.7133534500
| 30>  C        5.3034575643     0.8988943632     0.3953097397
| 31>  H        0.4856145343     1.0990563290    -0.0790258791
| 32>  H        0.3522735533    -0.6244136329     0.2767262890
| 33>  H        0.6568364000    -0.0919047206    -1.3757953030
| 34>  H        2.6504658057     0.2242628042     0.9649438555
| 35>  H        4.0220832963    -1.4373036236    -0.1887263407
| 36>  H        2.7946323642    -1.6144602238    -1.5167220314
| 37>  H        2.9165583713     0.7938800108    -2.0631566396
| 38>  H        5.1447876226     1.2120179189    -1.6011088278
| 39>  H        3.4667411544     2.8696399801     0.1384891617
| 40>  H        3.6179030541     3.0304350920    -1.6294287477
| 41>  H        5.0285217274     3.3517207656    -0.5843824236
| 42>  H        4.6733355389     0.9687481269     1.2788015711
| 43>  H        6.1485942762     1.5770608503     0.4955388826
| 44>  H        5.6634903909    -0.1176093930     0.2626524236
| 45> *
| 46>
| 47>                          ****END OF INPUT****
 Total Charge           Charge          ....    1
 Multiplicity           Mult            ....    1
 Number of Electrons    NEL             ....   56
FINAL SINGLE POINT ENERGY      -291.296778746504
FINAL SINGLE POINT ENERGY      -291.296783447687
FINAL SINGLE POINT ENERGY      -291.296786086494
FINAL SINGLE POINT ENERGY      -291.296787163694

CARTESIAN COORDINATES (ANGSTROEM)
---------------------------------
  C      0.869610   -0.000148   -2.454892
  C     -0.104456    0.047138   -1.311203
  C     -0.867639   -1.172028   -0.871836
  C      0.231553   -0.629445   -0.025979
  N     -0.000903    0.002687    1.303011
  C      1.126994    0.916430    1.641012
  C     -1.308858    0.687124    1.476715
  H      1.607393    0.801652   -2.384419
  H      0.342993    0.109982   -3.404256
  H      1.402911   -0.953006   -2.480348
  H     -0.672467    0.969445   -1.234630
  H     -1.898724   -1.035245   -0.573588
  H     -0.671050   -2.119075   -1.359546
  H      1.158879   -1.189656    0.014418
  H      0.014712   -0.761893    1.981165
  H      1.115492    1.745193    0.936061
  H      2.063553    0.368940    1.554323
  H      0.999017    1.282932    2.658174
  H     -1.377522    1.513404    0.773338
  H     -1.358143    1.071018    2.494088
  H     -2.115953   -0.021844    1.313568

FINAL SINGLE POINT ENERGY      -291.296788130365
                    ***********************HURRAY********************
 Multiplicity           Mult            ....    1
 Number of Electrons    NEL             ....   56
 Basis Dimension        Dim             ....  301
FINAL SINGLE POINT ENERGY      -291.296788726582

VIBRATIONAL FREQUENCIES
-----------------------

   0:         0.00 cm**-1
   1:         0.00 cm**-1
   2:         0.00 cm**-1
   3:         0.00 cm**-1
   4:         0.00 cm**-1
   5:         0.00 cm**-1
   6:        27.76 cm**-1
   7:       162.12 cm**-1
   8:       201.28 cm**-1
   9:       215.84 cm**-1
  10:       230.57 cm**-1
  11:       269.44 cm**-1
  12:       326.37 cm**-1
  13:       365.74 cm**-1
  14:       410.50 cm**-1
  15:       472.04 cm**-1
  16:       539.68 cm**-1
  17:       732.75 cm**-1
  18:       815.44 cm**-1
  19:       859.52 cm**-1
  20:       921.31 cm**-1
  21:       925.39 cm**-1
  22:       983.03 cm**-1
  23:      1019.41 cm**-1
  24:      1045.81 cm**-1
  25:      1062.87 cm**-1
  26:      1088.73 cm**-1
  27:      1098.31 cm**-1
  28:      1120.98 cm**-1
  29:      1137.38 cm**-1
  30:      1184.36 cm**-1
  31:      1209.50 cm**-1
  32:      1210.33 cm**-1
  33:      1249.40 cm**-1
  34:      1267.87 cm**-1
  35:      1356.65 cm**-1
  36:      1401.27 cm**-1
  37:      1414.75 cm**-1
  38:      1426.25 cm**-1
  39:      1436.95 cm**-1
  40:      1446.99 cm**-1
  41:      1469.10 cm**-1
  42:      1479.96 cm**-1
  43:      1481.91 cm**-1
  44:      1483.98 cm**-1
  45:      1492.83 cm**-1
  46:      1500.55 cm**-1
  47:      1509.34 cm**-1
  48:      1522.60 cm**-1
  49:      3059.77 cm**-1
  50:      3089.71 cm**-1
  51:      3100.74 cm**-1
  52:      3133.85 cm**-1
  53:      3142.34 cm**-1
  54:      3165.64 cm**-1
  55:      3168.58 cm**-1
  56:      3186.80 cm**-1
  57:      3190.44 cm**-1
  58:      3193.67 cm**-1
  59:      3195.09 cm**-1
  60:      3209.96 cm**-1
  61:      3252.39 cm**-1
  62:      3446.37 cm**-1

IR SPECTRUM
-----------

 Mode    freq (cm**-1)   T**2         TX         TY         TZ
-------------------------------------------------------------------
   7:       162.12    0.171838  ( -0.166911  -0.246356   0.288596)
   8:       201.28    0.004112  ( -0.010743  -0.030367  -0.055444)
   9:       215.84    0.023512  ( -0.042899   0.105868  -0.102290)
  10:       230.57    0.339714  ( -0.068941  -0.474498  -0.331380)
  11:       269.44    0.020061  (  0.072770  -0.063739   0.103454)
  12:       326.37    1.276015  ( -1.046278   0.050043   0.422863)
  13:       365.74    0.681472  ( -0.784320  -0.247350  -0.071644)
  14:       410.50    0.024546  ( -0.016893   0.080651  -0.133251)
  15:       472.04    0.515682  ( -0.413417  -0.566259  -0.155303)
  16:       539.68    2.428808  ( -0.071672  -0.841658  -1.309688)
  17:       732.75    1.249148  (  0.343806  -0.747079   0.756848)
  18:       815.44    5.639212  ( -1.264830   1.529174  -1.304241)
  19:       859.52    1.610528  (  0.792292   0.374632   0.917852)
  20:       921.31    6.654957  ( -1.064526  -2.268318  -0.613575)
  21:       925.39    6.625110  (  1.721072   0.827268  -1.725876)
  22:       983.03   10.759624  ( -0.876372  -2.286688  -2.182350)
  23:      1019.41   17.734912  ( -4.091753   0.957623  -0.274635)
  24:      1045.81    1.960942  (  0.897106  -1.002631   0.388424)
  25:      1062.87    9.468508  (  0.829231   2.679547  -1.265271)
  26:      1088.73    1.440401  ( -0.608646  -0.007225   1.034359)
  27:      1098.31   13.447675  ( -1.853550  -0.730670  -3.078660)
  28:      1120.98    1.500271  (  0.629278   0.968729   0.407239)
  29:      1137.38    0.884587  ( -0.349090  -0.424856   0.763033)
  30:      1184.36    8.692286  (  0.674238  -0.940976  -2.711504)
  31:      1209.50    1.217621  (  0.977268   0.174901   0.481640)
  32:      1210.33    2.033583  ( -0.098946  -1.369816  -0.383923)
  33:      1249.40    2.633680  (  0.559590   0.536978   1.425550)
  34:      1267.87    0.951328  ( -0.898030  -0.016109  -0.380277)
  35:      1356.65    4.014121  (  0.127909   0.860761   1.804675)
  36:      1401.27    8.982834  ( -0.120845  -2.696343  -1.303061)
  37:      1414.75   10.114560  (  3.033723   0.797130   0.525043)
  38:      1426.25    0.936914  ( -0.628155   0.086918   0.731287)
  39:      1436.95    6.397132  (  2.499270   0.386303  -0.039376)
  40:      1446.99    6.840503  ( -0.625757   2.364542   0.926214)
  41:      1469.10    6.565355  (  1.695390  -1.722765   0.850345)
  42:      1479.96    7.925242  (  2.242893  -0.743278   1.530428)
  43:      1481.91    4.684998  ( -2.126524   0.243883   0.321585)
  44:      1483.98    6.243059  (  1.514559  -1.978049  -0.191028)
  45:      1492.83   11.172962  ( -1.994133  -2.671103  -0.248203)
  46:      1500.55   32.021202  (  0.115211  -5.620762  -0.644175)
  47:      1509.34   44.422897  (  0.457471   0.588491  -6.623239)
  48:      1522.60   14.642755  ( -3.788803  -0.503584   0.184746)
  49:      3059.77    6.804252  ( -2.034609   0.039482   1.631889)
  50:      3089.71    0.350730  (  0.364017   0.248505   0.395559)
  51:      3100.74    0.118805  (  0.277115  -0.196042   0.059832)
  52:      3133.85    7.187321  (  0.607481   2.462451  -0.868692)
  53:      3142.34    4.245114  ( -1.429670  -0.302753  -1.452411)
  54:      3165.64    0.409891  ( -0.203161  -0.072068   0.602846)
  55:      3168.58    6.558384  ( -1.214886   1.742531   1.430392)
  56:      3186.80    0.315920  (  0.262426   0.020182   0.496634)
  57:      3190.44    0.224349  ( -0.086216   0.321421   0.337051)
  58:      3193.67    0.041997  ( -0.066478   0.161109  -0.107804)
  59:      3195.09    0.133527  ( -0.271794   0.137303  -0.201997)
  60:      3209.96    0.021459  (  0.130998   0.060951  -0.024148)
  61:      3252.39    0.088140  (  0.137073   0.086747  -0.248649)
  62:      3446.37   54.909645  ( -0.265420   5.593337  -4.853224)

--------------------------
THERMOCHEMISTRY AT 298.15K
--------------------------

Temperature         ... 298.15 K
Pressure            ... 1.00 atm
Total Mass          ... 100.18 AMU

Throughout the following assumptions are being made:
  (1) The electronic state is orbitally nondegenerate
  (2) There are no thermally accessible electronically excited states
  (3) Hindered rotations indicated by low frequency modes) are not
      treated as such but are treated as vibrations and this may
      case some error
  (4) All equations used are the standard statistical mechanics
      equations for an ideal gas
  (5) All vibrations are strinctly harmonic

------------
INNER ENERGY
------------

The inner energy is: U= E(el) + E(ZPE) + E(vib) + E(rot) + E(trans)
    E(el)   - is the total energy from the electronic structure calculation
              = E(kin-el) + E(nuc-el) + E(el-el) + E(nuc-nuc)
    E(ZPE)  - the the zero temperature vibrational energy from the frequency calculation
    E(vib)  - the the finite temperature correction to E(ZPE) due to population
              of excietd vibrational states
    E(rot)  - is the rotational thermal energy
    E(trans)- is the translational thermal energy

Summary of contributions to the inner energy U:
Electronic energy                ...   -291.29678873 Eh
Zero point energy                ...      0.19839292 Eh     124.49 kcal/mol
Thermal vibrational correction   ...      0.00489014 Eh       3.07 kcal/mol
Thermal rotational correction    ...      0.00141627 Eh       0.89 kcal/mol
Thermal translational correction ...      0.00141627 Eh       0.89 kcal/mol
-----------------------------------------------------------------------
Total thermal energy                   -291.09067312 Eh

Summary of corrections to the electronic energy:
(perhaps to be used in another calculation)
Total thermal correction                  0.00772268 Eh       4.85 kcal/mol
Non-thermal (ZPE) correction              0.19839292 Eh     124.49 kcal/mol
-----------------------------------------------------------------------
Total correction                          0.20611561 Eh     129.34 kcal/mol

--------
ENTHALPY
--------

The enthalpy is H = U + kB*T
                kB is Boltzmann's constant
Total free energy                 ...   -291.09067312 Eh
Thermal Enthalpy correction       ...      0.00094421 Eh       0.59 kcal/mol
-----------------------------------------------------------------------
Total Enthalpy                    ...   -291.08972891 Eh

-------
ENTROPY
-------

The entropy contributions are T*S = T*(S(el)+S(vib)+S(rot)+S(trans)
     S(el)   - electronic entropy
     S(vib)  - vibrational entropy
     S(rot)  - rotational entropy
     S(trans)- translational entropy
The entropies will be listed as mutliplied by the temperature to get
units of energy

Electronic entropy                ...      0.00000000 Eh      0.00 kcal/mol
Vibrational entropy               ...      0.00786830 Eh      4.94 kcal/mol
Rotational entropy                ...      0.01214686 Eh      7.62 kcal/mol
Translational entropy             ...      0.01887386 Eh     11.84 kcal/mol
-----------------------------------------------------------------------
Final entropy term                ...      0.03888903 Eh     24.40 kcal/mol

CAUTION: The rotational entropy is not quite correctly treated here
         because it includes a symmetry number that is not yet correctly
         implemented in ORCA!
For a nonlinear molecule the correct rotational entropy is:
    S(rot) = R*(ln(qrot/sn)+1.5)
    R    = 8.31441 J/mol/K = 1.987191683e-3 kcal/mol/K
    qrot = 258742.3117513
    sn is the rotational symmetry number. We have assumed 3 here
       if it is different for your molecule then you should correct
       the printed rotational entropy by manually evaluating the equation
       as given above

For convenience we print out the resulting values for sn=1 - 12:
 sn= 1  qrot/sn=  258742.3118 T*S(rot)=     8.27 kcal/mol T*S(tot)=    25.05 kcal/mol
 sn= 2  qrot/sn=  129371.1559 T*S(rot)=     7.86 kcal/mol T*S(tot)=    24.64 kcal/mol
 sn= 3  qrot/sn=   86247.4373 T*S(rot)=     7.62 kcal/mol T*S(tot)=    24.40 kcal/mol
 sn= 4  qrot/sn=   64685.5779 T*S(rot)=     7.45 kcal/mol T*S(tot)=    24.23 kcal/mol
 sn= 5  qrot/sn=   51748.4624 T*S(rot)=     7.32 kcal/mol T*S(tot)=    24.10 kcal/mol
 sn= 6  qrot/sn=   43123.7186 T*S(rot)=     7.21 kcal/mol T*S(tot)=    23.99 kcal/mol
 sn= 7  qrot/sn=   36963.1874 T*S(rot)=     7.12 kcal/mol T*S(tot)=    23.90 kcal/mol
 sn= 8  qrot/sn=   32342.7890 T*S(rot)=     7.04 kcal/mol T*S(tot)=    23.82 kcal/mol
 sn= 9  qrot/sn=   28749.1458 T*S(rot)=     6.97 kcal/mol T*S(tot)=    23.75 kcal/mol
 sn=10  qrot/sn=   25874.2312 T*S(rot)=     6.91 kcal/mol T*S(tot)=    23.69 kcal/mol
 sn=11  qrot/sn=   23522.0283 T*S(rot)=     6.85 kcal/mol T*S(tot)=    23.63 kcal/mol
 sn=12  qrot/sn=   21561.8593 T*S(rot)=     6.80 kcal/mol T*S(tot)=    23.58 kcal/mol

-------------------
GIBBS FREE ENTHALPY
-------------------

The Gibbs free enthalpy is G = H - T*S

Total enthalpy                    ...   -291.08972891 Eh
Total entropy correction          ...     -0.03888903 Eh    -24.40 kcal/mol
-----------------------------------------------------------------------
Final Gibbs free enthalpy         ...   -291.12861794 Eh

For completeness - the Gibbs free enthalpy minus the electronic energy
G-E(el)                           ...      0.16817079 Eh    105.53 kcal/mol

                             ****ORCA TERMINATED NORMALLY****
TOTAL RUN TIME: 0 days 1 hours 2 minutes 55 seconds 467 msec
