                         Program Version 3.0.3 - RELEASE   -
|  1> ! NORI PBE0 def2-TZVP UseSym TightOPT Freq TightSCF Grid3 FinalGrid5 XYZFile
|  2> % pal
|  3>     nprocs 8
|  4> end
|  5> %method
|  6>     SymThresh 5.0e-2
|  7> end
|  8> % geom
|  9>     MaxIter 10
| 10> end
| 11> % maxcore 2000
| 12> % output
| 13>     printlevel mini
| 14>     print[ P_Basis ] 0
| 15>     print[ P_SCFInfo ] 1
| 16>     print[ P_SCFIterInfo ] 1
| 17>     print[ P_OrbEn ] 0
| 18>     print[ P_Cartesian ] 0
| 19> end
| 20> % elprop
| 21>     Dipole false
| 22> end
| 23> *xyz 1 1
| 24>  C        1.0370467402     0.0719804583     0.0364966852
| 25>  C        2.5517278894     0.0619177807     0.0900993857
| 26>  C        3.1779397613    -1.0740362048     0.9541693103
| 27>  C        4.0032081640    -0.2305561407     1.9130097276
| 28>  C        4.6527227329     0.8255044255     1.0036944838
| 29>  C        3.1904448371     1.2536064854     0.8054844164
| 30>  N        2.9835958942     0.8552379189     2.2698200918
| 31>  H        0.6653599423     0.9217907903    -0.5393836660
| 32>  H        0.5732759912     0.1109707700     1.0286417543
| 33>  H        0.6693056854    -0.8375764149    -0.4415848619
| 34>  H        2.9466733346     0.0390033618    -0.9277720653
| 35>  H        3.8168579139    -1.7518589485     0.3893747938
| 36>  H        2.4248722099    -1.6751663266     1.4687276422
| 37>  H        4.5075583397    -0.6953931743     2.7563225432
| 38>  H        5.2550892687     1.5572242773     1.5440527131
| 39>  H        5.1836146168     0.4632140174     0.1268160580
| 40>  H        2.8838109155     2.2643998084     0.5467985092
| 41>  H        2.0490183568     0.5602789471     2.5534779517
| 42>  H        3.3511574062     1.5453081687     2.9232145269
| 43> *
| 44>
| 45>                          ****END OF INPUT****
 Total Charge           Charge          ....    1
 Multiplicity           Mult            ....    1
 Number of Electrons    NEL             ....   54
FINAL SINGLE POINT ENERGY      -290.103938921630
FINAL SINGLE POINT ENERGY      -290.103940619075

CARTESIAN COORDINATES (ANGSTROEM)
---------------------------------
  C      2.083706    0.000066   -0.870167
  C      0.576423   -0.157723   -0.904287
  C     -0.234022    1.149046   -0.650376
  C     -1.072443    0.695363    0.534434
  C     -1.527960   -0.719217    0.139175
  C     -0.020168   -1.003505    0.222336
  N     -0.000981   -0.000425    1.379705
  H      2.586503   -0.959988   -1.000379
  H      2.446374    0.444229    0.063666
  H      2.413189    0.658657   -1.675343
  H      0.284897   -0.618008   -1.850517
  H     -0.871810    1.437741   -1.484857
  H      0.405755    2.000385   -0.408417
  H     -1.699896    1.406709    1.065678
  H     -2.112046   -1.221371    0.911608
  H     -1.999364   -0.833408   -0.833844
  H      0.401421   -1.981518    0.442558
  H      0.868879    0.501641    1.560174
  H     -0.370654   -0.389896    2.245468

FINAL SINGLE POINT ENERGY      -290.103941341063
                    ***********************HURRAY********************
 Multiplicity           Mult            ....    1
 Number of Electrons    NEL             ....   54
 Basis Dimension        Dim             ....  289
FINAL SINGLE POINT ENERGY      -290.103941543170

VIBRATIONAL FREQUENCIES
-----------------------

   0:         0.00 cm**-1
   1:         0.00 cm**-1
   2:         0.00 cm**-1
   3:         0.00 cm**-1
   4:         0.00 cm**-1
   5:         0.00 cm**-1
   6:       188.82 cm**-1
   7:       224.25 cm**-1
   8:       294.51 cm**-1
   9:       419.35 cm**-1
  10:       468.60 cm**-1
  11:       508.12 cm**-1
  12:       627.13 cm**-1
  13:       793.08 cm**-1
  14:       809.95 cm**-1
  15:       820.81 cm**-1
  16:       863.20 cm**-1
  17:       883.21 cm**-1
  18:       910.78 cm**-1
  19:       943.90 cm**-1
  20:       966.85 cm**-1
  21:       987.64 cm**-1
  22:      1025.15 cm**-1
  23:      1035.08 cm**-1
  24:      1068.93 cm**-1
  25:      1074.93 cm**-1
  26:      1117.22 cm**-1
  27:      1129.19 cm**-1
  28:      1147.44 cm**-1
  29:      1173.13 cm**-1
  30:      1211.35 cm**-1
  31:      1249.27 cm**-1
  32:      1267.17 cm**-1
  33:      1278.44 cm**-1
  34:      1293.54 cm**-1
  35:      1313.26 cm**-1
  36:      1333.44 cm**-1
  37:      1345.96 cm**-1
  38:      1386.18 cm**-1
  39:      1424.25 cm**-1
  40:      1478.27 cm**-1
  41:      1489.70 cm**-1
  42:      1496.07 cm**-1
  43:      1505.05 cm**-1
  44:      1641.87 cm**-1
  45:      3040.32 cm**-1
  46:      3093.05 cm**-1
  47:      3099.59 cm**-1
  48:      3107.73 cm**-1
  49:      3120.21 cm**-1
  50:      3146.69 cm**-1
  51:      3155.34 cm**-1
  52:      3173.45 cm**-1
  53:      3177.25 cm**-1
  54:      3187.16 cm**-1
  55:      3453.80 cm**-1
  56:      3541.34 cm**-1

IR SPECTRUM
-----------

 Mode    freq (cm**-1)   T**2         TX         TY         TZ
-------------------------------------------------------------------
   6:       188.82    3.767122  (  1.421855  -0.607836  -1.173025)
   7:       224.25    0.560595  ( -0.456082  -0.260966   0.533367)
   8:       294.51    1.067524  (  0.632054   0.385530  -0.720693)
   9:       419.35    1.780629  (  0.387521   0.742283  -1.038976)
  10:       468.60    1.199047  (  0.963129   0.511496   0.099001)
  11:       508.12    4.725371  ( -1.618463  -0.726952   1.255981)
  12:       627.13    0.795293  (  0.210671  -0.458268   0.735459)
  13:       793.08    1.942030  ( -0.333484   1.271244   0.463418)
  14:       809.95    3.728848  ( -0.064210  -0.080840  -1.928261)
  15:       820.81    5.240909  (  0.763697   0.215034   2.147426)
  16:       863.20    2.162267  ( -1.308101  -0.283313  -0.608992)
  17:       883.21    2.870560  ( -1.239013   1.094089   0.371990)
  18:       910.78    0.837392  ( -0.018552  -0.871713  -0.277784)
  19:       943.90    0.583887  ( -0.280068   0.710286  -0.030706)
  20:       966.85    3.016722  (  1.388998  -0.631815   0.829587)
  21:       987.64    1.693696  ( -1.077014  -0.699849  -0.209635)
  22:      1025.15    1.241867  ( -0.391560   0.516013   0.906796)
  23:      1035.08    4.443810  ( -0.824359  -1.312118   1.429192)
  24:      1068.93    4.432576  (  1.327817   1.614118  -0.253180)
  25:      1074.93    6.646941  (  1.694249   1.539685  -1.185678)
  26:      1117.22    0.535541  (  0.209450   0.331260   0.618012)
  27:      1129.19    2.321831  ( -0.457799  -1.453170  -0.023428)
  28:      1147.44    3.478432  (  0.690209  -1.727739   0.130241)
  29:      1173.13   23.099156  (  2.920009  -3.653523  -1.106560)
  30:      1211.35    8.173799  ( -2.505113   0.948011   0.999741)
  31:      1249.27    4.924849  ( -1.327422   1.733428   0.397526)
  32:      1267.17   28.654379  (  1.629437  -5.097753   0.110572)
  33:      1278.44   28.577294  ( -3.093033   3.858817   2.029771)
  34:      1293.54    0.647317  ( -0.487981   0.599729   0.222523)
  35:      1313.26    3.372794  ( -1.153737   0.961692   1.056803)
  36:      1333.44   11.227401  (  2.142646  -2.413862  -0.899856)
  37:      1345.96    4.896787  ( -0.898596   1.834810   0.850166)
  38:      1386.18    5.999228  ( -1.843599   1.219610   1.054952)
  39:      1424.25    4.987707  ( -2.049570  -0.849492  -0.255599)
  40:      1478.27   12.509444  ( -0.253494  -3.071109   1.735937)
  41:      1489.70    7.966489  (  1.714943   2.137650  -0.675213)
  42:      1496.07    7.938774  (  0.879713  -2.110475  -1.646443)
  43:      1505.05   16.268999  (  2.416797   0.818914   3.123695)
  44:      1641.87   77.101701  (  2.381414   0.981985   8.394419)
  45:      3040.32   13.151287  (  1.708799   0.918530   3.063918)
  46:      3093.05    3.633618  ( -0.811564  -1.715746  -0.176627)
  47:      3099.59    1.116642  (  0.975245   0.139611  -0.382162)
  48:      3107.73    2.735623  (  1.067849   0.710672  -1.044159)
  49:      3120.21   11.713122  (  0.387739  -1.824452  -2.869522)
  50:      3146.69    2.502820  ( -0.472067   1.446933  -0.431692)
  51:      3155.34    0.996405  (  0.782092   0.612597   0.097273)
  52:      3173.45    2.256616  (  0.728674  -1.311805  -0.069396)
  53:      3177.25    1.589539  ( -0.807488   0.763015   0.596080)
  54:      3187.16    0.595564  (  0.267475   0.204540  -0.694395)
  55:      3453.80   40.844145  (  3.330003   0.712234   5.408137)
  56:      3541.34   70.214898  (  5.006193   3.672964  -5.626923)

--------------------------
THERMOCHEMISTRY AT 298.15K
--------------------------

Temperature         ... 298.15 K
Pressure            ... 1.00 atm
Total Mass          ... 98.17 AMU

Throughout the following assumptions are being made:
  (1) The electronic state is orbitally nondegenerate
  (2) There are no thermally accessible electronically excited states
  (3) Hindered rotations indicated by low frequency modes) are not
      treated as such but are treated as vibrations and this may
      case some error
  (4) All equations used are the standard statistical mechanics
      equations for an ideal gas
  (5) All vibrations are strinctly harmonic

------------
INNER ENERGY
------------

The inner energy is: U= E(el) + E(ZPE) + E(vib) + E(rot) + E(trans)
    E(el)   - is the total energy from the electronic structure calculation
              = E(kin-el) + E(nuc-el) + E(el-el) + E(nuc-nuc)
    E(ZPE)  - the the zero temperature vibrational energy from the frequency calculation
    E(vib)  - the the finite temperature correction to E(ZPE) due to population
              of excietd vibrational states
    E(rot)  - is the rotational thermal energy
    E(trans)- is the translational thermal energy

Summary of contributions to the inner energy U:
Electronic energy                ...   -290.10394154 Eh
Zero point energy                ...      0.17881575 Eh     112.21 kcal/mol
Thermal vibrational correction   ...      0.00329850 Eh       2.07 kcal/mol
Thermal rotational correction    ...      0.00141627 Eh       0.89 kcal/mol
Thermal translational correction ...      0.00141627 Eh       0.89 kcal/mol
-----------------------------------------------------------------------
Total thermal energy                   -289.91899475 Eh

Summary of corrections to the electronic energy:
(perhaps to be used in another calculation)
Total thermal correction                  0.00613104 Eh       3.85 kcal/mol
Non-thermal (ZPE) correction              0.17881575 Eh     112.21 kcal/mol
-----------------------------------------------------------------------
Total correction                          0.18494680 Eh     116.06 kcal/mol

--------
ENTHALPY
--------

The enthalpy is H = U + kB*T
                kB is Boltzmann's constant
Total free energy                 ...   -289.91899475 Eh
Thermal Enthalpy correction       ...      0.00094421 Eh       0.59 kcal/mol
-----------------------------------------------------------------------
Total Enthalpy                    ...   -289.91805054 Eh

-------
ENTROPY
-------

The entropy contributions are T*S = T*(S(el)+S(vib)+S(rot)+S(trans)
     S(el)   - electronic entropy
     S(vib)  - vibrational entropy
     S(rot)  - rotational entropy
     S(trans)- translational entropy
The entropies will be listed as mutliplied by the temperature to get
units of energy

Electronic entropy                ...      0.00000000 Eh      0.00 kcal/mol
Vibrational entropy               ...      0.00499042 Eh      3.13 kcal/mol
Rotational entropy                ...      0.01172613 Eh      7.36 kcal/mol
Translational entropy             ...      0.01884507 Eh     11.83 kcal/mol
-----------------------------------------------------------------------
Final entropy term                ...      0.03556162 Eh     22.32 kcal/mol

CAUTION: The rotational entropy is not quite correctly treated here
         because it includes a symmetry number that is not yet correctly
         implemented in ORCA!
For a nonlinear molecule the correct rotational entropy is:
    S(rot) = R*(ln(qrot/sn)+1.5)
    R    = 8.31441 J/mol/K = 1.987191683e-3 kcal/mol/K
    qrot = 165707.3587213
    sn is the rotational symmetry number. We have assumed 3 here
       if it is different for your molecule then you should correct
       the printed rotational entropy by manually evaluating the equation
       as given above

For convenience we print out the resulting values for sn=1 - 12:
 sn= 1  qrot/sn=  165707.3587 T*S(rot)=     8.01 kcal/mol T*S(tot)=    22.97 kcal/mol
 sn= 2  qrot/sn=   82853.6794 T*S(rot)=     7.60 kcal/mol T*S(tot)=    22.56 kcal/mol
 sn= 3  qrot/sn=   55235.7862 T*S(rot)=     7.36 kcal/mol T*S(tot)=    22.32 kcal/mol
 sn= 4  qrot/sn=   41426.8397 T*S(rot)=     7.19 kcal/mol T*S(tot)=    22.14 kcal/mol
 sn= 5  qrot/sn=   33141.4717 T*S(rot)=     7.06 kcal/mol T*S(tot)=    22.01 kcal/mol
 sn= 6  qrot/sn=   27617.8931 T*S(rot)=     6.95 kcal/mol T*S(tot)=    21.90 kcal/mol
 sn= 7  qrot/sn=   23672.4798 T*S(rot)=     6.86 kcal/mol T*S(tot)=    21.81 kcal/mol
 sn= 8  qrot/sn=   20713.4198 T*S(rot)=     6.78 kcal/mol T*S(tot)=    21.73 kcal/mol
 sn= 9  qrot/sn=   18411.9287 T*S(rot)=     6.71 kcal/mol T*S(tot)=    21.66 kcal/mol
 sn=10  qrot/sn=   16570.7359 T*S(rot)=     6.64 kcal/mol T*S(tot)=    21.60 kcal/mol
 sn=11  qrot/sn=   15064.3053 T*S(rot)=     6.59 kcal/mol T*S(tot)=    21.55 kcal/mol
 sn=12  qrot/sn=   13808.9466 T*S(rot)=     6.54 kcal/mol T*S(tot)=    21.49 kcal/mol

-------------------
GIBBS FREE ENTHALPY
-------------------

The Gibbs free enthalpy is G = H - T*S

Total enthalpy                    ...   -289.91805054 Eh
Total entropy correction          ...     -0.03556162 Eh    -22.32 kcal/mol
-----------------------------------------------------------------------
Final Gibbs free enthalpy         ...   -289.95361216 Eh

For completeness - the Gibbs free enthalpy minus the electronic energy
G-E(el)                           ...      0.15032939 Eh     94.33 kcal/mol

                             ****ORCA TERMINATED NORMALLY****
TOTAL RUN TIME: 0 days 0 hours 55 minutes 22 seconds 909 msec
