                         Program Version 3.0.3 - RELEASE   -
|  1> ! NORI PBE0 def2-TZVP UseSym TightOPT Freq TightSCF Grid3 FinalGrid5 XYZFile
|  2> % pal
|  3>     nprocs 8
|  4> end
|  5> %method
|  6>     SymThresh 5.0e-2
|  7> end
|  8> % geom
|  9>     MaxIter 10
| 10> end
| 11> % maxcore 2000
| 12> % output
| 13>     printlevel mini
| 14>     print[ P_Basis ] 0
| 15>     print[ P_SCFInfo ] 1
| 16>     print[ P_SCFIterInfo ] 1
| 17>     print[ P_OrbEn ] 0
| 18>     print[ P_Cartesian ] 0
| 19> end
| 20> % elprop
| 21>     Dipole false
| 22> end
| 23> *xyz 1 1
| 24>  C        1.0173705519     0.0007458480    -0.0672869723
| 25>  C        2.3369934506    -0.0332775936    -0.0982180125
| 26>  C        3.3099073066    -1.2027190789    -0.0532734749
| 27>  C        4.6048662958    -0.4001288026    -0.1317155370
| 28>  C        4.3224387311     0.6426121406    -1.2270139965
| 29>  C        3.2757439641     1.1312329821    -0.2027160422
| 30>  N        4.3061014188     0.7233842662     0.8696097541
| 31>  H        0.4745273390     0.9383771866    -0.1020733817
| 32>  H        0.4302473521    -0.9091421777    -0.0183852596
| 33>  H        3.2317767496    -1.8036945625     0.8557127168
| 34>  H        3.2227076167    -1.8741911625    -0.9093350523
| 35>  H        5.5619239730    -0.8988436474    -0.0050403271
| 36>  H        5.1416303484     1.3468192414    -1.3802583039
| 37>  H        3.9430819671     0.2753140626    -2.1767747728
| 38>  H        2.9003537277     2.1490925293    -0.1455966690
| 39>  H        3.9492637068     0.4679543620     1.7912914524
| 40>  H        5.0752055007     1.3871644064     0.9545038784
| 41> *
| 42>
| 43>                          ****END OF INPUT****
 Total Charge           Charge          ....    1
 Multiplicity           Mult            ....    1
 Number of Electrons    NEL             ....   52
FINAL SINGLE POINT ENERGY      -288.868903645583

CARTESIAN COORDINATES (ANGSTROEM)
---------------------------------
  C      1.755847    0.000132   -1.526884
  C      0.724111    0.092777   -0.707980
  C     -0.302006    1.199411   -0.510928
  C     -1.119527    0.532611    0.591384
  C     -1.274058   -0.918272    0.104055
  C      0.258599   -0.925701    0.289402
  N     -0.000058   -0.000147    1.495224
  H      2.398730   -0.872477   -1.530692
  H      1.988521    0.788670   -2.232979
  H      0.134456    2.152768   -0.204494
  H     -0.921217    1.380209   -1.391063
  H     -1.905799    1.087193    1.096100
  H     -1.799662   -1.561950    0.811039
  H     -1.645535   -1.066319   -0.906494
  H      0.849484   -1.815916    0.485446
  H      0.748210    0.638985    1.766449
  H     -0.357606   -0.499013    2.309093

FINAL SINGLE POINT ENERGY      -288.868904119672
                    ***********************HURRAY********************
 Multiplicity           Mult            ....    1
 Number of Electrons    NEL             ....   52
 Basis Dimension        Dim             ....  277
FINAL SINGLE POINT ENERGY      -288.868904226290

VIBRATIONAL FREQUENCIES
-----------------------

   0:         0.00 cm**-1
   1:         0.00 cm**-1
   2:         0.00 cm**-1
   3:         0.00 cm**-1
   4:         0.00 cm**-1
   5:         0.00 cm**-1
   6:       154.74 cm**-1
   7:       345.40 cm**-1
   8:       399.67 cm**-1
   9:       485.02 cm**-1
  10:       562.79 cm**-1
  11:       587.60 cm**-1
  12:       721.09 cm**-1
  13:       780.25 cm**-1
  14:       798.05 cm**-1
  15:       835.64 cm**-1
  16:       862.36 cm**-1
  17:       885.15 cm**-1
  18:       932.04 cm**-1
  19:       945.71 cm**-1
  20:       973.21 cm**-1
  21:       990.40 cm**-1
  22:      1013.17 cm**-1
  23:      1033.41 cm**-1
  24:      1074.87 cm**-1
  25:      1085.17 cm**-1
  26:      1119.60 cm**-1
  27:      1130.66 cm**-1
  28:      1182.43 cm**-1
  29:      1235.64 cm**-1
  30:      1247.82 cm**-1
  31:      1261.48 cm**-1
  32:      1282.32 cm**-1
  33:      1297.56 cm**-1
  34:      1325.05 cm**-1
  35:      1345.26 cm**-1
  36:      1455.86 cm**-1
  37:      1475.38 cm**-1
  38:      1500.10 cm**-1
  39:      1640.21 cm**-1
  40:      1776.70 cm**-1
  41:      3088.02 cm**-1
  42:      3106.85 cm**-1
  43:      3138.24 cm**-1
  44:      3169.33 cm**-1
  45:      3184.93 cm**-1
  46:      3189.04 cm**-1
  47:      3192.01 cm**-1
  48:      3259.38 cm**-1
  49:      3448.73 cm**-1
  50:      3538.84 cm**-1

IR SPECTRUM
-----------

 Mode    freq (cm**-1)   T**2         TX         TY         TZ
-------------------------------------------------------------------
   6:       154.74    2.727691  (  1.623329   0.236467  -0.191256)
   7:       345.40    0.342937  (  0.521812  -0.040904  -0.262633)
   8:       399.67    2.690097  ( -0.877063  -1.355816   0.287436)
   9:       485.02    3.193016  ( -1.250783  -1.272666  -0.094232)
  10:       562.79   12.197535  (  1.300349   1.152472   3.029593)
  11:       587.60    0.510038  ( -0.600397   0.185700   0.339231)
  12:       721.09    1.208555  (  0.984079  -0.397098  -0.287150)
  13:       780.25    2.977443  (  0.372991  -1.308221  -1.061546)
  14:       798.05   12.563789  (  0.325142   0.125016  -3.527385)
  15:       835.64    1.421917  ( -1.085693   0.295994  -0.394430)
  16:       862.36    1.643515  ( -0.785869  -0.842786  -0.561816)
  17:       885.15    2.604515  (  1.263084  -1.003417   0.047831)
  18:       932.04    3.567762  (  0.271058   1.208315   1.426276)
  19:       945.71    2.184543  (  0.857217   1.027033   0.628431)
  20:       973.21    0.803478  ( -0.431170  -0.661948   0.423551)
  21:       990.40   23.991462  (  2.868785   1.948540   3.459006)
  22:      1013.17   12.560331  ( -1.797618  -1.245030  -2.789050)
  23:      1033.41    9.871549  (  1.933204   2.388380  -0.655677)
  24:      1074.87    6.874080  ( -1.428879  -1.940297   1.033264)
  25:      1085.17    2.729818  (  0.934233  -1.148804  -0.732990)
  26:      1119.60    3.654704  (  0.822032  -1.724933   0.059772)
  27:      1130.66    7.600173  ( -1.176860   2.341073   0.857061)
  28:      1182.43   18.667225  ( -3.873628   1.835337   0.542004)
  29:      1235.64    8.704852  ( -2.472467   1.196114   1.077531)
  30:      1247.82    6.463384  ( -1.107162   2.281993  -0.173450)
  31:      1261.48   43.105536  ( -4.006529   5.183485   0.429822)
  32:      1282.32   12.330369  (  2.787040  -0.895115  -1.939471)
  33:      1297.56    3.834383  ( -1.031080  -0.224293   1.649530)
  34:      1325.05   10.317027  (  2.219311  -2.316634  -0.157774)
  35:      1345.26    4.423030  (  0.705626  -1.977549  -0.120094)
  36:      1455.86    9.922456  ( -2.408312   0.590615   1.942592)
  37:      1475.38   13.526133  ( -0.798544  -3.132887   1.753135)
  38:      1500.10   14.056940  (  2.401144   1.305452   2.566563)
  39:      1640.21   70.651653  (  2.167015   0.786021   8.083185)
  40:      1776.70    2.267820  (  1.335912  -0.233403  -0.654739)
  41:      3088.02    1.192921  (  0.097917   0.961025   0.509672)
  42:      3106.85    2.197830  (  0.692029   0.789409  -1.046785)
  43:      3138.24    0.432861  ( -0.091162  -0.477754   0.443059)
  44:      3169.33    0.782899  ( -0.623272  -0.095880   0.620675)
  45:      3184.93    1.040010  ( -0.752187   0.557310   0.404512)
  46:      3189.04    0.299173  (  0.182366  -0.484204   0.177377)
  47:      3192.01    0.246666  (  0.300653   0.349964  -0.183846)
  48:      3259.38    0.185999  ( -0.097060  -0.329802   0.260401)
  49:      3448.73   55.832238  (  2.268694   1.172540   7.022138)
  50:      3538.84   65.230677  ( -4.711332  -5.152466   4.060311)

--------------------------
THERMOCHEMISTRY AT 298.15K
--------------------------

Temperature         ... 298.15 K
Pressure            ... 1.00 atm
Total Mass          ... 96.15 AMU

Throughout the following assumptions are being made:
  (1) The electronic state is orbitally nondegenerate
  (2) There are no thermally accessible electronically excited states
  (3) Hindered rotations indicated by low frequency modes) are not
      treated as such but are treated as vibrations and this may
      case some error
  (4) All equations used are the standard statistical mechanics
      equations for an ideal gas
  (5) All vibrations are strinctly harmonic

------------
INNER ENERGY
------------

The inner energy is: U= E(el) + E(ZPE) + E(vib) + E(rot) + E(trans)
    E(el)   - is the total energy from the electronic structure calculation
              = E(kin-el) + E(nuc-el) + E(el-el) + E(nuc-nuc)
    E(ZPE)  - the the zero temperature vibrational energy from the frequency calculation
    E(vib)  - the the finite temperature correction to E(ZPE) due to population
              of excietd vibrational states
    E(rot)  - is the rotational thermal energy
    E(trans)- is the translational thermal energy

Summary of contributions to the inner energy U:
Electronic energy                ...   -288.86890423 Eh
Zero point energy                ...      0.15504566 Eh      97.29 kcal/mol
Thermal vibrational correction   ...      0.00281265 Eh       1.76 kcal/mol
Thermal rotational correction    ...      0.00141627 Eh       0.89 kcal/mol
Thermal translational correction ...      0.00141627 Eh       0.89 kcal/mol
-----------------------------------------------------------------------
Total thermal energy                   -288.70821338 Eh

Summary of corrections to the electronic energy:
(perhaps to be used in another calculation)
Total thermal correction                  0.00564519 Eh       3.54 kcal/mol
Non-thermal (ZPE) correction              0.15504566 Eh      97.29 kcal/mol
-----------------------------------------------------------------------
Total correction                          0.16069085 Eh     100.83 kcal/mol

--------
ENTHALPY
--------

The enthalpy is H = U + kB*T
                kB is Boltzmann's constant
Total free energy                 ...   -288.70821338 Eh
Thermal Enthalpy correction       ...      0.00094421 Eh       0.59 kcal/mol
-----------------------------------------------------------------------
Total Enthalpy                    ...   -288.70726917 Eh

-------
ENTROPY
-------

The entropy contributions are T*S = T*(S(el)+S(vib)+S(rot)+S(trans)
     S(el)   - electronic entropy
     S(vib)  - vibrational entropy
     S(rot)  - rotational entropy
     S(trans)- translational entropy
The entropies will be listed as mutliplied by the temperature to get
units of energy

Electronic entropy                ...      0.00000000 Eh      0.00 kcal/mol
Vibrational entropy               ...      0.00418815 Eh      2.63 kcal/mol
Rotational entropy                ...      0.01167235 Eh      7.32 kcal/mol
Translational entropy             ...      0.01881568 Eh     11.81 kcal/mol
-----------------------------------------------------------------------
Final entropy term                ...      0.03467618 Eh     21.76 kcal/mol

CAUTION: The rotational entropy is not quite correctly treated here
         because it includes a symmetry number that is not yet correctly
         implemented in ORCA!
For a nonlinear molecule the correct rotational entropy is:
    S(rot) = R*(ln(qrot/sn)+1.5)
    R    = 8.31441 J/mol/K = 1.987191683e-3 kcal/mol/K
    qrot = 156532.0212584
    sn is the rotational symmetry number. We have assumed 3 here
       if it is different for your molecule then you should correct
       the printed rotational entropy by manually evaluating the equation
       as given above

For convenience we print out the resulting values for sn=1 - 12:
 sn= 1  qrot/sn=  156532.0213 T*S(rot)=     7.98 kcal/mol T*S(tot)=    22.41 kcal/mol
 sn= 2  qrot/sn=   78266.0106 T*S(rot)=     7.56 kcal/mol T*S(tot)=    22.00 kcal/mol
 sn= 3  qrot/sn=   52177.3404 T*S(rot)=     7.32 kcal/mol T*S(tot)=    21.76 kcal/mol
 sn= 4  qrot/sn=   39133.0053 T*S(rot)=     7.15 kcal/mol T*S(tot)=    21.59 kcal/mol
 sn= 5  qrot/sn=   31306.4043 T*S(rot)=     7.02 kcal/mol T*S(tot)=    21.46 kcal/mol
 sn= 6  qrot/sn=   26088.6702 T*S(rot)=     6.91 kcal/mol T*S(tot)=    21.35 kcal/mol
 sn= 7  qrot/sn=   22361.7173 T*S(rot)=     6.82 kcal/mol T*S(tot)=    21.26 kcal/mol
 sn= 8  qrot/sn=   19566.5027 T*S(rot)=     6.74 kcal/mol T*S(tot)=    21.18 kcal/mol
 sn= 9  qrot/sn=   17392.4468 T*S(rot)=     6.67 kcal/mol T*S(tot)=    21.11 kcal/mol
 sn=10  qrot/sn=   15653.2021 T*S(rot)=     6.61 kcal/mol T*S(tot)=    21.05 kcal/mol
 sn=11  qrot/sn=   14230.1838 T*S(rot)=     6.55 kcal/mol T*S(tot)=    20.99 kcal/mol
 sn=12  qrot/sn=   13044.3351 T*S(rot)=     6.50 kcal/mol T*S(tot)=    20.94 kcal/mol

-------------------
GIBBS FREE ENTHALPY
-------------------

The Gibbs free enthalpy is G = H - T*S

Total enthalpy                    ...   -288.70726917 Eh
Total entropy correction          ...     -0.03467618 Eh    -21.76 kcal/mol
-----------------------------------------------------------------------
Final Gibbs free enthalpy         ...   -288.74194535 Eh

For completeness - the Gibbs free enthalpy minus the electronic energy
G-E(el)                           ...      0.12695888 Eh     79.67 kcal/mol

                             ****ORCA TERMINATED NORMALLY****
TOTAL RUN TIME: 0 days 0 hours 46 minutes 26 seconds 971 msec
