                         Program Version 3.0.3 - RELEASE   -
|  1> ! NORI PBE0 def2-TZVP UseSym TightOPT Freq TightSCF Grid3 FinalGrid5 XYZFile
|  2> % pal
|  3>     nprocs 8
|  4> end
|  5> %method
|  6>     SymThresh 5.0e-2
|  7> end
|  8> % geom
|  9>     MaxIter 10
| 10> end
| 11> % maxcore 2000
| 12> % output
| 13>     printlevel mini
| 14>     print[ P_Basis ] 0
| 15>     print[ P_SCFInfo ] 1
| 16>     print[ P_SCFIterInfo ] 1
| 17>     print[ P_OrbEn ] 0
| 18>     print[ P_Cartesian ] 0
| 19> end
| 20> % elprop
| 21>     Dipole false
| 22> end
| 23> *xyz 1 1
| 24>  C        1.1147938745    -0.0756264619     0.0289193898
| 25>  C        2.5720479827    -0.3084022746    -0.0262650886
| 26>  C        3.3179056449    -1.3446320886    -0.4201491922
| 27>  C        4.7389882413    -0.8512211298    -0.2276856522
| 28>  C        4.6616766064     0.5943910346    -0.7777322371
| 29>  C        3.6384865309     0.7136428686     0.3776239976
| 30>  N        4.5830548876    -0.2079620407     1.1657029934
| 31>  H        0.5666776786    -0.9496528742    -0.3211128126
| 32>  H        0.8364935531     0.7782168996    -0.5968909117
| 33>  H        0.7868280799     0.1578765123     1.0460161466
| 34>  H        3.0328829466    -2.3136176683    -0.8014125542
| 35>  H        5.5908602581    -1.5129050287    -0.3546314686
| 36>  H        4.2722700163     0.7060431498    -1.7846048127
| 37>  H        5.5710071364     1.1839527836    -0.6342903594
| 38>  H        3.3629829651     1.6459365365     0.8633529265
| 39>  H        5.4255298932     0.2580175232     1.5084159077
| 40>  H        4.1592437044    -0.7902277414     1.8894937276
| 41> *
| 42>
| 43>                          ****END OF INPUT****
 Total Charge           Charge          ....    1
 Multiplicity           Mult            ....    1
 Number of Electrons    NEL             ....   52
FINAL SINGLE POINT ENERGY      -288.857265131630

CARTESIAN COORDINATES (ANGSTROEM)
---------------------------------
  C      1.739245    0.000071   -1.671444
  C      0.631224    0.155867   -0.707733
  C     -0.245814    1.136445   -0.473704
  C     -1.111045    0.579138    0.640177
  C     -1.340413   -0.881208    0.178394
  C      0.201786   -0.902665    0.312367
  N      0.000067   -0.000057    1.540110
  H      1.839511    0.886295   -2.296925
  H      1.566066   -0.862752   -2.322369
  H      2.690207   -0.175951   -1.160199
  H     -0.363300    2.103123   -0.940111
  H     -1.857393    1.191125    1.138206
  H     -1.742760   -1.012481   -0.821046
  H     -1.862417   -1.510121    0.904233
  H      0.794675   -1.799860    0.469364
  H     -0.344779   -0.494602    2.365352
  H      0.766748    0.631093    1.777819

FINAL SINGLE POINT ENERGY      -288.857265365082
                    ***********************HURRAY********************
 Multiplicity           Mult            ....    1
 Number of Electrons    NEL             ....   52
 Basis Dimension        Dim             ....  277
FINAL SINGLE POINT ENERGY      -288.857265429578

VIBRATIONAL FREQUENCIES
-----------------------

   0:         0.00 cm**-1
   1:         0.00 cm**-1
   2:         0.00 cm**-1
   3:         0.00 cm**-1
   4:         0.00 cm**-1
   5:         0.00 cm**-1
   6:       168.36 cm**-1
   7:       198.73 cm**-1
   8:       306.24 cm**-1
   9:       498.27 cm**-1
  10:       507.40 cm**-1
  11:       578.93 cm**-1
  12:       602.53 cm**-1
  13:       749.41 cm**-1
  14:       788.61 cm**-1
  15:       824.61 cm**-1
  16:       845.91 cm**-1
  17:       875.93 cm**-1
  18:       907.20 cm**-1
  19:       964.30 cm**-1
  20:       995.38 cm**-1
  21:      1000.92 cm**-1
  22:      1021.26 cm**-1
  23:      1059.67 cm**-1
  24:      1088.17 cm**-1
  25:      1094.92 cm**-1
  26:      1131.23 cm**-1
  27:      1146.38 cm**-1
  28:      1217.10 cm**-1
  29:      1239.00 cm**-1
  30:      1256.87 cm**-1
  31:      1271.11 cm**-1
  32:      1274.72 cm**-1
  33:      1300.05 cm**-1
  34:      1346.08 cm**-1
  35:      1415.30 cm**-1
  36:      1463.51 cm**-1
  37:      1467.87 cm**-1
  38:      1498.49 cm**-1
  39:      1619.79 cm**-1
  40:      1701.42 cm**-1
  41:      3049.51 cm**-1
  42:      3090.03 cm**-1
  43:      3107.34 cm**-1
  44:      3160.65 cm**-1
  45:      3182.86 cm**-1
  46:      3191.21 cm**-1
  47:      3203.80 cm**-1
  48:      3266.69 cm**-1
  49:      3425.74 cm**-1
  50:      3521.57 cm**-1

IR SPECTRUM
-----------

 Mode    freq (cm**-1)   T**2         TX         TY         TZ
-------------------------------------------------------------------
   6:       168.36    0.571389  ( -0.631911   0.038857  -0.412999)
   7:       198.73    4.544233  ( -1.900495  -0.912213  -0.316573)
   8:       306.24    2.337284  (  1.210657  -0.804679  -0.473377)
   9:       498.27    0.424347  ( -0.250698  -0.375014  -0.469960)
  10:       507.40    5.554309  ( -1.343738  -1.354670   1.383310)
  11:       578.93   10.093315  (  2.064889   1.002983   2.196264)
  12:       602.53    0.350255  (  0.158794  -0.345560   0.453462)
  13:       749.41    4.335840  (  1.017174   1.578167  -0.900325)
  14:       788.61    1.188626  (  0.762442  -0.003158  -0.779293)
  15:       824.61   14.443541  ( -1.651761  -1.241831  -3.189527)
  16:       845.91   19.186742  ( -2.702699  -1.489986  -3.108392)
  17:       875.93    0.808086  (  0.719703  -0.511345   0.169234)
  18:       907.20    0.941807  ( -0.035920  -0.471113   0.847685)
  19:       964.30    2.742861  (  0.436422   0.280758   1.572759)
  20:       995.38    7.748681  (  0.235939   2.596901   0.974226)
  21:      1000.92   10.249850  ( -3.160215  -0.256082  -0.444196)
  22:      1021.26    4.145292  (  0.081409  -1.810368   0.928025)
  23:      1059.67    0.840126  (  0.208910  -0.461611  -0.763805)
  24:      1088.17    6.330697  (  1.552448   1.507408  -1.283869)
  25:      1094.92    2.058762  ( -1.374492  -0.298540   0.283560)
  26:      1131.23    0.857053  (  0.156091   0.909771  -0.070747)
  27:      1146.38   12.559389  (  2.267050  -2.683771  -0.466093)
  28:      1217.10    1.436006  (  0.655160  -1.002115  -0.050381)
  29:      1239.00    1.137046  ( -0.123228  -0.906714   0.547477)
  30:      1256.87    9.750567  ( -1.985308   2.343641   0.562557)
  31:      1271.11   48.006605  (  3.769862  -5.801698  -0.367491)
  32:      1274.72   14.144527  (  3.161450  -1.494384  -1.384404)
  33:      1300.05    3.138312  (  0.445546  -1.248447  -1.175237)
  34:      1346.08   31.919025  ( -4.230339   3.325277   1.722146)
  35:      1415.30    7.640560  ( -2.065546   0.645182   1.719831)
  36:      1463.51   14.999728  (  2.505883   1.291059   2.655833)
  37:      1467.87   22.524366  (  2.348189  -4.124248   0.030881)
  38:      1498.49   14.315609  (  2.487010   1.778423   2.228812)
  39:      1619.79   73.090740  (  2.251143   1.051361   8.180326)
  40:      1701.42   17.719912  ( -3.495745   1.055473   2.094196)
  41:      3049.51    0.212859  (  0.293886  -0.329307   0.134340)
  42:      3090.03    9.334262  (  1.759436   1.786535  -1.745548)
  43:      3107.34    0.777061  (  0.762612   0.147236   0.416899)
  44:      3160.65    1.111842  ( -0.396589  -0.536670   0.816422)
  45:      3182.86    0.667363  ( -0.531368   0.595209   0.175319)
  46:      3191.21    0.824489  ( -0.680600   0.552996   0.235516)
  47:      3203.80    0.599503  ( -0.622932  -0.442535   0.124985)
  48:      3266.69    7.595905  ( -1.112603   2.477943  -0.466710)
  49:      3425.74   37.447872  ( -2.189775  -0.876645  -5.646614)
  50:      3521.57   50.047576  ( -4.818095  -4.815592   1.908825)

--------------------------
THERMOCHEMISTRY AT 298.15K
--------------------------

Temperature         ... 298.15 K
Pressure            ... 1.00 atm
Total Mass          ... 96.15 AMU

Throughout the following assumptions are being made:
  (1) The electronic state is orbitally nondegenerate
  (2) There are no thermally accessible electronically excited states
  (3) Hindered rotations indicated by low frequency modes) are not
      treated as such but are treated as vibrations and this may
      case some error
  (4) All equations used are the standard statistical mechanics
      equations for an ideal gas
  (5) All vibrations are strinctly harmonic

------------
INNER ENERGY
------------

The inner energy is: U= E(el) + E(ZPE) + E(vib) + E(rot) + E(trans)
    E(el)   - is the total energy from the electronic structure calculation
              = E(kin-el) + E(nuc-el) + E(el-el) + E(nuc-nuc)
    E(ZPE)  - the the zero temperature vibrational energy from the frequency calculation
    E(vib)  - the the finite temperature correction to E(ZPE) due to population
              of excietd vibrational states
    E(rot)  - is the rotational thermal energy
    E(trans)- is the translational thermal energy

Summary of contributions to the inner energy U:
Electronic energy                ...   -288.85726543 Eh
Zero point energy                ...      0.15406123 Eh      96.67 kcal/mol
Thermal vibrational correction   ...      0.00317853 Eh       1.99 kcal/mol
Thermal rotational correction    ...      0.00141627 Eh       0.89 kcal/mol
Thermal translational correction ...      0.00141627 Eh       0.89 kcal/mol
-----------------------------------------------------------------------
Total thermal energy                   -288.69719313 Eh

Summary of corrections to the electronic energy:
(perhaps to be used in another calculation)
Total thermal correction                  0.00601107 Eh       3.77 kcal/mol
Non-thermal (ZPE) correction              0.15406123 Eh      96.67 kcal/mol
-----------------------------------------------------------------------
Total correction                          0.16007230 Eh     100.45 kcal/mol

--------
ENTHALPY
--------

The enthalpy is H = U + kB*T
                kB is Boltzmann's constant
Total free energy                 ...   -288.69719313 Eh
Thermal Enthalpy correction       ...      0.00094421 Eh       0.59 kcal/mol
-----------------------------------------------------------------------
Total Enthalpy                    ...   -288.69624892 Eh

-------
ENTROPY
-------

The entropy contributions are T*S = T*(S(el)+S(vib)+S(rot)+S(trans)
     S(el)   - electronic entropy
     S(vib)  - vibrational entropy
     S(rot)  - rotational entropy
     S(trans)- translational entropy
The entropies will be listed as mutliplied by the temperature to get
units of energy

Electronic entropy                ...      0.00000000 Eh      0.00 kcal/mol
Vibrational entropy               ...      0.00490017 Eh      3.07 kcal/mol
Rotational entropy                ...      0.01170271 Eh      7.34 kcal/mol
Translational entropy             ...      0.01881568 Eh     11.81 kcal/mol
-----------------------------------------------------------------------
Final entropy term                ...      0.03541856 Eh     22.23 kcal/mol

CAUTION: The rotational entropy is not quite correctly treated here
         because it includes a symmetry number that is not yet correctly
         implemented in ORCA!
For a nonlinear molecule the correct rotational entropy is:
    S(rot) = R*(ln(qrot/sn)+1.5)
    R    = 8.31441 J/mol/K = 1.987191683e-3 kcal/mol/K
    qrot = 161648.1024350
    sn is the rotational symmetry number. We have assumed 3 here
       if it is different for your molecule then you should correct
       the printed rotational entropy by manually evaluating the equation
       as given above

For convenience we print out the resulting values for sn=1 - 12:
 sn= 1  qrot/sn=  161648.1024 T*S(rot)=     7.99 kcal/mol T*S(tot)=    22.88 kcal/mol
 sn= 2  qrot/sn=   80824.0512 T*S(rot)=     7.58 kcal/mol T*S(tot)=    22.47 kcal/mol
 sn= 3  qrot/sn=   53882.7008 T*S(rot)=     7.34 kcal/mol T*S(tot)=    22.23 kcal/mol
 sn= 4  qrot/sn=   40412.0256 T*S(rot)=     7.17 kcal/mol T*S(tot)=    22.05 kcal/mol
 sn= 5  qrot/sn=   32329.6205 T*S(rot)=     7.04 kcal/mol T*S(tot)=    21.92 kcal/mol
 sn= 6  qrot/sn=   26941.3504 T*S(rot)=     6.93 kcal/mol T*S(tot)=    21.81 kcal/mol
 sn= 7  qrot/sn=   23092.5861 T*S(rot)=     6.84 kcal/mol T*S(tot)=    21.72 kcal/mol
 sn= 8  qrot/sn=   20206.0128 T*S(rot)=     6.76 kcal/mol T*S(tot)=    21.64 kcal/mol
 sn= 9  qrot/sn=   17960.9003 T*S(rot)=     6.69 kcal/mol T*S(tot)=    21.57 kcal/mol
 sn=10  qrot/sn=   16164.8102 T*S(rot)=     6.63 kcal/mol T*S(tot)=    21.51 kcal/mol
 sn=11  qrot/sn=   14695.2820 T*S(rot)=     6.57 kcal/mol T*S(tot)=    21.46 kcal/mol
 sn=12  qrot/sn=   13470.6752 T*S(rot)=     6.52 kcal/mol T*S(tot)=    21.40 kcal/mol

-------------------
GIBBS FREE ENTHALPY
-------------------

The Gibbs free enthalpy is G = H - T*S

Total enthalpy                    ...   -288.69624892 Eh
Total entropy correction          ...     -0.03541856 Eh    -22.23 kcal/mol
-----------------------------------------------------------------------
Final Gibbs free enthalpy         ...   -288.73166748 Eh

For completeness - the Gibbs free enthalpy minus the electronic energy
G-E(el)                           ...      0.12559795 Eh     78.81 kcal/mol

                             ****ORCA TERMINATED NORMALLY****
TOTAL RUN TIME: 0 days 1 hours 0 minutes 29 seconds 258 msec
