                         Program Version 3.0.3 - RELEASE   -
|  1> ! NORI PBE0 def2-TZVP UseSym TightOPT Freq TightSCF Grid3 FinalGrid5 XYZFile
|  2> % pal
|  3>     nprocs 8
|  4> end
|  5> %method
|  6>     SymThresh 5.0e-2
|  7> end
|  8> % geom
|  9>     MaxIter 10
| 10> end
| 11> % maxcore 2000
| 12> % output
| 13>     printlevel mini
| 14>     print[ P_Basis ] 0
| 15>     print[ P_SCFInfo ] 1
| 16>     print[ P_SCFIterInfo ] 1
| 17>     print[ P_OrbEn ] 0
| 18>     print[ P_Cartesian ] 0
| 19> end
| 20> % elprop
| 21>     Dipole false
| 22> end
| 23> *xyz 1 1
| 24>  C        0.9941299740     0.0677806695     0.4215315229
| 25>  C        2.4462402837    -0.0746129869     0.0267774178
| 26>  C        2.8019718943    -1.4622916342    -0.5151682462
| 27>  C        2.5797992306    -1.3893424583    -2.0163901764
| 28>  C        3.6786657827    -0.7750987938    -2.8254624332
| 29>  C        2.5163512979     0.0545464508    -2.4040141415
| 30>  N        2.7188787852     0.8484416461    -1.1626227194
| 31>  H        0.7509377998     1.0887066437     0.7266322804
| 32>  H        0.7913156993    -0.5824006229     1.2730024253
| 33>  H        0.3280675715    -0.2312785350    -0.3921275321
| 34>  H        3.1022212201     0.2491760731     0.8366897215
| 35>  H        3.8330110259    -1.7315886988    -0.2785454669
| 36>  H        2.1589600962    -2.2106284532    -0.0532054802
| 37>  H        1.9150008505    -2.0995687688    -2.4890771423
| 38>  H        4.6400522528    -0.6120183457    -2.3482432614
| 39>  H        3.7387941426    -1.0116534250    -3.8799933980
| 40>  H        1.8183667326     0.4890593552    -3.1057647264
| 41>  H        2.0867519322     1.6487584921    -1.1361112450
| 42>  H        3.6678534281     1.2228833921    -1.1246973990
| 43> *
| 44>
| 45>                          ****END OF INPUT****
 Total Charge           Charge          ....    1
 Multiplicity           Mult            ....    1
 Number of Electrons    NEL             ....   54
FINAL SINGLE POINT ENERGY      -290.106022420119

CARTESIAN COORDINATES (ANGSTROEM)
---------------------------------
  C      2.247259    0.000199    0.198193
  C      0.943514    0.760016    0.285703
  C      0.169213    0.806146   -1.035341
  C     -0.739220   -0.411785   -1.024723
  C     -2.016057   -0.285757   -0.254321
  C     -0.824981   -0.911718    0.382920
  N     -0.000104   -0.000209    1.220242
  H      2.736231   -0.087276    1.171895
  H      2.929622    0.538323   -0.460451
  H      2.099445   -0.998965   -0.219845
  H      1.098479    1.746819    0.725415
  H     -0.405463    1.729757   -1.130117
  H      0.868585    0.774361   -1.870235
  H     -0.687170   -1.119371   -1.841133
  H     -2.325686    0.703119    0.070021
  H     -2.833867   -0.952487   -0.495564
  H     -0.797014   -1.948516    0.686651
  H      0.538678   -0.526869    1.908165
  H     -0.593757    0.644621    1.743916

FINAL SINGLE POINT ENERGY      -290.106023343996
                    ***********************HURRAY********************
 Multiplicity           Mult            ....    1
 Number of Electrons    NEL             ....   54
 Basis Dimension        Dim             ....  289
FINAL SINGLE POINT ENERGY      -290.106023672411

VIBRATIONAL FREQUENCIES
-----------------------

   0:         0.00 cm**-1
   1:         0.00 cm**-1
   2:         0.00 cm**-1
   3:         0.00 cm**-1
   4:         0.00 cm**-1
   5:         0.00 cm**-1
   6:        80.98 cm**-1
   7:       252.99 cm**-1
   8:       269.31 cm**-1
   9:       333.60 cm**-1
  10:       383.99 cm**-1
  11:       450.68 cm**-1
  12:       675.41 cm**-1
  13:       698.26 cm**-1
  14:       784.27 cm**-1
  15:       790.85 cm**-1
  16:       831.47 cm**-1
  17:       868.33 cm**-1
  18:       897.96 cm**-1
  19:       910.38 cm**-1
  20:       933.28 cm**-1
  21:       976.54 cm**-1
  22:      1019.39 cm**-1
  23:      1039.59 cm**-1
  24:      1050.51 cm**-1
  25:      1083.35 cm**-1
  26:      1097.23 cm**-1
  27:      1121.99 cm**-1
  28:      1139.60 cm**-1
  29:      1166.88 cm**-1
  30:      1218.34 cm**-1
  31:      1244.43 cm**-1
  32:      1266.19 cm**-1
  33:      1302.01 cm**-1
  34:      1328.03 cm**-1
  35:      1347.62 cm**-1
  36:      1373.70 cm**-1
  37:      1390.58 cm**-1
  38:      1418.00 cm**-1
  39:      1422.68 cm**-1
  40:      1481.82 cm**-1
  41:      1485.08 cm**-1
  42:      1490.33 cm**-1
  43:      1500.73 cm**-1
  44:      1645.50 cm**-1
  45:      3055.10 cm**-1
  46:      3089.31 cm**-1
  47:      3112.32 cm**-1
  48:      3134.47 cm**-1
  49:      3143.31 cm**-1
  50:      3147.76 cm**-1
  51:      3154.36 cm**-1
  52:      3219.29 cm**-1
  53:      3231.89 cm**-1
  54:      3244.44 cm**-1
  55:      3450.80 cm**-1
  56:      3509.30 cm**-1

IR SPECTRUM
-----------

 Mode    freq (cm**-1)   T**2         TX         TY         TZ
-------------------------------------------------------------------
   6:        80.98    1.893477  (  0.547177  -1.262563   0.002847)
   7:       252.99    0.543664  (  0.210061  -0.023252   0.706398)
   8:       269.31    0.528562  ( -0.341850   0.519614  -0.376433)
   9:       333.60    0.696851  (  0.359288   0.743431  -0.122778)
  10:       383.99    2.887530  (  1.665397  -0.215946  -0.259522)
  11:       450.68    3.871630  ( -1.746586   0.796556  -0.431933)
  12:       675.41    4.225606  ( -0.573703  -0.381452   1.936741)
  13:       698.26    1.030910  (  0.741738   0.337735   0.605532)
  14:       784.27    5.504074  ( -1.784969   0.042046   1.521904)
  15:       790.85   10.390058  (  1.481817  -1.206011   2.596115)
  16:       831.47    6.897805  ( -2.507925   0.741724   0.240757)
  17:       868.33    2.194547  (  1.307872  -0.604929  -0.343624)
  18:       897.96    0.356179  ( -0.532553  -0.144146   0.227570)
  19:       910.38    3.482767  (  1.182264  -1.438008  -0.130964)
  20:       933.28    4.159884  (  1.993077  -0.107770   0.419421)
  21:       976.54    0.745104  (  0.596281   0.378281  -0.496443)
  22:      1019.39    8.137288  ( -1.806071  -1.313665   1.774734)
  23:      1039.59    3.294365  ( -1.606297  -0.765400   0.358242)
  24:      1050.51    0.897937  (  0.115299  -0.477205   0.810505)
  25:      1083.35   11.923297  ( -0.010799  -0.603200   3.399902)
  26:      1097.23    1.038848  (  0.927781  -0.292321   0.304335)
  27:      1121.99    0.615426  (  0.068145   0.497246  -0.602933)
  28:      1139.60    3.355569  ( -0.829622  -1.291642   0.999479)
  29:      1166.88    4.335746  (  0.297017  -2.034335   0.330164)
  30:      1218.34    1.992897  (  1.244693   0.340963  -0.572172)
  31:      1244.43    1.528881  (  0.636695   0.793260  -0.703021)
  32:      1266.19   22.990804  ( -4.235472  -2.044563   0.933457)
  33:      1302.01    8.991441  ( -1.669454  -1.704244   1.816568)
  34:      1328.03    5.270870  (  1.658690   0.909410   1.300996)
  35:      1347.62   28.490588  ( -3.974666  -3.486677  -0.731915)
  36:      1373.70    8.930705  ( -2.264562  -1.948184   0.083926)
  37:      1390.58    5.537741  ( -1.659965  -1.611485   0.430547)
  38:      1418.00    9.357171  (  2.756279   0.859022  -1.011027)
  39:      1422.68   14.596872  ( -2.606708   2.658905   0.855668)
  40:      1481.82    9.471060  (  1.264319  -1.013065  -2.616535)
  41:      1485.08   10.890177  (  0.606370   2.823278  -1.597370)
  42:      1490.33    8.707501  (  1.944487  -0.704387   2.104830)
  43:      1500.73    9.754775  ( -0.467032   2.959024  -0.883648)
  44:      1645.50   66.172173  ( -0.997834   1.321871   7.964242)
  45:      3055.10    2.737596  (  0.130298  -1.271751   1.050365)
  46:      3089.31    3.530877  (  0.280267  -1.668040   0.818516)
  47:      3112.32    1.905241  ( -0.183304   1.367774  -0.028881)
  48:      3134.47    7.222340  (  1.273668   1.184046   2.048938)
  49:      3143.31    1.735051  ( -0.549695  -0.846996  -0.845863)
  50:      3147.76    1.512152  ( -0.653975   1.005122   0.272394)
  51:      3154.36    0.543624  ( -0.162443   0.714034  -0.085978)
  52:      3219.29    0.371763  (  0.058543  -0.115277  -0.595858)
  53:      3231.89    0.906007  ( -0.072057   0.949110  -0.002065)
  54:      3244.44    1.346500  (  0.740106   0.842928   0.297012)
  55:      3450.80   45.377935  ( -1.049585   0.843450   6.600371)
  56:      3509.30   67.101956  ( -5.693989   5.494594  -2.118933)

--------------------------
THERMOCHEMISTRY AT 298.15K
--------------------------

Temperature         ... 298.15 K
Pressure            ... 1.00 atm
Total Mass          ... 98.17 AMU

Throughout the following assumptions are being made:
  (1) The electronic state is orbitally nondegenerate
  (2) There are no thermally accessible electronically excited states
  (3) Hindered rotations indicated by low frequency modes) are not
      treated as such but are treated as vibrations and this may
      case some error
  (4) All equations used are the standard statistical mechanics
      equations for an ideal gas
  (5) All vibrations are strinctly harmonic

------------
INNER ENERGY
------------

The inner energy is: U= E(el) + E(ZPE) + E(vib) + E(rot) + E(trans)
    E(el)   - is the total energy from the electronic structure calculation
              = E(kin-el) + E(nuc-el) + E(el-el) + E(nuc-nuc)
    E(ZPE)  - the the zero temperature vibrational energy from the frequency calculation
    E(vib)  - the the finite temperature correction to E(ZPE) due to population
              of excietd vibrational states
    E(rot)  - is the rotational thermal energy
    E(trans)- is the translational thermal energy

Summary of contributions to the inner energy U:
Electronic energy                ...   -290.10602367 Eh
Zero point energy                ...      0.17829905 Eh     111.88 kcal/mol
Thermal vibrational correction   ...      0.00374462 Eh       2.35 kcal/mol
Thermal rotational correction    ...      0.00141627 Eh       0.89 kcal/mol
Thermal translational correction ...      0.00141627 Eh       0.89 kcal/mol
-----------------------------------------------------------------------
Total thermal energy                   -289.92114746 Eh

Summary of corrections to the electronic energy:
(perhaps to be used in another calculation)
Total thermal correction                  0.00657716 Eh       4.13 kcal/mol
Non-thermal (ZPE) correction              0.17829905 Eh     111.88 kcal/mol
-----------------------------------------------------------------------
Total correction                          0.18487622 Eh     116.01 kcal/mol

--------
ENTHALPY
--------

The enthalpy is H = U + kB*T
                kB is Boltzmann's constant
Total free energy                 ...   -289.92114746 Eh
Thermal Enthalpy correction       ...      0.00094421 Eh       0.59 kcal/mol
-----------------------------------------------------------------------
Total Enthalpy                    ...   -289.92020325 Eh

-------
ENTROPY
-------

The entropy contributions are T*S = T*(S(el)+S(vib)+S(rot)+S(trans)
     S(el)   - electronic entropy
     S(vib)  - vibrational entropy
     S(rot)  - rotational entropy
     S(trans)- translational entropy
The entropies will be listed as mutliplied by the temperature to get
units of energy

Electronic entropy                ...      0.00000000 Eh      0.00 kcal/mol
Vibrational entropy               ...      0.00617378 Eh      3.87 kcal/mol
Rotational entropy                ...      0.01179636 Eh      7.40 kcal/mol
Translational entropy             ...      0.01884507 Eh     11.83 kcal/mol
-----------------------------------------------------------------------
Final entropy term                ...      0.03681520 Eh     23.10 kcal/mol

CAUTION: The rotational entropy is not quite correctly treated here
         because it includes a symmetry number that is not yet correctly
         implemented in ORCA!
For a nonlinear molecule the correct rotational entropy is:
    S(rot) = R*(ln(qrot/sn)+1.5)
    R    = 8.31441 J/mol/K = 1.987191683e-3 kcal/mol/K
    qrot = 178502.4363915
    sn is the rotational symmetry number. We have assumed 3 here
       if it is different for your molecule then you should correct
       the printed rotational entropy by manually evaluating the equation
       as given above

For convenience we print out the resulting values for sn=1 - 12:
 sn= 1  qrot/sn=  178502.4364 T*S(rot)=     8.05 kcal/mol T*S(tot)=    23.75 kcal/mol
 sn= 2  qrot/sn=   89251.2182 T*S(rot)=     7.64 kcal/mol T*S(tot)=    23.34 kcal/mol
 sn= 3  qrot/sn=   59500.8121 T*S(rot)=     7.40 kcal/mol T*S(tot)=    23.10 kcal/mol
 sn= 4  qrot/sn=   44625.6091 T*S(rot)=     7.23 kcal/mol T*S(tot)=    22.93 kcal/mol
 sn= 5  qrot/sn=   35700.4873 T*S(rot)=     7.10 kcal/mol T*S(tot)=    22.80 kcal/mol
 sn= 6  qrot/sn=   29750.4061 T*S(rot)=     6.99 kcal/mol T*S(tot)=    22.69 kcal/mol
 sn= 7  qrot/sn=   25500.3481 T*S(rot)=     6.90 kcal/mol T*S(tot)=    22.60 kcal/mol
 sn= 8  qrot/sn=   22312.8045 T*S(rot)=     6.82 kcal/mol T*S(tot)=    22.52 kcal/mol
 sn= 9  qrot/sn=   19833.6040 T*S(rot)=     6.75 kcal/mol T*S(tot)=    22.45 kcal/mol
 sn=10  qrot/sn=   17850.2436 T*S(rot)=     6.69 kcal/mol T*S(tot)=    22.39 kcal/mol
 sn=11  qrot/sn=   16227.4942 T*S(rot)=     6.63 kcal/mol T*S(tot)=    22.33 kcal/mol
 sn=12  qrot/sn=   14875.2030 T*S(rot)=     6.58 kcal/mol T*S(tot)=    22.28 kcal/mol

-------------------
GIBBS FREE ENTHALPY
-------------------

The Gibbs free enthalpy is G = H - T*S

Total enthalpy                    ...   -289.92020325 Eh
Total entropy correction          ...     -0.03681520 Eh    -23.10 kcal/mol
-----------------------------------------------------------------------
Final Gibbs free enthalpy         ...   -289.95701845 Eh

For completeness - the Gibbs free enthalpy minus the electronic energy
G-E(el)                           ...      0.14900522 Eh     93.50 kcal/mol

                             ****ORCA TERMINATED NORMALLY****
TOTAL RUN TIME: 0 days 0 hours 51 minutes 48 seconds 89 msec
