                         Program Version 3.0.3 - RELEASE   -
|  1> ! NORI PBE0 def2-TZVP UseSym TightOPT Freq TightSCF Grid3 FinalGrid5 XYZFile
|  2> % pal
|  3>     nprocs 8
|  4> end
|  5> %method
|  6>     SymThresh 5.0e-2
|  7> end
|  8> % geom
|  9>     MaxIter 10
| 10> end
| 11> % maxcore 2000
| 12> % output
| 13>     printlevel mini
| 14>     print[ P_Basis ] 0
| 15>     print[ P_SCFInfo ] 1
| 16>     print[ P_SCFIterInfo ] 1
| 17>     print[ P_OrbEn ] 0
| 18>     print[ P_Cartesian ] 0
| 19> end
| 20> % elprop
| 21>     Dipole false
| 22> end
| 23> *xyz 1 1
| 24>  C        1.0901298358    -0.0093519019    -0.0489962125
| 25>  C        2.5911173302    -0.0627359637     0.0580636036
| 26>  C        3.2033307930    -1.1980128802     0.9170212416
| 27>  C        4.0119168761    -0.3614805727     1.9134372145
| 28>  C        4.6221673182     0.7088739037     0.9914313685
| 29>  N        3.1753929879     1.1162156192     0.8214539609
| 30>  C        2.9991975197     0.7364770566     2.2757959052
| 31>  H        0.7522924595     0.8715404789    -0.5998841834
| 32>  H        0.5962474660    -0.0312576083     0.9237988791
| 33>  H        0.7516440221    -0.8869428015    -0.6034261396
| 34>  H        3.0406349332    -0.0208882236    -0.9355625396
| 35>  H        3.8300067311    -1.8671808410     0.3280902054
| 36>  H        2.4325012349    -1.7914217992     1.4101782270
| 37>  H        4.5999270741    -0.8685628446     2.6704987498
| 38>  H        5.1721843163     1.4944548175     1.5066136302
| 39>  H        5.1059003713     0.4138537432     0.0612572423
| 40>  H        2.9218870709     2.0435570748     0.4837722170
| 41>  H        1.9810683394     0.4711491350     2.5506743828
| 42>  H        3.3948733203     1.5282836078     2.9095122472
| 43> *
| 44>
| 45>                          ****END OF INPUT****
 Total Charge           Charge          ....    1
 Multiplicity           Mult            ....    1
 Number of Electrons    NEL             ....   54
FINAL SINGLE POINT ENERGY      -290.097818553622

CARTESIAN COORDINATES (ANGSTROEM)
---------------------------------
  C      2.228449    0.000754   -0.203132
  C      0.855202   -0.611064   -0.116803
  C     -0.110902   -0.360828   -1.302395
  C     -1.279507    0.285726   -0.552056
  C     -1.362453   -0.596935    0.705778
  N     -0.000139   -0.000572    0.983365
  C     -0.539314    1.271683    0.366252
  H      2.802280   -0.156319    0.712905
  H      2.201766    1.068598   -0.427408
  H      2.773340   -0.486426   -1.013963
  H      0.930985   -1.672665    0.125151
  H     -0.396257   -1.285601   -1.802789
  H      0.324154    0.312057   -2.041938
  H     -2.164389    0.576581   -1.107287
  H     -2.076810   -0.258086    1.453903
  H     -1.354254   -1.681870    0.610484
  H      0.399136   -0.004409    1.920789
  H      0.223165    1.930973   -0.041991
  H     -1.173411    1.785552    1.086371

FINAL SINGLE POINT ENERGY      -290.097819265744
                    ***********************HURRAY********************
 Multiplicity           Mult            ....    1
 Number of Electrons    NEL             ....   54
 Basis Dimension        Dim             ....  289
FINAL SINGLE POINT ENERGY      -290.097819376844

VIBRATIONAL FREQUENCIES
-----------------------

   0:         0.00 cm**-1
   1:         0.00 cm**-1
   2:         0.00 cm**-1
   3:         0.00 cm**-1
   4:         0.00 cm**-1
   5:         0.00 cm**-1
   6:       202.34 cm**-1
   7:       236.64 cm**-1
   8:       297.98 cm**-1
   9:       427.21 cm**-1
  10:       488.41 cm**-1
  11:       532.88 cm**-1
  12:       641.45 cm**-1
  13:       778.34 cm**-1
  14:       841.68 cm**-1
  15:       854.75 cm**-1
  16:       871.73 cm**-1
  17:       872.49 cm**-1
  18:       926.12 cm**-1
  19:       943.25 cm**-1
  20:       963.34 cm**-1
  21:      1000.44 cm**-1
  22:      1039.12 cm**-1
  23:      1058.00 cm**-1
  24:      1083.54 cm**-1
  25:      1098.67 cm**-1
  26:      1114.93 cm**-1
  27:      1136.94 cm**-1
  28:      1181.02 cm**-1
  29:      1201.06 cm**-1
  30:      1220.25 cm**-1
  31:      1262.60 cm**-1
  32:      1274.67 cm**-1
  33:      1283.54 cm**-1
  34:      1309.10 cm**-1
  35:      1314.76 cm**-1
  36:      1346.94 cm**-1
  37:      1379.60 cm**-1
  38:      1398.52 cm**-1
  39:      1424.20 cm**-1
  40:      1482.35 cm**-1
  41:      1483.57 cm**-1
  42:      1498.35 cm**-1
  43:      1500.60 cm**-1
  44:      1533.18 cm**-1
  45:      3063.15 cm**-1
  46:      3103.56 cm**-1
  47:      3106.72 cm**-1
  48:      3113.78 cm**-1
  49:      3124.66 cm**-1
  50:      3142.65 cm**-1
  51:      3147.92 cm**-1
  52:      3158.51 cm**-1
  53:      3192.34 cm**-1
  54:      3200.67 cm**-1
  55:      3205.49 cm**-1
  56:      3504.76 cm**-1

IR SPECTRUM
-----------

 Mode    freq (cm**-1)   T**2         TX         TY         TZ
-------------------------------------------------------------------
   6:       202.34    0.433186  (  0.139580  -0.617031   0.181594)
   7:       236.64    0.020358  ( -0.117892   0.040929  -0.069166)
   8:       297.98    0.952961  (  0.895535   0.100131  -0.375435)
   9:       427.21    0.058243  (  0.049645   0.230053  -0.053422)
  10:       488.41    0.110956  (  0.001597  -0.326924  -0.063825)
  11:       532.88    0.280136  (  0.393619  -0.349132   0.057507)
  12:       641.45    1.880567  (  1.094383  -0.802794   0.195995)
  13:       778.34    3.516841  ( -1.343296  -0.069261   1.306752)
  14:       841.68    2.025138  ( -0.017742   1.184794  -0.788089)
  15:       854.75    3.156761  (  1.039646  -1.141572  -0.879039)
  16:       871.73    5.667113  (  2.151774  -0.041388   1.017481)
  17:       872.49    0.991127  (  0.688621   0.708021  -0.125034)
  18:       926.12    0.656491  ( -0.638569  -0.498630   0.009415)
  19:       943.25    5.608868  (  2.202370  -0.507600   0.707655)
  20:       963.34    1.222372  (  0.788266  -0.125991   0.764941)
  21:      1000.44    0.397582  ( -0.431194   0.078339  -0.453340)
  22:      1039.12    8.545987  ( -2.307055   1.015130   1.480876)
  23:      1058.00    1.201559  (  0.304660  -0.319067  -1.003463)
  24:      1083.54    3.050135  (  0.943995  -0.148130  -1.461871)
  25:      1098.67    1.530372  (  0.637814  -0.030214  -1.059553)
  26:      1114.93    1.967054  ( -0.621068  -1.002053   0.759749)
  27:      1136.94    4.614030  (  1.271078  -0.626933  -1.614108)
  28:      1181.02    3.262649  ( -0.574221   1.710359  -0.087129)
  29:      1201.06   10.416000  (  1.663070   2.764302  -0.093985)
  30:      1220.25   10.928214  ( -1.396922  -2.975779   0.348658)
  31:      1262.60   11.275886  (  2.064953   0.302878  -2.630612)
  32:      1274.67    9.641627  (  1.553939  -1.507328  -2.225953)
  33:      1283.54    4.471101  ( -2.033747   0.577058   0.044457)
  34:      1309.10   15.616432  (  2.707474   2.543521  -1.347782)
  35:      1314.76   12.561604  ( -0.516319  -3.485135   0.385813)
  36:      1346.94   12.120642  ( -3.085767   0.350247  -1.573534)
  37:      1379.60   22.724841  ( -3.265161   3.440216   0.477996)
  38:      1398.52   12.360408  (  3.457336  -0.366756  -0.522234)
  39:      1424.20   14.599463  ( -3.356354  -1.359340   1.219239)
  40:      1482.35    2.847589  ( -0.895733   0.986149   1.035742)
  41:      1483.57   11.981118  (  0.309977   0.402776   3.423858)
  42:      1498.35   25.455996  (  0.896523   4.693779  -1.618853)
  43:      1500.60    5.971943  ( -0.162546   0.943446   2.248429)
  44:      1533.18    2.799997  ( -0.723191   0.991406   1.137588)
  45:      3063.15    2.098459  (  0.347867   1.052924   0.932094)
  46:      3103.56    3.057173  (  0.434564   0.014815  -1.693549)
  47:      3106.72    0.534448  (  0.016609   0.719685   0.127378)
  48:      3113.78    2.766228  (  0.787063   1.367378  -0.526343)
  49:      3124.66    0.983976  ( -0.312297  -0.883095  -0.326482)
  50:      3142.65    3.856100  ( -1.306129   0.711496  -1.282148)
  51:      3147.92    3.452029  ( -0.292407   1.720606  -0.637215)
  52:      3158.51    2.145081  (  0.449674   1.362609  -0.293548)
  53:      3192.34    0.964033  (  0.073821   0.974491   0.094609)
  54:      3200.67    1.167056  ( -0.535597  -0.828063   0.441025)
  55:      3205.49    0.029154  (  0.165189   0.012878   0.041237)
  56:      3504.76   55.041643  (  2.480027  -0.015569   6.992200)

--------------------------
THERMOCHEMISTRY AT 298.15K
--------------------------

Temperature         ... 298.15 K
Pressure            ... 1.00 atm
Total Mass          ... 98.17 AMU

Throughout the following assumptions are being made:
  (1) The electronic state is orbitally nondegenerate
  (2) There are no thermally accessible electronically excited states
  (3) Hindered rotations indicated by low frequency modes) are not
      treated as such but are treated as vibrations and this may
      case some error
  (4) All equations used are the standard statistical mechanics
      equations for an ideal gas
  (5) All vibrations are strinctly harmonic

------------
INNER ENERGY
------------

The inner energy is: U= E(el) + E(ZPE) + E(vib) + E(rot) + E(trans)
    E(el)   - is the total energy from the electronic structure calculation
              = E(kin-el) + E(nuc-el) + E(el-el) + E(nuc-nuc)
    E(ZPE)  - the the zero temperature vibrational energy from the frequency calculation
    E(vib)  - the the finite temperature correction to E(ZPE) due to population
              of excietd vibrational states
    E(rot)  - is the rotational thermal energy
    E(trans)- is the translational thermal energy

Summary of contributions to the inner energy U:
Electronic energy                ...   -290.09781938 Eh
Zero point energy                ...      0.17899284 Eh     112.32 kcal/mol
Thermal vibrational correction   ...      0.00317449 Eh       1.99 kcal/mol
Thermal rotational correction    ...      0.00141627 Eh       0.89 kcal/mol
Thermal translational correction ...      0.00141627 Eh       0.89 kcal/mol
-----------------------------------------------------------------------
Total thermal energy                   -289.91281951 Eh

Summary of corrections to the electronic energy:
(perhaps to be used in another calculation)
Total thermal correction                  0.00600703 Eh       3.77 kcal/mol
Non-thermal (ZPE) correction              0.17899284 Eh     112.32 kcal/mol
-----------------------------------------------------------------------
Total correction                          0.18499987 Eh     116.09 kcal/mol

--------
ENTHALPY
--------

The enthalpy is H = U + kB*T
                kB is Boltzmann's constant
Total free energy                 ...   -289.91281951 Eh
Thermal Enthalpy correction       ...      0.00094421 Eh       0.59 kcal/mol
-----------------------------------------------------------------------
Total Enthalpy                    ...   -289.91187530 Eh

-------
ENTROPY
-------

The entropy contributions are T*S = T*(S(el)+S(vib)+S(rot)+S(trans)
     S(el)   - electronic entropy
     S(vib)  - vibrational entropy
     S(rot)  - rotational entropy
     S(trans)- translational entropy
The entropies will be listed as mutliplied by the temperature to get
units of energy

Electronic entropy                ...      0.00000000 Eh      0.00 kcal/mol
Vibrational entropy               ...      0.00475724 Eh      2.99 kcal/mol
Rotational entropy                ...      0.01170669 Eh      7.35 kcal/mol
Translational entropy             ...      0.01884507 Eh     11.83 kcal/mol
-----------------------------------------------------------------------
Final entropy term                ...      0.03530899 Eh     22.16 kcal/mol

CAUTION: The rotational entropy is not quite correctly treated here
         because it includes a symmetry number that is not yet correctly
         implemented in ORCA!
For a nonlinear molecule the correct rotational entropy is:
    S(rot) = R*(ln(qrot/sn)+1.5)
    R    = 8.31441 J/mol/K = 1.987191683e-3 kcal/mol/K
    qrot = 162330.0023319
    sn is the rotational symmetry number. We have assumed 3 here
       if it is different for your molecule then you should correct
       the printed rotational entropy by manually evaluating the equation
       as given above

For convenience we print out the resulting values for sn=1 - 12:
 sn= 1  qrot/sn=  162330.0023 T*S(rot)=     8.00 kcal/mol T*S(tot)=    22.81 kcal/mol
 sn= 2  qrot/sn=   81165.0012 T*S(rot)=     7.59 kcal/mol T*S(tot)=    22.40 kcal/mol
 sn= 3  qrot/sn=   54110.0008 T*S(rot)=     7.35 kcal/mol T*S(tot)=    22.16 kcal/mol
 sn= 4  qrot/sn=   40582.5006 T*S(rot)=     7.18 kcal/mol T*S(tot)=    21.99 kcal/mol
 sn= 5  qrot/sn=   32466.0005 T*S(rot)=     7.04 kcal/mol T*S(tot)=    21.85 kcal/mol
 sn= 6  qrot/sn=   27055.0004 T*S(rot)=     6.94 kcal/mol T*S(tot)=    21.75 kcal/mol
 sn= 7  qrot/sn=   23190.0003 T*S(rot)=     6.84 kcal/mol T*S(tot)=    21.65 kcal/mol
 sn= 8  qrot/sn=   20291.2503 T*S(rot)=     6.76 kcal/mol T*S(tot)=    21.58 kcal/mol
 sn= 9  qrot/sn=   18036.6669 T*S(rot)=     6.70 kcal/mol T*S(tot)=    21.51 kcal/mol
 sn=10  qrot/sn=   16233.0002 T*S(rot)=     6.63 kcal/mol T*S(tot)=    21.44 kcal/mol
 sn=11  qrot/sn=   14757.2729 T*S(rot)=     6.58 kcal/mol T*S(tot)=    21.39 kcal/mol
 sn=12  qrot/sn=   13527.5002 T*S(rot)=     6.52 kcal/mol T*S(tot)=    21.34 kcal/mol

-------------------
GIBBS FREE ENTHALPY
-------------------

The Gibbs free enthalpy is G = H - T*S

Total enthalpy                    ...   -289.91187530 Eh
Total entropy correction          ...     -0.03530899 Eh    -22.16 kcal/mol
-----------------------------------------------------------------------
Final Gibbs free enthalpy         ...   -289.94718429 Eh

For completeness - the Gibbs free enthalpy minus the electronic energy
G-E(el)                           ...      0.15063509 Eh     94.52 kcal/mol

                             ****ORCA TERMINATED NORMALLY****
TOTAL RUN TIME: 0 days 1 hours 2 minutes 34 seconds 924 msec
