                         Program Version 3.0.3 - RELEASE   -
|  1> ! NORI PBE0 def2-TZVP UseSym TightOPT Freq TightSCF Grid3 FinalGrid5 XYZFile
|  2> % pal
|  3>     nprocs 8
|  4> end
|  5> %method
|  6>     SymThresh 5.0e-2
|  7> end
|  8> % geom
|  9>     MaxIter 10
| 10> end
| 11> % maxcore 2000
| 12> % output
| 13>     printlevel mini
| 14>     print[ P_Basis ] 0
| 15>     print[ P_SCFInfo ] 1
| 16>     print[ P_SCFIterInfo ] 1
| 17>     print[ P_OrbEn ] 0
| 18>     print[ P_Cartesian ] 0
| 19> end
| 20> % elprop
| 21>     Dipole false
| 22> end
| 23> *xyz 1 1
| 24>  C        0.8665995766     0.1087015447    -0.2141551653
| 25>  C        2.3698118559    -0.0998266963    -0.0831631257
| 26>  C        2.8437177476    -1.5459949643    -0.3547348176
| 27>  C        3.4634702974    -1.5479250095    -1.7245592368
| 28>  C        2.7502978772    -0.9334597708    -2.8580550239
| 29>  N        3.7140892718    -0.1218383410    -2.0889223653
| 30>  C        3.2135730378     0.7795272919    -1.0235952693
| 31>  H        0.6028142789     1.1493287351    -0.0155507333
| 32>  H        0.3387165483    -0.5064319424     0.5161753646
| 33>  H        0.4728996780    -0.1500870035    -1.1996031563
| 34>  H        2.6427060489     0.1633125973     0.9402095944
| 35>  H        3.5971566641    -1.8586219056     0.3701085433
| 36>  H        2.0208739976    -2.2605447891    -0.2971163164
| 37>  H        4.2753682207    -2.2292409859    -1.9510955307
| 38>  H        3.0731273107    -1.1650398377    -3.8652017787
| 39>  H        1.7216955818    -0.6186783753    -2.7527359043
| 40>  H        4.5785977108     0.1332678456    -2.5533443891
| 41>  H        2.6541560020     1.5986588300    -1.4764664475
| 42>  H        4.0960182937     1.1839827770    -0.5274942422
| 43> *
| 44>
| 45>                          ****END OF INPUT****
 Total Charge           Charge          ....    1
 Multiplicity           Mult            ....    1
 Number of Electrons    NEL             ....   54
FINAL SINGLE POINT ENERGY      -290.102862493587

CARTESIAN COORDINATES (ANGSTROEM)
---------------------------------
  C      1.185388   -0.000705   -1.836880
  C      0.277185    0.784480   -0.899440
  C     -1.144087    0.196903   -0.741135
  C     -1.182001   -0.488030    0.596761
  C     -0.106612   -1.420264    0.978917
  N      0.000077    0.000093    1.367269
  C      0.815578    0.918178    0.536410
  H      2.171964    0.463156   -1.896426
  H      0.766689   -0.007303   -2.844522
  H      1.326719   -1.042061   -1.538801
  H      0.187493    1.792468   -1.308286
  H     -1.901390    0.982640   -0.753273
  H     -1.386669   -0.500883   -1.544295
  H     -2.108730   -0.532301    1.156935
  H     -0.270820   -2.093959    1.810614
  H      0.627484   -1.737680    0.251855
  H     -0.098360    0.218978    2.352412
  H      1.869201    0.655570    0.635658
  H      0.659138    1.917552    0.943592

FINAL SINGLE POINT ENERGY      -290.102863322781
                    ***********************HURRAY********************
 Multiplicity           Mult            ....    1
 Number of Electrons    NEL             ....   54
 Basis Dimension        Dim             ....  289
FINAL SINGLE POINT ENERGY      -290.102863909419

VIBRATIONAL FREQUENCIES
-----------------------

   0:         0.00 cm**-1
   1:         0.00 cm**-1
   2:         0.00 cm**-1
   3:         0.00 cm**-1
   4:         0.00 cm**-1
   5:         0.00 cm**-1
   6:       139.89 cm**-1
   7:       196.73 cm**-1
   8:       265.16 cm**-1
   9:       360.02 cm**-1
  10:       374.05 cm**-1
  11:       384.35 cm**-1
  12:       645.96 cm**-1
  13:       700.02 cm**-1
  14:       768.35 cm**-1
  15:       799.92 cm**-1
  16:       825.14 cm**-1
  17:       873.72 cm**-1
  18:       914.00 cm**-1
  19:       923.36 cm**-1
  20:       955.46 cm**-1
  21:       980.68 cm**-1
  22:      1015.86 cm**-1
  23:      1069.37 cm**-1
  24:      1097.01 cm**-1
  25:      1121.46 cm**-1
  26:      1148.07 cm**-1
  27:      1154.31 cm**-1
  28:      1163.64 cm**-1
  29:      1178.97 cm**-1
  30:      1235.57 cm**-1
  31:      1247.28 cm**-1
  32:      1284.58 cm**-1
  33:      1298.49 cm**-1
  34:      1347.65 cm**-1
  35:      1353.79 cm**-1
  36:      1377.14 cm**-1
  37:      1406.52 cm**-1
  38:      1419.60 cm**-1
  39:      1444.96 cm**-1
  40:      1480.97 cm**-1
  41:      1482.42 cm**-1
  42:      1489.50 cm**-1
  43:      1502.68 cm**-1
  44:      1513.83 cm**-1
  45:      3060.68 cm**-1
  46:      3090.59 cm**-1
  47:      3096.45 cm**-1
  48:      3103.11 cm**-1
  49:      3135.30 cm**-1
  50:      3140.72 cm**-1
  51:      3144.21 cm**-1
  52:      3157.73 cm**-1
  53:      3177.34 cm**-1
  54:      3208.50 cm**-1
  55:      3280.39 cm**-1
  56:      3560.76 cm**-1

IR SPECTRUM
-----------

 Mode    freq (cm**-1)   T**2         TX         TY         TZ
-------------------------------------------------------------------
   6:       139.89    0.792458  (  0.313343   0.163794  -0.816973)
   7:       196.73    0.276553  ( -0.245287   0.159557   0.436954)
   8:       265.16    0.525809  ( -0.606609   0.236293   0.319374)
   9:       360.02    0.062204  ( -0.115958  -0.119150   0.185905)
  10:       374.05    0.196005  ( -0.254284  -0.241864   0.269902)
  11:       384.35    1.048062  (  0.737399  -0.549524  -0.449810)
  12:       645.96    0.466095  (  0.674404  -0.062723  -0.085677)
  13:       700.02    1.073806  ( -0.637533   0.386236  -0.719847)
  14:       768.35   10.322533  (  1.973156   1.774588   1.811085)
  15:       799.92    3.060486  (  0.336015  -1.462282  -0.899617)
  16:       825.14    4.066039  (  0.686465   1.442972   1.229893)
  17:       873.72    7.885256  (  1.710847  -2.053334   0.861440)
  18:       914.00    6.154655  (  1.072423   1.209563  -1.881893)
  19:       923.36    3.541732  ( -1.608144   0.920297  -0.329635)
  20:       955.46    1.815737  ( -1.007683  -0.729947  -0.517193)
  21:       980.68   13.604883  (  3.318064  -0.879184   1.349953)
  22:      1015.86   14.635448  (  0.237574   3.810278  -0.246558)
  23:      1069.37    0.228383  (  0.059835   0.115660  -0.459811)
  24:      1097.01    3.842367  (  1.903338   0.193803  -0.426745)
  25:      1121.46   12.769823  ( -3.182717  -0.861687  -1.377545)
  26:      1148.07    3.500154  ( -0.139147   1.643645  -0.882736)
  27:      1154.31    2.294462  ( -1.193079  -0.692347  -0.625843)
  28:      1163.64    0.707443  ( -0.025024  -0.496248  -0.678641)
  29:      1178.97    1.017570  (  0.211286  -0.925170  -0.342037)
  30:      1235.57    5.430809  (  2.220803   0.701361   0.083282)
  31:      1247.28    4.265298  (  1.495268  -1.356347   0.435653)
  32:      1284.58    0.401629  ( -0.550242  -0.299144   0.096831)
  33:      1298.49    3.897835  (  1.302902  -0.011599  -1.483289)
  34:      1347.65    2.939509  ( -1.584906   0.521585   0.394375)
  35:      1353.79    9.294066  ( -1.531287  -2.322221  -1.247603)
  36:      1377.14    1.401272  (  0.148356   0.540077   1.042871)
  37:      1406.52    9.804558  ( -2.732350  -1.486686   0.358592)
  38:      1419.60   11.129058  ( -2.565237  -1.125884   1.811353)
  39:      1444.96   19.650035  ( -0.308858  -4.415404  -0.242589)
  40:      1480.97   17.143094  (  3.696610   0.869271   1.650011)
  41:      1482.42    8.717513  (  1.559854   0.710493   2.404073)
  42:      1489.50    2.139529  ( -0.331958   0.136720  -1.417971)
  43:      1502.68   11.848182  (  0.646902   3.359099  -0.382298)
  44:      1513.83   12.115060  (  2.242924  -1.732231   2.020824)
  45:      3060.68    7.241793  (  1.355161  -2.307540  -0.283886)
  46:      3090.59    0.943014  (  0.948113  -0.033180   0.207351)
  47:      3096.45    2.127373  ( -1.363953  -0.181335  -0.483863)
  48:      3103.11    1.381647  ( -0.004897  -0.815352  -0.846655)
  49:      3135.30   14.076643  (  1.138336   3.131662  -1.724391)
  50:      3140.72    4.045094  (  0.776356  -1.562450   1.000558)
  51:      3144.21    3.380130  (  1.307206   0.367703   1.239410)
  52:      3157.73    0.520331  (  0.609463  -0.305862  -0.235234)
  53:      3177.34    0.525061  ( -0.377811   0.618307   0.004002)
  54:      3208.50    0.690546  (  0.821221  -0.126865  -0.006900)
  55:      3280.39    6.493522  (  1.172833   0.827176  -2.105650)
  56:      3560.76  103.109149  ( -0.202004   2.643659   9.802010)

--------------------------
THERMOCHEMISTRY AT 298.15K
--------------------------

Temperature         ... 298.15 K
Pressure            ... 1.00 atm
Total Mass          ... 98.17 AMU

Throughout the following assumptions are being made:
  (1) The electronic state is orbitally nondegenerate
  (2) There are no thermally accessible electronically excited states
  (3) Hindered rotations indicated by low frequency modes) are not
      treated as such but are treated as vibrations and this may
      case some error
  (4) All equations used are the standard statistical mechanics
      equations for an ideal gas
  (5) All vibrations are strinctly harmonic

------------
INNER ENERGY
------------

The inner energy is: U= E(el) + E(ZPE) + E(vib) + E(rot) + E(trans)
    E(el)   - is the total energy from the electronic structure calculation
              = E(kin-el) + E(nuc-el) + E(el-el) + E(nuc-nuc)
    E(ZPE)  - the the zero temperature vibrational energy from the frequency calculation
    E(vib)  - the the finite temperature correction to E(ZPE) due to population
              of excietd vibrational states
    E(rot)  - is the rotational thermal energy
    E(trans)- is the translational thermal energy

Summary of contributions to the inner energy U:
Electronic energy                ...   -290.10286391 Eh
Zero point energy                ...      0.17791629 Eh     111.64 kcal/mol
Thermal vibrational correction   ...      0.00374676 Eh       2.35 kcal/mol
Thermal rotational correction    ...      0.00141627 Eh       0.89 kcal/mol
Thermal translational correction ...      0.00141627 Eh       0.89 kcal/mol
-----------------------------------------------------------------------
Total thermal energy                   -289.91836831 Eh

Summary of corrections to the electronic energy:
(perhaps to be used in another calculation)
Total thermal correction                  0.00657931 Eh       4.13 kcal/mol
Non-thermal (ZPE) correction              0.17791629 Eh     111.64 kcal/mol
-----------------------------------------------------------------------
Total correction                          0.18449559 Eh     115.77 kcal/mol

--------
ENTHALPY
--------

The enthalpy is H = U + kB*T
                kB is Boltzmann's constant
Total free energy                 ...   -289.91836831 Eh
Thermal Enthalpy correction       ...      0.00094421 Eh       0.59 kcal/mol
-----------------------------------------------------------------------
Total Enthalpy                    ...   -289.91742411 Eh

-------
ENTROPY
-------

The entropy contributions are T*S = T*(S(el)+S(vib)+S(rot)+S(trans)
     S(el)   - electronic entropy
     S(vib)  - vibrational entropy
     S(rot)  - rotational entropy
     S(trans)- translational entropy
The entropies will be listed as mutliplied by the temperature to get
units of energy

Electronic entropy                ...      0.00000000 Eh      0.00 kcal/mol
Vibrational entropy               ...      0.00594708 Eh      3.73 kcal/mol
Rotational entropy                ...      0.01180107 Eh      7.41 kcal/mol
Translational entropy             ...      0.01884507 Eh     11.83 kcal/mol
-----------------------------------------------------------------------
Final entropy term                ...      0.03659323 Eh     22.96 kcal/mol

CAUTION: The rotational entropy is not quite correctly treated here
         because it includes a symmetry number that is not yet correctly
         implemented in ORCA!
For a nonlinear molecule the correct rotational entropy is:
    S(rot) = R*(ln(qrot/sn)+1.5)
    R    = 8.31441 J/mol/K = 1.987191683e-3 kcal/mol/K
    qrot = 179396.6403265
    sn is the rotational symmetry number. We have assumed 3 here
       if it is different for your molecule then you should correct
       the printed rotational entropy by manually evaluating the equation
       as given above

For convenience we print out the resulting values for sn=1 - 12:
 sn= 1  qrot/sn=  179396.6403 T*S(rot)=     8.06 kcal/mol T*S(tot)=    23.61 kcal/mol
 sn= 2  qrot/sn=   89698.3202 T*S(rot)=     7.65 kcal/mol T*S(tot)=    23.20 kcal/mol
 sn= 3  qrot/sn=   59798.8801 T*S(rot)=     7.41 kcal/mol T*S(tot)=    22.96 kcal/mol
 sn= 4  qrot/sn=   44849.1601 T*S(rot)=     7.23 kcal/mol T*S(tot)=    22.79 kcal/mol
 sn= 5  qrot/sn=   35879.3281 T*S(rot)=     7.10 kcal/mol T*S(tot)=    22.66 kcal/mol
 sn= 6  qrot/sn=   29899.4401 T*S(rot)=     6.99 kcal/mol T*S(tot)=    22.55 kcal/mol
 sn= 7  qrot/sn=   25628.0915 T*S(rot)=     6.90 kcal/mol T*S(tot)=    22.46 kcal/mol
 sn= 8  qrot/sn=   22424.5800 T*S(rot)=     6.82 kcal/mol T*S(tot)=    22.38 kcal/mol
 sn= 9  qrot/sn=   19932.9600 T*S(rot)=     6.75 kcal/mol T*S(tot)=    22.31 kcal/mol
 sn=10  qrot/sn=   17939.6640 T*S(rot)=     6.69 kcal/mol T*S(tot)=    22.25 kcal/mol
 sn=11  qrot/sn=   16308.7855 T*S(rot)=     6.64 kcal/mol T*S(tot)=    22.19 kcal/mol
 sn=12  qrot/sn=   14949.7200 T*S(rot)=     6.58 kcal/mol T*S(tot)=    22.14 kcal/mol

-------------------
GIBBS FREE ENTHALPY
-------------------

The Gibbs free enthalpy is G = H - T*S

Total enthalpy                    ...   -289.91742411 Eh
Total entropy correction          ...     -0.03659323 Eh    -22.96 kcal/mol
-----------------------------------------------------------------------
Final Gibbs free enthalpy         ...   -289.95401733 Eh

For completeness - the Gibbs free enthalpy minus the electronic energy
G-E(el)                           ...      0.14884658 Eh     93.40 kcal/mol

                             ****ORCA TERMINATED NORMALLY****
TOTAL RUN TIME: 0 days 0 hours 54 minutes 53 seconds 298 msec
