                         Program Version 3.0.3 - RELEASE   -
|  1> ! NORI PBE0 def2-TZVP UseSym TightOPT Freq TightSCF Grid3 FinalGrid5 XYZFile
|  2> % pal
|  3>     nprocs 8
|  4> end
|  5> %method
|  6>     SymThresh 5.0e-2
|  7> end
|  8> % geom
|  9>     MaxIter 10
| 10> end
| 11> % maxcore 2000
| 12> % output
| 13>     printlevel mini
| 14>     print[ P_Basis ] 0
| 15>     print[ P_SCFInfo ] 1
| 16>     print[ P_SCFIterInfo ] 1
| 17>     print[ P_OrbEn ] 0
| 18>     print[ P_Cartesian ] 0
| 19> end
| 20> % elprop
| 21>     Dipole false
| 22> end
| 23> *xyz 1 1
| 24>  C        1.4527240156     0.0693407680     1.0473455280
| 25>  C        2.2374843368    -0.1053378239    -0.0025077773
| 26>  C        2.7589131390    -1.4127743351    -0.5437671199
| 27>  C        4.1019029631    -1.0521434116    -1.1241640488
| 28>  C        4.9973187212    -0.1890719812    -0.3345403430
| 29>  N        4.0926438168     0.4337311361    -1.3224804204
| 30>  C        2.8094199476     1.0030715878    -0.8421392054
| 31>  H        1.1446221379     1.0572619743     1.3694985730
| 32>  H        1.0701617212    -0.7734191444     1.6107584541
| 33>  H        2.8453734953    -2.1813549406     0.2252983074
| 34>  H        2.1152513112    -1.8036338331    -1.3384092083
| 35>  H        4.5219840890    -1.6221517670    -1.9439180854
| 36>  H        4.7426914057     0.0398849178     0.6939800671
| 37>  H        6.0462295965    -0.1325370735    -0.5969229621
| 38>  H        4.5103157456     0.8278050773    -2.1578365121
| 39>  H        2.2057695831     1.2071035382    -1.7311005678
| 40>  H        2.9860539745     1.9328153109    -0.3021546791
| 41> *
| 42>
| 43>                          ****END OF INPUT****
 Total Charge           Charge          ....    1
 Multiplicity           Mult            ....    1
 Number of Electrons    NEL             ....   52
FINAL SINGLE POINT ENERGY      -288.874108447834

CARTESIAN COORDINATES (ANGSTROEM)
---------------------------------
  C      1.240719   -0.000145   -1.984439
  C      0.550445   -0.295192   -0.895749
  C     -0.935501   -0.530967   -0.794343
  C     -1.284347   -0.041373    0.587426
  C     -0.725685    1.245745    1.036081
  N      0.000081   -0.000014    1.359253
  C      1.130843   -0.403364    0.487161
  H      2.310867    0.169322   -1.951469
  H      0.762826    0.060350   -2.954958
  H     -1.498515   -0.001534   -1.563697
  H     -1.179192   -1.595444   -0.872575
  H     -2.129694   -0.454391    1.124292
  H     -0.209738    1.877933    0.322709
  H     -1.159779    1.740950    1.895057
  H      0.009779   -0.299497    2.327709
  H      1.380455   -1.433991    0.755506
  H      1.993916    0.237378    0.665601

FINAL SINGLE POINT ENERGY      -288.874108868589
                    ***********************HURRAY********************
 Multiplicity           Mult            ....    1
 Number of Electrons    NEL             ....   52
 Basis Dimension        Dim             ....  277
FINAL SINGLE POINT ENERGY      -288.874108963460

VIBRATIONAL FREQUENCIES
-----------------------

   0:         0.00 cm**-1
   1:         0.00 cm**-1
   2:         0.00 cm**-1
   3:         0.00 cm**-1
   4:         0.00 cm**-1
   5:         0.00 cm**-1
   6:       123.41 cm**-1
   7:       300.47 cm**-1
   8:       372.46 cm**-1
   9:       387.56 cm**-1
  10:       425.83 cm**-1
  11:       622.84 cm**-1
  12:       652.73 cm**-1
  13:       729.81 cm**-1
  14:       793.05 cm**-1
  15:       807.60 cm**-1
  16:       859.30 cm**-1
  17:       876.72 cm**-1
  18:       928.95 cm**-1
  19:       948.00 cm**-1
  20:       956.00 cm**-1
  21:       993.39 cm**-1
  22:      1027.39 cm**-1
  23:      1049.04 cm**-1
  24:      1082.95 cm**-1
  25:      1142.74 cm**-1
  26:      1152.93 cm**-1
  27:      1161.37 cm**-1
  28:      1207.75 cm**-1
  29:      1238.72 cm**-1
  30:      1259.41 cm**-1
  31:      1273.01 cm**-1
  32:      1316.30 cm**-1
  33:      1331.82 cm**-1
  34:      1398.07 cm**-1
  35:      1429.03 cm**-1
  36:      1457.55 cm**-1
  37:      1467.65 cm**-1
  38:      1480.84 cm**-1
  39:      1500.57 cm**-1
  40:      1761.69 cm**-1
  41:      3067.81 cm**-1
  42:      3077.67 cm**-1
  43:      3140.27 cm**-1
  44:      3153.32 cm**-1
  45:      3164.72 cm**-1
  46:      3169.64 cm**-1
  47:      3215.82 cm**-1
  48:      3259.53 cm**-1
  49:      3268.46 cm**-1
  50:      3565.77 cm**-1

IR SPECTRUM
-----------

 Mode    freq (cm**-1)   T**2         TX         TY         TZ
-------------------------------------------------------------------
   6:       123.41    1.002345  ( -0.261377  -0.703674   0.662473)
   7:       300.47    0.474951  ( -0.201227  -0.469603   0.462528)
   8:       372.46    0.034182  (  0.148228  -0.095985   0.054750)
   9:       387.56    2.369535  ( -0.268025  -1.515772   0.011539)
  10:       425.83    7.740047  ( -0.476016   2.722092   0.321980)
  11:       622.84    0.910926  (  0.465220   0.806442   0.210116)
  12:       652.73    3.810136  ( -0.094723  -1.597654  -1.117436)
  13:       729.81    1.001925  ( -0.940668  -0.154890  -0.305088)
  14:       793.05    8.480842  ( -2.375700   0.745694  -1.510242)
  15:       807.60    8.471268  ( -1.599620   1.410326  -1.980774)
  16:       859.30    0.931916  ( -0.558363   0.709110   0.342505)
  17:       876.72   10.320650  (  0.710779   2.791469   1.422372)
  18:       928.95   10.339175  ( -2.051207   1.747395   1.754519)
  19:       948.00    8.108953  ( -2.394766  -1.476121  -0.441720)
  20:       956.00    1.718102  (  1.268780  -0.312777   0.102322)
  21:       993.39   42.455219  (  0.511361  -6.368623  -1.278426)
  22:      1027.39   13.620473  (  2.142012  -2.852549  -0.946163)
  23:      1049.04   10.451459  ( -2.683404  -0.205704  -1.791226)
  24:      1082.95    2.655040  (  0.864523   0.507114  -1.284708)
  25:      1142.74    9.170198  (  2.916973   0.699227   0.415390)
  26:      1152.93    2.283141  (  0.565844   1.161971   0.782806)
  27:      1161.37    2.473478  (  0.495032  -0.085012  -1.490367)
  28:      1207.75   10.517601  (  3.199201  -0.124493  -0.516927)
  29:      1238.72    4.338478  (  0.588535   1.965244  -0.360446)
  30:      1259.41    2.606490  (  0.393479  -0.210480   1.551568)
  31:      1273.01    1.606885  ( -0.628666   0.193593   1.083599)
  32:      1316.30    3.193271  (  0.906033   1.529840   0.178785)
  33:      1331.82   14.501561  (  3.594409  -1.080983  -0.642854)
  34:      1398.07    7.943425  ( -2.681236  -0.498999   0.710912)
  35:      1429.03   25.325394  ( -3.637602   3.424433   0.605397)
  36:      1457.55   11.897835  (  1.668811   2.389603  -1.844642)
  37:      1467.65   17.094799  (  2.085263   0.819043   3.475003)
  38:      1480.84    5.889430  ( -1.151348   2.091788  -0.433878)
  39:      1500.57    9.923086  ( -2.290996  -1.025710  -1.903245)
  40:      1761.69    1.973128  (  0.765984   0.589701  -1.019141)
  41:      3067.81    0.817702  ( -0.631471  -0.624867   0.168784)
  42:      3077.67    1.092587  (  0.303697  -0.477593   0.878783)
  43:      3140.27    0.336582  ( -0.137878   0.238573  -0.510543)
  44:      3153.32    0.384456  ( -0.242789   0.558004   0.118915)
  45:      3164.72    1.919968  (  0.105180  -1.367519  -0.196972)
  46:      3169.64    0.617621  (  0.194439   0.193681  -0.736412)
  47:      3215.82    1.255975  (  0.920612   0.637432  -0.046133)
  48:      3259.53    0.082008  ( -0.078475   0.020251  -0.274663)
  49:      3268.46    5.758736  ( -1.314826   0.084982   2.005679)
  50:      3565.77  110.044973  ( -1.028232   3.120630  -9.962398)

--------------------------
THERMOCHEMISTRY AT 298.15K
--------------------------

Temperature         ... 298.15 K
Pressure            ... 1.00 atm
Total Mass          ... 96.15 AMU

Throughout the following assumptions are being made:
  (1) The electronic state is orbitally nondegenerate
  (2) There are no thermally accessible electronically excited states
  (3) Hindered rotations indicated by low frequency modes) are not
      treated as such but are treated as vibrations and this may
      case some error
  (4) All equations used are the standard statistical mechanics
      equations for an ideal gas
  (5) All vibrations are strinctly harmonic

------------
INNER ENERGY
------------

The inner energy is: U= E(el) + E(ZPE) + E(vib) + E(rot) + E(trans)
    E(el)   - is the total energy from the electronic structure calculation
              = E(kin-el) + E(nuc-el) + E(el-el) + E(nuc-nuc)
    E(ZPE)  - the the zero temperature vibrational energy from the frequency calculation
    E(vib)  - the the finite temperature correction to E(ZPE) due to population
              of excietd vibrational states
    E(rot)  - is the rotational thermal energy
    E(trans)- is the translational thermal energy

Summary of contributions to the inner energy U:
Electronic energy                ...   -288.87410896 Eh
Zero point energy                ...      0.15400405 Eh      96.64 kcal/mol
Thermal vibrational correction   ...      0.00315508 Eh       1.98 kcal/mol
Thermal rotational correction    ...      0.00141627 Eh       0.89 kcal/mol
Thermal translational correction ...      0.00141627 Eh       0.89 kcal/mol
-----------------------------------------------------------------------
Total thermal energy                   -288.71411729 Eh

Summary of corrections to the electronic energy:
(perhaps to be used in another calculation)
Total thermal correction                  0.00598762 Eh       3.76 kcal/mol
Non-thermal (ZPE) correction              0.15400405 Eh      96.64 kcal/mol
-----------------------------------------------------------------------
Total correction                          0.15999167 Eh     100.40 kcal/mol

--------
ENTHALPY
--------

The enthalpy is H = U + kB*T
                kB is Boltzmann's constant
Total free energy                 ...   -288.71411729 Eh
Thermal Enthalpy correction       ...      0.00094421 Eh       0.59 kcal/mol
-----------------------------------------------------------------------
Total Enthalpy                    ...   -288.71317308 Eh

-------
ENTROPY
-------

The entropy contributions are T*S = T*(S(el)+S(vib)+S(rot)+S(trans)
     S(el)   - electronic entropy
     S(vib)  - vibrational entropy
     S(rot)  - rotational entropy
     S(trans)- translational entropy
The entropies will be listed as mutliplied by the temperature to get
units of energy

Electronic entropy                ...      0.00000000 Eh      0.00 kcal/mol
Vibrational entropy               ...      0.00489355 Eh      3.07 kcal/mol
Rotational entropy                ...      0.01173481 Eh      7.36 kcal/mol
Translational entropy             ...      0.01881568 Eh     11.81 kcal/mol
-----------------------------------------------------------------------
Final entropy term                ...      0.03544404 Eh     22.24 kcal/mol

CAUTION: The rotational entropy is not quite correctly treated here
         because it includes a symmetry number that is not yet correctly
         implemented in ORCA!
For a nonlinear molecule the correct rotational entropy is:
    S(rot) = R*(ln(qrot/sn)+1.5)
    R    = 8.31441 J/mol/K = 1.987191683e-3 kcal/mol/K
    qrot = 167238.1414485
    sn is the rotational symmetry number. We have assumed 3 here
       if it is different for your molecule then you should correct
       the printed rotational entropy by manually evaluating the equation
       as given above

For convenience we print out the resulting values for sn=1 - 12:
 sn= 1  qrot/sn=  167238.1414 T*S(rot)=     8.01 kcal/mol T*S(tot)=    22.89 kcal/mol
 sn= 2  qrot/sn=   83619.0707 T*S(rot)=     7.60 kcal/mol T*S(tot)=    22.48 kcal/mol
 sn= 3  qrot/sn=   55746.0471 T*S(rot)=     7.36 kcal/mol T*S(tot)=    22.24 kcal/mol
 sn= 4  qrot/sn=   41809.5354 T*S(rot)=     7.19 kcal/mol T*S(tot)=    22.07 kcal/mol
 sn= 5  qrot/sn=   33447.6283 T*S(rot)=     7.06 kcal/mol T*S(tot)=    21.94 kcal/mol
 sn= 6  qrot/sn=   27873.0236 T*S(rot)=     6.95 kcal/mol T*S(tot)=    21.83 kcal/mol
 sn= 7  qrot/sn=   23891.1631 T*S(rot)=     6.86 kcal/mol T*S(tot)=    21.74 kcal/mol
 sn= 8  qrot/sn=   20904.7677 T*S(rot)=     6.78 kcal/mol T*S(tot)=    21.66 kcal/mol
 sn= 9  qrot/sn=   18582.0157 T*S(rot)=     6.71 kcal/mol T*S(tot)=    21.59 kcal/mol
 sn=10  qrot/sn=   16723.8141 T*S(rot)=     6.65 kcal/mol T*S(tot)=    21.53 kcal/mol
 sn=11  qrot/sn=   15203.4674 T*S(rot)=     6.59 kcal/mol T*S(tot)=    21.47 kcal/mol
 sn=12  qrot/sn=   13936.5118 T*S(rot)=     6.54 kcal/mol T*S(tot)=    21.42 kcal/mol

-------------------
GIBBS FREE ENTHALPY
-------------------

The Gibbs free enthalpy is G = H - T*S

Total enthalpy                    ...   -288.71317308 Eh
Total entropy correction          ...     -0.03544404 Eh    -22.24 kcal/mol
-----------------------------------------------------------------------
Final Gibbs free enthalpy         ...   -288.74861712 Eh

For completeness - the Gibbs free enthalpy minus the electronic energy
G-E(el)                           ...      0.12549184 Eh     78.75 kcal/mol

                             ****ORCA TERMINATED NORMALLY****
TOTAL RUN TIME: 0 days 0 hours 41 minutes 26 seconds 87 msec
