                         Program Version 3.0.3 - RELEASE   -
|  1> ! NORI PBE0 def2-TZVP UseSym TightOPT Freq TightSCF Grid3 FinalGrid5 XYZFile
|  2> % pal
|  3>     nprocs 8
|  4> end
|  5> %method
|  6>     SymThresh 5.0e-2
|  7> end
|  8> % geom
|  9>     MaxIter 10
| 10> end
| 11> % maxcore 2000
| 12> % output
| 13>     printlevel mini
| 14>     print[ P_Basis ] 0
| 15>     print[ P_SCFInfo ] 1
| 16>     print[ P_SCFIterInfo ] 1
| 17>     print[ P_OrbEn ] 0
| 18>     print[ P_Cartesian ] 0
| 19> end
| 20> % elprop
| 21>     Dipole false
| 22> end
| 23> *xyz 1 1
| 24>  C        1.0366631214    -0.1373333150    -0.3438624270
| 25>  C        2.4652741734     0.0200300685     0.0175534532
| 26>  C        3.1822873252     1.1395182452     0.1003066620
| 27>  C        4.5963748869     0.8734162483     0.4418826580
| 28>  C        5.3747018990     0.0632139779    -0.5191042182
| 29>  N        4.6545356452    -0.6175502301     0.5799482987
| 30>  C        3.3026597808    -1.1826869951     0.3601587387
| 31>  H        0.5688974445     0.8279553296    -0.5295274684
| 32>  H        0.4858848585    -0.6424776966     0.4552244925
| 33>  H        0.9276813623    -0.7518487213    -1.2423893863
| 34>  H        2.8188209511     2.1429645492    -0.0729973438
| 35>  H        5.1215280696     1.4502383503     1.1956412514
| 36>  H        6.4531632681     0.0045095159    -0.4291028628
| 37>  H        4.9569006820    -0.1167901813    -1.5016455507
| 38>  H        5.2245430195    -1.0220526148     1.3134456157
| 39>  H        3.3408722255    -1.9353252731    -0.4312001818
| 40>  H        2.9764212868    -1.6695112573     1.2831782687
| 41> *
| 42>
| 43>                          ****END OF INPUT****
 Total Charge           Charge          ....    1
 Multiplicity           Mult            ....    1
 Number of Electrons    NEL             ....   52
FINAL SINGLE POINT ENERGY      -288.878501579986

CARTESIAN COORDINATES (ANGSTROEM)
---------------------------------
  C      1.322887    0.000034   -2.145233
  C      0.519227   -0.132846   -0.907092
  C     -0.749807   -0.516746   -0.778137
  C     -1.208250   -0.468375    0.627038
  C     -1.204269    0.855039    1.285858
  N     -0.000002   -0.000100    1.379671
  C      1.127177    0.177677    0.434297
  H      0.747318   -0.293251   -3.021719
  H      2.221320   -0.622219   -2.095219
  H      1.658523    1.032175   -2.283029
  H     -1.409037   -0.817338   -1.580707
  H     -1.771873   -1.280456    1.073570
  H     -1.712053    0.989265    2.233354
  H     -1.074678    1.737945    0.672483
  H      0.200751   -0.402658    2.287440
  H      1.521826    1.193119    0.516755
  H      1.920900   -0.523486    0.705763

FINAL SINGLE POINT ENERGY      -288.878502079087
                    ***********************HURRAY********************
 Multiplicity           Mult            ....    1
 Number of Electrons    NEL             ....   52
 Basis Dimension        Dim             ....  277
FINAL SINGLE POINT ENERGY      -288.878502189702

VIBRATIONAL FREQUENCIES
-----------------------

   0:         0.00 cm**-1
   1:         0.00 cm**-1
   2:         0.00 cm**-1
   3:         0.00 cm**-1
   4:         0.00 cm**-1
   5:         0.00 cm**-1
   6:       155.55 cm**-1
   7:       179.66 cm**-1
   8:       313.00 cm**-1
   9:       342.87 cm**-1
  10:       407.58 cm**-1
  11:       492.15 cm**-1
  12:       610.46 cm**-1
  13:       709.40 cm**-1
  14:       787.16 cm**-1
  15:       797.98 cm**-1
  16:       832.36 cm**-1
  17:       887.83 cm**-1
  18:       916.10 cm**-1
  19:       961.03 cm**-1
  20:       986.26 cm**-1
  21:      1002.83 cm**-1
  22:      1042.58 cm**-1
  23:      1070.21 cm**-1
  24:      1085.40 cm**-1
  25:      1140.40 cm**-1
  26:      1154.28 cm**-1
  27:      1157.84 cm**-1
  28:      1221.93 cm**-1
  29:      1232.56 cm**-1
  30:      1264.49 cm**-1
  31:      1294.65 cm**-1
  32:      1363.42 cm**-1
  33:      1394.71 cm**-1
  34:      1417.94 cm**-1
  35:      1434.19 cm**-1
  36:      1467.09 cm**-1
  37:      1471.84 cm**-1
  38:      1475.30 cm**-1
  39:      1495.97 cm**-1
  40:      1727.16 cm**-1
  41:      3052.76 cm**-1
  42:      3078.06 cm**-1
  43:      3111.15 cm**-1
  44:      3127.93 cm**-1
  45:      3162.91 cm**-1
  46:      3164.57 cm**-1
  47:      3198.93 cm**-1
  48:      3248.10 cm**-1
  49:      3269.15 cm**-1
  50:      3573.51 cm**-1

IR SPECTRUM
-----------

 Mode    freq (cm**-1)   T**2         TX         TY         TZ
-------------------------------------------------------------------
   6:       155.55    1.125223  (  0.375630  -0.980357   0.151739)
   7:       179.66    0.913405  ( -0.291471   0.908560  -0.054489)
   8:       313.00    1.419479  ( -1.056020  -0.500586   0.231765)
   9:       342.87    0.801378  ( -0.467954   0.678282   0.349758)
  10:       407.58    5.410778  (  0.598247  -2.226694   0.307751)
  11:       492.15    4.273568  (  0.881170  -1.864665   0.141889)
  12:       610.46    0.662341  ( -0.314945   0.508106   0.552249)
  13:       709.40    3.669872  (  1.467652   1.009600   0.704682)
  14:       787.16    1.185839  (  0.992976   0.206167   0.396651)
  15:       797.98   11.906398  (  2.992336  -0.908776   1.458236)
  16:       832.36   26.459538  ( -1.270268   4.975521   0.300246)
  17:       887.83    1.815751  ( -0.211946  -0.863729  -1.012325)
  18:       916.10    7.151731  ( -0.548921   1.249945   2.299577)
  19:       961.03    1.382210  ( -1.002673  -0.305849  -0.532272)
  20:       986.26   29.359837  (  2.366598   4.723912   1.201546)
  21:      1002.83   11.091397  ( -3.150468   0.989506   0.432233)
  22:      1042.58   11.787562  ( -2.401183   2.359858  -0.673018)
  23:      1070.21    1.717129  ( -0.156398   0.291774  -1.267887)
  24:      1085.40    1.732560  ( -0.172332   1.304912  -0.008104)
  25:      1140.40    7.791682  ( -1.455707  -1.666742  -1.701344)
  26:      1154.28    0.426392  ( -0.286516   0.290233   0.509966)
  27:      1157.84    1.140215  ( -0.853174   0.602619   0.221718)
  28:      1221.93    1.150290  ( -0.897908  -0.091974  -0.579303)
  29:      1232.56    5.672467  (  1.887535   1.451787  -0.044653)
  30:      1264.49    3.272861  (  1.301324   0.878024   0.899161)
  31:      1294.65    0.237142  ( -0.380647  -0.246367   0.177631)
  32:      1363.42   10.123562  (  2.910149  -0.657677   1.105466)
  33:      1394.71   11.191583  ( -2.848686  -1.535314   0.848165)
  34:      1417.94    8.793556  (  1.376795   1.053408  -2.405893)
  35:      1434.19   23.306882  (  4.302374  -1.584849  -1.511527)
  36:      1467.09   13.270199  (  1.343755  -3.353128   0.470163)
  37:      1471.84   14.705141  (  3.660448   0.990591   0.570083)
  38:      1475.30    4.715292  (  1.653951  -1.182118   0.763109)
  39:      1495.97   24.521631  (  3.202218   3.389847   1.666245)
  40:      1727.16   21.801203  ( -3.323141  -0.976025   3.131343)
  41:      3052.76    0.774347  ( -0.827996  -0.182893   0.235200)
  42:      3078.06    2.011579  (  1.393527   0.261527   0.035562)
  43:      3111.15    1.299815  ( -0.475695   1.035946   0.018584)
  44:      3127.93    0.144579  ( -0.029993   0.299214   0.232703)
  45:      3162.91    1.390612  ( -0.594216   1.010431   0.128645)
  46:      3164.57    1.340234  (  0.430770   0.256855   1.043406)
  47:      3198.93    0.875214  (  0.051750  -0.852862  -0.381002)
  48:      3248.10    6.727731  (  2.206265   0.784976   1.115319)
  49:      3269.15    3.761692  (  0.638757   1.119527  -1.449256)
  50:      3573.51  117.556619  (  2.685646  -3.749993   9.812313)

--------------------------
THERMOCHEMISTRY AT 298.15K
--------------------------

Temperature         ... 298.15 K
Pressure            ... 1.00 atm
Total Mass          ... 96.15 AMU

Throughout the following assumptions are being made:
  (1) The electronic state is orbitally nondegenerate
  (2) There are no thermally accessible electronically excited states
  (3) Hindered rotations indicated by low frequency modes) are not
      treated as such but are treated as vibrations and this may
      case some error
  (4) All equations used are the standard statistical mechanics
      equations for an ideal gas
  (5) All vibrations are strinctly harmonic

------------
INNER ENERGY
------------

The inner energy is: U= E(el) + E(ZPE) + E(vib) + E(rot) + E(trans)
    E(el)   - is the total energy from the electronic structure calculation
              = E(kin-el) + E(nuc-el) + E(el-el) + E(nuc-nuc)
    E(ZPE)  - the the zero temperature vibrational energy from the frequency calculation
    E(vib)  - the the finite temperature correction to E(ZPE) due to population
              of excietd vibrational states
    E(rot)  - is the rotational thermal energy
    E(trans)- is the translational thermal energy

Summary of contributions to the inner energy U:
Electronic energy                ...   -288.87850219 Eh
Zero point energy                ...      0.15327800 Eh      96.18 kcal/mol
Thermal vibrational correction   ...      0.00350647 Eh       2.20 kcal/mol
Thermal rotational correction    ...      0.00141627 Eh       0.89 kcal/mol
Thermal translational correction ...      0.00141627 Eh       0.89 kcal/mol
-----------------------------------------------------------------------
Total thermal energy                   -288.71888517 Eh

Summary of corrections to the electronic energy:
(perhaps to be used in another calculation)
Total thermal correction                  0.00633902 Eh       3.98 kcal/mol
Non-thermal (ZPE) correction              0.15327800 Eh      96.18 kcal/mol
-----------------------------------------------------------------------
Total correction                          0.15961702 Eh     100.16 kcal/mol

--------
ENTHALPY
--------

The enthalpy is H = U + kB*T
                kB is Boltzmann's constant
Total free energy                 ...   -288.71888517 Eh
Thermal Enthalpy correction       ...      0.00094421 Eh       0.59 kcal/mol
-----------------------------------------------------------------------
Total Enthalpy                    ...   -288.71794096 Eh

-------
ENTROPY
-------

The entropy contributions are T*S = T*(S(el)+S(vib)+S(rot)+S(trans)
     S(el)   - electronic entropy
     S(vib)  - vibrational entropy
     S(rot)  - rotational entropy
     S(trans)- translational entropy
The entropies will be listed as mutliplied by the temperature to get
units of energy

Electronic entropy                ...      0.00000000 Eh      0.00 kcal/mol
Vibrational entropy               ...      0.00552935 Eh      3.47 kcal/mol
Rotational entropy                ...      0.01176551 Eh      7.38 kcal/mol
Translational entropy             ...      0.01881568 Eh     11.81 kcal/mol
-----------------------------------------------------------------------
Final entropy term                ...      0.03611055 Eh     22.66 kcal/mol

CAUTION: The rotational entropy is not quite correctly treated here
         because it includes a symmetry number that is not yet correctly
         implemented in ORCA!
For a nonlinear molecule the correct rotational entropy is:
    S(rot) = R*(ln(qrot/sn)+1.5)
    R    = 8.31441 J/mol/K = 1.987191683e-3 kcal/mol/K
    qrot = 172765.4678316
    sn is the rotational symmetry number. We have assumed 3 here
       if it is different for your molecule then you should correct
       the printed rotational entropy by manually evaluating the equation
       as given above

For convenience we print out the resulting values for sn=1 - 12:
 sn= 1  qrot/sn=  172765.4678 T*S(rot)=     8.03 kcal/mol T*S(tot)=    23.31 kcal/mol
 sn= 2  qrot/sn=   86382.7339 T*S(rot)=     7.62 kcal/mol T*S(tot)=    22.90 kcal/mol
 sn= 3  qrot/sn=   57588.4893 T*S(rot)=     7.38 kcal/mol T*S(tot)=    22.66 kcal/mol
 sn= 4  qrot/sn=   43191.3670 T*S(rot)=     7.21 kcal/mol T*S(tot)=    22.49 kcal/mol
 sn= 5  qrot/sn=   34553.0936 T*S(rot)=     7.08 kcal/mol T*S(tot)=    22.36 kcal/mol
 sn= 6  qrot/sn=   28794.2446 T*S(rot)=     6.97 kcal/mol T*S(tot)=    22.25 kcal/mol
 sn= 7  qrot/sn=   24680.7811 T*S(rot)=     6.88 kcal/mol T*S(tot)=    22.16 kcal/mol
 sn= 8  qrot/sn=   21595.6835 T*S(rot)=     6.80 kcal/mol T*S(tot)=    22.08 kcal/mol
 sn= 9  qrot/sn=   19196.1631 T*S(rot)=     6.73 kcal/mol T*S(tot)=    22.01 kcal/mol
 sn=10  qrot/sn=   17276.5468 T*S(rot)=     6.67 kcal/mol T*S(tot)=    21.95 kcal/mol
 sn=11  qrot/sn=   15705.9516 T*S(rot)=     6.61 kcal/mol T*S(tot)=    21.89 kcal/mol
 sn=12  qrot/sn=   14397.1223 T*S(rot)=     6.56 kcal/mol T*S(tot)=    21.84 kcal/mol

-------------------
GIBBS FREE ENTHALPY
-------------------

The Gibbs free enthalpy is G = H - T*S

Total enthalpy                    ...   -288.71794096 Eh
Total entropy correction          ...     -0.03611055 Eh    -22.66 kcal/mol
-----------------------------------------------------------------------
Final Gibbs free enthalpy         ...   -288.75405151 Eh

For completeness - the Gibbs free enthalpy minus the electronic energy
G-E(el)                           ...      0.12445068 Eh     78.09 kcal/mol

                             ****ORCA TERMINATED NORMALLY****
TOTAL RUN TIME: 0 days 0 hours 45 minutes 20 seconds 907 msec
