                         Program Version 3.0.3 - RELEASE   -
|  1> ! NORI PBE0 def2-TZVP UseSym TightOPT Freq TightSCF Grid3 FinalGrid5 XYZFile
|  2> % pal
|  3>     nprocs 8
|  4> end
|  5> %method
|  6>     SymThresh 5.0e-2
|  7> end
|  8> % geom
|  9>     MaxIter 10
| 10> end
| 11> % maxcore 2000
| 12> % output
| 13>     printlevel mini
| 14>     print[ P_Basis ] 0
| 15>     print[ P_SCFInfo ] 1
| 16>     print[ P_SCFIterInfo ] 1
| 17>     print[ P_OrbEn ] 0
| 18>     print[ P_Cartesian ] 0
| 19> end
| 20> % elprop
| 21>     Dipole false
| 22> end
| 23> *xyz 1 1
| 24>  C        1.3855000420     0.2288781912     0.9076275027
| 25>  C        2.3833470317    -0.0531634924    -0.1994755124
| 26>  C        2.2714829092    -1.4693138096    -0.7955864176
| 27>  C        2.7581696523    -1.3408901204    -2.2110871687
| 28>  N        4.0541946356    -0.6000315331    -2.3329364936
| 29>  C        2.7466489616     0.0858840030    -2.5851594054
| 30>  C        2.2510335207     0.8852386108    -1.4139561075
| 31>  H        1.5022372643     1.2438344259     1.2912872458
| 32>  H        1.5226627270    -0.4587618742     1.7439005242
| 33>  H        0.3604036178     0.1203459811     0.5442558543
| 34>  H        3.3870299890     0.0683735639     0.2299232877
| 35>  H        2.8033207621    -2.2303536564    -0.2220981880
| 36>  H        1.2240462461    -1.7813594539    -0.8538403463
| 37>  H        2.6533950804    -2.1397338055    -2.9346116511
| 38>  H        4.5636594375    -0.3743033489    -1.4849426830
| 39>  H        4.6419585810    -0.8042815711    -3.1328337313
| 40>  H        2.6339442979     0.4247121486    -3.6073877517
| 41>  H        1.1989346566     1.1104855501    -1.6142036786
| 42>  H        2.7672505870     1.8387301908    -1.2903152796
| 43> *
| 44>
| 45>                          ****END OF INPUT****
 Total Charge           Charge          ....    1
 Multiplicity           Mult            ....    1
 Number of Electrons    NEL             ....   54
FINAL SINGLE POINT ENERGY      -290.110865373957

CARTESIAN COORDINATES (ANGSTROEM)
---------------------------------
  C     -2.277737    1.017195   -0.000000
  C     -0.789463    0.723100    0.000000
  C     -0.314030   -0.092755    1.217326
  C      0.891012   -0.850746    0.737445
  N      1.879166   -0.000263   -0.000000
  C      0.891012   -0.850746   -0.737445
  C     -0.314030   -0.092755   -1.217326
  H     -2.563367    1.594529   -0.880937
  H     -2.563367    1.594529    0.880937
  H     -2.857227    0.090384   -0.000000
  H     -0.267870    1.689326    0.000000
  H     -0.119938    0.513787    2.103760
  H     -1.062309   -0.841730    1.495379
  H      1.356172   -1.632033    1.325448
  H      1.746780    1.005706    0.000000
  H      2.848549   -0.295112   -0.000000
  H      1.356172   -1.632033   -1.325448
  H     -1.062309   -0.841730   -1.495379
  H     -0.119938    0.513787   -2.103760

FINAL SINGLE POINT ENERGY      -290.110865848563
                    ***********************HURRAY********************
 Multiplicity           Mult            ....    1
 Number of Electrons    NEL             ....   54
 Basis Dimension        Dim             ....  289
FINAL SINGLE POINT ENERGY      -290.110865945661

VIBRATIONAL FREQUENCIES
-----------------------

   0:         0.00 cm**-1
   1:         0.00 cm**-1
   2:         0.00 cm**-1
   3:         0.00 cm**-1
   4:         0.00 cm**-1
   5:         0.00 cm**-1
   6:       146.14 cm**-1
   7:       243.61 cm**-1
   8:       286.71 cm**-1
   9:       337.47 cm**-1
  10:       370.47 cm**-1
  11:       427.51 cm**-1
  12:       610.96 cm**-1
  13:       624.06 cm**-1
  14:       759.51 cm**-1
  15:       841.08 cm**-1
  16:       849.21 cm**-1
  17:       879.44 cm**-1
  18:       882.53 cm**-1
  19:       918.20 cm**-1
  20:       940.02 cm**-1
  21:       967.41 cm**-1
  22:       987.76 cm**-1
  23:      1006.40 cm**-1
  24:      1040.47 cm**-1
  25:      1070.22 cm**-1
  26:      1101.82 cm**-1
  27:      1140.41 cm**-1
  28:      1170.93 cm**-1
  29:      1172.99 cm**-1
  30:      1207.44 cm**-1
  31:      1253.73 cm**-1
  32:      1273.27 cm**-1
  33:      1305.30 cm**-1
  34:      1330.28 cm**-1
  35:      1339.92 cm**-1
  36:      1377.83 cm**-1
  37:      1383.23 cm**-1
  38:      1406.88 cm**-1
  39:      1420.98 cm**-1
  40:      1469.12 cm**-1
  41:      1479.89 cm**-1
  42:      1488.69 cm**-1
  43:      1495.11 cm**-1
  44:      1615.15 cm**-1
  45:      3018.82 cm**-1
  46:      3057.49 cm**-1
  47:      3072.61 cm**-1
  48:      3074.93 cm**-1
  49:      3129.45 cm**-1
  50:      3130.67 cm**-1
  51:      3135.60 cm**-1
  52:      3144.87 cm**-1
  53:      3217.91 cm**-1
  54:      3226.10 cm**-1
  55:      3511.31 cm**-1
  56:      3621.59 cm**-1

IR SPECTRUM
-----------

 Mode    freq (cm**-1)   T**2         TX         TY         TZ
-------------------------------------------------------------------
   6:       146.14    1.760545  ( -0.804907   1.054831  -0.000004)
   7:       243.61    0.008123  (  0.000000  -0.000000  -0.090126)
   8:       286.71    1.538374  ( -0.000002   0.000000  -1.240312)
   9:       337.47    0.607298  ( -0.000001  -0.000000   0.779293)
  10:       370.47    6.318275  (  2.184302  -1.243824  -0.000002)
  11:       427.51    0.884496  ( -0.686775  -0.642523   0.000005)
  12:       610.96    2.242532  ( -1.483934  -0.201178   0.000004)
  13:       624.06    1.772164  ( -0.000007  -0.000001  -1.331227)
  14:       759.51    1.157576  (  0.000000   0.000000  -1.075907)
  15:       841.08    7.705532  (  2.190558   1.704989  -0.000000)
  16:       849.21   20.086153  ( -3.808577  -2.362391   0.000000)
  17:       879.44    0.096309  (  0.000004   0.000000  -0.310337)
  18:       882.53    3.641129  ( -1.908000  -0.025754  -0.000003)
  19:       918.20    3.369213  (  1.047951  -1.506988  -0.000002)
  20:       940.02    0.177353  (  0.000000   0.000001   0.421133)
  21:       967.41    3.123346  ( -0.000000  -0.000000  -1.767299)
  22:       987.76    1.979652  ( -0.803483   1.155019  -0.000005)
  23:      1006.40   54.987184  (  0.000000   0.000000  -7.415334)
  24:      1040.47   39.300415  ( -0.000000  -0.000000   6.269004)
  25:      1070.22    6.307437  ( -2.505612  -0.171307   0.000001)
  26:      1101.82    3.948555  (  1.712635   1.007688   0.000001)
  27:      1140.41    0.006710  ( -0.000000  -0.000000   0.081916)
  28:      1170.93    2.842630  ( -0.407716   1.635970  -0.000006)
  29:      1172.99    0.485492  ( -0.000001   0.000009   0.696772)
  30:      1207.44    0.086265  (  0.000001   0.000001  -0.293710)
  31:      1253.73    3.352777  ( -0.567084  -1.741032  -0.000002)
  32:      1273.27    2.381800  (  1.430093  -0.580203   0.000003)
  33:      1305.30    1.813239  (  0.000000   0.000000  -1.346566)
  34:      1330.28   14.130783  (  2.242974  -3.016596  -0.000001)
  35:      1339.92    6.046834  (  0.000000  -0.000000   2.459031)
  36:      1377.83    1.669987  ( -0.000002   0.000001   1.292280)
  37:      1383.23    4.704623  (  1.932491  -0.984937   0.000003)
  38:      1406.88    0.211030  ( -0.096569  -0.449115   0.000002)
  39:      1420.98    3.787034  ( -1.892844  -0.451858   0.000001)
  40:      1469.12    9.903855  (  0.000001  -0.000001  -3.147039)
  41:      1479.89    4.437206  ( -2.105873   0.050049  -0.000006)
  42:      1488.69    8.465359  (  0.000000   0.000000  -2.909529)
  43:      1495.11   14.486987  (  0.971356   3.680143  -0.000015)
  44:      1615.15   94.312389  (  7.949641   5.578135  -0.000000)
  45:      3018.82   16.667380  ( -3.104865  -2.650885  -0.000000)
  46:      3057.49    7.594707  (  2.742609   0.269818  -0.000008)
  47:      3072.61    1.989453  (  0.000000  -0.000000  -1.410480)
  48:      3074.93    1.223782  (  0.119725   1.099749  -0.000001)
  49:      3129.45    2.262144  (  0.000000  -0.000000  -1.504043)
  50:      3130.67    0.219104  ( -0.110739   0.454797   0.000004)
  51:      3135.60   11.386939  ( -0.385658  -3.352343  -0.000006)
  52:      3144.87    5.641865  ( -0.000000  -0.000000  -2.375261)
  53:      3217.91    1.145668  (  0.000000   0.000000   1.070359)
  54:      3226.10    1.299037  ( -0.127928  -1.132551   0.000000)
  55:      3511.31   77.107112  ( -7.048090  -5.237512  -0.000000)
  56:      3621.59  132.560801  ( -9.340793   6.731299  -0.000000)

--------------------------
THERMOCHEMISTRY AT 298.15K
--------------------------

Temperature         ... 298.15 K
Pressure            ... 1.00 atm
Total Mass          ... 98.17 AMU

Throughout the following assumptions are being made:
  (1) The electronic state is orbitally nondegenerate
  (2) There are no thermally accessible electronically excited states
  (3) Hindered rotations indicated by low frequency modes) are not
      treated as such but are treated as vibrations and this may
      case some error
  (4) All equations used are the standard statistical mechanics
      equations for an ideal gas
  (5) All vibrations are strinctly harmonic

------------
INNER ENERGY
------------

The inner energy is: U= E(el) + E(ZPE) + E(vib) + E(rot) + E(trans)
    E(el)   - is the total energy from the electronic structure calculation
              = E(kin-el) + E(nuc-el) + E(el-el) + E(nuc-nuc)
    E(ZPE)  - the the zero temperature vibrational energy from the frequency calculation
    E(vib)  - the the finite temperature correction to E(ZPE) due to population
              of excietd vibrational states
    E(rot)  - is the rotational thermal energy
    E(trans)- is the translational thermal energy

Summary of contributions to the inner energy U:
Electronic energy                ...   -290.11086595 Eh
Zero point energy                ...      0.17761393 Eh     111.45 kcal/mol
Thermal vibrational correction   ...      0.00370486 Eh       2.32 kcal/mol
Thermal rotational correction    ...      0.00141627 Eh       0.89 kcal/mol
Thermal translational correction ...      0.00141627 Eh       0.89 kcal/mol
-----------------------------------------------------------------------
Total thermal energy                   -289.92671461 Eh

Summary of corrections to the electronic energy:
(perhaps to be used in another calculation)
Total thermal correction                  0.00653740 Eh       4.10 kcal/mol
Non-thermal (ZPE) correction              0.17761393 Eh     111.45 kcal/mol
-----------------------------------------------------------------------
Total correction                          0.18415133 Eh     115.56 kcal/mol

--------
ENTHALPY
--------

The enthalpy is H = U + kB*T
                kB is Boltzmann's constant
Total free energy                 ...   -289.92671461 Eh
Thermal Enthalpy correction       ...      0.00094421 Eh       0.59 kcal/mol
-----------------------------------------------------------------------
Total Enthalpy                    ...   -289.92577041 Eh

-------
ENTROPY
-------

The entropy contributions are T*S = T*(S(el)+S(vib)+S(rot)+S(trans)
     S(el)   - electronic entropy
     S(vib)  - vibrational entropy
     S(rot)  - rotational entropy
     S(trans)- translational entropy
The entropies will be listed as mutliplied by the temperature to get
units of energy

Electronic entropy                ...      0.00000000 Eh      0.00 kcal/mol
Vibrational entropy               ...      0.00575100 Eh      3.61 kcal/mol
Rotational entropy                ...      0.01183704 Eh      7.43 kcal/mol
Translational entropy             ...      0.01884507 Eh     11.83 kcal/mol
-----------------------------------------------------------------------
Final entropy term                ...      0.03643310 Eh     22.86 kcal/mol

CAUTION: The rotational entropy is not quite correctly treated here
         because it includes a symmetry number that is not yet correctly
         implemented in ORCA!
For a nonlinear molecule the correct rotational entropy is:
    S(rot) = R*(ln(qrot/sn)+1.5)
    R    = 8.31441 J/mol/K = 1.987191683e-3 kcal/mol/K
    qrot = 186361.4168761
    sn is the rotational symmetry number. We have assumed 3 here
       if it is different for your molecule then you should correct
       the printed rotational entropy by manually evaluating the equation
       as given above

For convenience we print out the resulting values for sn=1 - 12:
 sn= 1  qrot/sn=  186361.4169 T*S(rot)=     8.08 kcal/mol T*S(tot)=    23.51 kcal/mol
 sn= 2  qrot/sn=   93180.7084 T*S(rot)=     7.67 kcal/mol T*S(tot)=    23.10 kcal/mol
 sn= 3  qrot/sn=   62120.4723 T*S(rot)=     7.43 kcal/mol T*S(tot)=    22.86 kcal/mol
 sn= 4  qrot/sn=   46590.3542 T*S(rot)=     7.26 kcal/mol T*S(tot)=    22.69 kcal/mol
 sn= 5  qrot/sn=   37272.2834 T*S(rot)=     7.13 kcal/mol T*S(tot)=    22.56 kcal/mol
 sn= 6  qrot/sn=   31060.2361 T*S(rot)=     7.02 kcal/mol T*S(tot)=    22.45 kcal/mol
 sn= 7  qrot/sn=   26623.0596 T*S(rot)=     6.93 kcal/mol T*S(tot)=    22.36 kcal/mol
 sn= 8  qrot/sn=   23295.1771 T*S(rot)=     6.85 kcal/mol T*S(tot)=    22.28 kcal/mol
 sn= 9  qrot/sn=   20706.8241 T*S(rot)=     6.78 kcal/mol T*S(tot)=    22.21 kcal/mol
 sn=10  qrot/sn=   18636.1417 T*S(rot)=     6.71 kcal/mol T*S(tot)=    22.15 kcal/mol
 sn=11  qrot/sn=   16941.9470 T*S(rot)=     6.66 kcal/mol T*S(tot)=    22.09 kcal/mol
 sn=12  qrot/sn=   15530.1181 T*S(rot)=     6.61 kcal/mol T*S(tot)=    22.04 kcal/mol

-------------------
GIBBS FREE ENTHALPY
-------------------

The Gibbs free enthalpy is G = H - T*S

Total enthalpy                    ...   -289.92577041 Eh
Total entropy correction          ...     -0.03643310 Eh    -22.86 kcal/mol
-----------------------------------------------------------------------
Final Gibbs free enthalpy         ...   -289.96220351 Eh

For completeness - the Gibbs free enthalpy minus the electronic energy
G-E(el)                           ...      0.14866244 Eh     93.29 kcal/mol

                             ****ORCA TERMINATED NORMALLY****
TOTAL RUN TIME: 0 days 0 hours 52 minutes 24 seconds 222 msec
