                         Program Version 3.0.3 - RELEASE   -
|  1> ! NORI PBE0 def2-TZVP UseSym TightOPT Freq TightSCF Grid3 FinalGrid5 XYZFile
|  2> % pal
|  3>     nprocs 8
|  4> end
|  5> %method
|  6>     SymThresh 5.0e-2
|  7> end
|  8> % geom
|  9>     MaxIter 10
| 10> end
| 11> % maxcore 2000
| 12> % output
| 13>     printlevel mini
| 14>     print[ P_Basis ] 0
| 15>     print[ P_SCFInfo ] 1
| 16>     print[ P_SCFIterInfo ] 1
| 17>     print[ P_OrbEn ] 0
| 18>     print[ P_Cartesian ] 0
| 19> end
| 20> % elprop
| 21>     Dipole false
| 22> end
| 23> *xyz 1 1
| 24>  C        1.5031068133     0.0517119519     1.1789162258
| 25>  C        2.2817571360     0.0163927496     0.1084077734
| 26>  C        2.8456853719    -1.2276073709    -0.5386573794
| 27>  C        4.1825385295    -0.7671945987    -1.0582338644
| 28>  N        4.9633346504    -0.0034623441    -0.0365460299
| 29>  C        4.1912876696     0.7091942017    -1.1007040119
| 30>  C        2.8601146375     1.2144320106    -0.6085982024
| 31>  H        1.1636917276     0.9905970551     1.6013031478
| 32>  H        1.1526537421    -0.8573741746     1.6542542794
| 33>  H        2.9073559684    -2.0871114345     0.1305618851
| 34>  H        2.2527080410    -1.5300659805    -1.4097976582
| 35>  H        4.7967078312    -1.3770265787    -1.7084584245
| 36>  H        4.5874314332     0.0261935949     0.9096895928
| 37>  H        5.9748589086    -0.0114041953    -0.1000303820
| 38>  H        4.8121475175     1.2734921341    -1.7848805709
| 39>  H        2.2705096344     1.4737935026    -1.4957604232
| 40>  H        2.9323003880     2.1098194767     0.0105140427
| 41> *
| 42>
| 43>                          ****END OF INPUT****
 Total Charge           Charge          ....    1
 Multiplicity           Mult            ....    1
 Number of Electrons    NEL             ....   52
FINAL SINGLE POINT ENERGY      -288.880493797689

CARTESIAN COORDINATES (ANGSTROEM)
---------------------------------
  C     -1.564561    1.705498   -0.000000
  C     -0.949630    0.532584   -0.000000
  C     -0.483827   -0.225764    1.221452
  C      0.762896   -0.919761    0.738481
  N      1.681742    0.000235    0.000000
  C      0.762896   -0.919761   -0.738481
  C     -0.483827   -0.225764   -1.221452
  H     -1.840912    2.199853   -0.924352
  H     -1.840912    2.199853    0.924352
  H     -0.324573    0.401925    2.099401
  H     -1.196543   -1.010122    1.501986
  H      1.277236   -1.669544    1.325725
  H      1.446315    0.991072    0.000000
  H      2.673153   -0.208763   -0.000000
  H      1.277236   -1.669544   -1.325725
  H     -1.196543   -1.010122   -1.501986
  H     -0.324573    0.401925   -2.099401

FINAL SINGLE POINT ENERGY      -288.880494364531
                    ***********************HURRAY********************
 Multiplicity           Mult            ....    1
 Number of Electrons    NEL             ....   52
 Basis Dimension        Dim             ....  277
FINAL SINGLE POINT ENERGY      -288.880494535939

VIBRATIONAL FREQUENCIES
-----------------------

   0:         0.00 cm**-1
   1:         0.00 cm**-1
   2:         0.00 cm**-1
   3:         0.00 cm**-1
   4:         0.00 cm**-1
   5:         0.00 cm**-1
   6:       118.22 cm**-1
   7:       324.36 cm**-1
   8:       381.21 cm**-1
   9:       388.12 cm**-1
  10:       434.57 cm**-1
  11:       611.65 cm**-1
  12:       668.09 cm**-1
  13:       731.91 cm**-1
  14:       769.57 cm**-1
  15:       844.35 cm**-1
  16:       855.98 cm**-1
  17:       888.67 cm**-1
  18:       917.59 cm**-1
  19:       923.46 cm**-1
  20:       945.15 cm**-1
  21:       974.92 cm**-1
  22:       991.79 cm**-1
  23:      1015.80 cm**-1
  24:      1046.51 cm**-1
  25:      1066.65 cm**-1
  26:      1107.54 cm**-1
  27:      1143.23 cm**-1
  28:      1202.23 cm**-1
  29:      1216.79 cm**-1
  30:      1256.20 cm**-1
  31:      1257.88 cm**-1
  32:      1308.44 cm**-1
  33:      1314.74 cm**-1
  34:      1374.07 cm**-1
  35:      1396.05 cm**-1
  36:      1455.34 cm**-1
  37:      1456.23 cm**-1
  38:      1469.09 cm**-1
  39:      1598.74 cm**-1
  40:      1755.90 cm**-1
  41:      3058.22 cm**-1
  42:      3060.02 cm**-1
  43:      3132.01 cm**-1
  44:      3132.64 cm**-1
  45:      3165.42 cm**-1
  46:      3224.63 cm**-1
  47:      3232.60 cm**-1
  48:      3254.92 cm**-1
  49:      3471.10 cm**-1
  50:      3608.86 cm**-1

IR SPECTRUM
-----------

 Mode    freq (cm**-1)   T**2         TX         TY         TZ
-------------------------------------------------------------------
   6:       118.22    3.545334  ( -0.991269   1.600850  -0.000009)
   7:       324.36    1.594978  (  0.000018  -0.000021  -1.262924)
   8:       381.21    0.312996  (  0.000144  -0.000204  -0.559460)
   9:       388.12    4.198091  (  1.141737  -1.701331   0.000078)
  10:       434.57   17.791425  ( -4.179125  -0.571265  -0.000002)
  11:       611.65    1.307661  (  0.000003  -0.000002   1.143530)
  12:       668.09    2.542923  (  1.347338   0.852997   0.000002)
  13:       731.91    0.674026  (  0.000002  -0.000000   0.820991)
  14:       769.57    1.827972  ( -0.000007  -0.000011  -1.352025)
  15:       844.35    8.206186  (  2.619213   1.160132   0.000013)
  16:       855.98   20.870767  (  3.376419   3.077428   0.000010)
  17:       888.67    2.079698  ( -1.439263  -0.090663  -0.000027)
  18:       917.59    0.230420  ( -0.000034   0.000003   0.480021)
  19:       923.46    8.854635  (  2.753895  -1.127251   0.000001)
  20:       945.15    0.411540  (  0.000027   0.000009  -0.641514)
  21:       974.92    6.640093  (  0.000026  -0.000003  -2.576838)
  22:       991.79   35.117629  ( -5.001807  -3.177981   0.000005)
  23:      1015.80   56.075021  (  0.000026   0.000003   7.488326)
  24:      1046.51    6.759772  ( -2.178741  -1.418753   0.000190)
  25:      1066.65   29.256960  (  0.000000   0.000074   5.408970)
  26:      1107.54   14.152198  ( -2.698713   2.620905  -0.000055)
  27:      1143.23    1.219347  (  0.000026  -0.000022   1.104241)
  28:      1202.23    0.000627  (  0.000032   0.000036   0.025047)
  29:      1216.79    3.545465  (  1.628152   0.945825  -0.000002)
  30:      1256.20    5.434654  ( -1.241406   1.973212   0.000010)
  31:      1257.88    0.106144  (  0.000005  -0.000036   0.325798)
  32:      1308.44    4.396228  ( -0.000142   0.000141  -2.096718)
  33:      1314.74    9.800746  ( -2.109667   2.313018   0.000136)
  34:      1374.07    2.893922  (  0.000017  -0.000024   1.701153)
  35:      1396.05    0.696648  ( -0.768217   0.326328  -0.000005)
  36:      1455.34    7.973126  (  0.463763  -2.785328   0.000832)
  37:      1456.23   17.594703  (  0.000186  -0.000565  -4.194604)
  38:      1469.09    8.044208  ( -2.806357   0.410571  -0.000133)
  39:      1598.74   91.272838  (  8.139866   5.001542  -0.000002)
  40:      1755.90    3.277561  ( -0.755199   1.645368   0.000000)
  41:      3058.22    0.280914  ( -0.000604   0.000329  -0.530013)
  42:      3060.02    1.851671  (  1.193766  -0.653141  -0.000273)
  43:      3132.01    1.091989  ( -0.000038  -0.000011   1.044983)
  44:      3132.64    0.091386  (  0.296433   0.059281   0.000154)
  45:      3165.42    0.143147  ( -0.125001   0.357102  -0.000000)
  46:      3224.63    1.894518  (  0.000009  -0.000124  -1.376415)
  47:      3232.60    2.121192  (  0.271516  -1.430899   0.000120)
  48:      3254.92    0.015073  ( -0.000000   0.000000   0.122773)
  49:      3471.10   64.237996  ( -3.678225  -7.121001  -0.000000)
  50:      3608.86  161.688075  ( 11.675482  -5.036983   0.000000)

--------------------------
THERMOCHEMISTRY AT 298.15K
--------------------------

Temperature         ... 298.15 K
Pressure            ... 1.00 atm
Total Mass          ... 96.15 AMU

Throughout the following assumptions are being made:
  (1) The electronic state is orbitally nondegenerate
  (2) There are no thermally accessible electronically excited states
  (3) Hindered rotations indicated by low frequency modes) are not
      treated as such but are treated as vibrations and this may
      case some error
  (4) All equations used are the standard statistical mechanics
      equations for an ideal gas
  (5) All vibrations are strinctly harmonic

------------
INNER ENERGY
------------

The inner energy is: U= E(el) + E(ZPE) + E(vib) + E(rot) + E(trans)
    E(el)   - is the total energy from the electronic structure calculation
              = E(kin-el) + E(nuc-el) + E(el-el) + E(nuc-nuc)
    E(ZPE)  - the the zero temperature vibrational energy from the frequency calculation
    E(vib)  - the the finite temperature correction to E(ZPE) due to population
              of excietd vibrational states
    E(rot)  - is the rotational thermal energy
    E(trans)- is the translational thermal energy

Summary of contributions to the inner energy U:
Electronic energy                ...   -288.88049454 Eh
Zero point energy                ...      0.15389356 Eh      96.57 kcal/mol
Thermal vibrational correction   ...      0.00315357 Eh       1.98 kcal/mol
Thermal rotational correction    ...      0.00141627 Eh       0.89 kcal/mol
Thermal translational correction ...      0.00141627 Eh       0.89 kcal/mol
-----------------------------------------------------------------------
Total thermal energy                   -288.72061486 Eh

Summary of corrections to the electronic energy:
(perhaps to be used in another calculation)
Total thermal correction                  0.00598612 Eh       3.76 kcal/mol
Non-thermal (ZPE) correction              0.15389356 Eh      96.57 kcal/mol
-----------------------------------------------------------------------
Total correction                          0.15987968 Eh     100.33 kcal/mol

--------
ENTHALPY
--------

The enthalpy is H = U + kB*T
                kB is Boltzmann's constant
Total free energy                 ...   -288.72061486 Eh
Thermal Enthalpy correction       ...      0.00094421 Eh       0.59 kcal/mol
-----------------------------------------------------------------------
Total Enthalpy                    ...   -288.71967065 Eh

-------
ENTROPY
-------

The entropy contributions are T*S = T*(S(el)+S(vib)+S(rot)+S(trans)
     S(el)   - electronic entropy
     S(vib)  - vibrational entropy
     S(rot)  - rotational entropy
     S(trans)- translational entropy
The entropies will be listed as mutliplied by the temperature to get
units of energy

Electronic entropy                ...      0.00000000 Eh      0.00 kcal/mol
Vibrational entropy               ...      0.00488540 Eh      3.07 kcal/mol
Rotational entropy                ...      0.01173561 Eh      7.36 kcal/mol
Translational entropy             ...      0.01881568 Eh     11.81 kcal/mol
-----------------------------------------------------------------------
Final entropy term                ...      0.03543670 Eh     22.24 kcal/mol

CAUTION: The rotational entropy is not quite correctly treated here
         because it includes a symmetry number that is not yet correctly
         implemented in ORCA!
For a nonlinear molecule the correct rotational entropy is:
    S(rot) = R*(ln(qrot/sn)+1.5)
    R    = 8.31441 J/mol/K = 1.987191683e-3 kcal/mol/K
    qrot = 167380.1281973
    sn is the rotational symmetry number. We have assumed 3 here
       if it is different for your molecule then you should correct
       the printed rotational entropy by manually evaluating the equation
       as given above

For convenience we print out the resulting values for sn=1 - 12:
 sn= 1  qrot/sn=  167380.1282 T*S(rot)=     8.02 kcal/mol T*S(tot)=    22.89 kcal/mol
 sn= 2  qrot/sn=   83690.0641 T*S(rot)=     7.60 kcal/mol T*S(tot)=    22.48 kcal/mol
 sn= 3  qrot/sn=   55793.3761 T*S(rot)=     7.36 kcal/mol T*S(tot)=    22.24 kcal/mol
 sn= 4  qrot/sn=   41845.0320 T*S(rot)=     7.19 kcal/mol T*S(tot)=    22.07 kcal/mol
 sn= 5  qrot/sn=   33476.0256 T*S(rot)=     7.06 kcal/mol T*S(tot)=    21.93 kcal/mol
 sn= 6  qrot/sn=   27896.6880 T*S(rot)=     6.95 kcal/mol T*S(tot)=    21.83 kcal/mol
 sn= 7  qrot/sn=   23911.4469 T*S(rot)=     6.86 kcal/mol T*S(tot)=    21.73 kcal/mol
 sn= 8  qrot/sn=   20922.5160 T*S(rot)=     6.78 kcal/mol T*S(tot)=    21.66 kcal/mol
 sn= 9  qrot/sn=   18597.7920 T*S(rot)=     6.71 kcal/mol T*S(tot)=    21.59 kcal/mol
 sn=10  qrot/sn=   16738.0128 T*S(rot)=     6.65 kcal/mol T*S(tot)=    21.52 kcal/mol
 sn=11  qrot/sn=   15216.3753 T*S(rot)=     6.59 kcal/mol T*S(tot)=    21.47 kcal/mol
 sn=12  qrot/sn=   13948.3440 T*S(rot)=     6.54 kcal/mol T*S(tot)=    21.42 kcal/mol

-------------------
GIBBS FREE ENTHALPY
-------------------

The Gibbs free enthalpy is G = H - T*S

Total enthalpy                    ...   -288.71967065 Eh
Total entropy correction          ...     -0.03543670 Eh    -22.24 kcal/mol
-----------------------------------------------------------------------
Final Gibbs free enthalpy         ...   -288.75510735 Eh

For completeness - the Gibbs free enthalpy minus the electronic energy
G-E(el)                           ...      0.12538719 Eh     78.68 kcal/mol

                             ****ORCA TERMINATED NORMALLY****
TOTAL RUN TIME: 0 days 0 hours 49 minutes 39 seconds 844 msec
