                         Program Version 3.0.3 - RELEASE   -
|  1> ! NORI PBE0 def2-TZVP UseSym TightOPT Freq TightSCF Grid3 FinalGrid5 XYZFile
|  2> % pal
|  3>     nprocs 8
|  4> end
|  5> %method
|  6>     SymThresh 5.0e-2
|  7> end
|  8> % geom
|  9>     MaxIter 10
| 10> end
| 11> % maxcore 2000
| 12> % output
| 13>     printlevel mini
| 14>     print[ P_Basis ] 0
| 15>     print[ P_SCFInfo ] 1
| 16>     print[ P_SCFIterInfo ] 1
| 17>     print[ P_OrbEn ] 0
| 18>     print[ P_Cartesian ] 0
| 19> end
| 20> % elprop
| 21>     Dipole false
| 22> end
| 23> *xyz 1 1
| 24>  C        0.9871544747    -0.0719256276     0.2031714375
| 25>  C        2.4505115777    -0.0494062741    -0.0196603742
| 26>  C        3.2380511119     1.0257902063    -0.1565406209
| 27>  C        4.6480323428     0.6230790107    -0.3285623883
| 28>  N        5.1860411991    -0.0715122664     0.9081562611
| 29>  C        4.6751159742    -0.8514338794    -0.2574424481
| 30>  C        3.2514833630    -1.3263052249    -0.1288587999
| 31>  H        0.5664400679     0.9322240293     0.2250616344
| 32>  H        0.7435384550    -0.5711785699     1.1460158305
| 33>  H        0.4906904837    -0.6428422982    -0.5874646105
| 34>  H        2.9210294753     2.0595397501    -0.1428902291
| 35>  H        5.3913637285     1.2190287694    -0.8424530324
| 36>  H        4.6096562141    -0.0106901332     1.7420914809
| 37>  H        6.1868256741    -0.0866142235     1.0743192245
| 38>  H        5.4395922032    -1.4531474066    -0.7307361665
| 39>  H        3.0987087053    -2.0070737944     0.7146549221
| 40>  H        2.9771449496    -1.8894020678    -1.0276021210
| 41> *
| 42>
| 43>                          ****END OF INPUT****
 Total Charge           Charge          ....    1
 Multiplicity           Mult            ....    1
 Number of Electrons    NEL             ....   52
FINAL SINGLE POINT ENERGY      -288.886310080521

CARTESIAN COORDINATES (ANGSTROEM)
---------------------------------
  C      1.255899    0.000218   -2.181501
  C      0.402507   -0.060326   -0.973284
  C      0.011281   -1.153622   -0.304755
  C     -0.805571   -0.784939    0.868532
  N      0.000304   -0.000131    1.886458
  C     -0.869423    0.690069    0.888845
  C     -0.154146    1.192684   -0.337648
  H      1.542993   -0.993121   -2.523365
  H      2.165066    0.577537   -1.988275
  H      0.730073    0.511913   -2.993316
  H      0.246407   -2.178552   -0.556725
  H     -1.549757   -1.430238    1.317129
  H      1.006070    0.014252    1.746300
  H     -0.301668    0.014700    2.854890
  H     -1.680616    1.241384    1.345530
  H      0.611653    1.941722   -0.113336
  H     -0.875621    1.683954   -0.999043

FINAL SINGLE POINT ENERGY      -288.886310637175
                    ***********************HURRAY********************
 Multiplicity           Mult            ....    1
 Number of Electrons    NEL             ....   52
 Basis Dimension        Dim             ....  277
FINAL SINGLE POINT ENERGY      -288.886310858350

VIBRATIONAL FREQUENCIES
-----------------------

   0:         0.00 cm**-1
   1:         0.00 cm**-1
   2:         0.00 cm**-1
   3:         0.00 cm**-1
   4:         0.00 cm**-1
   5:         0.00 cm**-1
   6:       153.45 cm**-1
   7:       179.21 cm**-1
   8:       320.40 cm**-1
   9:       357.56 cm**-1
  10:       415.26 cm**-1
  11:       488.90 cm**-1
  12:       620.97 cm**-1
  13:       695.34 cm**-1
  14:       727.65 cm**-1
  15:       817.19 cm**-1
  16:       839.27 cm**-1
  17:       878.40 cm**-1
  18:       908.54 cm**-1
  19:       941.28 cm**-1
  20:       957.99 cm**-1
  21:       992.87 cm**-1
  22:       996.91 cm**-1
  23:      1018.13 cm**-1
  24:      1047.14 cm**-1
  25:      1067.78 cm**-1
  26:      1108.57 cm**-1
  27:      1163.64 cm**-1
  28:      1194.18 cm**-1
  29:      1214.65 cm**-1
  30:      1269.19 cm**-1
  31:      1288.76 cm**-1
  32:      1358.38 cm**-1
  33:      1374.31 cm**-1
  34:      1390.84 cm**-1
  35:      1415.53 cm**-1
  36:      1450.25 cm**-1
  37:      1465.35 cm**-1
  38:      1469.32 cm**-1
  39:      1603.83 cm**-1
  40:      1694.45 cm**-1
  41:      3051.86 cm**-1
  42:      3066.93 cm**-1
  43:      3104.02 cm**-1
  44:      3109.82 cm**-1
  45:      3162.07 cm**-1
  46:      3225.92 cm**-1
  47:      3232.95 cm**-1
  48:      3245.47 cm**-1
  49:      3490.48 cm**-1
  50:      3609.26 cm**-1

IR SPECTRUM
-----------

 Mode    freq (cm**-1)   T**2         TX         TY         TZ
-------------------------------------------------------------------
   6:       153.45    2.181727  (  1.468366   0.124927   0.100104)
   7:       179.21    2.102024  (  1.298724  -0.395507  -0.508836)
   8:       320.40    2.192686  (  0.568784   1.245578  -0.563654)
   9:       357.56    2.772720  ( -1.335900  -0.897142  -0.428049)
  10:       415.26    6.211353  ( -1.547775  -0.537918  -1.877868)
  11:       488.90    3.478081  ( -1.627423   0.259296  -0.873122)
  12:       620.97    0.739531  (  0.228423  -0.668108   0.490903)
  13:       695.34    7.203789  ( -0.345428   0.978276   2.475367)
  14:       727.65   15.486426  (  0.112028   1.710224  -3.542458)
  15:       817.19    5.426974  ( -1.732667   0.645127   1.417269)
  16:       839.27   46.269234  (  3.895765   0.592457   5.544479)
  17:       878.40    6.527582  (  0.982205   0.453912   2.314480)
  18:       908.54    5.425855  ( -1.894870  -0.857177  -1.049081)
  19:       941.28    3.330021  ( -1.048994   0.723297   1.306320)
  20:       957.99    2.291409  (  0.246462  -0.016303  -1.493452)
  21:       992.87   33.795859  ( -1.075399   5.712487  -0.082893)
  22:       996.91   47.947026  ( -1.727919  -6.670014   0.687192)
  23:      1018.13    2.173227  (  1.255550   0.729241   0.255007)
  24:      1047.14   17.733049  (  1.842867  -3.600312   1.172451)
  25:      1067.78    7.472558  ( -0.699725   0.979606   2.454245)
  26:      1108.57    4.523196  ( -1.939147  -0.003795   0.873436)
  27:      1163.64    1.053761  ( -0.308548  -0.712649  -0.671334)
  28:      1194.18    3.509306  ( -0.570309   0.365222  -1.746616)
  29:      1214.65    1.285470  (  0.874353   0.671308  -0.265185)
  30:      1269.19   10.005016  (  2.372012   1.225828  -1.695854)
  31:      1288.76    0.988467  ( -0.974341  -0.061034   0.188156)
  32:      1358.38   12.961260  ( -2.114711   2.015183   2.104351)
  33:      1374.31   21.084682  (  1.140738   3.100011  -3.189566)
  34:      1390.84    2.532496  (  0.202786   0.447965  -1.513506)
  35:      1415.53   17.133806  (  2.611442   0.772919  -3.117174)
  36:      1450.25   11.313598  (  0.434817   2.970412  -1.516966)
  37:      1465.35   14.696896  ( -3.046518   0.069335  -2.326116)
  38:      1469.32   25.523611  (  1.004825   4.681529  -1.611591)
  39:      1603.83   82.747539  ( -5.469352  -0.093628  -7.268079)
  40:      1694.45   40.282120  (  3.688499   2.440164  -4.552219)
  41:      3051.86    0.235241  ( -0.213863  -0.367051   0.234045)
  42:      3066.93    0.517968  ( -0.523068  -0.465199  -0.167208)
  43:      3104.02    0.314106  ( -0.291475   0.309138  -0.365489)
  44:      3109.82    0.798885  (  0.730681   0.186230   0.479905)
  45:      3162.07    2.641857  ( -0.624330   1.179464   0.927864)
  46:      3225.92    1.442556  (  0.200399  -1.081926  -0.481490)
  47:      3232.95    2.329594  ( -1.413042   0.576968  -0.003926)
  48:      3245.47    3.649374  ( -0.567925  -1.752303   0.506232)
  49:      3490.48   79.859490  ( -4.995125   0.385967  -7.399949)
  50:      3609.26  106.903188  (  6.969894   0.136704  -7.635776)

--------------------------
THERMOCHEMISTRY AT 298.15K
--------------------------

Temperature         ... 298.15 K
Pressure            ... 1.00 atm
Total Mass          ... 96.15 AMU

Throughout the following assumptions are being made:
  (1) The electronic state is orbitally nondegenerate
  (2) There are no thermally accessible electronically excited states
  (3) Hindered rotations indicated by low frequency modes) are not
      treated as such but are treated as vibrations and this may
      case some error
  (4) All equations used are the standard statistical mechanics
      equations for an ideal gas
  (5) All vibrations are strinctly harmonic

------------
INNER ENERGY
------------

The inner energy is: U= E(el) + E(ZPE) + E(vib) + E(rot) + E(trans)
    E(el)   - is the total energy from the electronic structure calculation
              = E(kin-el) + E(nuc-el) + E(el-el) + E(nuc-nuc)
    E(ZPE)  - the the zero temperature vibrational energy from the frequency calculation
    E(vib)  - the the finite temperature correction to E(ZPE) due to population
              of excietd vibrational states
    E(rot)  - is the rotational thermal energy
    E(trans)- is the translational thermal energy

Summary of contributions to the inner energy U:
Electronic energy                ...   -288.88631086 Eh
Zero point energy                ...      0.15305712 Eh      96.04 kcal/mol
Thermal vibrational correction   ...      0.00353795 Eh       2.22 kcal/mol
Thermal rotational correction    ...      0.00141627 Eh       0.89 kcal/mol
Thermal translational correction ...      0.00141627 Eh       0.89 kcal/mol
-----------------------------------------------------------------------
Total thermal energy                   -288.72688325 Eh

Summary of corrections to the electronic energy:
(perhaps to be used in another calculation)
Total thermal correction                  0.00637049 Eh       4.00 kcal/mol
Non-thermal (ZPE) correction              0.15305712 Eh      96.04 kcal/mol
-----------------------------------------------------------------------
Total correction                          0.15942761 Eh     100.04 kcal/mol

--------
ENTHALPY
--------

The enthalpy is H = U + kB*T
                kB is Boltzmann's constant
Total free energy                 ...   -288.72688325 Eh
Thermal Enthalpy correction       ...      0.00094421 Eh       0.59 kcal/mol
-----------------------------------------------------------------------
Total Enthalpy                    ...   -288.72593904 Eh

-------
ENTROPY
-------

The entropy contributions are T*S = T*(S(el)+S(vib)+S(rot)+S(trans)
     S(el)   - electronic entropy
     S(vib)  - vibrational entropy
     S(rot)  - rotational entropy
     S(trans)- translational entropy
The entropies will be listed as mutliplied by the temperature to get
units of energy

Electronic entropy                ...      0.00000000 Eh      0.00 kcal/mol
Vibrational entropy               ...      0.00555783 Eh      3.49 kcal/mol
Rotational entropy                ...      0.01177858 Eh      7.39 kcal/mol
Translational entropy             ...      0.01881568 Eh     11.81 kcal/mol
-----------------------------------------------------------------------
Final entropy term                ...      0.03615210 Eh     22.69 kcal/mol

CAUTION: The rotational entropy is not quite correctly treated here
         because it includes a symmetry number that is not yet correctly
         implemented in ORCA!
For a nonlinear molecule the correct rotational entropy is:
    S(rot) = R*(ln(qrot/sn)+1.5)
    R    = 8.31441 J/mol/K = 1.987191683e-3 kcal/mol/K
    qrot = 175174.0389325
    sn is the rotational symmetry number. We have assumed 3 here
       if it is different for your molecule then you should correct
       the printed rotational entropy by manually evaluating the equation
       as given above

For convenience we print out the resulting values for sn=1 - 12:
 sn= 1  qrot/sn=  175174.0389 T*S(rot)=     8.04 kcal/mol T*S(tot)=    23.34 kcal/mol
 sn= 2  qrot/sn=   87587.0195 T*S(rot)=     7.63 kcal/mol T*S(tot)=    22.93 kcal/mol
 sn= 3  qrot/sn=   58391.3463 T*S(rot)=     7.39 kcal/mol T*S(tot)=    22.69 kcal/mol
 sn= 4  qrot/sn=   43793.5097 T*S(rot)=     7.22 kcal/mol T*S(tot)=    22.52 kcal/mol
 sn= 5  qrot/sn=   35034.8078 T*S(rot)=     7.09 kcal/mol T*S(tot)=    22.38 kcal/mol
 sn= 6  qrot/sn=   29195.6732 T*S(rot)=     6.98 kcal/mol T*S(tot)=    22.28 kcal/mol
 sn= 7  qrot/sn=   25024.8627 T*S(rot)=     6.89 kcal/mol T*S(tot)=    22.18 kcal/mol
 sn= 8  qrot/sn=   21896.7549 T*S(rot)=     6.81 kcal/mol T*S(tot)=    22.10 kcal/mol
 sn= 9  qrot/sn=   19463.7821 T*S(rot)=     6.74 kcal/mol T*S(tot)=    22.03 kcal/mol
 sn=10  qrot/sn=   17517.4039 T*S(rot)=     6.68 kcal/mol T*S(tot)=    21.97 kcal/mol
 sn=11  qrot/sn=   15924.9126 T*S(rot)=     6.62 kcal/mol T*S(tot)=    21.92 kcal/mol
 sn=12  qrot/sn=   14597.8366 T*S(rot)=     6.57 kcal/mol T*S(tot)=    21.86 kcal/mol

-------------------
GIBBS FREE ENTHALPY
-------------------

The Gibbs free enthalpy is G = H - T*S

Total enthalpy                    ...   -288.72593904 Eh
Total entropy correction          ...     -0.03615210 Eh    -22.69 kcal/mol
-----------------------------------------------------------------------
Final Gibbs free enthalpy         ...   -288.76209113 Eh

For completeness - the Gibbs free enthalpy minus the electronic energy
G-E(el)                           ...      0.12421973 Eh     77.95 kcal/mol

                             ****ORCA TERMINATED NORMALLY****
TOTAL RUN TIME: 0 days 0 hours 45 minutes 14 seconds 150 msec
