                         Program Version 3.0.3 - RELEASE   -
|  1> ! NORI PBE0 def2-TZVP UseSym TightOPT Freq TightSCF Grid3 FinalGrid5 XYZFile
|  2> % pal
|  3>     nprocs 8
|  4> end
|  5> %method
|  6>     SymThresh 5.0e-2
|  7> end
|  8> % geom
|  9>     MaxIter 10
| 10> end
| 11> % maxcore 2000
| 12> % output
| 13>     printlevel mini
| 14>     print[ P_Basis ] 0
| 15>     print[ P_SCFInfo ] 1
| 16>     print[ P_SCFIterInfo ] 1
| 17>     print[ P_OrbEn ] 0
| 18>     print[ P_Cartesian ] 0
| 19> end
| 20> % elprop
| 21>     Dipole false
| 22> end
| 23> *xyz 1 1
| 24>  C        0.9170056412    -0.0486292981    -0.0423693433
| 25>  C        2.4275747519    -0.0104565552    -0.0108906748
| 26>  C        3.1288960080     1.0989854935     0.7999112440
| 27>  C        4.2050991003     0.0798000864     1.2141633632
| 28>  C        3.2114932507    -1.0400988524     0.8452954068
| 29>  C        3.7732214564    -2.2695413063     0.1871629285
| 30>  N        2.6469372368    -3.1527112855    -0.2987712410
| 31>  H        0.5187627135     0.8469783087    -0.5243323490
| 32>  H        0.5018934528    -0.0897042873     0.9680786971
| 33>  H        0.5151064838    -0.9017278994    -0.6039690166
| 34>  H        2.8344292838    -0.0115398092    -1.0311232225
| 35>  H        2.5188156680     1.4072439738     1.6516331089
| 36>  H        3.4529743304     1.9880605572     0.2613241147
| 37>  H        4.5736828647     0.1018420454     2.2384735081
| 38>  H        5.0592485073     0.0978723364     0.5329272774
| 39>  H        2.6243334303    -1.3217861043     1.7285287034
| 40>  H        4.3671636109    -2.0230208012    -0.6949761556
| 41>  H        4.3792513980    -2.8780663552     0.8610975783
| 42>  H        2.0314874532    -2.6219457839    -0.9197583053
| 43>  H        2.0773018083    -3.4767763596     0.4854798041
| 44>  H        2.9849315499    -3.9730281035    -0.8051354267
| 45> *
| 46>
| 47>                          ****END OF INPUT****
 Total Charge           Charge          ....    1
 Multiplicity           Mult            ....    1
 Number of Electrons    NEL             ....   56
FINAL SINGLE POINT ENERGY      -291.310432689806
FINAL SINGLE POINT ENERGY      -291.310433858553

CARTESIAN COORDINATES (ANGSTROEM)
---------------------------------
  C      2.096214    0.000795   -0.455914
  C      0.653224    0.409832   -0.645670
  C     -0.035867    0.116187   -1.994573
  C     -1.334636   -0.200508   -1.231814
  C     -0.478948   -0.404865    0.034456
  C     -1.050339    0.077367    1.338215
  N      0.002247   -0.000520    2.420603
  H      2.745164    0.548765   -1.142358
  H      2.233498   -1.065435   -0.653607
  H      2.475912    0.205357    0.553350
  H      0.520613    1.473598   -0.407133
  H      0.383499   -0.777767   -2.461066
  H     -0.062059    0.917218   -2.731434
  H     -1.940193   -1.041642   -1.565489
  H     -1.974902    0.680770   -1.144014
  H     -0.186386   -1.459046    0.118912
  H     -1.354247    1.124375    1.285456
  H     -1.897283   -0.519107    1.682390
  H      0.832008    0.526536    2.138297
  H      0.295948   -0.967917    2.570358
  H     -0.327588    0.372353    3.312629

FINAL SINGLE POINT ENERGY      -291.310434528242
                    ***********************HURRAY********************
 Multiplicity           Mult            ....    1
 Number of Electrons    NEL             ....   56
 Basis Dimension        Dim             ....  301
FINAL SINGLE POINT ENERGY      -291.310434653209

VIBRATIONAL FREQUENCIES
-----------------------

   0:         0.00 cm**-1
   1:         0.00 cm**-1
   2:         0.00 cm**-1
   3:         0.00 cm**-1
   4:         0.00 cm**-1
   5:         0.00 cm**-1
   6:        80.79 cm**-1
   7:       113.19 cm**-1
   8:       172.16 cm**-1
   9:       213.74 cm**-1
  10:       222.35 cm**-1
  11:       298.46 cm**-1
  12:       317.31 cm**-1
  13:       407.03 cm**-1
  14:       473.39 cm**-1
  15:       606.32 cm**-1
  16:       755.19 cm**-1
  17:       799.35 cm**-1
  18:       849.00 cm**-1
  19:       907.75 cm**-1
  20:       908.08 cm**-1
  21:       927.71 cm**-1
  22:       958.29 cm**-1
  23:       972.19 cm**-1
  24:      1001.38 cm**-1
  25:      1016.02 cm**-1
  26:      1102.98 cm**-1
  27:      1132.17 cm**-1
  28:      1145.30 cm**-1
  29:      1182.04 cm**-1
  30:      1201.96 cm**-1
  31:      1235.39 cm**-1
  32:      1257.22 cm**-1
  33:      1268.51 cm**-1
  34:      1278.89 cm**-1
  35:      1288.92 cm**-1
  36:      1342.37 cm**-1
  37:      1351.11 cm**-1
  38:      1387.08 cm**-1
  39:      1412.11 cm**-1
  40:      1418.73 cm**-1
  41:      1473.33 cm**-1
  42:      1479.91 cm**-1
  43:      1489.64 cm**-1
  44:      1492.76 cm**-1
  45:      1497.67 cm**-1
  46:      1502.64 cm**-1
  47:      1652.90 cm**-1
  48:      1661.62 cm**-1
  49:      3017.27 cm**-1
  50:      3024.47 cm**-1
  51:      3041.86 cm**-1
  52:      3079.85 cm**-1
  53:      3088.00 cm**-1
  54:      3090.34 cm**-1
  55:      3096.57 cm**-1
  56:      3132.57 cm**-1
  57:      3147.80 cm**-1
  58:      3149.77 cm**-1
  59:      3158.21 cm**-1
  60:      3420.76 cm**-1
  61:      3500.13 cm**-1
  62:      3513.53 cm**-1

IR SPECTRUM
-----------

 Mode    freq (cm**-1)   T**2         TX         TY         TZ
-------------------------------------------------------------------
   6:        80.79    7.038729  (  0.580454   2.231869  -1.311701)
   7:       113.19   13.794854  (  2.431085  -0.175375  -2.802486)
   8:       172.16    5.487192  (  0.983643  -0.593214  -2.041503)
   9:       213.74    1.109733  (  0.694076  -0.519034  -0.598828)
  10:       222.35    0.060189  (  0.027163   0.223438   0.097603)
  11:       298.46    3.073761  ( -0.000286   0.132338   1.748213)
  12:       317.31    0.933766  (  0.131763  -0.519677  -0.803953)
  13:       407.03    9.474446  ( -0.192075  -0.832579  -2.957087)
  14:       473.39    0.028152  ( -0.099456   0.064868  -0.118544)
  15:       606.32    1.655946  (  0.117287   1.156699  -0.551577)
  16:       755.19    2.326398  ( -0.836697  -0.445626   1.194886)
  17:       799.35    0.870839  (  0.201982  -0.780173  -0.470501)
  18:       849.00    8.175860  ( -1.083504  -2.584380   0.568206)
  19:       907.75    1.872829  ( -0.878743  -0.742626  -0.741045)
  20:       908.08   21.611812  ( -0.305949  -0.022565   4.638717)
  21:       927.71    5.135183  (  0.774574   1.789959   1.153805)
  22:       958.29    4.405922  (  1.224295   0.233865  -1.688885)
  23:       972.19    3.471902  ( -1.510979  -0.007410  -1.090316)
  24:      1001.38    3.874063  ( -1.094214   1.329231   0.953889)
  25:      1016.02    4.546260  (  0.775527  -1.093440  -1.658073)
  26:      1102.98    3.128466  ( -1.503122   0.243436  -0.899905)
  27:      1132.17    1.826708  (  1.076186  -0.290937  -0.764125)
  28:      1145.30    9.557454  ( -0.567988  -0.525785   2.993058)
  29:      1182.04    3.538564  ( -1.314682   0.584922   1.211628)
  30:      1201.96    3.889409  ( -0.977938   1.162482   1.257649)
  31:      1235.39    0.271690  ( -0.269273  -0.439901   0.075295)
  32:      1257.22    3.149810  (  1.087137   1.398804  -0.106258)
  33:      1268.51    0.928487  ( -0.485111   0.621384   0.554108)
  34:      1278.89    5.112762  (  1.766235   1.149061   0.820265)
  35:      1288.92    3.715494  ( -0.933966   1.682264   0.114839)
  36:      1342.37    0.713789  ( -0.241607   0.804768  -0.088111)
  37:      1351.11    9.378236  ( -2.273898  -1.098002   1.732632)
  38:      1387.08    6.181832  ( -0.756219   0.201728  -2.359930)
  39:      1412.11    8.220148  ( -2.142990   1.084059  -1.566064)
  40:      1418.73    6.231553  (  1.233616  -0.455836  -2.121782)
  41:      1473.33    9.075468  (  2.338684   1.738388  -0.764219)
  42:      1479.91    4.580601  (  1.016763  -1.713761  -0.780908)
  43:      1489.64   12.067275  ( -2.288896   2.543016   0.601084)
  44:      1492.76    9.333246  ( -2.196523   1.339060   1.647863)
  45:      1497.67   68.505099  ( -3.911098  -0.413426  -7.282684)
  46:      1502.64   82.875123  ( -6.023421   0.159680  -6.824077)
  47:      1652.90   49.522065  (  1.003124   6.961427   0.233122)
  48:      1661.62   45.036078  (  3.819075  -0.204276  -5.514437)
  49:      3017.27   18.073907  (  2.663326  -1.606120   2.898445)
  50:      3024.47   30.575783  ( -1.495669  -1.740153  -5.030967)
  51:      3041.86   14.830826  (  0.910089  -3.549179   1.185702)
  52:      3079.85   11.036348  (  3.063975  -1.080249   0.693877)
  53:      3088.00    9.491607  (  2.093745  -0.898546  -2.073754)
  54:      3090.34    7.372689  (  2.076931  -1.076401  -1.378553)
  55:      3096.57   27.592914  ( -0.836344   2.556781   4.511797)
  56:      3132.57    6.026128  (  0.664159   2.334319  -0.368747)
  57:      3147.80    6.382926  (  1.303075   0.302023   2.143293)
  58:      3149.77    1.650872  (  0.788036   0.965979   0.311056)
  59:      3158.21   13.411099  (  0.346901   3.588320  -0.643986)
  60:      3420.76   30.212502  (  3.879076  -0.152263   3.891283)
  61:      3500.13   99.948563  ( -4.359482  -6.679280   6.027495)
  62:      3513.53   99.975844  ( -4.940990   6.115644   6.177488)

--------------------------
THERMOCHEMISTRY AT 298.15K
--------------------------

Temperature         ... 298.15 K
Pressure            ... 1.00 atm
Total Mass          ... 100.18 AMU

Throughout the following assumptions are being made:
  (1) The electronic state is orbitally nondegenerate
  (2) There are no thermally accessible electronically excited states
  (3) Hindered rotations indicated by low frequency modes) are not
      treated as such but are treated as vibrations and this may
      case some error
  (4) All equations used are the standard statistical mechanics
      equations for an ideal gas
  (5) All vibrations are strinctly harmonic

------------
INNER ENERGY
------------

The inner energy is: U= E(el) + E(ZPE) + E(vib) + E(rot) + E(trans)
    E(el)   - is the total energy from the electronic structure calculation
              = E(kin-el) + E(nuc-el) + E(el-el) + E(nuc-nuc)
    E(ZPE)  - the the zero temperature vibrational energy from the frequency calculation
    E(vib)  - the the finite temperature correction to E(ZPE) due to population
              of excietd vibrational states
    E(rot)  - is the rotational thermal energy
    E(trans)- is the translational thermal energy

Summary of contributions to the inner energy U:
Electronic energy                ...   -291.31043465 Eh
Zero point energy                ...      0.19983198 Eh     125.40 kcal/mol
Thermal vibrational correction   ...      0.00546653 Eh       3.43 kcal/mol
Thermal rotational correction    ...      0.00141627 Eh       0.89 kcal/mol
Thermal translational correction ...      0.00141627 Eh       0.89 kcal/mol
-----------------------------------------------------------------------
Total thermal energy                   -291.10230361 Eh

Summary of corrections to the electronic energy:
(perhaps to be used in another calculation)
Total thermal correction                  0.00829907 Eh       5.21 kcal/mol
Non-thermal (ZPE) correction              0.19983198 Eh     125.40 kcal/mol
-----------------------------------------------------------------------
Total correction                          0.20813105 Eh     130.60 kcal/mol

--------
ENTHALPY
--------

The enthalpy is H = U + kB*T
                kB is Boltzmann's constant
Total free energy                 ...   -291.10230361 Eh
Thermal Enthalpy correction       ...      0.00094421 Eh       0.59 kcal/mol
-----------------------------------------------------------------------
Total Enthalpy                    ...   -291.10135940 Eh

-------
ENTROPY
-------

The entropy contributions are T*S = T*(S(el)+S(vib)+S(rot)+S(trans)
     S(el)   - electronic entropy
     S(vib)  - vibrational entropy
     S(rot)  - rotational entropy
     S(trans)- translational entropy
The entropies will be listed as mutliplied by the temperature to get
units of energy

Electronic entropy                ...      0.00000000 Eh      0.00 kcal/mol
Vibrational entropy               ...      0.00965230 Eh      6.06 kcal/mol
Rotational entropy                ...      0.01217515 Eh      7.64 kcal/mol
Translational entropy             ...      0.01887386 Eh     11.84 kcal/mol
-----------------------------------------------------------------------
Final entropy term                ...      0.04070130 Eh     25.54 kcal/mol

CAUTION: The rotational entropy is not quite correctly treated here
         because it includes a symmetry number that is not yet correctly
         implemented in ORCA!
For a nonlinear molecule the correct rotational entropy is:
    S(rot) = R*(ln(qrot/sn)+1.5)
    R    = 8.31441 J/mol/K = 1.987191683e-3 kcal/mol/K
    qrot = 266610.0591757
    sn is the rotational symmetry number. We have assumed 3 here
       if it is different for your molecule then you should correct
       the printed rotational entropy by manually evaluating the equation
       as given above

For convenience we print out the resulting values for sn=1 - 12:
 sn= 1  qrot/sn=  266610.0592 T*S(rot)=     8.29 kcal/mol T*S(tot)=    26.19 kcal/mol
 sn= 2  qrot/sn=  133305.0296 T*S(rot)=     7.88 kcal/mol T*S(tot)=    25.78 kcal/mol
 sn= 3  qrot/sn=   88870.0197 T*S(rot)=     7.64 kcal/mol T*S(tot)=    25.54 kcal/mol
 sn= 4  qrot/sn=   66652.5148 T*S(rot)=     7.47 kcal/mol T*S(tot)=    25.37 kcal/mol
 sn= 5  qrot/sn=   53322.0118 T*S(rot)=     7.34 kcal/mol T*S(tot)=    25.24 kcal/mol
 sn= 6  qrot/sn=   44435.0099 T*S(rot)=     7.23 kcal/mol T*S(tot)=    25.13 kcal/mol
 sn= 7  qrot/sn=   38087.1513 T*S(rot)=     7.14 kcal/mol T*S(tot)=    25.04 kcal/mol
 sn= 8  qrot/sn=   33326.2574 T*S(rot)=     7.06 kcal/mol T*S(tot)=    24.96 kcal/mol
 sn= 9  qrot/sn=   29623.3399 T*S(rot)=     6.99 kcal/mol T*S(tot)=    24.89 kcal/mol
 sn=10  qrot/sn=   26661.0059 T*S(rot)=     6.93 kcal/mol T*S(tot)=    24.83 kcal/mol
 sn=11  qrot/sn=   24237.2781 T*S(rot)=     6.87 kcal/mol T*S(tot)=    24.77 kcal/mol
 sn=12  qrot/sn=   22217.5049 T*S(rot)=     6.82 kcal/mol T*S(tot)=    24.72 kcal/mol

-------------------
GIBBS FREE ENTHALPY
-------------------

The Gibbs free enthalpy is G = H - T*S

Total enthalpy                    ...   -291.10135940 Eh
Total entropy correction          ...     -0.04070130 Eh    -25.54 kcal/mol
-----------------------------------------------------------------------
Final Gibbs free enthalpy         ...   -291.14206070 Eh

For completeness - the Gibbs free enthalpy minus the electronic energy
G-E(el)                           ...      0.16837395 Eh    105.66 kcal/mol

                             ****ORCA TERMINATED NORMALLY****
TOTAL RUN TIME: 0 days 1 hours 7 minutes 56 seconds 286 msec
