                         Program Version 3.0.3 - RELEASE   -
|  1> ! NORI PBE0 def2-TZVP UseSym TightOPT Freq TightSCF Grid3 FinalGrid5 XYZFile
|  2> % pal
|  3>     nprocs 8
|  4> end
|  5> %method
|  6>     SymThresh 5.0e-2
|  7> end
|  8> % geom
|  9>     MaxIter 10
| 10> end
| 11> % maxcore 2000
| 12> % output
| 13>     printlevel mini
| 14>     print[ P_Basis ] 0
| 15>     print[ P_SCFInfo ] 1
| 16>     print[ P_SCFIterInfo ] 1
| 17>     print[ P_OrbEn ] 0
| 18>     print[ P_Cartesian ] 0
| 19> end
| 20> % elprop
| 21>     Dipole false
| 22> end
| 23> *xyz 1 1
| 24>  C        1.1643062123     0.0345041569    -0.1586261624
| 25>  C        2.6511907652     0.1378080906     0.0676053675
| 26>  C        3.1063123264     1.2559978129     0.9903384303
| 27>  C        4.4823178393     0.8243992916     1.5225733718
| 28>  C        4.5915786413    -0.6683282696     1.2050275970
| 29>  N        3.2193422142    -1.0837284601     0.7605727316
| 30>  C        3.2018398255    -2.3350432976    -0.0286052996
| 31>  H        0.8949879906    -0.7652563959    -0.8499098578
| 32>  H        0.8097612048     0.9696077289    -0.5951726817
| 33>  H        0.6250804027    -0.1074987672     0.7826707672
| 34>  H        3.1892173460     0.1852896168    -0.8844372458
| 35>  H        2.3882525691     1.3698555463     1.8073883718
| 36>  H        3.1378955210     2.2071224800     0.4601568230
| 37>  H        4.5710098230     1.0127866680     2.5916686248
| 38>  H        5.2915790535     1.3647528642     1.0335486614
| 39>  H        5.2576259886    -0.8667740822     0.3648791141
| 40>  H        4.8965735535    -1.2963840322     2.0417058637
| 41>  H        2.6491303128    -1.2304704117     1.5963107654
| 42>  H        3.7602885502    -2.1715791879    -0.9490284418
| 43>  H        2.1742133423    -2.6068575586    -0.2595147984
| 44>  H        3.6702865177    -3.1291037930     0.5509779977
| 45> *
| 46>
| 47>                          ****END OF INPUT****
 Total Charge           Charge          ....    1
 Multiplicity           Mult            ....    1
 Number of Electrons    NEL             ....   56
FINAL SINGLE POINT ENERGY      -291.343401551168
FINAL SINGLE POINT ENERGY      -291.343402841893

CARTESIAN COORDINATES (ANGSTROEM)
---------------------------------
  C      2.122550    0.002295   -0.541502
  C      0.638067    0.264711   -0.543615
  C     -0.192351   -0.621781   -1.456784
  C     -1.617962   -0.593141   -0.882271
  C     -1.476446   -0.024481    0.531227
  N     -0.000446    0.000670    0.804475
  C      0.390057    0.924625    1.891688
  H      2.672698    0.682213    0.110059
  H      2.505801    0.145449   -1.552857
  H      2.345185   -1.029279   -0.253299
  H      0.427951    1.320693   -0.741799
  H      0.214654   -1.637138   -1.447773
  H     -0.144589   -0.269894   -2.486528
  H     -2.060645   -1.588179   -0.869963
  H     -2.277652    0.043444   -1.470724
  H     -1.818342    1.008426    0.600702
  H     -1.968678   -0.603114    1.312003
  H      0.283639   -0.942850    1.076819
  H      0.146628    1.941255    1.586513
  H      1.457979    0.837037    2.079394
  H     -0.163214    0.667696    2.793877

FINAL SINGLE POINT ENERGY      -291.343403613617
                    ***********************HURRAY********************
 Multiplicity           Mult            ....    1
 Number of Electrons    NEL             ....   56
 Basis Dimension        Dim             ....  301
FINAL SINGLE POINT ENERGY      -291.343403777631

VIBRATIONAL FREQUENCIES
-----------------------

   0:         0.00 cm**-1
   1:         0.00 cm**-1
   2:         0.00 cm**-1
   3:         0.00 cm**-1
   4:         0.00 cm**-1
   5:         0.00 cm**-1
   6:        43.56 cm**-1
   7:       130.50 cm**-1
   8:       217.35 cm**-1
   9:       232.28 cm**-1
  10:       280.69 cm**-1
  11:       337.82 cm**-1
  12:       369.70 cm**-1
  13:       500.23 cm**-1
  14:       534.75 cm**-1
  15:       637.49 cm**-1
  16:       771.55 cm**-1
  17:       783.75 cm**-1
  18:       888.39 cm**-1
  19:       906.98 cm**-1
  20:       928.44 cm**-1
  21:       984.36 cm**-1
  22:      1002.02 cm**-1
  23:      1041.06 cm**-1
  24:      1061.01 cm**-1
  25:      1084.31 cm**-1
  26:      1112.14 cm**-1
  27:      1132.17 cm**-1
  28:      1168.56 cm**-1
  29:      1197.24 cm**-1
  30:      1232.62 cm**-1
  31:      1265.67 cm**-1
  32:      1287.52 cm**-1
  33:      1309.39 cm**-1
  34:      1338.34 cm**-1
  35:      1364.46 cm**-1
  36:      1372.72 cm**-1
  37:      1384.34 cm**-1
  38:      1411.42 cm**-1
  39:      1421.92 cm**-1
  40:      1434.91 cm**-1
  41:      1456.94 cm**-1
  42:      1479.38 cm**-1
  43:      1485.77 cm**-1
  44:      1488.59 cm**-1
  45:      1494.48 cm**-1
  46:      1499.70 cm**-1
  47:      1503.62 cm**-1
  48:      1518.09 cm**-1
  49:      3056.77 cm**-1
  50:      3067.93 cm**-1
  51:      3081.97 cm**-1
  52:      3088.68 cm**-1
  53:      3104.33 cm**-1
  54:      3110.78 cm**-1
  55:      3137.75 cm**-1
  56:      3143.96 cm**-1
  57:      3152.69 cm**-1
  58:      3154.14 cm**-1
  59:      3168.64 cm**-1
  60:      3183.21 cm**-1
  61:      3192.94 cm**-1
  62:      3445.72 cm**-1

IR SPECTRUM
-----------

 Mode    freq (cm**-1)   T**2         TX         TY         TZ
-------------------------------------------------------------------
   6:        43.56    0.176769  ( -0.351731   0.229511   0.019475)
   7:       130.50    0.250878  ( -0.274198  -0.243921  -0.340875)
   8:       217.35    0.103747  ( -0.019007   0.109484   0.302323)
   9:       232.28    0.098427  (  0.254878  -0.176800  -0.046972)
  10:       280.69    0.286784  ( -0.114598   0.119566   0.509269)
  11:       337.82    0.823297  ( -0.444195  -0.338192   0.715272)
  12:       369.70    0.115067  ( -0.312961  -0.038313   0.125119)
  13:       500.23    0.515962  ( -0.317823   0.314255   0.562312)
  14:       534.75    2.823015  (  0.215931   1.014881   1.321517)
  15:       637.49    1.016816  (  0.659767   0.271936   0.712442)
  16:       771.55    2.834518  ( -0.966614   0.271311   1.351505)
  17:       783.75    3.029309  ( -0.416662  -1.189233   1.200594)
  18:       888.39    4.941655  (  2.112473   0.646515   0.247243)
  19:       906.98    2.293995  (  1.334602  -0.517125   0.495394)
  20:       928.44    2.501785  (  1.156075  -0.475541  -0.969090)
  21:       984.36    3.729474  (  1.858739  -0.443986   0.278280)
  22:      1002.02    3.891304  (  1.788780   0.824191  -0.110818)
  23:      1041.06   12.489540  ( -2.162511  -1.085984   2.575602)
  24:      1061.01    9.513729  (  1.243530  -0.126081  -2.819834)
  25:      1084.31    4.752319  ( -0.768037   0.821162   1.867654)
  26:      1112.14   13.038784  (  1.493322   1.357752   2.994208)
  27:      1132.17    4.149095  (  1.009745   0.594736   1.666073)
  28:      1168.56    4.935627  ( -0.103680  -0.581725  -2.141605)
  29:      1197.24    0.198362  (  0.050089   0.088448  -0.433624)
  30:      1232.62    6.283262  ( -2.042578  -0.778750  -1.226655)
  31:      1265.67    0.230067  (  0.472594   0.073847  -0.035626)
  32:      1287.52    0.987275  ( -0.606514  -0.717101   0.324318)
  33:      1309.39    0.469979  ( -0.414716   0.217107   0.500854)
  34:      1338.34    5.215916  ( -1.814260   0.515159   1.288017)
  35:      1364.46    4.333575  ( -1.375227  -1.179791   1.024899)
  36:      1372.72    2.065382  (  0.760544  -1.162117   0.369376)
  37:      1384.34    3.261911  (  0.409660  -0.575760  -1.662104)
  38:      1411.42    9.926807  ( -2.769664  -0.803191   1.269116)
  39:      1421.92   18.432167  (  4.278889  -0.191925  -0.294005)
  40:      1434.91   17.755021  ( -0.046018  -2.377526  -3.478545)
  41:      1456.94    9.220115  (  0.166904   1.788448   2.448206)
  42:      1479.38    4.316402  (  1.764401   0.932906   0.577041)
  43:      1485.77   11.617051  ( -1.536421   1.550519  -2.617700)
  44:      1488.59   14.912308  ( -3.445643  -0.456600   1.682667)
  45:      1494.48   22.199377  ( -1.168994  -2.246597   3.973114)
  46:      1499.70   21.397388  (  0.303645   3.671619   2.797213)
  47:      1503.62   17.657520  ( -2.183815   3.154644  -1.713678)
  48:      1518.09    5.949741  (  2.422927  -0.128445  -0.250331)
  49:      3056.77    2.628263  ( -0.499787   0.746646  -1.349443)
  50:      3067.93    0.735284  (  0.591770  -0.534998  -0.314435)
  51:      3081.97    9.026531  (  2.014529  -2.221052  -0.187444)
  52:      3088.68    0.237806  ( -0.167184  -0.253629  -0.381481)
  53:      3104.33    3.415293  ( -0.178408  -1.056051  -1.506061)
  54:      3110.78    2.886375  ( -1.658193  -0.347656  -0.126117)
  55:      3137.75    4.649003  ( -0.301754  -2.106306  -0.348455)
  56:      3143.96    0.340202  ( -0.275849  -0.434119   0.275046)
  57:      3152.69    3.079478  (  1.063256   0.977720   0.996509)
  58:      3154.14    0.857669  (  0.233142  -0.895863  -0.027272)
  59:      3168.64    1.454549  (  0.258289   1.115865  -0.377730)
  60:      3183.21    0.092710  ( -0.105528   0.048019  -0.281545)
  61:      3192.94    0.426228  (  0.390451   0.110376   0.511461)
  62:      3445.72   35.380008  ( -1.821924   5.189852  -2.264075)

--------------------------
THERMOCHEMISTRY AT 298.15K
--------------------------

Temperature         ... 298.15 K
Pressure            ... 1.00 atm
Total Mass          ... 100.18 AMU

Throughout the following assumptions are being made:
  (1) The electronic state is orbitally nondegenerate
  (2) There are no thermally accessible electronically excited states
  (3) Hindered rotations indicated by low frequency modes) are not
      treated as such but are treated as vibrations and this may
      case some error
  (4) All equations used are the standard statistical mechanics
      equations for an ideal gas
  (5) All vibrations are strinctly harmonic

------------
INNER ENERGY
------------

The inner energy is: U= E(el) + E(ZPE) + E(vib) + E(rot) + E(trans)
    E(el)   - is the total energy from the electronic structure calculation
              = E(kin-el) + E(nuc-el) + E(el-el) + E(nuc-nuc)
    E(ZPE)  - the the zero temperature vibrational energy from the frequency calculation
    E(vib)  - the the finite temperature correction to E(ZPE) due to population
              of excietd vibrational states
    E(rot)  - is the rotational thermal energy
    E(trans)- is the translational thermal energy

Summary of contributions to the inner energy U:
Electronic energy                ...   -291.34340378 Eh
Zero point energy                ...      0.20090192 Eh     126.07 kcal/mol
Thermal vibrational correction   ...      0.00501429 Eh       3.15 kcal/mol
Thermal rotational correction    ...      0.00141627 Eh       0.89 kcal/mol
Thermal translational correction ...      0.00141627 Eh       0.89 kcal/mol
-----------------------------------------------------------------------
Total thermal energy                   -291.13465503 Eh

Summary of corrections to the electronic energy:
(perhaps to be used in another calculation)
Total thermal correction                  0.00784683 Eh       4.92 kcal/mol
Non-thermal (ZPE) correction              0.20090192 Eh     126.07 kcal/mol
-----------------------------------------------------------------------
Total correction                          0.20874875 Eh     130.99 kcal/mol

--------
ENTHALPY
--------

The enthalpy is H = U + kB*T
                kB is Boltzmann's constant
Total free energy                 ...   -291.13465503 Eh
Thermal Enthalpy correction       ...      0.00094421 Eh       0.59 kcal/mol
-----------------------------------------------------------------------
Total Enthalpy                    ...   -291.13371082 Eh

-------
ENTROPY
-------

The entropy contributions are T*S = T*(S(el)+S(vib)+S(rot)+S(trans)
     S(el)   - electronic entropy
     S(vib)  - vibrational entropy
     S(rot)  - rotational entropy
     S(trans)- translational entropy
The entropies will be listed as mutliplied by the temperature to get
units of energy

Electronic entropy                ...      0.00000000 Eh      0.00 kcal/mol
Vibrational entropy               ...      0.00910114 Eh      5.71 kcal/mol
Rotational entropy                ...      0.01201758 Eh      7.54 kcal/mol
Translational entropy             ...      0.01887386 Eh     11.84 kcal/mol
-----------------------------------------------------------------------
Final entropy term                ...      0.03999258 Eh     25.10 kcal/mol

CAUTION: The rotational entropy is not quite correctly treated here
         because it includes a symmetry number that is not yet correctly
         implemented in ORCA!
For a nonlinear molecule the correct rotational entropy is:
    S(rot) = R*(ln(qrot/sn)+1.5)
    R    = 8.31441 J/mol/K = 1.987191683e-3 kcal/mol/K
    qrot = 225630.7636187
    sn is the rotational symmetry number. We have assumed 3 here
       if it is different for your molecule then you should correct
       the printed rotational entropy by manually evaluating the equation
       as given above

For convenience we print out the resulting values for sn=1 - 12:
 sn= 1  qrot/sn=  225630.7636 T*S(rot)=     8.19 kcal/mol T*S(tot)=    25.75 kcal/mol
 sn= 2  qrot/sn=  112815.3818 T*S(rot)=     7.78 kcal/mol T*S(tot)=    25.34 kcal/mol
 sn= 3  qrot/sn=   75210.2545 T*S(rot)=     7.54 kcal/mol T*S(tot)=    25.10 kcal/mol
 sn= 4  qrot/sn=   56407.6909 T*S(rot)=     7.37 kcal/mol T*S(tot)=    24.93 kcal/mol
 sn= 5  qrot/sn=   45126.1527 T*S(rot)=     7.24 kcal/mol T*S(tot)=    24.79 kcal/mol
 sn= 6  qrot/sn=   37605.1273 T*S(rot)=     7.13 kcal/mol T*S(tot)=    24.68 kcal/mol
 sn= 7  qrot/sn=   32232.9662 T*S(rot)=     7.04 kcal/mol T*S(tot)=    24.59 kcal/mol
 sn= 8  qrot/sn=   28203.8455 T*S(rot)=     6.96 kcal/mol T*S(tot)=    24.51 kcal/mol
 sn= 9  qrot/sn=   25070.0848 T*S(rot)=     6.89 kcal/mol T*S(tot)=    24.44 kcal/mol
 sn=10  qrot/sn=   22563.0764 T*S(rot)=     6.83 kcal/mol T*S(tot)=    24.38 kcal/mol
 sn=11  qrot/sn=   20511.8876 T*S(rot)=     6.77 kcal/mol T*S(tot)=    24.33 kcal/mol
 sn=12  qrot/sn=   18802.5636 T*S(rot)=     6.72 kcal/mol T*S(tot)=    24.27 kcal/mol

-------------------
GIBBS FREE ENTHALPY
-------------------

The Gibbs free enthalpy is G = H - T*S

Total enthalpy                    ...   -291.13371082 Eh
Total entropy correction          ...     -0.03999258 Eh    -25.10 kcal/mol
-----------------------------------------------------------------------
Final Gibbs free enthalpy         ...   -291.17370340 Eh

For completeness - the Gibbs free enthalpy minus the electronic energy
G-E(el)                           ...      0.16970038 Eh    106.49 kcal/mol

                             ****ORCA TERMINATED NORMALLY****
TOTAL RUN TIME: 0 days 1 hours 3 minutes 16 seconds 323 msec
