                         Program Version 3.0.3 - RELEASE   -
|  1> ! NORI PBE0 def2-TZVP UseSym TightOPT Freq TightSCF Grid3 FinalGrid5 XYZFile
|  2> % pal
|  3>     nprocs 8
|  4> end
|  5> %method
|  6>     SymThresh 5.0e-2
|  7> end
|  8> % geom
|  9>     MaxIter 10
| 10> end
| 11> % maxcore 2000
| 12> % output
| 13>     printlevel mini
| 14>     print[ P_Basis ] 0
| 15>     print[ P_SCFInfo ] 1
| 16>     print[ P_SCFIterInfo ] 1
| 17>     print[ P_OrbEn ] 0
| 18>     print[ P_Cartesian ] 0
| 19> end
| 20> % elprop
| 21>     Dipole false
| 22> end
| 23> *xyz 1 1
| 24>  C        1.0715416104    -0.2950755526    -0.5582683755
| 25>  C        2.4785831101     0.0097983742    -0.0877844196
| 26>  C        3.4106274298    -1.1559583927    -0.2292153406
| 27>  C        4.2200466892    -1.0251374714    -1.2692798540
| 28>  C        3.9949444637     0.2730426825    -1.9716653121
| 29>  N        3.2003525767     1.0474529021    -0.9563471956
| 30>  C        2.3818873153     2.1472719888    -1.5128766744
| 31>  H        0.4009815773     0.5590252616    -0.4517323485
| 32>  H        0.6764712942    -1.0974853890     0.0672986602
| 33>  H        1.0545939023    -0.6517095382    -1.5899972401
| 34>  H        2.4537640192     0.4214797883     0.9248052330
| 35>  H        3.3493834286    -2.0125516975     0.4286924616
| 36>  H        4.9420020699    -1.7510999676    -1.6172975918
| 37>  H        3.3984413318     0.1702126181    -2.8823710896
| 38>  H        4.9000224396     0.8311835894    -2.2169803329
| 39>  H        3.8914910939     1.4643713846    -0.3320231289
| 40>  H        1.6463178409     1.7383144080    -2.2008770270
| 41>  H        3.0387381516     2.8356053031    -2.0435553980
| 42>  H        1.8818596555     2.6707697082    -0.6996150264
| 43> *
| 44>
| 45>                          ****END OF INPUT****
 Total Charge           Charge          ....    1
 Multiplicity           Mult            ....    1
 Number of Electrons    NEL             ....   54
FINAL SINGLE POINT ENERGY      -290.107900639421
FINAL SINGLE POINT ENERGY      -290.107901932533

CARTESIAN COORDINATES (ANGSTROEM)
---------------------------------
  C      1.666771   -0.001501   -1.034991
  C      0.567827    0.753509   -0.316776
  C     -0.672966    0.909752   -1.143573
  C     -1.628585    0.070997   -0.773010
  C     -1.202012   -0.754185    0.395948
  N      0.000524    0.000422    0.892403
  C      0.950371   -0.800804    1.696053
  H      2.564264   -0.113696   -0.425489
  H      1.945240    0.574977   -1.918960
  H      1.330208   -0.980941   -1.380818
  H      0.953483    1.702084    0.066488
  H     -0.714560    1.597015   -1.977898
  H     -2.593603   -0.052985   -1.244645
  H     -0.893434   -1.765908    0.117499
  H     -1.932917   -0.829567    1.202857
  H     -0.370489    0.733741    1.497045
  H      1.348792   -1.606831    1.085335
  H      0.418538   -1.215875    2.551286
  H      1.759210   -0.159376    2.043009

FINAL SINGLE POINT ENERGY      -290.107902577173
                    ***********************HURRAY********************
 Multiplicity           Mult            ....    1
 Number of Electrons    NEL             ....   54
 Basis Dimension        Dim             ....  289
FINAL SINGLE POINT ENERGY      -290.107902745156

VIBRATIONAL FREQUENCIES
-----------------------

   0:         0.00 cm**-1
   1:         0.00 cm**-1
   2:         0.00 cm**-1
   3:         0.00 cm**-1
   4:         0.00 cm**-1
   5:         0.00 cm**-1
   6:       114.92 cm**-1
   7:       248.48 cm**-1
   8:       258.66 cm**-1
   9:       272.78 cm**-1
  10:       299.62 cm**-1
  11:       348.69 cm**-1
  12:       473.28 cm**-1
  13:       516.33 cm**-1
  14:       634.44 cm**-1
  15:       736.49 cm**-1
  16:       747.09 cm**-1
  17:       779.53 cm**-1
  18:       894.88 cm**-1
  19:       955.26 cm**-1
  20:       982.72 cm**-1
  21:       994.14 cm**-1
  22:      1011.11 cm**-1
  23:      1048.75 cm**-1
  24:      1072.57 cm**-1
  25:      1093.93 cm**-1
  26:      1107.04 cm**-1
  27:      1141.64 cm**-1
  28:      1151.54 cm**-1
  29:      1200.36 cm**-1
  30:      1247.21 cm**-1
  31:      1317.26 cm**-1
  32:      1358.52 cm**-1
  33:      1364.93 cm**-1
  34:      1386.31 cm**-1
  35:      1407.07 cm**-1
  36:      1423.77 cm**-1
  37:      1424.83 cm**-1
  38:      1455.67 cm**-1
  39:      1480.88 cm**-1
  40:      1484.25 cm**-1
  41:      1494.02 cm**-1
  42:      1500.47 cm**-1
  43:      1501.85 cm**-1
  44:      1708.79 cm**-1
  45:      3065.43 cm**-1
  46:      3076.45 cm**-1
  47:      3088.73 cm**-1
  48:      3090.23 cm**-1
  49:      3133.10 cm**-1
  50:      3147.23 cm**-1
  51:      3153.85 cm**-1
  52:      3181.28 cm**-1
  53:      3200.06 cm**-1
  54:      3237.07 cm**-1
  55:      3256.37 cm**-1
  56:      3471.58 cm**-1

IR SPECTRUM
-----------

 Mode    freq (cm**-1)   T**2         TX         TY         TZ
-------------------------------------------------------------------
   6:       114.92    0.225987  ( -0.080978  -0.241601  -0.401321)
   7:       248.48    0.013367  ( -0.037899  -0.002041  -0.109209)
   8:       258.66    0.108512  (  0.191727   0.245702  -0.106694)
   9:       272.78    0.289620  (  0.127823  -0.059219   0.519398)
  10:       299.62    0.145493  (  0.225066   0.159627  -0.263358)
  11:       348.69    0.183279  (  0.391528   0.112269  -0.131833)
  12:       473.28    2.035567  ( -0.988581   0.507339   0.894920)
  13:       516.33    2.965612  (  0.731106  -0.971832   1.219278)
  14:       634.44    2.163642  ( -0.941981  -0.578834  -0.970188)
  15:       736.49   45.869774  (  2.751839  -5.402365  -3.018545)
  16:       747.09    9.668133  (  1.015499  -1.227365  -2.670294)
  17:       779.53    4.016049  ( -1.521680   1.007070   0.828462)
  18:       894.88    1.556987  (  0.455544  -0.245983  -1.135323)
  19:       955.26   12.830776  (  2.617130   2.413813   0.393587)
  20:       982.72    1.410714  (  0.116507   0.892421   0.775064)
  21:       994.14    2.379009  (  1.050118   0.393581   1.058941)
  22:      1011.11    2.212163  ( -0.631932   0.813733   1.072690)
  23:      1048.75   15.536742  ( -2.602210  -1.343388   2.638286)
  24:      1072.57    4.028988  ( -0.856769  -1.791451   0.292637)
  25:      1093.93    3.278464  (  0.810445  -0.001064  -1.619148)
  26:      1107.04   17.047912  (  1.337385  -0.337037   3.891750)
  27:      1141.64    0.163418  ( -0.366066  -0.072084  -0.155620)
  28:      1151.54    9.128953  ( -2.175714   1.246240  -1.685854)
  29:      1200.36    1.731324  (  0.883324   0.310663  -0.924420)
  30:      1247.21    6.609021  (  0.279882   2.098642  -1.458215)
  31:      1317.26    0.283795  ( -0.301738  -0.162503  -0.407850)
  32:      1358.52    2.942842  (  0.518902   0.705346  -1.475151)
  33:      1364.93    3.435404  ( -0.765050  -0.261246   1.667889)
  34:      1386.31   11.329804  ( -2.883468  -1.568937   0.744213)
  35:      1407.07   14.765212  ( -2.399988  -0.330230   2.982653)
  36:      1423.77   18.302768  ( -3.252725  -0.095811  -2.777295)
  37:      1424.83    9.811874  ( -0.811911   3.016080   0.236508)
  38:      1455.67    4.823441  ( -0.835802   1.897159  -0.725026)
  39:      1480.88   19.550576  (  3.601405   2.438213  -0.797232)
  40:      1484.25    7.491088  (  0.826098   2.003170  -1.672112)
  41:      1494.02   18.058946  (  0.939915  -0.251215   4.136713)
  42:      1500.47   24.449152  (  0.821195   4.027231   2.748855)
  43:      1501.85   11.409883  ( -1.141232  -2.287023   2.208392)
  44:      1708.79    0.101584  (  0.190131  -0.002418   0.255790)
  45:      3065.43    1.405581  (  0.608895  -0.761416   0.674591)
  46:      3076.45    2.784573  ( -0.033466  -1.443235   0.836975)
  47:      3088.73    2.095847  ( -0.500666  -1.191699  -0.651947)
  48:      3090.23    0.320961  (  0.351855  -0.068402   0.438726)
  49:      3133.10    0.231038  ( -0.258707  -0.285433   0.287465)
  50:      3147.23    1.198409  (  0.149997  -1.071915  -0.164036)
  51:      3153.85    4.878317  (  1.911575   0.625534   0.912636)
  52:      3181.28    0.016888  ( -0.056644   0.105607   0.050270)
  53:      3200.06    0.065270  ( -0.052911   0.007377  -0.249832)
  54:      3237.07    4.094246  ( -1.269800  -1.312857   0.870782)
  55:      3256.37    5.491341  ( -1.658565   0.507874  -1.575616)
  56:      3471.58   55.320087  (  2.293698  -4.921756  -5.082849)

--------------------------
THERMOCHEMISTRY AT 298.15K
--------------------------

Temperature         ... 298.15 K
Pressure            ... 1.00 atm
Total Mass          ... 98.17 AMU

Throughout the following assumptions are being made:
  (1) The electronic state is orbitally nondegenerate
  (2) There are no thermally accessible electronically excited states
  (3) Hindered rotations indicated by low frequency modes) are not
      treated as such but are treated as vibrations and this may
      case some error
  (4) All equations used are the standard statistical mechanics
      equations for an ideal gas
  (5) All vibrations are strinctly harmonic

------------
INNER ENERGY
------------

The inner energy is: U= E(el) + E(ZPE) + E(vib) + E(rot) + E(trans)
    E(el)   - is the total energy from the electronic structure calculation
              = E(kin-el) + E(nuc-el) + E(el-el) + E(nuc-nuc)
    E(ZPE)  - the the zero temperature vibrational energy from the frequency calculation
    E(vib)  - the the finite temperature correction to E(ZPE) due to population
              of excietd vibrational states
    E(rot)  - is the rotational thermal energy
    E(trans)- is the translational thermal energy

Summary of contributions to the inner energy U:
Electronic energy                ...   -290.10790275 Eh
Zero point energy                ...      0.17710801 Eh     111.14 kcal/mol
Thermal vibrational correction   ...      0.00426683 Eh       2.68 kcal/mol
Thermal rotational correction    ...      0.00141627 Eh       0.89 kcal/mol
Thermal translational correction ...      0.00141627 Eh       0.89 kcal/mol
-----------------------------------------------------------------------
Total thermal energy                   -289.92369535 Eh

Summary of corrections to the electronic energy:
(perhaps to be used in another calculation)
Total thermal correction                  0.00709938 Eh       4.45 kcal/mol
Non-thermal (ZPE) correction              0.17710801 Eh     111.14 kcal/mol
-----------------------------------------------------------------------
Total correction                          0.18420739 Eh     115.59 kcal/mol

--------
ENTHALPY
--------

The enthalpy is H = U + kB*T
                kB is Boltzmann's constant
Total free energy                 ...   -289.92369535 Eh
Thermal Enthalpy correction       ...      0.00094421 Eh       0.59 kcal/mol
-----------------------------------------------------------------------
Total Enthalpy                    ...   -289.92275115 Eh

-------
ENTROPY
-------

The entropy contributions are T*S = T*(S(el)+S(vib)+S(rot)+S(trans)
     S(el)   - electronic entropy
     S(vib)  - vibrational entropy
     S(rot)  - rotational entropy
     S(trans)- translational entropy
The entropies will be listed as mutliplied by the temperature to get
units of energy

Electronic entropy                ...      0.00000000 Eh      0.00 kcal/mol
Vibrational entropy               ...      0.00686965 Eh      4.31 kcal/mol
Rotational entropy                ...      0.01188431 Eh      7.46 kcal/mol
Translational entropy             ...      0.01884507 Eh     11.83 kcal/mol
-----------------------------------------------------------------------
Final entropy term                ...      0.03759903 Eh     23.59 kcal/mol

CAUTION: The rotational entropy is not quite correctly treated here
         because it includes a symmetry number that is not yet correctly
         implemented in ORCA!
For a nonlinear molecule the correct rotational entropy is:
    S(rot) = R*(ln(qrot/sn)+1.5)
    R    = 8.31441 J/mol/K = 1.987191683e-3 kcal/mol/K
    qrot = 195929.5868013
    sn is the rotational symmetry number. We have assumed 3 here
       if it is different for your molecule then you should correct
       the printed rotational entropy by manually evaluating the equation
       as given above

For convenience we print out the resulting values for sn=1 - 12:
 sn= 1  qrot/sn=  195929.5868 T*S(rot)=     8.11 kcal/mol T*S(tot)=    24.24 kcal/mol
 sn= 2  qrot/sn=   97964.7934 T*S(rot)=     7.70 kcal/mol T*S(tot)=    23.83 kcal/mol
 sn= 3  qrot/sn=   65309.8623 T*S(rot)=     7.46 kcal/mol T*S(tot)=    23.59 kcal/mol
 sn= 4  qrot/sn=   48982.3967 T*S(rot)=     7.29 kcal/mol T*S(tot)=    23.42 kcal/mol
 sn= 5  qrot/sn=   39185.9174 T*S(rot)=     7.15 kcal/mol T*S(tot)=    23.29 kcal/mol
 sn= 6  qrot/sn=   32654.9311 T*S(rot)=     7.05 kcal/mol T*S(tot)=    23.18 kcal/mol
 sn= 7  qrot/sn=   27989.9410 T*S(rot)=     6.96 kcal/mol T*S(tot)=    23.09 kcal/mol
 sn= 8  qrot/sn=   24491.1984 T*S(rot)=     6.88 kcal/mol T*S(tot)=    23.01 kcal/mol
 sn= 9  qrot/sn=   21769.9541 T*S(rot)=     6.81 kcal/mol T*S(tot)=    22.94 kcal/mol
 sn=10  qrot/sn=   19592.9587 T*S(rot)=     6.74 kcal/mol T*S(tot)=    22.88 kcal/mol
 sn=11  qrot/sn=   17811.7806 T*S(rot)=     6.69 kcal/mol T*S(tot)=    22.82 kcal/mol
 sn=12  qrot/sn=   16327.4656 T*S(rot)=     6.64 kcal/mol T*S(tot)=    22.77 kcal/mol

-------------------
GIBBS FREE ENTHALPY
-------------------

The Gibbs free enthalpy is G = H - T*S

Total enthalpy                    ...   -289.92275115 Eh
Total entropy correction          ...     -0.03759903 Eh    -23.59 kcal/mol
-----------------------------------------------------------------------
Final Gibbs free enthalpy         ...   -289.96035017 Eh

For completeness - the Gibbs free enthalpy minus the electronic energy
G-E(el)                           ...      0.14755257 Eh     92.59 kcal/mol

                             ****ORCA TERMINATED NORMALLY****
TOTAL RUN TIME: 0 days 1 hours 1 minutes 8 seconds 100 msec
