                         Program Version 3.0.3 - RELEASE   -
|  1> ! NORI PBE0 def2-TZVP UseSym TightOPT Freq TightSCF Grid3 FinalGrid5 XYZFile
|  2> % pal
|  3>     nprocs 8
|  4> end
|  5> %method
|  6>     SymThresh 5.0e-2
|  7> end
|  8> % geom
|  9>     MaxIter 10
| 10> end
| 11> % maxcore 2000
| 12> % output
| 13>     printlevel mini
| 14>     print[ P_Basis ] 0
| 15>     print[ P_SCFInfo ] 1
| 16>     print[ P_SCFIterInfo ] 1
| 17>     print[ P_OrbEn ] 0
| 18>     print[ P_Cartesian ] 0
| 19> end
| 20> % elprop
| 21>     Dipole false
| 22> end
| 23> *xyz 1 1
| 24>  C        0.9067658426     0.1008314500     0.0814552266
| 25>  C        2.3839275826    -0.0815434453    -0.0314174073
| 26>  C        3.0412596956    -0.7828088993    -1.1653979885
| 27>  C        2.2896060159    -1.3896155846    -2.2843266568
| 28>  C        2.0831653826    -0.8289098909    -3.4655183939
| 29>  N        3.1065328068     0.6957642078    -1.0811951125
| 30>  C        4.3543277696     1.4197246816    -0.8170135711
| 31>  H        0.6666718929     1.0382039558     0.5863828494
| 32>  H        0.4986739850    -0.7134344542     0.6838746427
| 33>  H        0.4147558881     0.0757778676    -0.8920613289
| 34>  H        2.9416199842    -0.0766446727     0.8996759366
| 35>  H        4.0026115108    -1.2368515752    -0.9383654130
| 36>  H        1.9202846075    -2.3898780062    -2.0768147459
| 37>  H        2.4644900241     0.1526085096    -3.7323881490
| 38>  H        1.5293096333    -1.3479487061    -4.2375553349
| 39>  H        2.4796979503     1.1586681657    -1.7338443010
| 40>  H        4.9522472545     0.8488786751    -0.1088942875
| 41>  H        4.1169579162     2.3949972564    -0.3938712523
| 42>  H        4.9047242574     1.5368704650    -1.7499147129
| 43> *
| 44>
| 45>                          ****END OF INPUT****
 Total Charge           Charge          ....    1
 Multiplicity           Mult            ....    1
 Number of Electrons    NEL             ....   54
FINAL SINGLE POINT ENERGY      -290.073406339773
FINAL SINGLE POINT ENERGY      -290.073407473860

CARTESIAN COORDINATES (ANGSTROEM)
---------------------------------
  C      2.083618   -0.000259   -0.550260
  C      0.959030    0.754917    0.076769
  C     -0.461585    0.606134   -0.334561
  C     -0.897215   -0.291483   -1.425455
  C     -1.384871   -1.512085   -1.269228
  N      0.000630   -0.001516    0.936145
  C     -0.440560    0.482105    2.248797
  H      2.871613   -0.201728    0.177037
  H      2.514804    0.611131   -1.345346
  H      1.749116   -0.939095   -0.994205
  H      1.214094    1.705268    0.534696
  H     -1.092785    1.472595   -0.153433
  H     -0.815773    0.146716   -2.416439
  H     -1.519896   -1.978901   -0.297409
  H     -1.693753   -2.100182   -2.124083
  H      0.120282   -1.008738    0.874430
  H     -0.535655    1.565832    2.212087
  H      0.299751    0.204137    2.998049
  H     -1.406042    0.038002    2.488250

FINAL SINGLE POINT ENERGY      -290.073408237512
                    ***********************HURRAY********************
 Multiplicity           Mult            ....    1
 Number of Electrons    NEL             ....   54
 Basis Dimension        Dim             ....  289
FINAL SINGLE POINT ENERGY      -290.073408374481

VIBRATIONAL FREQUENCIES
-----------------------

   0:         0.00 cm**-1
   1:         0.00 cm**-1
   2:         0.00 cm**-1
   3:         0.00 cm**-1
   4:         0.00 cm**-1
   5:         0.00 cm**-1
   6:        78.38 cm**-1
   7:       161.81 cm**-1
   8:       185.66 cm**-1
   9:       205.94 cm**-1
  10:       212.30 cm**-1
  11:       237.97 cm**-1
  12:       314.61 cm**-1
  13:       418.73 cm**-1
  14:       481.58 cm**-1
  15:       542.70 cm**-1
  16:       665.81 cm**-1
  17:       799.56 cm**-1
  18:       821.76 cm**-1
  19:       857.49 cm**-1
  20:       971.56 cm**-1
  21:       991.79 cm**-1
  22:       998.61 cm**-1
  23:      1025.32 cm**-1
  24:      1036.41 cm**-1
  25:      1086.23 cm**-1
  26:      1109.65 cm**-1
  27:      1138.55 cm**-1
  28:      1145.19 cm**-1
  29:      1161.59 cm**-1
  30:      1201.60 cm**-1
  31:      1230.72 cm**-1
  32:      1287.01 cm**-1
  33:      1319.11 cm**-1
  34:      1382.38 cm**-1
  35:      1390.65 cm**-1
  36:      1427.07 cm**-1
  37:      1450.99 cm**-1
  38:      1461.14 cm**-1
  39:      1478.16 cm**-1
  40:      1479.83 cm**-1
  41:      1483.96 cm**-1
  42:      1492.75 cm**-1
  43:      1510.50 cm**-1
  44:      1728.55 cm**-1
  45:      3068.33 cm**-1
  46:      3083.88 cm**-1
  47:      3148.02 cm**-1
  48:      3153.24 cm**-1
  49:      3154.26 cm**-1
  50:      3161.74 cm**-1
  51:      3180.15 cm**-1
  52:      3182.57 cm**-1
  53:      3184.74 cm**-1
  54:      3188.79 cm**-1
  55:      3253.71 cm**-1
  56:      3526.90 cm**-1

IR SPECTRUM
-----------

 Mode    freq (cm**-1)   T**2         TX         TY         TZ
-------------------------------------------------------------------
   6:        78.38    0.187453  ( -0.133860   0.396544   0.110849)
   7:       161.81    1.174927  (  0.370726  -0.008570   1.018536)
   8:       185.66    0.154782  (  0.080956  -0.084771   0.375556)
   9:       205.94    0.181790  ( -0.010653  -0.144580   0.400965)
  10:       212.30    0.867687  (  0.710409   0.223126   0.559661)
  11:       237.97    0.226803  (  0.070443   0.039959  -0.469302)
  12:       314.61    1.181367  ( -0.740497  -0.435025  -0.666171)
  13:       418.73    0.927161  ( -0.367554   0.848399   0.268858)
  14:       481.58    4.033637  (  1.908950  -0.610202  -0.131145)
  15:       542.70    1.055889  (  0.642399   0.662065   0.452639)
  16:       665.81    6.782003  ( -1.873603   1.702540  -0.610714)
  17:       799.56    5.815613  (  1.962976  -1.009127   0.971597)
  18:       821.76   16.473315  (  2.620195   1.478652  -2.724239)
  19:       857.49    8.329436  (  2.790037   0.731082   0.103181)
  20:       971.56    9.998810  (  2.600331  -1.135328   1.395751)
  21:       991.79   70.525417  (  8.131126  -2.079502   0.293048)
  22:       998.61    6.307500  ( -0.081115  -2.071203  -1.418111)
  23:      1025.32    5.085035  ( -1.907914   1.135460   0.394503)
  24:      1036.41   17.343920  ( -1.177432  -2.439252   3.163483)
  25:      1086.23   12.287988  ( -3.435800  -0.503392   0.479441)
  26:      1109.65   24.106192  (  0.329152   0.544867   4.868364)
  27:      1138.55   13.203608  ( -0.456279  -0.255609  -3.595842)
  28:      1145.19    7.644843  ( -1.325168   0.666493  -2.333358)
  29:      1161.59    6.321056  (  2.346532   0.166494  -0.887201)
  30:      1201.60    2.750073  ( -0.378673   0.181531   1.604284)
  31:      1230.72    1.930855  ( -1.051440   0.901565   0.111848)
  32:      1287.01    9.927802  ( -1.309335  -2.848360   0.316681)
  33:      1319.11    1.097000  (  0.851808   0.037320   0.608302)
  34:      1382.38    1.681523  ( -0.314086  -0.435142   1.180476)
  35:      1390.65    6.590489  ( -0.867060  -1.579847  -1.828327)
  36:      1427.07   10.717424  ( -2.987819   1.317313   0.234619)
  37:      1450.99   16.523585  ( -1.500213  -2.240510   3.041884)
  38:      1461.14    9.289407  (  1.595720   2.175580  -1.417722)
  39:      1478.16    5.526901  ( -0.179390   0.154039   2.339015)
  40:      1479.83    8.785919  (  2.299160  -1.676836   0.829460)
  41:      1483.96   13.540986  ( -3.357490  -1.099272  -1.029488)
  42:      1492.75   34.557904  (  0.512565   5.852949   0.195359)
  43:      1510.50   29.736318  (  0.621967   0.533157  -5.391217)
  44:      1728.55    0.899488  (  0.320204   0.843678  -0.291829)
  45:      3068.33    0.578561  ( -0.020557  -0.668995   0.361364)
  46:      3083.88    0.803329  (  0.262743  -0.201973  -0.832768)
  47:      3148.02    0.308228  (  0.394882  -0.319866  -0.223566)
  48:      3153.24    1.220680  (  0.929175   0.586528   0.115326)
  49:      3154.26    6.658450  ( -0.552922  -0.439933  -2.481771)
  50:      3161.74    1.720863  ( -1.119351   0.369126  -0.575902)
  51:      3180.15    0.058792  (  0.238547   0.040548   0.015603)
  52:      3182.57    1.401171  (  0.043301   0.375629  -1.121695)
  53:      3184.74    0.442025  (  0.313853  -0.154842  -0.565283)
  54:      3188.79    0.242985  (  0.383976   0.235764  -0.199907)
  55:      3253.71    0.716634  (  0.283643   0.793398   0.081857)
  56:      3526.90   51.446504  (  0.169162  -7.159344   0.402091)

--------------------------
THERMOCHEMISTRY AT 298.15K
--------------------------

Temperature         ... 298.15 K
Pressure            ... 1.00 atm
Total Mass          ... 98.17 AMU

Throughout the following assumptions are being made:
  (1) The electronic state is orbitally nondegenerate
  (2) There are no thermally accessible electronically excited states
  (3) Hindered rotations indicated by low frequency modes) are not
      treated as such but are treated as vibrations and this may
      case some error
  (4) All equations used are the standard statistical mechanics
      equations for an ideal gas
  (5) All vibrations are strinctly harmonic

------------
INNER ENERGY
------------

The inner energy is: U= E(el) + E(ZPE) + E(vib) + E(rot) + E(trans)
    E(el)   - is the total energy from the electronic structure calculation
              = E(kin-el) + E(nuc-el) + E(el-el) + E(nuc-nuc)
    E(ZPE)  - the the zero temperature vibrational energy from the frequency calculation
    E(vib)  - the the finite temperature correction to E(ZPE) due to population
              of excietd vibrational states
    E(rot)  - is the rotational thermal energy
    E(trans)- is the translational thermal energy

Summary of contributions to the inner energy U:
Electronic energy                ...   -290.07340837 Eh
Zero point energy                ...      0.17373292 Eh     109.02 kcal/mol
Thermal vibrational correction   ...      0.00545735 Eh       3.42 kcal/mol
Thermal rotational correction    ...      0.00141627 Eh       0.89 kcal/mol
Thermal translational correction ...      0.00141627 Eh       0.89 kcal/mol
-----------------------------------------------------------------------
Total thermal energy                   -289.89138556 Eh

Summary of corrections to the electronic energy:
(perhaps to be used in another calculation)
Total thermal correction                  0.00828989 Eh       5.20 kcal/mol
Non-thermal (ZPE) correction              0.17373292 Eh     109.02 kcal/mol
-----------------------------------------------------------------------
Total correction                          0.18202281 Eh     114.22 kcal/mol

--------
ENTHALPY
--------

The enthalpy is H = U + kB*T
                kB is Boltzmann's constant
Total free energy                 ...   -289.89138556 Eh
Thermal Enthalpy correction       ...      0.00094421 Eh       0.59 kcal/mol
-----------------------------------------------------------------------
Total Enthalpy                    ...   -289.89044135 Eh

-------
ENTROPY
-------

The entropy contributions are T*S = T*(S(el)+S(vib)+S(rot)+S(trans)
     S(el)   - electronic entropy
     S(vib)  - vibrational entropy
     S(rot)  - rotational entropy
     S(trans)- translational entropy
The entropies will be listed as mutliplied by the temperature to get
units of energy

Electronic entropy                ...      0.00000000 Eh      0.00 kcal/mol
Vibrational entropy               ...      0.00954288 Eh      5.99 kcal/mol
Rotational entropy                ...      0.01212717 Eh      7.61 kcal/mol
Translational entropy             ...      0.01884507 Eh     11.83 kcal/mol
-----------------------------------------------------------------------
Final entropy term                ...      0.04051512 Eh     25.42 kcal/mol

CAUTION: The rotational entropy is not quite correctly treated here
         because it includes a symmetry number that is not yet correctly
         implemented in ORCA!
For a nonlinear molecule the correct rotational entropy is:
    S(rot) = R*(ln(qrot/sn)+1.5)
    R    = 8.31441 J/mol/K = 1.987191683e-3 kcal/mol/K
    qrot = 253400.5978772
    sn is the rotational symmetry number. We have assumed 3 here
       if it is different for your molecule then you should correct
       the printed rotational entropy by manually evaluating the equation
       as given above

For convenience we print out the resulting values for sn=1 - 12:
 sn= 1  qrot/sn=  253400.5979 T*S(rot)=     8.26 kcal/mol T*S(tot)=    26.07 kcal/mol
 sn= 2  qrot/sn=  126700.2989 T*S(rot)=     7.85 kcal/mol T*S(tot)=    25.66 kcal/mol
 sn= 3  qrot/sn=   84466.8660 T*S(rot)=     7.61 kcal/mol T*S(tot)=    25.42 kcal/mol
 sn= 4  qrot/sn=   63350.1495 T*S(rot)=     7.44 kcal/mol T*S(tot)=    25.25 kcal/mol
 sn= 5  qrot/sn=   50680.1196 T*S(rot)=     7.31 kcal/mol T*S(tot)=    25.12 kcal/mol
 sn= 6  qrot/sn=   42233.4330 T*S(rot)=     7.20 kcal/mol T*S(tot)=    25.01 kcal/mol
 sn= 7  qrot/sn=   36200.0854 T*S(rot)=     7.11 kcal/mol T*S(tot)=    24.92 kcal/mol
 sn= 8  qrot/sn=   31675.0747 T*S(rot)=     7.03 kcal/mol T*S(tot)=    24.84 kcal/mol
 sn= 9  qrot/sn=   28155.6220 T*S(rot)=     6.96 kcal/mol T*S(tot)=    24.77 kcal/mol
 sn=10  qrot/sn=   25340.0598 T*S(rot)=     6.90 kcal/mol T*S(tot)=    24.71 kcal/mol
 sn=11  qrot/sn=   23036.4180 T*S(rot)=     6.84 kcal/mol T*S(tot)=    24.65 kcal/mol
 sn=12  qrot/sn=   21116.7165 T*S(rot)=     6.79 kcal/mol T*S(tot)=    24.60 kcal/mol

-------------------
GIBBS FREE ENTHALPY
-------------------

The Gibbs free enthalpy is G = H - T*S

Total enthalpy                    ...   -289.89044135 Eh
Total entropy correction          ...     -0.04051512 Eh    -25.42 kcal/mol
-----------------------------------------------------------------------
Final Gibbs free enthalpy         ...   -289.93095647 Eh

For completeness - the Gibbs free enthalpy minus the electronic energy
G-E(el)                           ...      0.14245191 Eh     89.39 kcal/mol

                             ****ORCA TERMINATED NORMALLY****
TOTAL RUN TIME: 0 days 0 hours 53 minutes 8 seconds 171 msec
