                         Program Version 3.0.3 - RELEASE   -
|  1> ! NORI PBE0 def2-TZVP UseSym TightOPT Freq TightSCF Grid3 FinalGrid5 XYZFile
|  2> % pal
|  3>     nprocs 8
|  4> end
|  5> %method
|  6>     SymThresh 5.0e-2
|  7> end
|  8> % geom
|  9>     MaxIter 10
| 10> end
| 11> % maxcore 2000
| 12> % output
| 13>     printlevel mini
| 14>     print[ P_Basis ] 0
| 15>     print[ P_SCFInfo ] 1
| 16>     print[ P_SCFIterInfo ] 1
| 17>     print[ P_OrbEn ] 0
| 18>     print[ P_Cartesian ] 0
| 19> end
| 20> % elprop
| 21>     Dipole false
| 22> end
| 23> *xyz 1 1
| 24>  C        1.0507706227     0.0493520281     0.0093406187
| 25>  C        2.5358969176    -0.0819314426    -0.0011948459
| 26>  C        3.2756349229    -0.8609860924    -1.0325253127
| 27>  C        2.6144531826    -1.5066449222    -2.1194736438
| 28>  C        2.0708863008    -2.0711622802    -3.0264052420
| 29>  N        3.3025907673     0.6396283589    -1.0523800946
| 30>  C        4.5260111532     1.3967040299    -0.7681218560
| 31>  H        0.6352409494    -0.7504765121     0.6254064480
| 32>  H        0.6246314147    -0.0459671957    -0.9906099439
| 33>  H        0.7480990151     1.0016888053     0.4477285893
| 34>  H        3.0377890958    -0.0046017256     0.9579898567
| 35>  H        4.2367377973    -1.2735567979    -0.7408777428
| 36>  H        1.5899505924    -2.5778828319    -3.8342641771
| 37>  H        2.7210345667     1.0308768432    -1.7891578772
| 38>  H        5.0879030734     0.8832073560     0.0101534738
| 39>  H        4.2525685584     2.3941631874    -0.4257341609
| 40>  H        5.1253810698     1.4593691916    -1.6757840897
| 41> *
| 42>
| 43>                          ****END OF INPUT****
 Total Charge           Charge          ....    1
 Multiplicity           Mult            ....    1
 Number of Electrons    NEL             ....   52
FINAL SINGLE POINT ENERGY      -288.816385180889

CARTESIAN COORDINATES (ANGSTROEM)
---------------------------------
  C      2.010262   -0.000126   -0.535956
  C      0.869773    0.730858    0.087086
  C     -0.552994    0.469060   -0.265983
  C     -0.932865   -0.538904   -1.201327
  C     -1.265789   -1.368112   -2.000105
  N      0.000339   -0.000478    1.047872
  C     -0.438488    0.575869    2.323222
  H      2.347996    0.561572   -1.409029
  H      1.721234   -0.996634   -0.873489
  H      2.848493   -0.076313    0.158410
  H      1.072878    1.735176    0.444757
  H     -1.251158    1.290347   -0.134056
  H     -1.566316   -2.104037   -2.713510
  H      0.162822   -1.003981    1.067036
  H     -0.610362    1.642550    2.189332
  H      0.341306    0.420563    3.068203
  H     -1.362053    0.089689    2.635088

FINAL SINGLE POINT ENERGY      -288.816386059586
                    ***********************HURRAY********************
 Multiplicity           Mult            ....    1
 Number of Electrons    NEL             ....   52
 Basis Dimension        Dim             ....  277
FINAL SINGLE POINT ENERGY      -288.816386634474

VIBRATIONAL FREQUENCIES
-----------------------

   0:         0.00 cm**-1
   1:         0.00 cm**-1
   2:         0.00 cm**-1
   3:         0.00 cm**-1
   4:         0.00 cm**-1
   5:         0.00 cm**-1
   6:       129.21 cm**-1
   7:       155.93 cm**-1
   8:       184.20 cm**-1
   9:       202.56 cm**-1
  10:       229.63 cm**-1
  11:       297.16 cm**-1
  12:       351.74 cm**-1
  13:       411.71 cm**-1
  14:       498.12 cm**-1
  15:       595.05 cm**-1
  16:       735.09 cm**-1
  17:       768.99 cm**-1
  18:       774.57 cm**-1
  19:       805.25 cm**-1
  20:       863.22 cm**-1
  21:       988.65 cm**-1
  22:      1000.87 cm**-1
  23:      1047.21 cm**-1
  24:      1089.41 cm**-1
  25:      1115.28 cm**-1
  26:      1152.90 cm**-1
  27:      1162.70 cm**-1
  28:      1201.18 cm**-1
  29:      1227.53 cm**-1
  30:      1280.86 cm**-1
  31:      1379.93 cm**-1
  32:      1386.53 cm**-1
  33:      1426.98 cm**-1
  34:      1453.55 cm**-1
  35:      1472.05 cm**-1
  36:      1476.57 cm**-1
  37:      1481.63 cm**-1
  38:      1490.63 cm**-1
  39:      1506.67 cm**-1
  40:      2257.85 cm**-1
  41:      3069.08 cm**-1
  42:      3082.82 cm**-1
  43:      3150.11 cm**-1
  44:      3155.23 cm**-1
  45:      3176.44 cm**-1
  46:      3180.02 cm**-1
  47:      3184.40 cm**-1
  48:      3191.25 cm**-1
  49:      3452.11 cm**-1
  50:      3525.04 cm**-1

IR SPECTRUM
-----------

 Mode    freq (cm**-1)   T**2         TX         TY         TZ
-------------------------------------------------------------------
   6:       129.21    0.475596  (  0.577562   0.362890  -0.101632)
   7:       155.93    0.935445  (  0.127000  -0.883076   0.373489)
   8:       184.20    0.179301  ( -0.025888  -0.364723   0.213560)
   9:       202.56    0.310753  (  0.098746   0.544455  -0.067608)
  10:       229.63    0.474409  (  0.687708  -0.035572   0.014204)
  11:       297.16    2.565276  ( -0.780880  -1.207731   0.704904)
  12:       351.74    9.519888  (  3.006633  -0.403068  -0.563547)
  13:       411.71    5.557179  (  0.598946  -1.838064   1.349060)
  14:       498.12    9.973164  (  1.188285  -1.633648   2.427414)
  15:       595.05    2.474815  (  1.384003   0.014870  -0.747749)
  16:       735.09   35.092096  ( -5.625482   0.333546   1.826143)
  17:       768.99   11.078464  (  0.039331   3.179186  -0.984731)
  18:       774.57   38.762173  ( -2.113170   2.919557  -5.076699)
  19:       805.25   18.704921  (  2.362126   0.934190  -3.500368)
  20:       863.22    5.978771  (  2.348449  -0.034574   0.679972)
  21:       988.65    2.843678  (  0.602700  -0.024400  -1.574749)
  22:      1000.87   26.142640  (  4.748726   1.242717   1.431047)
  23:      1047.21   18.259660  (  0.711942   3.067680  -2.888276)
  24:      1089.41   25.297691  (  2.752895   0.482599  -4.181669)
  25:      1115.28   36.053875  ( -2.024288  -1.718343  -5.385483)
  26:      1152.90    5.346452  ( -2.268551  -0.381393  -0.233807)
  27:      1162.70    4.290416  (  0.752619  -0.466252  -1.872589)
  28:      1201.18    1.839996  ( -0.399007  -0.517437  -1.188717)
  29:      1227.53    3.743380  (  1.064545  -1.359757  -0.872459)
  30:      1280.86    6.467812  ( -0.624463  -2.426766   0.434358)
  31:      1379.93    4.481648  (  0.724884   1.840183   0.754930)
  32:      1386.53   12.937633  ( -1.175614  -2.299299  -2.503755)
  33:      1426.98   10.114730  ( -3.094561   0.665933   0.308151)
  34:      1453.55    5.439426  ( -0.340195  -0.381820   2.275501)
  35:      1472.05   15.984604  (  0.388322   0.269733  -3.970019)
  36:      1476.57    8.746958  ( -2.557011   1.470802   0.213055)
  37:      1481.63   14.996710  (  3.533063   1.225679   1.005926)
  38:      1490.63   30.379623  ( -0.064880  -5.476857  -0.615995)
  39:      1506.67   39.918527  ( -0.707707  -1.219207   6.158832)
  40:      2257.85   35.133026  (  1.865977   3.765880   4.179629)
  41:      3069.08    0.800645  ( -0.308714  -0.572480   0.614497)
  42:      3082.82    0.316922  (  0.144718  -0.326791  -0.434956)
  43:      3150.11    0.398278  ( -0.316092   0.224150   0.498117)
  44:      3155.23    1.328229  (  0.929326   0.622118   0.278480)
  45:      3176.44    5.565435  (  2.058829  -0.703833   0.911745)
  46:      3180.02    0.718901  (  0.817798   0.030720   0.221728)
  47:      3184.40    0.294422  ( -0.167974   0.168329   0.487721)
  48:      3191.25    0.839856  (  0.346811   0.824354  -0.200047)
  49:      3452.11  102.214926  ( -3.379222  -6.517174  -6.951419)
  50:      3525.04   68.421542  (  1.254775  -7.816268   2.398547)

--------------------------
THERMOCHEMISTRY AT 298.15K
--------------------------

Temperature         ... 298.15 K
Pressure            ... 1.00 atm
Total Mass          ... 96.15 AMU

Throughout the following assumptions are being made:
  (1) The electronic state is orbitally nondegenerate
  (2) There are no thermally accessible electronically excited states
  (3) Hindered rotations indicated by low frequency modes) are not
      treated as such but are treated as vibrations and this may
      case some error
  (4) All equations used are the standard statistical mechanics
      equations for an ideal gas
  (5) All vibrations are strinctly harmonic

------------
INNER ENERGY
------------

The inner energy is: U= E(el) + E(ZPE) + E(vib) + E(rot) + E(trans)
    E(el)   - is the total energy from the electronic structure calculation
              = E(kin-el) + E(nuc-el) + E(el-el) + E(nuc-nuc)
    E(ZPE)  - the the zero temperature vibrational energy from the frequency calculation
    E(vib)  - the the finite temperature correction to E(ZPE) due to population
              of excietd vibrational states
    E(rot)  - is the rotational thermal energy
    E(trans)- is the translational thermal energy

Summary of contributions to the inner energy U:
Electronic energy                ...   -288.81638663 Eh
Zero point energy                ...      0.14983035 Eh      94.02 kcal/mol
Thermal vibrational correction   ...      0.00514720 Eh       3.23 kcal/mol
Thermal rotational correction    ...      0.00141627 Eh       0.89 kcal/mol
Thermal translational correction ...      0.00141627 Eh       0.89 kcal/mol
-----------------------------------------------------------------------
Total thermal energy                   -288.65857654 Eh

Summary of corrections to the electronic energy:
(perhaps to be used in another calculation)
Total thermal correction                  0.00797974 Eh       5.01 kcal/mol
Non-thermal (ZPE) correction              0.14983035 Eh      94.02 kcal/mol
-----------------------------------------------------------------------
Total correction                          0.15781009 Eh      99.03 kcal/mol

--------
ENTHALPY
--------

The enthalpy is H = U + kB*T
                kB is Boltzmann's constant
Total free energy                 ...   -288.65857654 Eh
Thermal Enthalpy correction       ...      0.00094421 Eh       0.59 kcal/mol
-----------------------------------------------------------------------
Total Enthalpy                    ...   -288.65763233 Eh

-------
ENTROPY
-------

The entropy contributions are T*S = T*(S(el)+S(vib)+S(rot)+S(trans)
     S(el)   - electronic entropy
     S(vib)  - vibrational entropy
     S(rot)  - rotational entropy
     S(trans)- translational entropy
The entropies will be listed as mutliplied by the temperature to get
units of energy

Electronic entropy                ...      0.00000000 Eh      0.00 kcal/mol
Vibrational entropy               ...      0.00869100 Eh      5.45 kcal/mol
Rotational entropy                ...      0.01211726 Eh      7.60 kcal/mol
Translational entropy             ...      0.01881568 Eh     11.81 kcal/mol
-----------------------------------------------------------------------
Final entropy term                ...      0.03962394 Eh     24.86 kcal/mol

CAUTION: The rotational entropy is not quite correctly treated here
         because it includes a symmetry number that is not yet correctly
         implemented in ORCA!
For a nonlinear molecule the correct rotational entropy is:
    S(rot) = R*(ln(qrot/sn)+1.5)
    R    = 8.31441 J/mol/K = 1.987191683e-3 kcal/mol/K
    qrot = 250754.6997252
    sn is the rotational symmetry number. We have assumed 3 here
       if it is different for your molecule then you should correct
       the printed rotational entropy by manually evaluating the equation
       as given above

For convenience we print out the resulting values for sn=1 - 12:
 sn= 1  qrot/sn=  250754.6997 T*S(rot)=     8.25 kcal/mol T*S(tot)=    25.52 kcal/mol
 sn= 2  qrot/sn=  125377.3499 T*S(rot)=     7.84 kcal/mol T*S(tot)=    25.10 kcal/mol
 sn= 3  qrot/sn=   83584.8999 T*S(rot)=     7.60 kcal/mol T*S(tot)=    24.86 kcal/mol
 sn= 4  qrot/sn=   62688.6749 T*S(rot)=     7.43 kcal/mol T*S(tot)=    24.69 kcal/mol
 sn= 5  qrot/sn=   50150.9399 T*S(rot)=     7.30 kcal/mol T*S(tot)=    24.56 kcal/mol
 sn= 6  qrot/sn=   41792.4500 T*S(rot)=     7.19 kcal/mol T*S(tot)=    24.45 kcal/mol
 sn= 7  qrot/sn=   35822.1000 T*S(rot)=     7.10 kcal/mol T*S(tot)=    24.36 kcal/mol
 sn= 8  qrot/sn=   31344.3375 T*S(rot)=     7.02 kcal/mol T*S(tot)=    24.28 kcal/mol
 sn= 9  qrot/sn=   27861.6333 T*S(rot)=     6.95 kcal/mol T*S(tot)=    24.21 kcal/mol
 sn=10  qrot/sn=   25075.4700 T*S(rot)=     6.89 kcal/mol T*S(tot)=    24.15 kcal/mol
 sn=11  qrot/sn=   22795.8818 T*S(rot)=     6.83 kcal/mol T*S(tot)=    24.09 kcal/mol
 sn=12  qrot/sn=   20896.2250 T*S(rot)=     6.78 kcal/mol T*S(tot)=    24.04 kcal/mol

-------------------
GIBBS FREE ENTHALPY
-------------------

The Gibbs free enthalpy is G = H - T*S

Total enthalpy                    ...   -288.65763233 Eh
Total entropy correction          ...     -0.03962394 Eh    -24.86 kcal/mol
-----------------------------------------------------------------------
Final Gibbs free enthalpy         ...   -288.69725627 Eh

For completeness - the Gibbs free enthalpy minus the electronic energy
G-E(el)                           ...      0.11913036 Eh     74.76 kcal/mol

                             ****ORCA TERMINATED NORMALLY****
TOTAL RUN TIME: 0 days 0 hours 46 minutes 42 seconds 249 msec
