                         Program Version 3.0.3 - RELEASE   -
|  1> ! NORI PBE0 def2-TZVP UseSym TightOPT Freq TightSCF Grid3 FinalGrid5 XYZFile
|  2> % pal
|  3>     nprocs 8
|  4> end
|  5> %method
|  6>     SymThresh 5.0e-2
|  7> end
|  8> % geom
|  9>     MaxIter 10
| 10> end
| 11> % maxcore 2000
| 12> % output
| 13>     printlevel mini
| 14>     print[ P_Basis ] 0
| 15>     print[ P_SCFInfo ] 1
| 16>     print[ P_SCFIterInfo ] 1
| 17>     print[ P_OrbEn ] 0
| 18>     print[ P_Cartesian ] 0
| 19> end
| 20> % elprop
| 21>     Dipole false
| 22> end
| 23> *xyz 1 1
| 24>  C        0.9130566369    -0.1164443076     0.2121274401
| 25>  C        2.4052443659    -0.0035560018     0.1107094880
| 26>  C        3.1625763702     1.0681904543     0.9044616753
| 27>  C        4.1923601602     0.0007618156     1.3050567671
| 28>  C        5.4765279016    -0.0017694431     0.5235747822
| 29>  N        3.1875646702    -1.0798153560     0.8584335637
| 30>  C        3.6176011614    -2.2956692131     0.1509734932
| 31>  H        0.5347734425    -1.0177470286    -0.2752238177
| 32>  H        0.4568098038     0.7401028241    -0.2884287643
| 33>  H        0.5802291777    -0.1039082583     1.2535776867
| 34>  H        2.7443501862    -0.0503456340    -0.9257183387
| 35>  H        2.5855009290     1.4468662641     1.7487528777
| 36>  H        3.5509532889     1.9066025115     0.3300090161
| 37>  H        4.3847024544    -0.1071304827     2.3728218191
| 38>  H        5.3165072741     0.1175260356    -0.5503628065
| 39>  H        6.0703771277    -0.8999156100     0.7023472390
| 40>  H        6.0686894667     0.8520475771     0.8605936037
| 41>  H        2.6399842799    -1.3559945390     1.6735910174
| 42>  H        4.2139063669    -2.0193792605    -0.7151079559
| 43>  H        2.7330678554    -2.8447154617    -0.1719824631
| 44>  H        4.2079370803    -2.9187468860     0.8225336768
| 45> *
| 46>
| 47>                          ****END OF INPUT****
 Total Charge           Charge          ....    1
 Multiplicity           Mult            ....    1
 Number of Electrons    NEL             ....   56
FINAL SINGLE POINT ENERGY      -291.320386602037
FINAL SINGLE POINT ENERGY      -291.320388548391

CARTESIAN COORDINATES (ANGSTROEM)
---------------------------------
  C      2.406733   -0.000758   -0.089045
  C      0.954405    0.195502   -0.409187
  C      0.175602   -0.869154   -1.191251
  C     -0.974658   -0.726528   -0.183078
  C     -2.138023    0.116098   -0.626338
  N     -0.000502    0.000417    0.765721
  C     -0.417518    1.159724    1.569333
  H      2.779546    0.755742    0.604762
  H      2.987698    0.086802   -1.009499
  H      2.597057   -0.994305    0.325960
  H      0.758939    1.198614   -0.792973
  H      0.658038   -1.846680   -1.157217
  H     -0.068008   -0.625119   -2.223000
  H     -1.316941   -1.646656    0.290553
  H     -1.825860    1.038472   -1.120088
  H     -2.813453    0.357472    0.196003
  H     -2.706911   -0.465466   -1.354620
  H      0.408080   -0.696132    1.388616
  H     -0.865789    1.908347    0.920895
  H      0.460314    1.578654    2.061072
  H     -1.138969    0.841459    2.321201

FINAL SINGLE POINT ENERGY      -291.320389273351
                    ***********************HURRAY********************
 Multiplicity           Mult            ....    1
 Number of Electrons    NEL             ....   56
 Basis Dimension        Dim             ....  301
FINAL SINGLE POINT ENERGY      -291.320389398073

VIBRATIONAL FREQUENCIES
-----------------------

   0:         0.00 cm**-1
   1:         0.00 cm**-1
   2:         0.00 cm**-1
   3:         0.00 cm**-1
   4:         0.00 cm**-1
   5:         0.00 cm**-1
   6:        84.66 cm**-1
   7:       204.70 cm**-1
   8:       223.70 cm**-1
   9:       242.19 cm**-1
  10:       267.19 cm**-1
  11:       278.70 cm**-1
  12:       316.98 cm**-1
  13:       354.16 cm**-1
  14:       423.51 cm**-1
  15:       530.54 cm**-1
  16:       658.75 cm**-1
  17:       759.34 cm**-1
  18:       798.75 cm**-1
  19:       878.34 cm**-1
  20:       894.44 cm**-1
  21:       935.86 cm**-1
  22:       978.19 cm**-1
  23:      1030.12 cm**-1
  24:      1040.51 cm**-1
  25:      1070.23 cm**-1
  26:      1118.92 cm**-1
  27:      1133.12 cm**-1
  28:      1141.59 cm**-1
  29:      1162.89 cm**-1
  30:      1220.29 cm**-1
  31:      1231.49 cm**-1
  32:      1273.77 cm**-1
  33:      1295.09 cm**-1
  34:      1318.78 cm**-1
  35:      1331.28 cm**-1
  36:      1373.33 cm**-1
  37:      1399.42 cm**-1
  38:      1417.98 cm**-1
  39:      1422.25 cm**-1
  40:      1443.13 cm**-1
  41:      1454.04 cm**-1
  42:      1480.04 cm**-1
  43:      1481.54 cm**-1
  44:      1483.81 cm**-1
  45:      1485.09 cm**-1
  46:      1491.41 cm**-1
  47:      1498.26 cm**-1
  48:      1502.64 cm**-1
  49:      3054.13 cm**-1
  50:      3063.64 cm**-1
  51:      3085.91 cm**-1
  52:      3102.95 cm**-1
  53:      3110.13 cm**-1
  54:      3122.00 cm**-1
  55:      3136.66 cm**-1
  56:      3142.76 cm**-1
  57:      3144.87 cm**-1
  58:      3150.30 cm**-1
  59:      3173.30 cm**-1
  60:      3174.18 cm**-1
  61:      3195.75 cm**-1
  62:      3475.20 cm**-1

IR SPECTRUM
-----------

 Mode    freq (cm**-1)   T**2         TX         TY         TZ
-------------------------------------------------------------------
   6:        84.66    0.190161  (  0.158912   0.404831   0.031928)
   7:       204.70    0.102908  ( -0.066651  -0.125586  -0.287565)
   8:       223.70    0.027349  (  0.113076   0.003294  -0.120633)
   9:       242.19    0.161823  (  0.127611  -0.281561  -0.257413)
  10:       267.19    0.117930  (  0.093219   0.220038   0.246624)
  11:       278.70    0.072292  (  0.128473   0.120952   0.202871)
  12:       316.98    1.289601  ( -0.857192  -0.645576   0.371556)
  13:       354.16    0.433015  ( -0.573234  -0.304501  -0.108151)
  14:       423.51    0.103434  ( -0.263663  -0.041987  -0.179313)
  15:       530.54    1.566198  (  0.117254  -0.997104  -0.747150)
  16:       658.75    3.259725  (  1.787316  -0.136303   0.215985)
  17:       759.34    2.193871  (  0.568231   0.355545   1.320823)
  18:       798.75    9.894372  (  3.115675   0.149115   0.405841)
  19:       878.34    6.244365  (  2.324148   0.909355  -0.125598)
  20:       894.44    6.156462  (  2.276439   0.983101  -0.088318)
  21:       935.86    0.694477  (  0.210124   0.501934   0.631179)
  22:       978.19    3.843962  (  1.355558   1.413380   0.093709)
  23:      1030.12   16.005067  (  3.713165   0.760463  -1.280300)
  24:      1040.51   14.561736  ( -1.212714   0.289150   3.606585)
  25:      1070.23    2.538042  ( -1.539636   0.408426  -0.027400)
  26:      1118.92   12.303894  ( -0.620565   1.219300   3.229876)
  27:      1133.12    2.450540  ( -0.916400  -0.740574  -1.030680)
  28:      1141.59   13.678718  (  0.483248   2.346522   2.817627)
  29:      1162.89    3.039820  ( -1.051964  -1.110804  -0.836245)
  30:      1220.29    5.008795  (  1.497486   1.541689   0.624118)
  31:      1231.49    5.190160  (  2.263841  -0.036514   0.252688)
  32:      1273.77    3.338026  (  1.655475   0.410513  -0.654909)
  33:      1295.09   15.439103  (  3.343027   2.019226   0.431273)
  34:      1318.78   13.041395  (  2.651750   2.200148  -1.081189)
  35:      1331.28    4.238702  (  1.326285  -0.665865  -1.426987)
  36:      1373.33    5.813276  ( -2.052259  -0.893058  -0.896636)
  37:      1399.42    4.998001  (  2.188866   0.156542  -0.427037)
  38:      1417.98   21.180756  ( -4.018602   0.536028  -2.178134)
  39:      1422.25    8.555710  (  1.457295   0.575677  -2.469939)
  40:      1443.13   15.454913  ( -2.999889   2.263263   1.154652)
  41:      1454.04   23.086102  ( -1.656578   3.697376   2.582878)
  42:      1480.04    2.871062  ( -1.089743  -0.530834   1.183950)
  43:      1481.54   20.863913  (  3.317010   3.107731  -0.450958)
  44:      1483.81    6.370713  (  2.156960   0.573418   1.178741)
  45:      1485.09   10.282282  (  0.876360   3.083602  -0.075304)
  46:      1491.41   22.400243  (  0.100299   0.276402  -4.723747)
  47:      1498.26    3.572588  (  1.794784   0.510697   0.300878)
  48:      1502.64   20.185843  ( -0.063222   2.426276  -3.780877)
  49:      3054.13    2.293810  (  0.124193  -0.646339   1.364049)
  50:      3063.64    1.953493  ( -0.216302  -1.287634  -0.498703)
  51:      3085.91    0.356922  (  0.082716  -0.444705  -0.390280)
  52:      3102.95    0.485888  (  0.000867   0.403807   0.568179)
  53:      3110.13    2.417694  (  1.274449  -0.831167  -0.320368)
  54:      3122.00    1.436035  ( -0.350849  -1.107540   0.293760)
  55:      3136.66    4.943915  (  0.245227  -2.209848  -0.018720)
  56:      3142.76    1.442838  (  0.822689   0.540176   0.688645)
  57:      3144.87    2.446038  (  0.161030  -1.548342   0.150811)
  58:      3150.30    5.794963  ( -1.612723  -1.021433   1.466548)
  59:      3173.30    0.985094  ( -0.529759   0.624444  -0.560820)
  60:      3174.18    0.029471  ( -0.157282  -0.037824   0.057473)
  61:      3195.75    0.113479  (  0.040503  -0.195658   0.271213)
  62:      3475.20   42.534934  (  2.525755  -3.785134   4.672072)

--------------------------
THERMOCHEMISTRY AT 298.15K
--------------------------

Temperature         ... 298.15 K
Pressure            ... 1.00 atm
Total Mass          ... 100.18 AMU

Throughout the following assumptions are being made:
  (1) The electronic state is orbitally nondegenerate
  (2) There are no thermally accessible electronically excited states
  (3) Hindered rotations indicated by low frequency modes) are not
      treated as such but are treated as vibrations and this may
      case some error
  (4) All equations used are the standard statistical mechanics
      equations for an ideal gas
  (5) All vibrations are strinctly harmonic

------------
INNER ENERGY
------------

The inner energy is: U= E(el) + E(ZPE) + E(vib) + E(rot) + E(trans)
    E(el)   - is the total energy from the electronic structure calculation
              = E(kin-el) + E(nuc-el) + E(el-el) + E(nuc-nuc)
    E(ZPE)  - the the zero temperature vibrational energy from the frequency calculation
    E(vib)  - the the finite temperature correction to E(ZPE) due to population
              of excietd vibrational states
    E(rot)  - is the rotational thermal energy
    E(trans)- is the translational thermal energy

Summary of contributions to the inner energy U:
Electronic energy                ...   -291.32038940 Eh
Zero point energy                ...      0.19879918 Eh     124.75 kcal/mol
Thermal vibrational correction   ...      0.00532710 Eh       3.34 kcal/mol
Thermal rotational correction    ...      0.00141627 Eh       0.89 kcal/mol
Thermal translational correction ...      0.00141627 Eh       0.89 kcal/mol
-----------------------------------------------------------------------
Total thermal energy                   -291.11343058 Eh

Summary of corrections to the electronic energy:
(perhaps to be used in another calculation)
Total thermal correction                  0.00815964 Eh       5.12 kcal/mol
Non-thermal (ZPE) correction              0.19879918 Eh     124.75 kcal/mol
-----------------------------------------------------------------------
Total correction                          0.20695882 Eh     129.87 kcal/mol

--------
ENTHALPY
--------

The enthalpy is H = U + kB*T
                kB is Boltzmann's constant
Total free energy                 ...   -291.11343058 Eh
Thermal Enthalpy correction       ...      0.00094421 Eh       0.59 kcal/mol
-----------------------------------------------------------------------
Total Enthalpy                    ...   -291.11248637 Eh

-------
ENTROPY
-------

The entropy contributions are T*S = T*(S(el)+S(vib)+S(rot)+S(trans)
     S(el)   - electronic entropy
     S(vib)  - vibrational entropy
     S(rot)  - rotational entropy
     S(trans)- translational entropy
The entropies will be listed as mutliplied by the temperature to get
units of energy

Electronic entropy                ...      0.00000000 Eh      0.00 kcal/mol
Vibrational entropy               ...      0.00894418 Eh      5.61 kcal/mol
Rotational entropy                ...      0.01205013 Eh      7.56 kcal/mol
Translational entropy             ...      0.01887386 Eh     11.84 kcal/mol
-----------------------------------------------------------------------
Final entropy term                ...      0.03986817 Eh     25.02 kcal/mol

CAUTION: The rotational entropy is not quite correctly treated here
         because it includes a symmetry number that is not yet correctly
         implemented in ORCA!
For a nonlinear molecule the correct rotational entropy is:
    S(rot) = R*(ln(qrot/sn)+1.5)
    R    = 8.31441 J/mol/K = 1.987191683e-3 kcal/mol/K
    qrot = 233547.1484283
    sn is the rotational symmetry number. We have assumed 3 here
       if it is different for your molecule then you should correct
       the printed rotational entropy by manually evaluating the equation
       as given above

For convenience we print out the resulting values for sn=1 - 12:
 sn= 1  qrot/sn=  233547.1484 T*S(rot)=     8.21 kcal/mol T*S(tot)=    25.67 kcal/mol
 sn= 2  qrot/sn=  116773.5742 T*S(rot)=     7.80 kcal/mol T*S(tot)=    25.26 kcal/mol
 sn= 3  qrot/sn=   77849.0495 T*S(rot)=     7.56 kcal/mol T*S(tot)=    25.02 kcal/mol
 sn= 4  qrot/sn=   58386.7871 T*S(rot)=     7.39 kcal/mol T*S(tot)=    24.85 kcal/mol
 sn= 5  qrot/sn=   46709.4297 T*S(rot)=     7.26 kcal/mol T*S(tot)=    24.71 kcal/mol
 sn= 6  qrot/sn=   38924.5247 T*S(rot)=     7.15 kcal/mol T*S(tot)=    24.61 kcal/mol
 sn= 7  qrot/sn=   33363.8783 T*S(rot)=     7.06 kcal/mol T*S(tot)=    24.52 kcal/mol
 sn= 8  qrot/sn=   29193.3936 T*S(rot)=     6.98 kcal/mol T*S(tot)=    24.44 kcal/mol
 sn= 9  qrot/sn=   25949.6832 T*S(rot)=     6.91 kcal/mol T*S(tot)=    24.37 kcal/mol
 sn=10  qrot/sn=   23354.7148 T*S(rot)=     6.85 kcal/mol T*S(tot)=    24.30 kcal/mol
 sn=11  qrot/sn=   21231.5589 T*S(rot)=     6.79 kcal/mol T*S(tot)=    24.25 kcal/mol
 sn=12  qrot/sn=   19462.2624 T*S(rot)=     6.74 kcal/mol T*S(tot)=    24.20 kcal/mol

-------------------
GIBBS FREE ENTHALPY
-------------------

The Gibbs free enthalpy is G = H - T*S

Total enthalpy                    ...   -291.11248637 Eh
Total entropy correction          ...     -0.03986817 Eh    -25.02 kcal/mol
-----------------------------------------------------------------------
Final Gibbs free enthalpy         ...   -291.15235454 Eh

For completeness - the Gibbs free enthalpy minus the electronic energy
G-E(el)                           ...      0.16803485 Eh    105.44 kcal/mol

                             ****ORCA TERMINATED NORMALLY****
TOTAL RUN TIME: 0 days 1 hours 1 minutes 7 seconds 187 msec
