                         Program Version 3.0.3 - RELEASE   -
|  1> ! NORI PBE0 def2-TZVP UseSym TightOPT Freq TightSCF Grid3 FinalGrid5 XYZFile
|  2> % pal
|  3>     nprocs 8
|  4> end
|  5> %method
|  6>     SymThresh 5.0e-2
|  7> end
|  8> % geom
|  9>     MaxIter 10
| 10> end
| 11> % maxcore 2000
| 12> % output
| 13>     printlevel mini
| 14>     print[ P_Basis ] 0
| 15>     print[ P_SCFInfo ] 1
| 16>     print[ P_SCFIterInfo ] 1
| 17>     print[ P_OrbEn ] 0
| 18>     print[ P_Cartesian ] 0
| 19> end
| 20> % elprop
| 21>     Dipole false
| 22> end
| 23> *xyz 1 1
| 24>  C        0.9469478904     0.1621617385     0.1900996804
| 25>  C        2.4629752681     0.0724355288     0.0503806780
| 26>  C        2.9587235992    -1.3307588952    -0.3118255324
| 27>  C        2.6274217611    -1.7064850645    -1.7514532086
| 28>  C        3.1444056799    -0.6729046748    -2.7277284959
| 29>  N        2.6264060341     0.6857896528    -2.3488046409
| 30>  C        3.0068137991     1.0806015267    -0.9491510717
| 31>  H        0.6330779263     1.1682606801     0.4761150793
| 32>  H        0.5995056495    -0.5220643784     0.9653424325
| 33>  H        0.4066637055    -0.1095769401    -0.7225601867
| 34>  H        2.9025993796     0.3525038840     1.0125857820
| 35>  H        4.0436369166    -1.3794858140    -0.1682652659
| 36>  H        2.5230938980    -2.0618329208     0.3711778319
| 37>  H        3.0790774583    -2.6659733472    -2.0116877108
| 38>  H        1.5491908223    -1.8352441277    -1.8881105236
| 39>  H        4.2338103866    -0.5987617794    -2.7014915688
| 40>  H        2.8312188956    -0.8667239858    -3.7544971515
| 41>  H        1.6068676606     0.6859572767    -2.4247118902
| 42>  H        2.9677793633     1.3846319046    -3.0093382251
| 43>  H        2.6154691883     2.0852358096    -0.7803829623
| 44>  H        4.0975847175     1.1203739260    -0.9337130497
| 45> *
| 46>
| 47>                          ****END OF INPUT****
 Total Charge           Charge          ....    1
 Multiplicity           Mult            ....    1
 Number of Electrons    NEL             ....   56
FINAL SINGLE POINT ENERGY      -291.347534259528
FINAL SINGLE POINT ENERGY      -291.347535625713

CARTESIAN COORDINATES (ANGSTROEM)
---------------------------------
  C      1.883606   -0.000638   -0.935585
  C      0.573831    0.764416   -0.776888
  C     -0.645021   -0.001056   -1.299583
  C     -1.017404   -1.174425   -0.401322
  C     -1.219730   -0.733163    1.031770
  N     -0.000207    0.000285    1.512944
  C      0.330320    1.193419    0.661269
  H      2.732386    0.585120   -0.575696
  H      2.062970   -0.224492   -1.988137
  H      1.894549   -0.962893   -0.412746
  H      0.662586    1.695394   -1.345002
  H     -1.497924    0.682354   -1.371596
  H     -0.448288   -0.358004   -2.312095
  H     -1.944403   -1.640470   -0.741457
  H     -0.254368   -1.958603   -0.440358
  H     -2.051317   -0.031629    1.127388
  H     -1.387510   -1.568833    1.712195
  H      0.797409   -0.638959    1.505549
  H     -0.130070    0.292936    2.481734
  H      1.203684    1.674192    1.104927
  H     -0.523530    1.868608    0.744429

FINAL SINGLE POINT ENERGY      -291.347536264219
                    ***********************HURRAY********************
 Multiplicity           Mult            ....    1
 Number of Electrons    NEL             ....   56
 Basis Dimension        Dim             ....  301
FINAL SINGLE POINT ENERGY      -291.347536426772

VIBRATIONAL FREQUENCIES
-----------------------

   0:         0.00 cm**-1
   1:         0.00 cm**-1
   2:         0.00 cm**-1
   3:         0.00 cm**-1
   4:         0.00 cm**-1
   5:         0.00 cm**-1
   6:       157.46 cm**-1
   7:       200.18 cm**-1
   8:       220.97 cm**-1
   9:       304.44 cm**-1
  10:       368.21 cm**-1
  11:       395.94 cm**-1
  12:       446.60 cm**-1
  13:       487.03 cm**-1
  14:       619.33 cm**-1
  15:       772.24 cm**-1
  16:       799.33 cm**-1
  17:       837.54 cm**-1
  18:       867.31 cm**-1
  19:       879.13 cm**-1
  20:       943.30 cm**-1
  21:       966.59 cm**-1
  22:       993.07 cm**-1
  23:      1001.46 cm**-1
  24:      1043.84 cm**-1
  25:      1071.12 cm**-1
  26:      1082.83 cm**-1
  27:      1121.50 cm**-1
  28:      1175.48 cm**-1
  29:      1191.75 cm**-1
  30:      1207.30 cm**-1
  31:      1289.80 cm**-1
  32:      1317.34 cm**-1
  33:      1330.88 cm**-1
  34:      1356.34 cm**-1
  35:      1373.79 cm**-1
  36:      1375.88 cm**-1
  37:      1400.80 cm**-1
  38:      1411.20 cm**-1
  39:      1418.28 cm**-1
  40:      1424.82 cm**-1
  41:      1441.05 cm**-1
  42:      1474.13 cm**-1
  43:      1483.79 cm**-1
  44:      1485.56 cm**-1
  45:      1494.34 cm**-1
  46:      1498.06 cm**-1
  47:      1507.10 cm**-1
  48:      1642.76 cm**-1
  49:      3043.56 cm**-1
  50:      3054.94 cm**-1
  51:      3066.22 cm**-1
  52:      3076.30 cm**-1
  53:      3088.99 cm**-1
  54:      3090.19 cm**-1
  55:      3115.44 cm**-1
  56:      3120.43 cm**-1
  57:      3123.57 cm**-1
  58:      3143.67 cm**-1
  59:      3146.95 cm**-1
  60:      3149.53 cm**-1
  61:      3442.94 cm**-1
  62:      3501.55 cm**-1

IR SPECTRUM
-----------

 Mode    freq (cm**-1)   T**2         TX         TY         TZ
-------------------------------------------------------------------
   6:       157.46    2.369603  ( -1.214259  -0.463481   0.824842)
   7:       200.18    2.438318  (  0.911533  -0.602743  -1.115404)
   8:       220.97    3.113778  ( -0.996860   0.531666   1.355500)
   9:       304.44    3.087134  ( -1.060997   0.583107   1.273344)
  10:       368.21    1.004588  (  0.042354   0.100150  -0.996375)
  11:       395.94    2.923652  ( -0.347443   0.473639   1.605802)
  12:       446.60    3.165936  ( -0.179577  -0.027677  -1.770006)
  13:       487.03    1.310112  (  0.288546  -0.979559  -0.517027)
  14:       619.33    4.276374  ( -1.648025   0.125367   1.242847)
  15:       772.24    0.228707  ( -0.162849   0.448445   0.032925)
  16:       799.33    1.753225  ( -0.632069   0.343265   1.111703)
  17:       837.54    2.348004  (  0.461527   0.085684   1.458648)
  18:       867.31    5.307166  ( -0.785880  -0.932691   1.954392)
  19:       879.13    4.357497  ( -1.230881  -1.492592   0.783962)
  20:       943.30    2.901748  (  0.327672   1.530859   0.671452)
  21:       966.59    1.854784  ( -0.236477   1.338206   0.089823)
  22:       993.07    8.290842  (  0.018624  -1.118922  -2.653019)
  23:      1001.46    8.541264  ( -2.599229  -1.324138   0.178691)
  24:      1043.84    6.268680  (  2.101837   1.299567  -0.402601)
  25:      1071.12    1.822074  ( -0.493382   1.181898   0.426339)
  26:      1082.83    5.504438  ( -1.516825   1.503662   0.970917)
  27:      1121.50    4.438406  (  1.509520   1.431698  -0.331656)
  28:      1175.48    1.699891  ( -0.863596  -0.876724   0.430636)
  29:      1191.75    0.943633  ( -0.594268  -0.492049  -0.590226)
  30:      1207.30    6.717699  ( -1.001613  -1.549922  -1.819949)
  31:      1289.80    1.156141  (  0.982583  -0.383369  -0.209042)
  32:      1317.34   10.914182  (  1.682553   2.404961  -1.516364)
  33:      1330.88    3.042735  (  1.420574  -0.688215   0.742337)
  34:      1356.34    1.884601  (  0.082712   1.359249   0.173789)
  35:      1373.79    1.029899  ( -0.518356   0.787052   0.376503)
  36:      1375.88    0.195232  (  0.395295  -0.182991  -0.074082)
  37:      1400.80    1.690479  (  0.636646   1.130778  -0.080634)
  38:      1411.20    5.062434  ( -2.123819   0.462729   0.581127)
  39:      1418.28   31.049671  (  3.434626   4.076395  -1.623583)
  40:      1424.82    7.227649  ( -2.663457   0.021849   0.364925)
  41:      1441.05   11.447755  ( -1.190509  -3.054031   0.838653)
  42:      1474.13    6.179132  (  0.991550  -2.203690  -0.582847)
  43:      1483.79   16.568303  (  1.540365   2.416838   2.890411)
  44:      1485.56   12.172563  ( -0.179295   0.881332   3.371004)
  45:      1494.34    9.371262  (  0.324014   2.239383  -2.061902)
  46:      1498.06   12.933775  (  3.031672   1.613216  -1.067838)
  47:      1507.10   15.922747  ( -1.479613   3.228741   1.818990)
  48:      1642.76   76.152527  ( -3.814751   3.167343  -7.181096)
  49:      3043.56   12.167094  ( -1.288499   2.373871  -2.207171)
  50:      3054.94    2.246587  ( -1.425214  -0.126445  -0.446501)
  51:      3066.22   12.842413  (  2.187523  -2.579930   1.183688)
  52:      3076.30    3.310129  (  0.963458  -1.318676   0.801855)
  53:      3088.99    1.804036  ( -0.987359   0.091967   0.905925)
  54:      3090.19    6.592252  (  0.931498  -1.799701  -1.576592)
  55:      3115.44   17.971117  ( -2.102739  -3.359447   1.504566)
  56:      3120.43    2.334516  (  0.354447  -0.067770  -1.484685)
  57:      3123.57    6.152930  (  1.828370  -1.275050  -1.088229)
  58:      3143.67    3.583371  ( -0.518925  -0.718766  -1.672562)
  59:      3146.95    2.885597  (  1.571364   0.561444   0.318112)
  60:      3149.53    2.137779  (  0.697410  -1.163202   0.546222)
  61:      3442.94   37.587217  ( -3.928595   1.770558  -4.361019)
  62:      3501.55   77.126612  ( -3.805011   3.809900   6.937807)

--------------------------
THERMOCHEMISTRY AT 298.15K
--------------------------

Temperature         ... 298.15 K
Pressure            ... 1.00 atm
Total Mass          ... 100.18 AMU

Throughout the following assumptions are being made:
  (1) The electronic state is orbitally nondegenerate
  (2) There are no thermally accessible electronically excited states
  (3) Hindered rotations indicated by low frequency modes) are not
      treated as such but are treated as vibrations and this may
      case some error
  (4) All equations used are the standard statistical mechanics
      equations for an ideal gas
  (5) All vibrations are strinctly harmonic

------------
INNER ENERGY
------------

The inner energy is: U= E(el) + E(ZPE) + E(vib) + E(rot) + E(trans)
    E(el)   - is the total energy from the electronic structure calculation
              = E(kin-el) + E(nuc-el) + E(el-el) + E(nuc-nuc)
    E(ZPE)  - the the zero temperature vibrational energy from the frequency calculation
    E(vib)  - the the finite temperature correction to E(ZPE) due to population
              of excietd vibrational states
    E(rot)  - is the rotational thermal energy
    E(trans)- is the translational thermal energy

Summary of contributions to the inner energy U:
Electronic energy                ...   -291.34753643 Eh
Zero point energy                ...      0.20285748 Eh     127.29 kcal/mol
Thermal vibrational correction   ...      0.00424069 Eh       2.66 kcal/mol
Thermal rotational correction    ...      0.00141627 Eh       0.89 kcal/mol
Thermal translational correction ...      0.00141627 Eh       0.89 kcal/mol
-----------------------------------------------------------------------
Total thermal energy                   -291.13760571 Eh

Summary of corrections to the electronic energy:
(perhaps to be used in another calculation)
Total thermal correction                  0.00707324 Eh       4.44 kcal/mol
Non-thermal (ZPE) correction              0.20285748 Eh     127.29 kcal/mol
-----------------------------------------------------------------------
Total correction                          0.20993072 Eh     131.73 kcal/mol

--------
ENTHALPY
--------

The enthalpy is H = U + kB*T
                kB is Boltzmann's constant
Total free energy                 ...   -291.13760571 Eh
Thermal Enthalpy correction       ...      0.00094421 Eh       0.59 kcal/mol
-----------------------------------------------------------------------
Total Enthalpy                    ...   -291.13666150 Eh

-------
ENTROPY
-------

The entropy contributions are T*S = T*(S(el)+S(vib)+S(rot)+S(trans)
     S(el)   - electronic entropy
     S(vib)  - vibrational entropy
     S(rot)  - rotational entropy
     S(trans)- translational entropy
The entropies will be listed as mutliplied by the temperature to get
units of energy

Electronic entropy                ...      0.00000000 Eh      0.00 kcal/mol
Vibrational entropy               ...      0.00669044 Eh      4.20 kcal/mol
Rotational entropy                ...      0.01193987 Eh      7.49 kcal/mol
Translational entropy             ...      0.01887386 Eh     11.84 kcal/mol
-----------------------------------------------------------------------
Final entropy term                ...      0.03750416 Eh     23.53 kcal/mol

CAUTION: The rotational entropy is not quite correctly treated here
         because it includes a symmetry number that is not yet correctly
         implemented in ORCA!
For a nonlinear molecule the correct rotational entropy is:
    S(rot) = R*(ln(qrot/sn)+1.5)
    R    = 8.31441 J/mol/K = 1.987191683e-3 kcal/mol/K
    qrot = 207804.1080598
    sn is the rotational symmetry number. We have assumed 3 here
       if it is different for your molecule then you should correct
       the printed rotational entropy by manually evaluating the equation
       as given above

For convenience we print out the resulting values for sn=1 - 12:
 sn= 1  qrot/sn=  207804.1081 T*S(rot)=     8.14 kcal/mol T*S(tot)=    24.19 kcal/mol
 sn= 2  qrot/sn=  103902.0540 T*S(rot)=     7.73 kcal/mol T*S(tot)=    23.77 kcal/mol
 sn= 3  qrot/sn=   69268.0360 T*S(rot)=     7.49 kcal/mol T*S(tot)=    23.53 kcal/mol
 sn= 4  qrot/sn=   51951.0270 T*S(rot)=     7.32 kcal/mol T*S(tot)=    23.36 kcal/mol
 sn= 5  qrot/sn=   41560.8216 T*S(rot)=     7.19 kcal/mol T*S(tot)=    23.23 kcal/mol
 sn= 6  qrot/sn=   34634.0180 T*S(rot)=     7.08 kcal/mol T*S(tot)=    23.12 kcal/mol
 sn= 7  qrot/sn=   29686.3012 T*S(rot)=     6.99 kcal/mol T*S(tot)=    23.03 kcal/mol
 sn= 8  qrot/sn=   25975.5135 T*S(rot)=     6.91 kcal/mol T*S(tot)=    22.95 kcal/mol
 sn= 9  qrot/sn=   23089.3453 T*S(rot)=     6.84 kcal/mol T*S(tot)=    22.88 kcal/mol
 sn=10  qrot/sn=   20780.4108 T*S(rot)=     6.78 kcal/mol T*S(tot)=    22.82 kcal/mol
 sn=11  qrot/sn=   18891.2826 T*S(rot)=     6.72 kcal/mol T*S(tot)=    22.76 kcal/mol
 sn=12  qrot/sn=   17317.0090 T*S(rot)=     6.67 kcal/mol T*S(tot)=    22.71 kcal/mol

-------------------
GIBBS FREE ENTHALPY
-------------------

The Gibbs free enthalpy is G = H - T*S

Total enthalpy                    ...   -291.13666150 Eh
Total entropy correction          ...     -0.03750416 Eh    -23.53 kcal/mol
-----------------------------------------------------------------------
Final Gibbs free enthalpy         ...   -291.17416566 Eh

For completeness - the Gibbs free enthalpy minus the electronic energy
G-E(el)                           ...      0.17337076 Eh    108.79 kcal/mol

                             ****ORCA TERMINATED NORMALLY****
TOTAL RUN TIME: 0 days 1 hours 25 minutes 24 seconds 217 msec
