                         Program Version 3.0.3 - RELEASE   -
|  1> ! NORI PBE0 def2-TZVP UseSym TightOPT Freq TightSCF Grid3 FinalGrid5 XYZFile
|  2> % pal
|  3>     nprocs 8
|  4> end
|  5> %method
|  6>     SymThresh 5.0e-2
|  7> end
|  8> % geom
|  9>     MaxIter 10
| 10> end
| 11> % maxcore 2000
| 12> % output
| 13>     printlevel mini
| 14>     print[ P_Basis ] 0
| 15>     print[ P_SCFInfo ] 1
| 16>     print[ P_SCFIterInfo ] 1
| 17>     print[ P_OrbEn ] 0
| 18>     print[ P_Cartesian ] 0
| 19> end
| 20> % elprop
| 21>     Dipole false
| 22> end
| 23> *xyz 1 1
| 24>  C        0.9995790625    -0.0240837800    -0.0222367647
| 25>  C        2.3241744327    -0.1002075115    -0.0472983427
| 26>  C        3.1125036222    -1.3753549945    -0.0624885909
| 27>  C        4.1003220316    -1.3828341074    -1.2286408697
| 28>  C        4.9657624432    -0.1422968276    -1.2365412691
| 29>  N        4.1011879820     1.0858622431    -1.2461521419
| 30>  C        3.1596421908     1.1396164768    -0.0685041398
| 31>  H        0.4789634446     0.9274103715    -0.0165339699
| 32>  H        0.3873011050    -0.9175584844     0.0177128040
| 33>  H        3.6682605963    -1.4712683350     0.8791594668
| 34>  H        2.4450681346    -2.2349034665    -0.1271604182
| 35>  H        4.7595150429    -2.2516632555    -1.1757853275
| 36>  H        3.5598565446    -1.4594681675    -2.1785342751
| 37>  H        5.5844876645    -0.0701735511    -0.3391815535
| 38>  H        5.6139937648    -0.0899674156    -2.1123869974
| 39>  H        3.5448309989     1.0945928585    -2.1043463219
| 40>  H        4.6859056918     1.9226691678    -1.2627433165
| 41>  H        2.5638537970     2.0473091082    -0.1605490267
| 42>  H        3.7990414499     1.2198096708     0.8157910548
| 43> *
| 44>
| 45>                          ****END OF INPUT****
 Total Charge           Charge          ....    1
 Multiplicity           Mult            ....    1
 Number of Electrons    NEL             ....   54
FINAL SINGLE POINT ENERGY      -290.116961679714

CARTESIAN COORDINATES (ANGSTROEM)
---------------------------------
  C      1.922328    0.000836   -1.368430
  C      0.786643    0.258627   -0.732318
  C     -0.584047   -0.020757   -1.271717
  C     -1.394865   -0.851387   -0.276915
  C     -1.407685   -0.221617    1.098567
  N      0.000221   -0.000446    1.573626
  C      0.798247    0.868403    0.632861
  H      2.889285    0.219109   -0.928313
  H      1.922582   -0.419068   -2.367631
  H     -1.103913    0.928394   -1.454640
  H     -0.518207   -0.537244   -2.229449
  H     -2.430148   -0.954920   -0.608152
  H     -0.985735   -1.865668   -0.212680
  H     -1.883451    0.761485    1.093196
  H     -1.906533   -0.846549    1.840438
  H      0.470352   -0.905128    1.654094
  H     -0.008586    0.413780    2.506813
  H      1.803530    0.965475    1.042185
  H      0.309154    1.846955    0.650367

FINAL SINGLE POINT ENERGY      -290.116962615176
                    ***********************HURRAY********************
 Multiplicity           Mult            ....    1
 Number of Electrons    NEL             ....   54
 Basis Dimension        Dim             ....  289
FINAL SINGLE POINT ENERGY      -290.116963022885

VIBRATIONAL FREQUENCIES
-----------------------

   0:         0.00 cm**-1
   1:         0.00 cm**-1
   2:         0.00 cm**-1
   3:         0.00 cm**-1
   4:         0.00 cm**-1
   5:         0.00 cm**-1
   6:       129.53 cm**-1
   7:       205.53 cm**-1
   8:       302.45 cm**-1
   9:       395.63 cm**-1
  10:       404.87 cm**-1
  11:       435.61 cm**-1
  12:       476.42 cm**-1
  13:       631.31 cm**-1
  14:       737.41 cm**-1
  15:       778.18 cm**-1
  16:       807.55 cm**-1
  17:       847.11 cm**-1
  18:       889.63 cm**-1
  19:       896.74 cm**-1
  20:       971.02 cm**-1
  21:       991.65 cm**-1
  22:       998.95 cm**-1
  23:      1001.62 cm**-1
  24:      1036.67 cm**-1
  25:      1081.14 cm**-1
  26:      1127.49 cm**-1
  27:      1151.48 cm**-1
  28:      1200.75 cm**-1
  29:      1267.92 cm**-1
  30:      1304.41 cm**-1
  31:      1306.89 cm**-1
  32:      1336.69 cm**-1
  33:      1363.08 cm**-1
  34:      1382.81 cm**-1
  35:      1409.46 cm**-1
  36:      1417.47 cm**-1
  37:      1430.63 cm**-1
  38:      1460.97 cm**-1
  39:      1472.16 cm**-1
  40:      1480.60 cm**-1
  41:      1482.66 cm**-1
  42:      1499.82 cm**-1
  43:      1641.15 cm**-1
  44:      1743.29 cm**-1
  45:      3036.03 cm**-1
  46:      3058.40 cm**-1
  47:      3074.04 cm**-1
  48:      3089.88 cm**-1
  49:      3122.79 cm**-1
  50:      3134.89 cm**-1
  51:      3149.81 cm**-1
  52:      3151.79 cm**-1
  53:      3163.67 cm**-1
  54:      3254.01 cm**-1
  55:      3435.00 cm**-1
  56:      3496.17 cm**-1

IR SPECTRUM
-----------

 Mode    freq (cm**-1)   T**2         TX         TY         TZ
-------------------------------------------------------------------
   6:       129.53    0.742931  (  0.717780  -0.449193  -0.161088)
   7:       205.53    3.293403  ( -0.835272   1.015724   1.250611)
   8:       302.45    4.867250  (  0.472305  -2.025138  -0.736882)
   9:       395.63    0.287915  (  0.071179  -0.114930  -0.519269)
  10:       404.87    2.473910  (  0.470314   0.054760   1.499905)
  11:       435.61    1.431431  ( -0.025269  -0.086401   1.193033)
  12:       476.42    4.778627  (  0.319654   2.153282  -0.199563)
  13:       631.31    5.709714  ( -0.450335  -1.510250   1.796123)
  14:       737.41    0.097207  (  0.185097   0.219573   0.121384)
  15:       778.18    1.691856  (  0.853429  -0.191484  -0.962730)
  16:       807.55    0.690595  (  0.019650   0.548457   0.624023)
  17:       847.11    3.585231  (  0.589872  -0.171399   1.791062)
  18:       889.63    9.823174  ( -0.916964  -0.623131   2.931563)
  19:       896.74   10.729681  ( -2.275144  -1.878180   1.423321)
  20:       971.02    9.681746  (  2.060304   2.328867  -0.115201)
  21:       991.65    4.862265  ( -0.321848   1.605557  -1.476776)
  22:       998.95   32.752706  (  0.358472  -5.460829   1.674381)
  23:      1001.62    5.300517  ( -0.798079  -1.350016  -1.685540)
  24:      1036.67   15.602809  ( -3.336072   1.734154   1.210844)
  25:      1081.14    5.074875  ( -1.866656  -1.257841  -0.091147)
  26:      1127.49    3.083473  (  0.954172   1.293376  -0.707254)
  27:      1151.48    1.431643  (  1.190735   0.075888   0.089635)
  28:      1200.75   10.146637  (  2.818888   1.360051   0.592259)
  29:      1267.92    0.988249  (  0.570407  -0.454686  -0.675386)
  30:      1304.41    8.716744  ( -2.195118  -0.585855   1.885465)
  31:      1306.89    5.720659  ( -2.080570  -0.776177   0.888502)
  32:      1336.69    4.787187  ( -1.145819   1.610863   0.937766)
  33:      1363.08    2.254641  (  0.970574   0.481215  -1.039740)
  34:      1382.81    0.441772  ( -0.551955   0.145288   0.340601)
  35:      1409.46   20.949529  ( -3.956521  -1.327347   1.879794)
  36:      1417.47   18.137222  ( -3.468201  -2.454275   0.292133)
  37:      1430.63    7.196928  (  2.281621   1.377497  -0.306003)
  38:      1460.97    8.143974  ( -1.522952   2.411879  -0.086190)
  39:      1472.16   14.304281  (  0.523621   0.608455   3.695928)
  40:      1480.60   17.642390  (  2.459240   3.369118   0.493529)
  41:      1482.66   13.441820  (  1.934791  -0.668948  -3.041532)
  42:      1499.82   13.597096  (  1.471964  -2.720951  -2.006699)
  43:      1641.15   74.898993  (  2.897387  -3.775796   7.228244)
  44:      1743.29    2.523897  (  1.548784  -0.329487  -0.128849)
  45:      3036.03    3.567975  ( -1.366722   1.193382  -0.525247)
  46:      3058.40    8.780433  ( -0.387669   2.718964  -1.112376)
  47:      3074.04    3.651206  (  0.658423  -1.232330  -1.303475)
  48:      3089.88    3.177353  (  0.697528  -1.216336  -1.100607)
  49:      3122.79    2.267343  (  1.381594  -0.536878  -0.265146)
  50:      3134.89    2.456412  ( -0.154743   0.817255   1.328368)
  51:      3149.81    1.195695  ( -0.206694  -0.999936   0.391281)
  52:      3151.79    0.764616  ( -0.861402  -0.021869  -0.148742)
  53:      3163.67    0.334395  (  0.185352   0.312672   0.449751)
  54:      3254.01    0.451209  (  0.637300   0.120139   0.174999)
  55:      3435.00   43.604992  (  2.322175  -2.862815   5.478757)
  56:      3496.17   66.974577  (  1.722738  -5.904273  -5.398732)

--------------------------
THERMOCHEMISTRY AT 298.15K
--------------------------

Temperature         ... 298.15 K
Pressure            ... 1.00 atm
Total Mass          ... 98.17 AMU

Throughout the following assumptions are being made:
  (1) The electronic state is orbitally nondegenerate
  (2) There are no thermally accessible electronically excited states
  (3) Hindered rotations indicated by low frequency modes) are not
      treated as such but are treated as vibrations and this may
      case some error
  (4) All equations used are the standard statistical mechanics
      equations for an ideal gas
  (5) All vibrations are strinctly harmonic

------------
INNER ENERGY
------------

The inner energy is: U= E(el) + E(ZPE) + E(vib) + E(rot) + E(trans)
    E(el)   - is the total energy from the electronic structure calculation
              = E(kin-el) + E(nuc-el) + E(el-el) + E(nuc-nuc)
    E(ZPE)  - the the zero temperature vibrational energy from the frequency calculation
    E(vib)  - the the finite temperature correction to E(ZPE) due to population
              of excietd vibrational states
    E(rot)  - is the rotational thermal energy
    E(trans)- is the translational thermal energy

Summary of contributions to the inner energy U:
Electronic energy                ...   -290.11696302 Eh
Zero point energy                ...      0.17921261 Eh     112.46 kcal/mol
Thermal vibrational correction   ...      0.00374961 Eh       2.35 kcal/mol
Thermal rotational correction    ...      0.00141627 Eh       0.89 kcal/mol
Thermal translational correction ...      0.00141627 Eh       0.89 kcal/mol
-----------------------------------------------------------------------
Total thermal energy                   -289.93116826 Eh

Summary of corrections to the electronic energy:
(perhaps to be used in another calculation)
Total thermal correction                  0.00658215 Eh       4.13 kcal/mol
Non-thermal (ZPE) correction              0.17921261 Eh     112.46 kcal/mol
-----------------------------------------------------------------------
Total correction                          0.18579477 Eh     116.59 kcal/mol

--------
ENTHALPY
--------

The enthalpy is H = U + kB*T
                kB is Boltzmann's constant
Total free energy                 ...   -289.93116826 Eh
Thermal Enthalpy correction       ...      0.00094421 Eh       0.59 kcal/mol
-----------------------------------------------------------------------
Total Enthalpy                    ...   -289.93022405 Eh

-------
ENTROPY
-------

The entropy contributions are T*S = T*(S(el)+S(vib)+S(rot)+S(trans)
     S(el)   - electronic entropy
     S(vib)  - vibrational entropy
     S(rot)  - rotational entropy
     S(trans)- translational entropy
The entropies will be listed as mutliplied by the temperature to get
units of energy

Electronic entropy                ...      0.00000000 Eh      0.00 kcal/mol
Vibrational entropy               ...      0.00590630 Eh      3.71 kcal/mol
Rotational entropy                ...      0.01192331 Eh      7.48 kcal/mol
Translational entropy             ...      0.01884507 Eh     11.83 kcal/mol
-----------------------------------------------------------------------
Final entropy term                ...      0.03667467 Eh     23.01 kcal/mol

CAUTION: The rotational entropy is not quite correctly treated here
         because it includes a symmetry number that is not yet correctly
         implemented in ORCA!
For a nonlinear molecule the correct rotational entropy is:
    S(rot) = R*(ln(qrot/sn)+1.5)
    R    = 8.31441 J/mol/K = 1.987191683e-3 kcal/mol/K
    qrot = 204191.2446622
    sn is the rotational symmetry number. We have assumed 3 here
       if it is different for your molecule then you should correct
       the printed rotational entropy by manually evaluating the equation
       as given above

For convenience we print out the resulting values for sn=1 - 12:
 sn= 1  qrot/sn=  204191.2447 T*S(rot)=     8.13 kcal/mol T*S(tot)=    23.66 kcal/mol
 sn= 2  qrot/sn=  102095.6223 T*S(rot)=     7.72 kcal/mol T*S(tot)=    23.25 kcal/mol
 sn= 3  qrot/sn=   68063.7482 T*S(rot)=     7.48 kcal/mol T*S(tot)=    23.01 kcal/mol
 sn= 4  qrot/sn=   51047.8112 T*S(rot)=     7.31 kcal/mol T*S(tot)=    22.84 kcal/mol
 sn= 5  qrot/sn=   40838.2489 T*S(rot)=     7.18 kcal/mol T*S(tot)=    22.71 kcal/mol
 sn= 6  qrot/sn=   34031.8741 T*S(rot)=     7.07 kcal/mol T*S(tot)=    22.60 kcal/mol
 sn= 7  qrot/sn=   29170.1778 T*S(rot)=     6.98 kcal/mol T*S(tot)=    22.51 kcal/mol
 sn= 8  qrot/sn=   25523.9056 T*S(rot)=     6.90 kcal/mol T*S(tot)=    22.43 kcal/mol
 sn= 9  qrot/sn=   22687.9161 T*S(rot)=     6.83 kcal/mol T*S(tot)=    22.36 kcal/mol
 sn=10  qrot/sn=   20419.1245 T*S(rot)=     6.77 kcal/mol T*S(tot)=    22.30 kcal/mol
 sn=11  qrot/sn=   18562.8404 T*S(rot)=     6.71 kcal/mol T*S(tot)=    22.24 kcal/mol
 sn=12  qrot/sn=   17015.9371 T*S(rot)=     6.66 kcal/mol T*S(tot)=    22.19 kcal/mol

-------------------
GIBBS FREE ENTHALPY
-------------------

The Gibbs free enthalpy is G = H - T*S

Total enthalpy                    ...   -289.93022405 Eh
Total entropy correction          ...     -0.03667467 Eh    -23.01 kcal/mol
-----------------------------------------------------------------------
Final Gibbs free enthalpy         ...   -289.96689872 Eh

For completeness - the Gibbs free enthalpy minus the electronic energy
G-E(el)                           ...      0.15006430 Eh     94.17 kcal/mol

                             ****ORCA TERMINATED NORMALLY****
TOTAL RUN TIME: 0 days 0 hours 57 minutes 40 seconds 428 msec
