                         Program Version 3.0.3 - RELEASE   -
|  1> ! NORI PBE0 def2-TZVP UseSym TightOPT Freq TightSCF Grid3 FinalGrid5 XYZFile
|  2> % pal
|  3>     nprocs 8
|  4> end
|  5> %method
|  6>     SymThresh 5.0e-2
|  7> end
|  8> % geom
|  9>     MaxIter 10
| 10> end
| 11> % maxcore 2000
| 12> % output
| 13>     printlevel mini
| 14>     print[ P_Basis ] 0
| 15>     print[ P_SCFInfo ] 1
| 16>     print[ P_SCFIterInfo ] 1
| 17>     print[ P_OrbEn ] 0
| 18>     print[ P_Cartesian ] 0
| 19> end
| 20> % elprop
| 21>     Dipole false
| 22> end
| 23> *xyz 1 1
| 24>  C        0.9489794999    -0.1151767328    -0.1477287388
| 25>  C        2.4376158027    -0.0429614376    -0.0750798523
| 26>  C        3.1316415489     1.0922623873    -0.0820564760
| 27>  C        4.6251038768     1.1765441352    -0.0607662748
| 28>  C        5.2701877602    -0.1630403372    -0.3291531042
| 29>  N        4.5447819724    -1.2163510991     0.4548981553
| 30>  C        3.1247878200    -1.3726316703     0.0108275648
| 31>  H        0.6237606866    -0.7097350279    -1.0077240869
| 32>  H        0.5147661639     0.8787589539    -0.2434728210
| 33>  H        0.5293164694    -0.5895396792     0.7448330543
| 34>  H        2.5933915806     2.0341836986    -0.1084726765
| 35>  H        4.9710210793     1.8768197494    -0.8262819397
| 36>  H        4.9752826728     1.5926082576     0.8921263015
| 37>  H        6.3198730120    -0.1943561585    -0.0369147749
| 38>  H        5.1839893630    -0.4535240051    -1.3773731837
| 39>  H        4.5515512905    -0.9532559703     1.4426969212
| 40>  H        5.0318078396    -2.1104997743     0.3833384901
| 41>  H        3.1406685882    -1.8947798564    -0.9503315118
| 42>  H        2.6304929729    -2.0266254332     0.7340849536
| 43> *
| 44>
| 45>                          ****END OF INPUT****
 Total Charge           Charge          ....    1
 Multiplicity           Mult            ....    1
 Number of Electrons    NEL             ....   54
FINAL SINGLE POINT ENERGY      -290.121896125929
FINAL SINGLE POINT ENERGY      -290.121897274265

CARTESIAN COORDINATES (ANGSTROEM)
---------------------------------
  C      1.814934    0.002019   -1.740574
  C      0.687418   -0.029535   -0.763576
  C     -0.552796   -0.406108   -1.065199
  C     -1.702826   -0.390048   -0.108480
  C     -1.377685    0.379406    1.150703
  N     -0.000383   -0.000607    1.607999
  C      1.051254    0.404386    0.624359
  H      2.248283    1.004847   -1.810407
  H      1.477341   -0.288153   -2.734682
  H      2.621163   -0.674116   -1.439855
  H     -0.765264   -0.747059   -2.073074
  H     -2.571634    0.081312   -0.576283
  H     -2.021404   -1.412175    0.131143
  H     -2.069437    0.170167    1.966790
  H     -1.351215    1.455595    0.973968
  H      0.036842   -1.014987    1.729657
  H      0.198621    0.414309    2.518860
  H      1.167147    1.489456    0.702816
  H      1.989909   -0.052574    0.948087

FINAL SINGLE POINT ENERGY      -290.121897945880
                    ***********************HURRAY********************
 Multiplicity           Mult            ....    1
 Number of Electrons    NEL             ....   54
 Basis Dimension        Dim             ....  289
FINAL SINGLE POINT ENERGY      -290.121898110530

VIBRATIONAL FREQUENCIES
-----------------------

   0:         0.00 cm**-1
   1:         0.00 cm**-1
   2:         0.00 cm**-1
   3:         0.00 cm**-1
   4:         0.00 cm**-1
   5:         0.00 cm**-1
   6:       128.95 cm**-1
   7:       168.84 cm**-1
   8:       246.63 cm**-1
   9:       305.14 cm**-1
  10:       326.56 cm**-1
  11:       438.29 cm**-1
  12:       445.33 cm**-1
  13:       504.05 cm**-1
  14:       636.35 cm**-1
  15:       784.56 cm**-1
  16:       823.35 cm**-1
  17:       858.33 cm**-1
  18:       881.07 cm**-1
  19:       914.92 cm**-1
  20:       983.38 cm**-1
  21:       990.24 cm**-1
  22:      1020.63 cm**-1
  23:      1048.50 cm**-1
  24:      1064.05 cm**-1
  25:      1103.76 cm**-1
  26:      1116.90 cm**-1
  27:      1189.01 cm**-1
  28:      1203.46 cm**-1
  29:      1238.41 cm**-1
  30:      1299.96 cm**-1
  31:      1340.98 cm**-1
  32:      1352.59 cm**-1
  33:      1387.81 cm**-1
  34:      1418.34 cm**-1
  35:      1420.37 cm**-1
  36:      1424.59 cm**-1
  37:      1439.31 cm**-1
  38:      1469.44 cm**-1
  39:      1474.05 cm**-1
  40:      1476.44 cm**-1
  41:      1485.20 cm**-1
  42:      1501.64 cm**-1
  43:      1641.02 cm**-1
  44:      1762.88 cm**-1
  45:      3041.34 cm**-1
  46:      3045.71 cm**-1
  47:      3069.32 cm**-1
  48:      3094.63 cm**-1
  49:      3102.85 cm**-1
  50:      3103.25 cm**-1
  51:      3117.12 cm**-1
  52:      3159.09 cm**-1
  53:      3159.60 cm**-1
  54:      3195.06 cm**-1
  55:      3442.79 cm**-1
  56:      3501.91 cm**-1

IR SPECTRUM
-----------

 Mode    freq (cm**-1)   T**2         TX         TY         TZ
-------------------------------------------------------------------
   6:       128.95    1.093888  ( -0.257923   0.939630   0.380078)
   7:       168.84    0.423150  ( -0.421492   0.244359  -0.431026)
   8:       246.63    2.469655  ( -0.153252   0.166217  -1.555166)
   9:       305.14    7.577228  (  0.447660  -2.508085  -1.042275)
  10:       326.56    1.970484  ( -1.034655  -0.945826   0.073396)
  11:       438.29    1.709743  ( -0.992373   0.568190  -0.634114)
  12:       445.33    4.560146  (  0.228132  -1.862140  -1.020066)
  13:       504.05    4.066106  ( -0.057418   1.024652  -1.735770)
  14:       636.35    1.830096  (  0.392256   1.237502  -0.380551)
  15:       784.56    3.815922  ( -0.128925  -1.946162  -0.108411)
  16:       823.35    7.052472  ( -0.139170   1.799537  -1.948017)
  17:       858.33    4.181168  (  0.950061  -1.807870  -0.100793)
  18:       881.07    5.711030  (  0.571049  -1.217577  -1.975459)
  19:       914.92    1.613839  ( -0.456058   0.454244  -1.095223)
  20:       983.38   10.450335  (  1.275714   2.860569  -0.800022)
  21:       990.24   11.388944  ( -2.484256  -1.475167  -1.743933)
  22:      1020.63    1.534880  (  0.154778   0.300102   1.191999)
  23:      1048.50    9.248150  (  2.682966  -1.320016  -0.554437)
  24:      1064.05    1.911475  ( -1.247715  -0.547111   0.235270)
  25:      1103.76    1.886501  (  1.227515   0.259025   0.559119)
  26:      1116.90    1.936236  (  1.305995   0.479682   0.022737)
  27:      1189.01    5.125109  ( -1.871015   1.263974  -0.163655)
  28:      1203.46    2.454115  ( -0.648981  -0.805982  -1.176151)
  29:      1238.41    3.774432  ( -1.938548   0.080324  -0.100047)
  30:      1299.96    7.019059  ( -2.218036   1.005648   1.043095)
  31:      1340.98    3.287089  ( -1.418553  -1.100567   0.252085)
  32:      1352.59    2.688237  ( -1.631525  -0.132766   0.093472)
  33:      1387.81    2.136131  ( -0.165725   0.824692   1.195220)
  34:      1418.34    3.119165  ( -0.849629   0.186771   1.537014)
  35:      1420.37   26.546102  ( -4.949165  -0.349751   1.389078)
  36:      1424.59    4.654014  ( -2.155147   0.096478   0.006895)
  37:      1439.31   10.475780  (  2.993482  -0.328022  -1.186273)
  38:      1469.44   13.591449  (  0.236932  -3.498490   1.138369)
  39:      1474.05    9.926673  (  1.848563   2.139690   1.389682)
  40:      1476.44    3.461719  ( -0.352999  -0.869579  -1.606531)
  41:      1485.20   21.453867  (  4.410987   0.058321   1.411969)
  42:      1501.64   19.810180  (  0.573468   2.996843   3.240408)
  43:      1641.02   73.647524  (  1.296048  -4.476537   7.206136)
  44:      1762.88    0.229237  ( -0.435737  -0.111020   0.164455)
  45:      3041.34    4.793146  (  1.252244   1.651281  -0.705906)
  46:      3045.71    5.655784  (  2.287184   0.515874  -0.398054)
  47:      3069.32    5.192583  (  1.839400   0.895440   1.003683)
  48:      3094.63    0.349964  (  0.047770  -0.405991  -0.427613)
  49:      3102.85    5.064261  ( -0.710252   2.133849   0.080581)
  50:      3103.25    1.264556  ( -0.052074  -0.173230  -1.109881)
  51:      3117.12    0.453649  ( -0.523644   0.402690   0.131479)
  52:      3159.09    2.414694  ( -0.679953  -0.367926  -1.347957)
  53:      3159.60    0.717962  ( -0.656014  -0.274074   0.460967)
  54:      3195.06    1.108976  (  0.893125  -0.008093  -0.557888)
  55:      3442.79   51.167529  (  1.223065  -3.829065   5.916917)
  56:      3501.91   72.199761  ( -1.063149  -6.571990  -5.280002)

--------------------------
THERMOCHEMISTRY AT 298.15K
--------------------------

Temperature         ... 298.15 K
Pressure            ... 1.00 atm
Total Mass          ... 98.17 AMU

Throughout the following assumptions are being made:
  (1) The electronic state is orbitally nondegenerate
  (2) There are no thermally accessible electronically excited states
  (3) Hindered rotations indicated by low frequency modes) are not
      treated as such but are treated as vibrations and this may
      case some error
  (4) All equations used are the standard statistical mechanics
      equations for an ideal gas
  (5) All vibrations are strinctly harmonic

------------
INNER ENERGY
------------

The inner energy is: U= E(el) + E(ZPE) + E(vib) + E(rot) + E(trans)
    E(el)   - is the total energy from the electronic structure calculation
              = E(kin-el) + E(nuc-el) + E(el-el) + E(nuc-nuc)
    E(ZPE)  - the the zero temperature vibrational energy from the frequency calculation
    E(vib)  - the the finite temperature correction to E(ZPE) due to population
              of excietd vibrational states
    E(rot)  - is the rotational thermal energy
    E(trans)- is the translational thermal energy

Summary of contributions to the inner energy U:
Electronic energy                ...   -290.12189811 Eh
Zero point energy                ...      0.17848986 Eh     112.00 kcal/mol
Thermal vibrational correction   ...      0.00417842 Eh       2.62 kcal/mol
Thermal rotational correction    ...      0.00141627 Eh       0.89 kcal/mol
Thermal translational correction ...      0.00141627 Eh       0.89 kcal/mol
-----------------------------------------------------------------------
Total thermal energy                   -289.93639729 Eh

Summary of corrections to the electronic energy:
(perhaps to be used in another calculation)
Total thermal correction                  0.00701097 Eh       4.40 kcal/mol
Non-thermal (ZPE) correction              0.17848986 Eh     112.00 kcal/mol
-----------------------------------------------------------------------
Total correction                          0.18550082 Eh     116.40 kcal/mol

--------
ENTHALPY
--------

The enthalpy is H = U + kB*T
                kB is Boltzmann's constant
Total free energy                 ...   -289.93639729 Eh
Thermal Enthalpy correction       ...      0.00094421 Eh       0.59 kcal/mol
-----------------------------------------------------------------------
Total Enthalpy                    ...   -289.93545308 Eh

-------
ENTROPY
-------

The entropy contributions are T*S = T*(S(el)+S(vib)+S(rot)+S(trans)
     S(el)   - electronic entropy
     S(vib)  - vibrational entropy
     S(rot)  - rotational entropy
     S(trans)- translational entropy
The entropies will be listed as mutliplied by the temperature to get
units of energy

Electronic entropy                ...      0.00000000 Eh      0.00 kcal/mol
Vibrational entropy               ...      0.00677980 Eh      4.25 kcal/mol
Rotational entropy                ...      0.01195654 Eh      7.50 kcal/mol
Translational entropy             ...      0.01884507 Eh     11.83 kcal/mol
-----------------------------------------------------------------------
Final entropy term                ...      0.03758141 Eh     23.58 kcal/mol

CAUTION: The rotational entropy is not quite correctly treated here
         because it includes a symmetry number that is not yet correctly
         implemented in ORCA!
For a nonlinear molecule the correct rotational entropy is:
    S(rot) = R*(ln(qrot/sn)+1.5)
    R    = 8.31441 J/mol/K = 1.987191683e-3 kcal/mol/K
    qrot = 211506.7797428
    sn is the rotational symmetry number. We have assumed 3 here
       if it is different for your molecule then you should correct
       the printed rotational entropy by manually evaluating the equation
       as given above

For convenience we print out the resulting values for sn=1 - 12:
 sn= 1  qrot/sn=  211506.7797 T*S(rot)=     8.15 kcal/mol T*S(tot)=    24.23 kcal/mol
 sn= 2  qrot/sn=  105753.3899 T*S(rot)=     7.74 kcal/mol T*S(tot)=    23.82 kcal/mol
 sn= 3  qrot/sn=   70502.2599 T*S(rot)=     7.50 kcal/mol T*S(tot)=    23.58 kcal/mol
 sn= 4  qrot/sn=   52876.6949 T*S(rot)=     7.33 kcal/mol T*S(tot)=    23.41 kcal/mol
 sn= 5  qrot/sn=   42301.3559 T*S(rot)=     7.20 kcal/mol T*S(tot)=    23.28 kcal/mol
 sn= 6  qrot/sn=   35251.1300 T*S(rot)=     7.09 kcal/mol T*S(tot)=    23.17 kcal/mol
 sn= 7  qrot/sn=   30215.2542 T*S(rot)=     7.00 kcal/mol T*S(tot)=    23.08 kcal/mol
 sn= 8  qrot/sn=   26438.3475 T*S(rot)=     6.92 kcal/mol T*S(tot)=    23.00 kcal/mol
 sn= 9  qrot/sn=   23500.7533 T*S(rot)=     6.85 kcal/mol T*S(tot)=    22.93 kcal/mol
 sn=10  qrot/sn=   21150.6780 T*S(rot)=     6.79 kcal/mol T*S(tot)=    22.87 kcal/mol
 sn=11  qrot/sn=   19227.8891 T*S(rot)=     6.73 kcal/mol T*S(tot)=    22.81 kcal/mol
 sn=12  qrot/sn=   17625.5650 T*S(rot)=     6.68 kcal/mol T*S(tot)=    22.76 kcal/mol

-------------------
GIBBS FREE ENTHALPY
-------------------

The Gibbs free enthalpy is G = H - T*S

Total enthalpy                    ...   -289.93545308 Eh
Total entropy correction          ...     -0.03758141 Eh    -23.58 kcal/mol
-----------------------------------------------------------------------
Final Gibbs free enthalpy         ...   -289.97303449 Eh

For completeness - the Gibbs free enthalpy minus the electronic energy
G-E(el)                           ...      0.14886362 Eh     93.41 kcal/mol

                             ****ORCA TERMINATED NORMALLY****
TOTAL RUN TIME: 0 days 0 hours 56 minutes 35 seconds 499 msec
