                         Program Version 3.0.3 - RELEASE   -
|  1> ! NORI PBE0 def2-TZVP UseSym TightOPT Freq TightSCF Grid3 FinalGrid5 XYZFile
|  2> % pal
|  3>     nprocs 8
|  4> end
|  5> %method
|  6>     SymThresh 5.0e-2
|  7> end
|  8> % geom
|  9>     MaxIter 10
| 10> end
| 11> % maxcore 2000
| 12> % output
| 13>     printlevel mini
| 14>     print[ P_Basis ] 0
| 15>     print[ P_SCFInfo ] 1
| 16>     print[ P_SCFIterInfo ] 1
| 17>     print[ P_OrbEn ] 0
| 18>     print[ P_Cartesian ] 0
| 19> end
| 20> % elprop
| 21>     Dipole false
| 22> end
| 23> *xyz 1 1
| 24>  C        1.0273949629     0.1060750195     0.0172975190
| 25>  C        2.5070178289    -0.0083274282    -0.0026823657
| 26>  C        3.2738595655    -1.1007116603    -0.0333803418
| 27>  C        2.8781253861    -2.5309822538    -0.0568319116
| 28>  C        4.7272747238    -0.7410246606    -0.1111365217
| 29>  N        4.7259054407     0.7270068430     0.2248164782
| 30>  C        3.3373634836     1.2389233575    -0.0550996129
| 31>  H        0.5464490872    -0.8697942946     0.0351543180
| 32>  H        0.6661185335     0.6432488057    -0.8657314588
| 33>  H        0.6881307119     0.6690516895     0.8921274631
| 34>  H        3.2414237425    -3.0208197133    -0.9660163885
| 35>  H        1.7968707871    -2.6511064784    -0.0204656600
| 36>  H        3.3101224444    -3.0727682732     0.7899201182
| 37>  H        5.1435117756    -0.8689286663    -1.1154338428
| 38>  H        5.3696599158    -1.2703788619     0.5951758022
| 39>  H        5.4408622199     1.2433582143    -0.2864001207
| 40>  H        4.9267518247     0.8396777514     1.2178686751
| 41>  H        3.0767548632     1.9949617531     0.6879142354
| 42>  H        3.3324427028     1.7119988563    -1.0422763846
| 43> *
| 44>
| 45>                          ****END OF INPUT****
 Total Charge           Charge          ....    1
 Multiplicity           Mult            ....    1
 Number of Electrons    NEL             ....   54
FINAL SINGLE POINT ENERGY      -290.123468330720

CARTESIAN COORDINATES (ANGSTROEM)
---------------------------------
  C     -1.552954   -0.168660    1.611536
  C     -0.416202   -0.030233    0.667589
  C     -0.416202   -0.030233   -0.667589
  C     -1.552954   -0.168660   -1.611536
  C      0.961906    0.203706   -1.209915
  N      1.835424   -0.000280    0.000000
  C      0.961906    0.203706    1.209915
  H     -2.496816   -0.311468    1.089131
  H     -1.647515    0.722147    2.240530
  H     -1.403979   -1.018363    2.284475
  H     -1.647515    0.722147   -2.240530
  H     -2.496816   -0.311468   -1.089131
  H     -1.403979   -1.018363   -2.284475
  H      1.106798    1.224712   -1.576592
  H      1.269432   -0.488838   -1.995604
  H      2.649166    0.613953   -0.000000
  H      2.182947   -0.958592    0.000000
  H      1.269432   -0.488838    1.995604
  H      1.106798    1.224712    1.576592

FINAL SINGLE POINT ENERGY      -290.123468980339
                    ***********************HURRAY********************
 Multiplicity           Mult            ....    1
 Number of Electrons    NEL             ....   54
 Basis Dimension        Dim             ....  289
FINAL SINGLE POINT ENERGY      -290.123469179789

VIBRATIONAL FREQUENCIES
-----------------------

   0:         0.00 cm**-1
   1:         0.00 cm**-1
   2:         0.00 cm**-1
   3:         0.00 cm**-1
   4:         0.00 cm**-1
   5:         0.00 cm**-1
   6:       128.12 cm**-1
   7:       136.90 cm**-1
   8:       152.09 cm**-1
   9:       184.83 cm**-1
  10:       278.54 cm**-1
  11:       287.64 cm**-1
  12:       369.10 cm**-1
  13:       509.33 cm**-1
  14:       595.61 cm**-1
  15:       610.83 cm**-1
  16:       732.36 cm**-1
  17:       878.95 cm**-1
  18:       908.35 cm**-1
  19:       913.54 cm**-1
  20:       950.71 cm**-1
  21:       969.75 cm**-1
  22:       992.37 cm**-1
  23:       999.34 cm**-1
  24:      1068.91 cm**-1
  25:      1099.95 cm**-1
  26:      1137.63 cm**-1
  27:      1181.54 cm**-1
  28:      1220.77 cm**-1
  29:      1256.05 cm**-1
  30:      1286.18 cm**-1
  31:      1309.64 cm**-1
  32:      1381.46 cm**-1
  33:      1383.93 cm**-1
  34:      1403.40 cm**-1
  35:      1421.19 cm**-1
  36:      1427.01 cm**-1
  37:      1467.67 cm**-1
  38:      1471.17 cm**-1
  39:      1471.21 cm**-1
  40:      1478.14 cm**-1
  41:      1495.58 cm**-1
  42:      1504.06 cm**-1
  43:      1646.30 cm**-1
  44:      1763.62 cm**-1
  45:      3050.30 cm**-1
  46:      3050.77 cm**-1
  47:      3067.89 cm**-1
  48:      3069.18 cm**-1
  49:      3105.68 cm**-1
  50:      3105.75 cm**-1
  51:      3126.76 cm**-1
  52:      3127.12 cm**-1
  53:      3166.08 cm**-1
  54:      3170.20 cm**-1
  55:      3471.06 cm**-1
  56:      3527.65 cm**-1

IR SPECTRUM
-----------

 Mode    freq (cm**-1)   T**2         TX         TY         TZ
-------------------------------------------------------------------
   6:       128.12    0.868830  (  0.756006   0.545239   0.000132)
   7:       136.90    5.131011  ( -0.715771  -2.149112   0.000146)
   8:       152.09    0.066338  ( -0.000065  -0.000846  -0.257560)
   9:       184.83    0.068812  ( -0.000001   0.000004  -0.262320)
  10:       278.54    2.579773  (  0.744138  -1.423387  -0.000066)
  11:       287.64    9.505809  (  0.190206  -3.077277  -0.000012)
  12:       369.10    4.364696  (  0.000025  -0.000047   2.089185)
  13:       509.33    0.122352  (  0.000003  -0.000003   0.349788)
  14:       595.61    0.529991  ( -0.000008   0.000000   0.728005)
  15:       610.83    3.148299  (  1.638267   0.681454  -0.000001)
  16:       732.36    1.769121  ( -0.518627  -1.224805  -0.000005)
  17:       878.95    4.160149  (  0.259374   2.023085  -0.000041)
  18:       908.35    3.551289  ( -1.868317   0.246335   0.000108)
  19:       913.54    2.140015  (  0.000180   0.000042   1.462879)
  20:       950.71    0.063178  ( -0.000004   0.000040  -0.251352)
  21:       969.75    1.743411  ( -0.024700   1.320152   0.000003)
  22:       992.37    3.612920  ( -1.884780  -0.246014   0.000176)
  23:       999.34    6.257081  ( -0.000168  -0.000027  -2.501416)
  24:      1068.91    1.037075  (  0.000023   0.000024  -1.018369)
  25:      1099.95    0.975683  ( -0.189671   0.969385  -0.000035)
  26:      1137.63   17.709996  ( -0.000007  -0.000029   4.208325)
  27:      1181.54    1.642440  ( -0.000007  -0.000004   1.281577)
  28:      1220.77    0.125674  ( -0.264434  -0.236112  -0.000022)
  29:      1256.05    0.223876  ( -0.000018   0.000003   0.473155)
  30:      1286.18    2.618301  ( -0.889050  -1.351995  -0.000038)
  31:      1309.64   13.322607  (  0.000010   0.000005  -3.650015)
  32:      1381.46    9.050097  (  0.000016   0.000024   3.008338)
  33:      1383.93    0.029873  ( -0.041402   0.167806  -0.000264)
  34:      1403.40   13.570641  (  0.000030   0.000016  -3.683835)
  35:      1421.19    5.498378  ( -2.342999  -0.093464  -0.000273)
  36:      1427.01   15.926875  (  0.000117  -0.000058  -3.990849)
  37:      1467.67    0.551735  (  0.000512  -0.001624   0.742786)
  38:      1471.17   26.172518  ( -1.208316   4.970161  -0.099956)
  39:      1471.21   12.405431  ( -0.034401   0.141461   3.519124)
  40:      1478.14   10.654212  (  3.067276   1.116258   0.000064)
  41:      1495.58   14.453699  (  0.000105  -0.000022  -3.801802)
  42:      1504.06    4.260828  ( -1.769959  -1.062108   0.000062)
  43:      1646.30   71.353386  (  8.071554  -2.490661  -0.000000)
  44:      1763.62    5.944383  (  2.374836   0.551847  -0.000002)
  45:      3050.30    4.472226  ( -0.000137  -0.000009   2.114764)
  46:      3050.77    0.836073  ( -0.903564  -0.140161  -0.000314)
  47:      3067.89    5.609662  ( -1.999700  -1.269198  -0.000049)
  48:      3069.18   12.709794  (  0.000033   0.000019  -3.565080)
  49:      3105.68    0.119706  ( -0.000236   0.003194  -0.345971)
  50:      3105.75    5.291305  ( -0.172073   2.293839   0.000458)
  51:      3126.76    0.803960  (  0.000000  -0.000023   0.896638)
  52:      3127.12    0.567682  (  0.317982  -0.683059  -0.000042)
  53:      3166.08    0.978892  (  0.000042   0.000020   0.989390)
  54:      3170.20    4.442726  ( -2.092843  -0.250466  -0.000010)
  55:      3471.06   65.030064  ( -7.832416   1.919198  -0.000000)
  56:      3527.65   76.942768  ( -1.813747  -8.582138   0.000000)

--------------------------
THERMOCHEMISTRY AT 298.15K
--------------------------

Temperature         ... 298.15 K
Pressure            ... 1.00 atm
Total Mass          ... 98.17 AMU

Throughout the following assumptions are being made:
  (1) The electronic state is orbitally nondegenerate
  (2) There are no thermally accessible electronically excited states
  (3) Hindered rotations indicated by low frequency modes) are not
      treated as such but are treated as vibrations and this may
      case some error
  (4) All equations used are the standard statistical mechanics
      equations for an ideal gas
  (5) All vibrations are strinctly harmonic

------------
INNER ENERGY
------------

The inner energy is: U= E(el) + E(ZPE) + E(vib) + E(rot) + E(trans)
    E(el)   - is the total energy from the electronic structure calculation
              = E(kin-el) + E(nuc-el) + E(el-el) + E(nuc-nuc)
    E(ZPE)  - the the zero temperature vibrational energy from the frequency calculation
    E(vib)  - the the finite temperature correction to E(ZPE) due to population
              of excietd vibrational states
    E(rot)  - is the rotational thermal energy
    E(trans)- is the translational thermal energy

Summary of contributions to the inner energy U:
Electronic energy                ...   -290.12346918 Eh
Zero point energy                ...      0.17658581 Eh     110.81 kcal/mol
Thermal vibrational correction   ...      0.00497162 Eh       3.12 kcal/mol
Thermal rotational correction    ...      0.00141627 Eh       0.89 kcal/mol
Thermal translational correction ...      0.00141627 Eh       0.89 kcal/mol
-----------------------------------------------------------------------
Total thermal energy                   -289.93907921 Eh

Summary of corrections to the electronic energy:
(perhaps to be used in another calculation)
Total thermal correction                  0.00780416 Eh       4.90 kcal/mol
Non-thermal (ZPE) correction              0.17658581 Eh     110.81 kcal/mol
-----------------------------------------------------------------------
Total correction                          0.18438997 Eh     115.71 kcal/mol

--------
ENTHALPY
--------

The enthalpy is H = U + kB*T
                kB is Boltzmann's constant
Total free energy                 ...   -289.93907921 Eh
Thermal Enthalpy correction       ...      0.00094421 Eh       0.59 kcal/mol
-----------------------------------------------------------------------
Total Enthalpy                    ...   -289.93813500 Eh

-------
ENTROPY
-------

The entropy contributions are T*S = T*(S(el)+S(vib)+S(rot)+S(trans)
     S(el)   - electronic entropy
     S(vib)  - vibrational entropy
     S(rot)  - rotational entropy
     S(trans)- translational entropy
The entropies will be listed as mutliplied by the temperature to get
units of energy

Electronic entropy                ...      0.00000000 Eh      0.00 kcal/mol
Vibrational entropy               ...      0.00855995 Eh      5.37 kcal/mol
Rotational entropy                ...      0.01201979 Eh      7.54 kcal/mol
Translational entropy             ...      0.01884507 Eh     11.83 kcal/mol
-----------------------------------------------------------------------
Final entropy term                ...      0.03942481 Eh     24.74 kcal/mol

CAUTION: The rotational entropy is not quite correctly treated here
         because it includes a symmetry number that is not yet correctly
         implemented in ORCA!
For a nonlinear molecule the correct rotational entropy is:
    S(rot) = R*(ln(qrot/sn)+1.5)
    R    = 8.31441 J/mol/K = 1.987191683e-3 kcal/mol/K
    qrot = 226160.3240746
    sn is the rotational symmetry number. We have assumed 3 here
       if it is different for your molecule then you should correct
       the printed rotational entropy by manually evaluating the equation
       as given above

For convenience we print out the resulting values for sn=1 - 12:
 sn= 1  qrot/sn=  226160.3241 T*S(rot)=     8.19 kcal/mol T*S(tot)=    25.39 kcal/mol
 sn= 2  qrot/sn=  113080.1620 T*S(rot)=     7.78 kcal/mol T*S(tot)=    24.98 kcal/mol
 sn= 3  qrot/sn=   75386.7747 T*S(rot)=     7.54 kcal/mol T*S(tot)=    24.74 kcal/mol
 sn= 4  qrot/sn=   56540.0810 T*S(rot)=     7.37 kcal/mol T*S(tot)=    24.57 kcal/mol
 sn= 5  qrot/sn=   45232.0648 T*S(rot)=     7.24 kcal/mol T*S(tot)=    24.44 kcal/mol
 sn= 6  qrot/sn=   37693.3873 T*S(rot)=     7.13 kcal/mol T*S(tot)=    24.33 kcal/mol
 sn= 7  qrot/sn=   32308.6177 T*S(rot)=     7.04 kcal/mol T*S(tot)=    24.24 kcal/mol
 sn= 8  qrot/sn=   28270.0405 T*S(rot)=     6.96 kcal/mol T*S(tot)=    24.16 kcal/mol
 sn= 9  qrot/sn=   25128.9249 T*S(rot)=     6.89 kcal/mol T*S(tot)=    24.09 kcal/mol
 sn=10  qrot/sn=   22616.0324 T*S(rot)=     6.83 kcal/mol T*S(tot)=    24.03 kcal/mol
 sn=11  qrot/sn=   20560.0295 T*S(rot)=     6.77 kcal/mol T*S(tot)=    23.97 kcal/mol
 sn=12  qrot/sn=   18846.6937 T*S(rot)=     6.72 kcal/mol T*S(tot)=    23.92 kcal/mol

-------------------
GIBBS FREE ENTHALPY
-------------------

The Gibbs free enthalpy is G = H - T*S

Total enthalpy                    ...   -289.93813500 Eh
Total entropy correction          ...     -0.03942481 Eh    -24.74 kcal/mol
-----------------------------------------------------------------------
Final Gibbs free enthalpy         ...   -289.97755981 Eh

For completeness - the Gibbs free enthalpy minus the electronic energy
G-E(el)                           ...      0.14590937 Eh     91.56 kcal/mol

                             ****ORCA TERMINATED NORMALLY****
TOTAL RUN TIME: 0 days 0 hours 55 minutes 32 seconds 841 msec
