                         Program Version 3.0.3 - RELEASE   -
|  1> ! NORI PBE0 def2-TZVP UseSym TightOPT Freq TightSCF Grid3 FinalGrid5 XYZFile
|  2> % pal
|  3>     nprocs 8
|  4> end
|  5> %method
|  6>     SymThresh 5.0e-2
|  7> end
|  8> % geom
|  9>     MaxIter 10
| 10> end
| 11> % maxcore 2000
| 12> % output
| 13>     printlevel mini
| 14>     print[ P_Basis ] 0
| 15>     print[ P_SCFInfo ] 1
| 16>     print[ P_SCFIterInfo ] 1
| 17>     print[ P_OrbEn ] 0
| 18>     print[ P_Cartesian ] 0
| 19> end
| 20> % elprop
| 21>     Dipole false
| 22> end
| 23> *xyz 1 1
| 24>  C        1.0303240686     0.1325569523    -0.1255467417
| 25>  C        2.5133010835     0.0870064170    -0.1363549027
| 26>  C        3.3058328460    -0.9829371877    -0.2338439771
| 27>  C        4.7592337386    -0.6255045625    -0.0878146851
| 28>  C        4.7405232461     0.8777319076    -0.3526706094
| 29>  N        4.8321769879     1.0598761911    -1.8545211762
| 30>  C        3.3480771052     1.3310019685     0.0712041377
| 31>  H        0.5978161566    -0.8560297917    -0.2753102271
| 32>  H        0.6442136365     0.8022862151    -0.8999893859
| 33>  H        0.6670484928     0.5225224300     0.8306506171
| 34>  H        2.9606334216    -2.0051361605    -0.3253978034
| 35>  H        5.1196791155    -0.8161940890     0.9290664023
| 36>  H        5.4367341901    -1.1713781720    -0.7536402630
| 37>  H        5.5679756149     1.4398774317     0.0787238249
| 38>  H        4.0665943335     0.5205461225    -2.2749656732
| 39>  H        5.7152863084     0.7086347857    -2.2273786664
| 40>  H        4.7301334790     2.0374597824    -2.1301062415
| 41>  H        2.9898868595     2.2086590289    -0.4788973143
| 42>  H        3.3579793158     1.6218607305     1.1274226848
| 43> *
| 44>
| 45>                          ****END OF INPUT****
 Total Charge           Charge          ....    1
 Multiplicity           Mult            ....    1
 Number of Electrons    NEL             ....   54
FINAL SINGLE POINT ENERGY      -290.122937048978
FINAL SINGLE POINT ENERGY      -290.122938514198

CARTESIAN COORDINATES (ANGSTROEM)
---------------------------------
  C      1.718336    0.000858   -1.850787
  C      0.558875   -0.048152   -0.926124
  C     -0.317543   -1.040219   -0.751502
  C     -1.421721   -0.659635    0.195810
  C     -0.817445    0.543452    0.915626
  N     -0.001120    0.000379    2.072330
  C      0.161815    1.145123   -0.085714
  H      1.846926   -0.941405   -2.382381
  H      2.646181    0.229061   -1.317654
  H      1.582446    0.795255   -2.591631
  H     -0.300013   -1.984811   -1.280449
  H     -2.324438   -0.350689   -0.343116
  H     -1.737648   -1.456101    0.878369
  H     -1.535093    1.241358    1.345378
  H      0.667923   -0.675523    1.686034
  H     -0.585453   -0.481535    2.756922
  H      0.520522    0.735052    2.552346
  H      1.005359    1.662399    0.385941
  H     -0.348907    1.898375   -0.696152

FINAL SINGLE POINT ENERGY      -290.122939303540
                    ***********************HURRAY********************
 Multiplicity           Mult            ....    1
 Number of Electrons    NEL             ....   54
 Basis Dimension        Dim             ....  289
FINAL SINGLE POINT ENERGY      -290.122939408586

VIBRATIONAL FREQUENCIES
-----------------------

   0:         0.00 cm**-1
   1:         0.00 cm**-1
   2:         0.00 cm**-1
   3:         0.00 cm**-1
   4:         0.00 cm**-1
   5:         0.00 cm**-1
   6:       120.38 cm**-1
   7:       169.87 cm**-1
   8:       240.74 cm**-1
   9:       271.96 cm**-1
  10:       318.73 cm**-1
  11:       381.08 cm**-1
  12:       389.14 cm**-1
  13:       464.45 cm**-1
  14:       607.74 cm**-1
  15:       738.47 cm**-1
  16:       790.27 cm**-1
  17:       843.05 cm**-1
  18:       874.74 cm**-1
  19:       912.66 cm**-1
  20:       919.70 cm**-1
  21:       935.64 cm**-1
  22:       993.31 cm**-1
  23:      1001.46 cm**-1
  24:      1031.09 cm**-1
  25:      1042.65 cm**-1
  26:      1085.65 cm**-1
  27:      1104.59 cm**-1
  28:      1162.92 cm**-1
  29:      1218.03 cm**-1
  30:      1237.40 cm**-1
  31:      1282.29 cm**-1
  32:      1313.13 cm**-1
  33:      1339.62 cm**-1
  34:      1369.90 cm**-1
  35:      1394.38 cm**-1
  36:      1416.91 cm**-1
  37:      1465.93 cm**-1
  38:      1468.88 cm**-1
  39:      1470.70 cm**-1
  40:      1475.55 cm**-1
  41:      1486.77 cm**-1
  42:      1647.13 cm**-1
  43:      1658.48 cm**-1
  44:      1720.88 cm**-1
  45:      3045.15 cm**-1
  46:      3048.24 cm**-1
  47:      3049.27 cm**-1
  48:      3081.92 cm**-1
  49:      3083.16 cm**-1
  50:      3102.73 cm**-1
  51:      3143.06 cm**-1
  52:      3155.58 cm**-1
  53:      3227.03 cm**-1
  54:      3388.67 cm**-1
  55:      3484.72 cm**-1
  56:      3523.74 cm**-1

IR SPECTRUM
-----------

 Mode    freq (cm**-1)   T**2         TX         TY         TZ
-------------------------------------------------------------------
   6:       120.38   13.828480  ( -1.958494   1.049352   2.981886)
   7:       169.87    1.600924  (  0.856135   0.385728   0.848040)
   8:       240.74    9.798651  ( -1.156952  -0.190999  -2.902349)
   9:       271.96    0.212865  ( -0.277621  -0.168187  -0.327879)
  10:       318.73    2.957071  (  0.755866   1.372785  -0.707953)
  11:       381.08   12.916344  (  0.218208   0.235325  -3.579574)
  12:       389.14    2.654356  (  0.073166   1.621595   0.139404)
  13:       464.45    7.567207  ( -1.940166  -0.070980  -1.948827)
  14:       607.74    1.757971  ( -0.439041   0.324777   1.208195)
  15:       738.47    7.183681  ( -0.580718  -0.068087  -2.615686)
  16:       790.27    3.407791  (  0.830357  -1.418932  -0.839602)
  17:       843.05   25.439916  (  1.900075  -2.088732   4.179334)
  18:       874.74    3.387046  (  1.819839   0.069846  -0.265242)
  19:       912.66    1.850791  (  1.315318   0.338732   0.077388)
  20:       919.70    3.375605  ( -0.215490   1.809230  -0.236340)
  21:       935.64    1.346800  ( -1.033509  -0.022804   0.527389)
  22:       993.31    1.801837  (  0.864424   0.996972  -0.246280)
  23:      1001.46    3.254909  (  0.694827   1.466448   0.788450)
  24:      1031.09   13.541142  ( -1.731067  -2.786779   1.666856)
  25:      1042.65   11.509160  (  0.588342   0.568898   3.292320)
  26:      1085.65    6.446630  ( -0.648911   0.819312   2.313930)
  27:      1104.59    1.004409  ( -0.687837   0.372445   0.626557)
  28:      1162.92    1.341226  (  0.762092   0.575507  -0.655159)
  29:      1218.03    7.664360  ( -1.131273  -2.521070  -0.169671)
  30:      1237.40    5.490410  ( -2.081496   1.043211  -0.263618)
  31:      1282.29    0.633256  (  0.440751   0.539933  -0.384015)
  32:      1313.13    7.827197  ( -2.082347  -1.452996   1.174662)
  33:      1339.62    4.787550  ( -0.046531  -1.737293  -1.329361)
  34:      1369.90    3.066040  ( -1.390006   0.080805   1.061788)
  35:      1394.38   24.372539  (  0.981548  -1.648612  -4.548756)
  36:      1416.91    6.321273  (  2.215559  -0.075164  -1.186137)
  37:      1465.93   26.658172  ( -0.439407   3.329392  -3.921765)
  38:      1468.88    4.565060  (  0.843941   1.701810  -0.978094)
  39:      1470.70  157.486581  (  6.615502  -4.883711   9.480036)
  40:      1475.55   30.268086  (  3.755499   3.263203   2.348578)
  41:      1486.77   20.705847  (  1.802705  -1.720348   3.807428)
  42:      1647.13   40.429290  ( -2.681358   3.413130   4.646521)
  43:      1658.48   18.960337  ( -2.649665  -3.433290   0.390046)
  44:      1720.88   11.156690  ( -2.575357  -0.986220   1.884568)
  45:      3045.15    5.271917  ( -0.728420  -1.777647  -1.257494)
  46:      3048.24   10.599434  ( -2.460820  -2.076031  -0.483625)
  47:      3049.27   14.610591  (  2.528031   1.296878  -2.556904)
  48:      3081.92    4.738229  ( -0.427693   0.624337  -2.040958)
  49:      3083.16    3.447234  (  1.163386   1.420246  -0.276891)
  50:      3102.73    4.088021  ( -1.669775   0.266388  -1.108562)
  51:      3143.06    4.400318  (  0.973375  -0.955924  -1.593446)
  52:      3155.58    4.090061  ( -0.195588   1.603007   1.217446)
  53:      3227.03    1.024189  (  0.751488   0.469576  -0.488828)
  54:      3388.67   25.735548  (  3.800656  -3.353032  -0.218486)
  55:      3484.72  112.696267  ( -2.776303   3.550418   9.611604)
  56:      3523.74   77.627670  (  5.855707   6.487679  -1.117313)

--------------------------
THERMOCHEMISTRY AT 298.15K
--------------------------

Temperature         ... 298.15 K
Pressure            ... 1.00 atm
Total Mass          ... 98.17 AMU

Throughout the following assumptions are being made:
  (1) The electronic state is orbitally nondegenerate
  (2) There are no thermally accessible electronically excited states
  (3) Hindered rotations indicated by low frequency modes) are not
      treated as such but are treated as vibrations and this may
      case some error
  (4) All equations used are the standard statistical mechanics
      equations for an ideal gas
  (5) All vibrations are strinctly harmonic

------------
INNER ENERGY
------------

The inner energy is: U= E(el) + E(ZPE) + E(vib) + E(rot) + E(trans)
    E(el)   - is the total energy from the electronic structure calculation
              = E(kin-el) + E(nuc-el) + E(el-el) + E(nuc-nuc)
    E(ZPE)  - the the zero temperature vibrational energy from the frequency calculation
    E(vib)  - the the finite temperature correction to E(ZPE) due to population
              of excietd vibrational states
    E(rot)  - is the rotational thermal energy
    E(trans)- is the translational thermal energy

Summary of contributions to the inner energy U:
Electronic energy                ...   -290.12293941 Eh
Zero point energy                ...      0.17701257 Eh     111.08 kcal/mol
Thermal vibrational correction   ...      0.00449786 Eh       2.82 kcal/mol
Thermal rotational correction    ...      0.00141627 Eh       0.89 kcal/mol
Thermal translational correction ...      0.00141627 Eh       0.89 kcal/mol
-----------------------------------------------------------------------
Total thermal energy                   -289.93859643 Eh

Summary of corrections to the electronic energy:
(perhaps to be used in another calculation)
Total thermal correction                  0.00733041 Eh       4.60 kcal/mol
Non-thermal (ZPE) correction              0.17701257 Eh     111.08 kcal/mol
-----------------------------------------------------------------------
Total correction                          0.18434298 Eh     115.68 kcal/mol

--------
ENTHALPY
--------

The enthalpy is H = U + kB*T
                kB is Boltzmann's constant
Total free energy                 ...   -289.93859643 Eh
Thermal Enthalpy correction       ...      0.00094421 Eh       0.59 kcal/mol
-----------------------------------------------------------------------
Total Enthalpy                    ...   -289.93765222 Eh

-------
ENTROPY
-------

The entropy contributions are T*S = T*(S(el)+S(vib)+S(rot)+S(trans)
     S(el)   - electronic entropy
     S(vib)  - vibrational entropy
     S(rot)  - rotational entropy
     S(trans)- translational entropy
The entropies will be listed as mutliplied by the temperature to get
units of energy

Electronic entropy                ...      0.00000000 Eh      0.00 kcal/mol
Vibrational entropy               ...      0.00734799 Eh      4.61 kcal/mol
Rotational entropy                ...      0.01195891 Eh      7.50 kcal/mol
Translational entropy             ...      0.01884507 Eh     11.83 kcal/mol
-----------------------------------------------------------------------
Final entropy term                ...      0.03815197 Eh     23.94 kcal/mol

CAUTION: The rotational entropy is not quite correctly treated here
         because it includes a symmetry number that is not yet correctly
         implemented in ORCA!
For a nonlinear molecule the correct rotational entropy is:
    S(rot) = R*(ln(qrot/sn)+1.5)
    R    = 8.31441 J/mol/K = 1.987191683e-3 kcal/mol/K
    qrot = 212038.4079022
    sn is the rotational symmetry number. We have assumed 3 here
       if it is different for your molecule then you should correct
       the printed rotational entropy by manually evaluating the equation
       as given above

For convenience we print out the resulting values for sn=1 - 12:
 sn= 1  qrot/sn=  212038.4079 T*S(rot)=     8.16 kcal/mol T*S(tot)=    24.59 kcal/mol
 sn= 2  qrot/sn=  106019.2040 T*S(rot)=     7.74 kcal/mol T*S(tot)=    24.18 kcal/mol
 sn= 3  qrot/sn=   70679.4693 T*S(rot)=     7.50 kcal/mol T*S(tot)=    23.94 kcal/mol
 sn= 4  qrot/sn=   53009.6020 T*S(rot)=     7.33 kcal/mol T*S(tot)=    23.77 kcal/mol
 sn= 5  qrot/sn=   42407.6816 T*S(rot)=     7.20 kcal/mol T*S(tot)=    23.64 kcal/mol
 sn= 6  qrot/sn=   35339.7347 T*S(rot)=     7.09 kcal/mol T*S(tot)=    23.53 kcal/mol
 sn= 7  qrot/sn=   30291.2011 T*S(rot)=     7.00 kcal/mol T*S(tot)=    23.44 kcal/mol
 sn= 8  qrot/sn=   26504.8010 T*S(rot)=     6.92 kcal/mol T*S(tot)=    23.36 kcal/mol
 sn= 9  qrot/sn=   23559.8231 T*S(rot)=     6.85 kcal/mol T*S(tot)=    23.29 kcal/mol
 sn=10  qrot/sn=   21203.8408 T*S(rot)=     6.79 kcal/mol T*S(tot)=    23.23 kcal/mol
 sn=11  qrot/sn=   19276.2189 T*S(rot)=     6.73 kcal/mol T*S(tot)=    23.17 kcal/mol
 sn=12  qrot/sn=   17669.8673 T*S(rot)=     6.68 kcal/mol T*S(tot)=    23.12 kcal/mol

-------------------
GIBBS FREE ENTHALPY
-------------------

The Gibbs free enthalpy is G = H - T*S

Total enthalpy                    ...   -289.93765222 Eh
Total entropy correction          ...     -0.03815197 Eh    -23.94 kcal/mol
-----------------------------------------------------------------------
Final Gibbs free enthalpy         ...   -289.97580419 Eh

For completeness - the Gibbs free enthalpy minus the electronic energy
G-E(el)                           ...      0.14713522 Eh     92.33 kcal/mol

                             ****ORCA TERMINATED NORMALLY****
TOTAL RUN TIME: 0 days 0 hours 55 minutes 24 seconds 925 msec
