                         Program Version 3.0.3 - RELEASE   -
|  1> ! NORI PBE0 def2-TZVP UseSym TightOPT Freq TightSCF Grid3 FinalGrid5 XYZFile
|  2> % pal
|  3>     nprocs 8
|  4> end
|  5> %method
|  6>     SymThresh 5.0e-2
|  7> end
|  8> % geom
|  9>     MaxIter 10
| 10> end
| 11> % maxcore 2000
| 12> % output
| 13>     printlevel mini
| 14>     print[ P_Basis ] 0
| 15>     print[ P_SCFInfo ] 1
| 16>     print[ P_SCFIterInfo ] 1
| 17>     print[ P_OrbEn ] 0
| 18>     print[ P_Cartesian ] 0
| 19> end
| 20> % elprop
| 21>     Dipole false
| 22> end
| 23> *xyz 1 1
| 24>  C        1.1286698417     0.0309822854     0.4629363318
| 25>  C        2.4635769401     0.0855569837    -0.2615012345
| 26>  C        2.2774510114     0.1299899741    -1.7621057361
| 27>  C        3.4081358035     1.1710389792     0.3382830030
| 28>  C        4.0094975326     0.0734604382     1.2102845551
| 29>  N        5.5051325525     0.1021745846     1.3994058016
| 30>  C        3.4597661210    -0.9910117462     0.2663404842
| 31>  H        0.5651169364    -0.8548931771     0.1603691357
| 32>  H        0.5256531212     0.9087923518     0.2188446060
| 33>  H        1.2402849710    -0.0026109090     1.5504604218
| 34>  H        3.2345257409     0.1653646872    -2.2885842089
| 35>  H        1.6987747345     1.0098961096    -2.0545159244
| 36>  H        1.7341772930    -0.7521326095    -2.1104434256
| 37>  H        2.9611359248     2.0271176380     0.8438892364
| 38>  H        4.1153810883     1.5291584676    -0.4163577223
| 39>  H        3.5866535279     0.0301266095     2.2134592886
| 40>  H        5.9785232127     0.1434125448     0.4944861477
| 41>  H        5.8366642617    -0.7342792272     1.8856440816
| 42>  H        5.7981451985     0.9183705972     1.9415796889
| 43>  H        4.1831386511    -1.2608267992    -0.5088600844
| 44>  H        3.0555555353    -1.8997677826     0.7122555537
| 45> *
| 46>
| 47>                          ****END OF INPUT****
 Total Charge           Charge          ....    1
 Multiplicity           Mult            ....    1
 Number of Electrons    NEL             ....   56
FINAL SINGLE POINT ENERGY      -291.314727379628

CARTESIAN COORDINATES (ANGSTROEM)
---------------------------------
  C     -1.778755   -1.130722   -0.000000
  C     -0.911522    0.117469    0.000000
  C     -1.752264    1.375054    0.000000
  C      0.208833    0.049655    1.081660
  C      1.130690   -0.503882    0.000000
  N      2.551881   -0.000479   -0.000000
  C      0.208833    0.049655   -1.081660
  H     -2.422297   -1.148552   -0.882436
  H     -2.422297   -1.148552    0.882436
  H     -1.190701   -2.052682    0.000000
  H     -1.134062    2.276370    0.000000
  H     -2.397120    1.408729    0.881586
  H     -2.397120    1.408729   -0.881586
  H      0.041999   -0.566838    1.964746
  H      0.504931    1.055628    1.395921
  H      1.203194   -1.590967    0.000000
  H      2.567976    1.021557   -0.000000
  H      3.061824   -0.319614   -0.826931
  H      3.061824   -0.319614    0.826931
  H      0.504931    1.055628   -1.395921
  H      0.041999   -0.566838   -1.964746

FINAL SINGLE POINT ENERGY      -291.314728584696
                    ***********************HURRAY********************
 Multiplicity           Mult            ....    1
 Number of Electrons    NEL             ....   56
 Basis Dimension        Dim             ....  301
FINAL SINGLE POINT ENERGY      -291.314728888139

VIBRATIONAL FREQUENCIES
-----------------------

   0:         0.00 cm**-1
   1:         0.00 cm**-1
   2:         0.00 cm**-1
   3:         0.00 cm**-1
   4:         0.00 cm**-1
   5:         0.00 cm**-1
   6:       100.11 cm**-1
   7:       208.64 cm**-1
   8:       221.88 cm**-1
   9:       247.87 cm**-1
  10:       276.67 cm**-1
  11:       306.93 cm**-1
  12:       320.77 cm**-1
  13:       369.96 cm**-1
  14:       426.40 cm**-1
  15:       435.43 cm**-1
  16:       556.53 cm**-1
  17:       732.61 cm**-1
  18:       827.37 cm**-1
  19:       871.20 cm**-1
  20:       874.55 cm**-1
  21:       923.55 cm**-1
  22:       928.69 cm**-1
  23:       961.79 cm**-1
  24:       977.52 cm**-1
  25:       991.98 cm**-1
  26:      1013.37 cm**-1
  27:      1061.11 cm**-1
  28:      1080.99 cm**-1
  29:      1155.47 cm**-1
  30:      1209.42 cm**-1
  31:      1223.78 cm**-1
  32:      1237.96 cm**-1
  33:      1239.19 cm**-1
  34:      1313.37 cm**-1
  35:      1314.42 cm**-1
  36:      1325.94 cm**-1
  37:      1403.67 cm**-1
  38:      1412.52 cm**-1
  39:      1423.01 cm**-1
  40:      1461.73 cm**-1
  41:      1470.87 cm**-1
  42:      1478.64 cm**-1
  43:      1486.48 cm**-1
  44:      1495.18 cm**-1
  45:      1500.70 cm**-1
  46:      1502.06 cm**-1
  47:      1655.83 cm**-1
  48:      1655.96 cm**-1
  49:      3047.27 cm**-1
  50:      3050.33 cm**-1
  51:      3059.58 cm**-1
  52:      3064.42 cm**-1
  53:      3121.13 cm**-1
  54:      3124.68 cm**-1
  55:      3129.47 cm**-1
  56:      3130.29 cm**-1
  57:      3135.61 cm**-1
  58:      3144.15 cm**-1
  59:      3148.66 cm**-1
  60:      3414.88 cm**-1
  61:      3502.26 cm**-1
  62:      3503.10 cm**-1

IR SPECTRUM
-----------

 Mode    freq (cm**-1)   T**2         TX         TY         TZ
-------------------------------------------------------------------
   6:       100.11    6.548822  (  0.387027  -2.529631  -0.000007)
   7:       208.64    0.282053  (  0.000005   0.000018  -0.531087)
   8:       221.88    0.429960  ( -0.000019  -0.000038   0.655714)
   9:       247.87    4.257058  ( -0.000004   0.000004  -2.063264)
  10:       276.67    2.258413  ( -0.000023  -0.000006  -1.502802)
  11:       306.93    1.277457  (  0.000061   0.000007   1.130246)
  12:       320.77    5.555277  ( -2.337432   0.302802   0.000027)
  13:       369.96    0.510938  ( -0.231081   0.676417   0.000003)
  14:       426.40    0.669964  (  0.000014   0.000006  -0.818514)
  15:       435.43    5.176390  (  2.211231  -0.535581  -0.000006)
  16:       556.53    3.346507  ( -1.433192  -1.136867   0.000003)
  17:       732.61    0.729789  ( -0.613494  -0.594486  -0.000004)
  18:       827.37    3.273831  ( -0.000037   0.000025   1.809373)
  19:       871.20   20.062713  ( -4.413272   0.765341  -0.000010)
  20:       874.55    0.018143  (  0.000003   0.000005  -0.134696)
  21:       923.55    5.499079  (  2.344941   0.018173  -0.000036)
  22:       928.69    5.030713  ( -0.000024   0.000034  -2.242925)
  23:       961.79    2.090060  ( -0.014256   1.445634  -0.000007)
  24:       977.52    6.756797  ( -1.126644   2.342535   0.000073)
  25:       991.98    2.166575  ( -0.000057   0.000046  -1.471929)
  26:      1013.37    2.263009  ( -0.422637   1.443741  -0.000010)
  27:      1061.11   11.340705  ( -3.365096  -0.129744  -0.000002)
  28:      1080.99    0.906367  ( -0.000008   0.000008  -0.952033)
  29:      1155.47    1.111146  (  0.000017  -0.000002   1.054109)
  30:      1209.42   11.573674  (  0.000028   0.000019   3.402010)
  31:      1223.78    3.491292  ( -1.742094  -0.675574  -0.000016)
  32:      1237.96    0.829639  ( -0.000004   0.000011   0.910845)
  33:      1239.19    2.583524  (  0.459101   1.540373  -0.000052)
  34:      1313.37   16.752850  ( -4.063576   0.490104  -0.000092)
  35:      1314.42    1.148643  ( -0.000382   0.000027   1.071748)
  36:      1325.94   10.074750  (  2.764564  -1.559466   0.000000)
  37:      1403.67   24.577372  (  3.261885  -3.733293  -0.000008)
  38:      1412.52   12.500670  (  3.102219   1.696145   0.000005)
  39:      1423.01    2.893728  ( -1.614440  -0.536014  -0.000043)
  40:      1461.73   15.458644  ( -0.000006  -0.000034   3.931748)
  41:      1470.87    0.819868  ( -0.000203  -0.000233  -0.905466)
  42:      1478.64   16.533746  (  3.619905   1.852035  -0.000023)
  43:      1486.48   34.713030  (  5.887119   0.234220  -0.000018)
  44:      1495.18   11.412797  ( -0.000426   0.000103  -3.378283)
  45:      1500.70    2.809298  ( -0.010946  -1.676060  -0.000600)
  46:      1502.06  109.762601  (  9.371772   4.683214  -0.000162)
  47:      1655.83   48.125009  ( -1.928305   6.663831   0.000715)
  48:      1655.96   33.474935  (  0.000240  -0.000827   5.785753)
  49:      3047.27   15.771378  (  0.527773  -3.936094   0.000002)
  50:      3050.33    4.746363  (  1.509644   1.570776  -0.000000)
  51:      3059.58    7.347149  (  0.000000   0.000007   2.710562)
  52:      3064.42   14.774703  ( -2.697713  -2.738074  -0.000001)
  53:      3121.13   12.348579  ( -1.914436   2.946780   0.000002)
  54:      3124.68   18.279178  (  4.016392   1.465527   0.000011)
  55:      3129.47    3.041519  (  0.000013   0.000011  -1.743995)
  56:      3130.29    4.367258  (  2.077043  -0.230548  -0.000003)
  57:      3135.61    9.707558  ( -0.000004   0.000002  -3.115695)
  58:      3144.15    7.147975  ( -0.000001  -0.000016  -2.673570)
  59:      3148.66    7.454830  ( -0.586764  -2.666559   0.000001)
  60:      3414.88   42.506563  (  6.477932   0.736856   0.000000)
  61:      3502.26   89.700962  ( -0.000001   0.000013   9.471059)
  62:      3503.10   78.840024  (  3.290095  -8.247139   0.000003)

--------------------------
THERMOCHEMISTRY AT 298.15K
--------------------------

Temperature         ... 298.15 K
Pressure            ... 1.00 atm
Total Mass          ... 100.18 AMU

Throughout the following assumptions are being made:
  (1) The electronic state is orbitally nondegenerate
  (2) There are no thermally accessible electronically excited states
  (3) Hindered rotations indicated by low frequency modes) are not
      treated as such but are treated as vibrations and this may
      case some error
  (4) All equations used are the standard statistical mechanics
      equations for an ideal gas
  (5) All vibrations are strinctly harmonic

------------
INNER ENERGY
------------

The inner energy is: U= E(el) + E(ZPE) + E(vib) + E(rot) + E(trans)
    E(el)   - is the total energy from the electronic structure calculation
              = E(kin-el) + E(nuc-el) + E(el-el) + E(nuc-nuc)
    E(ZPE)  - the the zero temperature vibrational energy from the frequency calculation
    E(vib)  - the the finite temperature correction to E(ZPE) due to population
              of excietd vibrational states
    E(rot)  - is the rotational thermal energy
    E(trans)- is the translational thermal energy

Summary of contributions to the inner energy U:
Electronic energy                ...   -291.31472889 Eh
Zero point energy                ...      0.19878823 Eh     124.74 kcal/mol
Thermal vibrational correction   ...      0.00541610 Eh       3.40 kcal/mol
Thermal rotational correction    ...      0.00141627 Eh       0.89 kcal/mol
Thermal translational correction ...      0.00141627 Eh       0.89 kcal/mol
-----------------------------------------------------------------------
Total thermal energy                   -291.10769201 Eh

Summary of corrections to the electronic energy:
(perhaps to be used in another calculation)
Total thermal correction                  0.00824864 Eh       5.18 kcal/mol
Non-thermal (ZPE) correction              0.19878823 Eh     124.74 kcal/mol
-----------------------------------------------------------------------
Total correction                          0.20703688 Eh     129.92 kcal/mol

--------
ENTHALPY
--------

The enthalpy is H = U + kB*T
                kB is Boltzmann's constant
Total free energy                 ...   -291.10769201 Eh
Thermal Enthalpy correction       ...      0.00094421 Eh       0.59 kcal/mol
-----------------------------------------------------------------------
Total Enthalpy                    ...   -291.10674780 Eh

-------
ENTROPY
-------

The entropy contributions are T*S = T*(S(el)+S(vib)+S(rot)+S(trans)
     S(el)   - electronic entropy
     S(vib)  - vibrational entropy
     S(rot)  - rotational entropy
     S(trans)- translational entropy
The entropies will be listed as mutliplied by the temperature to get
units of energy

Electronic entropy                ...      0.00000000 Eh      0.00 kcal/mol
Vibrational entropy               ...      0.00890380 Eh      5.59 kcal/mol
Rotational entropy                ...      0.01206843 Eh      7.57 kcal/mol
Translational entropy             ...      0.01887386 Eh     11.84 kcal/mol
-----------------------------------------------------------------------
Final entropy term                ...      0.03984609 Eh     25.00 kcal/mol

CAUTION: The rotational entropy is not quite correctly treated here
         because it includes a symmetry number that is not yet correctly
         implemented in ORCA!
For a nonlinear molecule the correct rotational entropy is:
    S(rot) = R*(ln(qrot/sn)+1.5)
    R    = 8.31441 J/mol/K = 1.987191683e-3 kcal/mol/K
    qrot = 238115.4392214
    sn is the rotational symmetry number. We have assumed 3 here
       if it is different for your molecule then you should correct
       the printed rotational entropy by manually evaluating the equation
       as given above

For convenience we print out the resulting values for sn=1 - 12:
 sn= 1  qrot/sn=  238115.4392 T*S(rot)=     8.22 kcal/mol T*S(tot)=    25.65 kcal/mol
 sn= 2  qrot/sn=  119057.7196 T*S(rot)=     7.81 kcal/mol T*S(tot)=    25.24 kcal/mol
 sn= 3  qrot/sn=   79371.8131 T*S(rot)=     7.57 kcal/mol T*S(tot)=    25.00 kcal/mol
 sn= 4  qrot/sn=   59528.8598 T*S(rot)=     7.40 kcal/mol T*S(tot)=    24.83 kcal/mol
 sn= 5  qrot/sn=   47623.0878 T*S(rot)=     7.27 kcal/mol T*S(tot)=    24.70 kcal/mol
 sn= 6  qrot/sn=   39685.9065 T*S(rot)=     7.16 kcal/mol T*S(tot)=    24.59 kcal/mol
 sn= 7  qrot/sn=   34016.4913 T*S(rot)=     7.07 kcal/mol T*S(tot)=    24.50 kcal/mol
 sn= 8  qrot/sn=   29764.4299 T*S(rot)=     6.99 kcal/mol T*S(tot)=    24.42 kcal/mol
 sn= 9  qrot/sn=   26457.2710 T*S(rot)=     6.92 kcal/mol T*S(tot)=    24.35 kcal/mol
 sn=10  qrot/sn=   23811.5439 T*S(rot)=     6.86 kcal/mol T*S(tot)=    24.29 kcal/mol
 sn=11  qrot/sn=   21646.8581 T*S(rot)=     6.80 kcal/mol T*S(tot)=    24.23 kcal/mol
 sn=12  qrot/sn=   19842.9533 T*S(rot)=     6.75 kcal/mol T*S(tot)=    24.18 kcal/mol

-------------------
GIBBS FREE ENTHALPY
-------------------

The Gibbs free enthalpy is G = H - T*S

Total enthalpy                    ...   -291.10674780 Eh
Total entropy correction          ...     -0.03984609 Eh    -25.00 kcal/mol
-----------------------------------------------------------------------
Final Gibbs free enthalpy         ...   -291.14659389 Eh

For completeness - the Gibbs free enthalpy minus the electronic energy
G-E(el)                           ...      0.16813500 Eh    105.51 kcal/mol

                             ****ORCA TERMINATED NORMALLY****
TOTAL RUN TIME: 0 days 0 hours 53 minutes 45 seconds 242 msec
