                         Program Version 3.0.3 - RELEASE   -
|  1> ! NORI PBE0 def2-TZVP UseSym TightOPT Freq TightSCF Grid3 FinalGrid5 XYZFile
|  2> % pal
|  3>     nprocs 8
|  4> end
|  5> %method
|  6>     SymThresh 5.0e-2
|  7> end
|  8> % geom
|  9>     MaxIter 10
| 10> end
| 11> % maxcore 2000
| 12> % output
| 13>     printlevel mini
| 14>     print[ P_Basis ] 0
| 15>     print[ P_SCFInfo ] 1
| 16>     print[ P_SCFIterInfo ] 1
| 17>     print[ P_OrbEn ] 0
| 18>     print[ P_Cartesian ] 0
| 19> end
| 20> % elprop
| 21>     Dipole false
| 22> end
| 23> *xyz 1 1
| 24>  C        1.0872485868     0.1332447646     0.6931200418
| 25>  C        2.3830974612     0.0295770642    -0.0796907771
| 26>  C        3.4835054612     1.0523787601     0.3086921062
| 27>  C        4.2661355553    -0.0803288495     0.9950484221
| 28>  C        4.3171360582    -0.0547629795     2.5020985087
| 29>  N        5.6975320410    -0.1899966894     0.4954570192
| 30>  C        3.3324446116    -1.1197750460     0.3515852525
| 31>  H        0.5550852577     1.0513918727     0.4340799058
| 32>  H        1.2493069352     0.1374954719     1.7748400888
| 33>  H        0.4311068819    -0.7083484150     0.4600105820
| 34>  H        2.1692846011     0.0239701995    -1.1490646515
| 35>  H        3.1877229073     1.8728715815     0.9635035430
| 36>  H        3.9958577898     1.4752541839    -0.5596887221
| 37>  H        3.3037898717     0.0230258694     2.8951733056
| 38>  H        4.8776228990     0.8074664094     2.8757853136
| 39>  H        4.7546119043    -0.9710349952     2.9102543843
| 40>  H        5.7292609668    -0.2049018170    -0.5254443160
| 41>  H        6.1398204702    -1.0463754046     0.8376555421
| 42>  H        6.2597125609     0.6017867333     0.8168162183
| 43>  H        3.7775469535    -1.6464187810    -0.4970434773
| 44>  H        2.9266102254    -1.8635199330     1.0389617101
| 45> *
| 46>
| 47>                          ****END OF INPUT****
 Total Charge           Charge          ....    1
 Multiplicity           Mult            ....    1
 Number of Electrons    NEL             ....   56
FINAL SINGLE POINT ENERGY      -291.316986165793

CARTESIAN COORDINATES (ANGSTROEM)
---------------------------------
  C     -2.446139    0.378608   -0.000000
  C     -1.060230    0.984039    0.000000
  C     -0.091996    0.450269    1.088848
  C      0.677694   -0.317165    0.000000
  C      0.539131   -1.819093    0.000000
  N      2.164310   -0.000587   -0.000000
  C     -0.091996    0.450269   -1.088848
  H     -3.006020    0.696719    0.881900
  H     -2.420337   -0.714356   -0.000000
  H     -3.006020    0.696719   -0.881900
  H     -1.138584    2.071506    0.000000
  H     -0.524816   -0.171581    1.873461
  H      0.492486    1.242799    1.564414
  H     -0.517785   -2.082837    0.000000
  H      0.986451   -2.268901    0.891525
  H      0.986451   -2.268901   -0.891525
  H      2.324029    1.008120   -0.000000
  H      2.622070   -0.392716   -0.826244
  H      2.622070   -0.392716    0.826244
  H      0.492486    1.242799   -1.564414
  H     -0.524816   -0.171581   -1.873461

FINAL SINGLE POINT ENERGY      -291.316987283703
                    ***********************HURRAY********************
 Multiplicity           Mult            ....    1
 Number of Electrons    NEL             ....   56
 Basis Dimension        Dim             ....  301
FINAL SINGLE POINT ENERGY      -291.316987430292

VIBRATIONAL FREQUENCIES
-----------------------

   0:         0.00 cm**-1
   1:         0.00 cm**-1
   2:         0.00 cm**-1
   3:         0.00 cm**-1
   4:         0.00 cm**-1
   5:         0.00 cm**-1
   6:        74.48 cm**-1
   7:       214.88 cm**-1
   8:       227.95 cm**-1
   9:       241.80 cm**-1
  10:       267.83 cm**-1
  11:       307.19 cm**-1
  12:       345.22 cm**-1
  13:       352.87 cm**-1
  14:       406.84 cm**-1
  15:       421.37 cm**-1
  16:       596.18 cm**-1
  17:       785.37 cm**-1
  18:       808.42 cm**-1
  19:       846.84 cm**-1
  20:       863.70 cm**-1
  21:       909.99 cm**-1
  22:       918.58 cm**-1
  23:       940.47 cm**-1
  24:       971.35 cm**-1
  25:       991.33 cm**-1
  26:       998.38 cm**-1
  27:      1087.66 cm**-1
  28:      1095.11 cm**-1
  29:      1145.71 cm**-1
  30:      1196.19 cm**-1
  31:      1227.33 cm**-1
  32:      1234.19 cm**-1
  33:      1257.66 cm**-1
  34:      1289.71 cm**-1
  35:      1299.92 cm**-1
  36:      1349.54 cm**-1
  37:      1373.45 cm**-1
  38:      1414.74 cm**-1
  39:      1422.41 cm**-1
  40:      1461.08 cm**-1
  41:      1472.08 cm**-1
  42:      1476.64 cm**-1
  43:      1480.33 cm**-1
  44:      1491.45 cm**-1
  45:      1493.35 cm**-1
  46:      1496.63 cm**-1
  47:      1650.76 cm**-1
  48:      1654.28 cm**-1
  49:      3046.86 cm**-1
  50:      3053.79 cm**-1
  51:      3068.11 cm**-1
  52:      3071.47 cm**-1
  53:      3105.26 cm**-1
  54:      3119.00 cm**-1
  55:      3129.48 cm**-1
  56:      3135.56 cm**-1
  57:      3137.74 cm**-1
  58:      3138.68 cm**-1
  59:      3162.32 cm**-1
  60:      3412.48 cm**-1
  61:      3499.33 cm**-1
  62:      3512.34 cm**-1

IR SPECTRUM
-----------

 Mode    freq (cm**-1)   T**2         TX         TY         TZ
-------------------------------------------------------------------
   6:        74.48    1.174450  (  0.146126  -1.073824   0.000001)
   7:       214.88    2.537841  (  0.000001   0.000003  -1.593060)
   8:       227.95    0.629539  (  0.000009  -0.000000   0.793435)
   9:       241.80    1.728533  (  0.000012   0.000009  -1.314737)
  10:       267.83    0.649451  ( -0.000024   0.000003  -0.805885)
  11:       307.19    4.366420  ( -2.071620   0.273515   0.000011)
  12:       345.22    6.499625  ( -0.381981  -2.520658  -0.000000)
  13:       352.87    0.195286  (  0.000048   0.000056  -0.441912)
  14:       406.84    2.433529  ( -0.000011  -0.000016  -1.559977)
  15:       421.37    3.057750  ( -1.361736   1.097007  -0.000002)
  16:       596.18    2.781322  ( -1.619760  -0.397116   0.000008)
  17:       785.37    1.135416  ( -0.848529   0.644526  -0.000001)
  18:       808.42    0.083035  (  0.000027   0.000006   0.288158)
  19:       846.84    1.885618  ( -1.290785  -0.468499  -0.000007)
  20:       863.70    6.753510  ( -2.517507  -0.644725   0.000018)
  21:       909.99    3.459249  (  0.000011  -0.000009   1.859906)
  22:       918.58    0.840806  (  0.000029   0.000004   0.916955)
  23:       940.47    3.635290  (  1.063695  -1.582354  -0.000014)
  24:       971.35    8.170850  (  1.926690   2.111567  -0.000009)
  25:       991.33    6.124009  ( -1.391567   2.046350  -0.000110)
  26:       998.38    4.262739  (  0.000064  -0.000129  -2.064640)
  27:      1087.66    3.735113  (  1.051057  -1.621848   0.000011)
  28:      1095.11    0.066684  ( -0.000122   0.000176  -0.258231)
  29:      1145.71    2.003273  (  0.000042  -0.000025  -1.415370)
  30:      1196.19   21.394031  (  4.594423   0.534145  -0.000010)
  31:      1227.33    1.655492  (  0.000228  -0.000148  -1.286659)
  32:      1234.19    4.404354  (  1.577239  -1.384440   0.000217)
  33:      1257.66    3.737348  ( -0.000021   0.000079   1.933222)
  34:      1289.71   18.763212  ( -4.127993   1.312588  -0.000063)
  35:      1299.92    4.014876  (  0.000060  -0.000001  -2.003715)
  36:      1349.54   12.548024  ( -2.048060   2.890238  -0.000015)
  37:      1373.45    2.265250  ( -1.316572   0.729306  -0.000004)
  38:      1414.74    1.015440  ( -0.379535   0.933484   0.000014)
  39:      1422.41   32.719815  ( -3.345210  -4.639977  -0.000017)
  40:      1461.08   23.252558  (  0.000076   0.000002  -4.822091)
  41:      1472.08   35.615711  ( -5.821250  -1.314822   0.000006)
  42:      1476.64   18.964736  ( -4.208725  -1.118648  -0.000043)
  43:      1480.33    0.053452  ( -0.000334  -0.000142  -0.231197)
  44:      1491.45    6.287115  ( -0.000283  -0.000372   2.507412)
  45:      1493.35   16.182578  ( -2.932742   2.753471   0.000195)
  46:      1496.63   92.942043  ( -9.279640  -2.613490  -0.000139)
  47:      1650.76   39.817084  (  0.000001   0.000006   6.310078)
  48:      1654.28   36.416028  (  0.674493  -5.996756   0.000008)
  49:      3046.86    6.577370  ( -2.057161   1.531489   0.000006)
  50:      3053.79    9.467076  (  2.059671   2.285789   0.000002)
  51:      3068.11   12.878830  ( -0.000022  -0.000013   3.588709)
  52:      3071.47   10.736761  ( -3.131013  -0.966187  -0.000003)
  53:      3105.26    1.400434  (  0.628676   1.002597  -0.000009)
  54:      3119.00    5.759292  (  0.000001   0.000000  -2.399852)
  55:      3129.48   15.910163  ( -2.520161   3.091755  -0.000014)
  56:      3135.56    0.249204  (  0.000012  -0.000004   0.499203)
  57:      3137.74   17.168966  ( -0.862122  -4.052865  -0.000012)
  58:      3138.68    7.784749  (  0.000002   0.000010   2.790116)
  59:      3162.32    0.613377  ( -0.697115   0.356943  -0.000000)
  60:      3412.48   33.252803  ( -5.760424  -0.265173   0.000000)
  61:      3499.33   71.129154  (  0.000000   0.000000   8.433810)
  62:      3512.34   65.419683  (  1.077700  -8.016124  -0.000000)

--------------------------
THERMOCHEMISTRY AT 298.15K
--------------------------

Temperature         ... 298.15 K
Pressure            ... 1.00 atm
Total Mass          ... 100.18 AMU

Throughout the following assumptions are being made:
  (1) The electronic state is orbitally nondegenerate
  (2) There are no thermally accessible electronically excited states
  (3) Hindered rotations indicated by low frequency modes) are not
      treated as such but are treated as vibrations and this may
      case some error
  (4) All equations used are the standard statistical mechanics
      equations for an ideal gas
  (5) All vibrations are strinctly harmonic

------------
INNER ENERGY
------------

The inner energy is: U= E(el) + E(ZPE) + E(vib) + E(rot) + E(trans)
    E(el)   - is the total energy from the electronic structure calculation
              = E(kin-el) + E(nuc-el) + E(el-el) + E(nuc-nuc)
    E(ZPE)  - the the zero temperature vibrational energy from the frequency calculation
    E(vib)  - the the finite temperature correction to E(ZPE) due to population
              of excietd vibrational states
    E(rot)  - is the rotational thermal energy
    E(trans)- is the translational thermal energy

Summary of contributions to the inner energy U:
Electronic energy                ...   -291.31698743 Eh
Zero point energy                ...      0.19855069 Eh     124.59 kcal/mol
Thermal vibrational correction   ...      0.00547122 Eh       3.43 kcal/mol
Thermal rotational correction    ...      0.00141627 Eh       0.89 kcal/mol
Thermal translational correction ...      0.00141627 Eh       0.89 kcal/mol
-----------------------------------------------------------------------
Total thermal energy                   -291.11013298 Eh

Summary of corrections to the electronic energy:
(perhaps to be used in another calculation)
Total thermal correction                  0.00830376 Eh       5.21 kcal/mol
Non-thermal (ZPE) correction              0.19855069 Eh     124.59 kcal/mol
-----------------------------------------------------------------------
Total correction                          0.20685445 Eh     129.80 kcal/mol

--------
ENTHALPY
--------

The enthalpy is H = U + kB*T
                kB is Boltzmann's constant
Total free energy                 ...   -291.11013298 Eh
Thermal Enthalpy correction       ...      0.00094421 Eh       0.59 kcal/mol
-----------------------------------------------------------------------
Total Enthalpy                    ...   -291.10918877 Eh

-------
ENTROPY
-------

The entropy contributions are T*S = T*(S(el)+S(vib)+S(rot)+S(trans)
     S(el)   - electronic entropy
     S(vib)  - vibrational entropy
     S(rot)  - rotational entropy
     S(trans)- translational entropy
The entropies will be listed as mutliplied by the temperature to get
units of energy

Electronic entropy                ...      0.00000000 Eh      0.00 kcal/mol
Vibrational entropy               ...      0.00918063 Eh      5.76 kcal/mol
Rotational entropy                ...      0.01203062 Eh      7.55 kcal/mol
Translational entropy             ...      0.01887386 Eh     11.84 kcal/mol
-----------------------------------------------------------------------
Final entropy term                ...      0.04008511 Eh     25.15 kcal/mol

CAUTION: The rotational entropy is not quite correctly treated here
         because it includes a symmetry number that is not yet correctly
         implemented in ORCA!
For a nonlinear molecule the correct rotational entropy is:
    S(rot) = R*(ln(qrot/sn)+1.5)
    R    = 8.31441 J/mol/K = 1.987191683e-3 kcal/mol/K
    qrot = 228769.4296677
    sn is the rotational symmetry number. We have assumed 3 here
       if it is different for your molecule then you should correct
       the printed rotational entropy by manually evaluating the equation
       as given above

For convenience we print out the resulting values for sn=1 - 12:
 sn= 1  qrot/sn=  228769.4297 T*S(rot)=     8.20 kcal/mol T*S(tot)=    25.80 kcal/mol
 sn= 2  qrot/sn=  114384.7148 T*S(rot)=     7.79 kcal/mol T*S(tot)=    25.39 kcal/mol
 sn= 3  qrot/sn=   76256.4766 T*S(rot)=     7.55 kcal/mol T*S(tot)=    25.15 kcal/mol
 sn= 4  qrot/sn=   57192.3574 T*S(rot)=     7.38 kcal/mol T*S(tot)=    24.98 kcal/mol
 sn= 5  qrot/sn=   45753.8859 T*S(rot)=     7.25 kcal/mol T*S(tot)=    24.85 kcal/mol
 sn= 6  qrot/sn=   38128.2383 T*S(rot)=     7.14 kcal/mol T*S(tot)=    24.74 kcal/mol
 sn= 7  qrot/sn=   32681.3471 T*S(rot)=     7.05 kcal/mol T*S(tot)=    24.65 kcal/mol
 sn= 8  qrot/sn=   28596.1787 T*S(rot)=     6.97 kcal/mol T*S(tot)=    24.57 kcal/mol
 sn= 9  qrot/sn=   25418.8255 T*S(rot)=     6.90 kcal/mol T*S(tot)=    24.50 kcal/mol
 sn=10  qrot/sn=   22876.9430 T*S(rot)=     6.84 kcal/mol T*S(tot)=    24.44 kcal/mol
 sn=11  qrot/sn=   20797.2209 T*S(rot)=     6.78 kcal/mol T*S(tot)=    24.38 kcal/mol
 sn=12  qrot/sn=   19064.1191 T*S(rot)=     6.73 kcal/mol T*S(tot)=    24.33 kcal/mol

-------------------
GIBBS FREE ENTHALPY
-------------------

The Gibbs free enthalpy is G = H - T*S

Total enthalpy                    ...   -291.10918877 Eh
Total entropy correction          ...     -0.04008511 Eh    -25.15 kcal/mol
-----------------------------------------------------------------------
Final Gibbs free enthalpy         ...   -291.14927387 Eh

For completeness - the Gibbs free enthalpy minus the electronic energy
G-E(el)                           ...      0.16771356 Eh    105.24 kcal/mol

                             ****ORCA TERMINATED NORMALLY****
TOTAL RUN TIME: 0 days 0 hours 58 minutes 10 seconds 586 msec
