                         Program Version 3.0.3 - RELEASE   -
|  1> ! NORI PBE0 def2-TZVP UseSym TightOPT Freq TightSCF Grid3 FinalGrid5 XYZFile
|  2> % pal
|  3>     nprocs 8
|  4> end
|  5> %method
|  6>     SymThresh 5.0e-2
|  7> end
|  8> % geom
|  9>     MaxIter 10
| 10> end
| 11> % maxcore 2000
| 12> % output
| 13>     printlevel mini
| 14>     print[ P_Basis ] 0
| 15>     print[ P_SCFInfo ] 1
| 16>     print[ P_SCFIterInfo ] 1
| 17>     print[ P_OrbEn ] 0
| 18>     print[ P_Cartesian ] 0
| 19> end
| 20> % elprop
| 21>     Dipole false
| 22> end
| 23> *xyz 1 1
| 24>  C        1.1060692539    -0.0743751644     0.8662468624
| 25>  C        2.2918653639     0.0996139078    -0.0568756337
| 26>  C        3.3162501244     1.1576936349     0.4180547123
| 27>  C        4.1892014161     0.0162436964     0.9795604194
| 28>  C        5.6706206483     0.1239941201     0.7515577851
| 29>  N        6.3383844721    -1.1793367502     1.1254275832
| 30>  C        3.3879819339    -0.9823892063     0.1123186286
| 31>  H        0.5109327190    -0.9444241139     0.5788246413
| 32>  H        0.4549829066     0.8018915726     0.8280169950
| 33>  H        1.4154239474    -0.2108411674     1.9072346576
| 34>  H        1.9488188435     0.2322779462    -1.0834745472
| 35>  H        2.9691504004     1.9061016145     1.1308848673
| 36>  H        3.8012792641     1.6684732363    -0.4170834090
| 37>  H        3.9885558593    -0.1312343130     2.0460087810
| 38>  H        6.1436460513     0.9029183306     1.3519211712
| 39>  H        5.9079579757     0.2938928066    -0.3001827446
| 40>  H        6.2167801968    -1.3771612119     2.1208446565
| 41>  H        7.3398012847    -1.1778683802     0.9231293869
| 42>  H        5.9076171476    -1.9488239048     0.6065818867
| 43>  H        3.8892547278    -1.1984102314    -0.8376762632
| 44>  H        3.0796854632    -1.9234364225     0.5731595630
| 45> *
| 46>
| 47>                          ****END OF INPUT****
 Total Charge           Charge          ....    1
 Multiplicity           Mult            ....    1
 Number of Electrons    NEL             ....   56
FINAL SINGLE POINT ENERGY      -291.309255565231
FINAL SINGLE POINT ENERGY      -291.309256823520

CARTESIAN COORDINATES (ANGSTROEM)
---------------------------------
  C      1.180288    0.000991   -2.457616
  C      0.038630    0.514860   -1.607335
  C     -0.837331   -0.596002   -0.980006
  C     -0.057577   -0.423296    0.340176
  C     -0.864581   -0.440588    1.607880
  N     -0.001269    0.002796    2.765983
  C      0.456933    0.939874   -0.176869
  H      1.861081    0.810958   -2.728213
  H      0.804196   -0.441329   -3.382500
  H      1.762985   -0.765403   -1.937496
  H     -0.519802    1.275121   -2.154405
  H     -0.804372   -1.581663   -1.444153
  H     -1.881957   -0.291290   -0.879090
  H      0.752682   -1.157031    0.406725
  H     -1.247368   -1.430672    1.861670
  H     -1.698773    0.262329    1.566510
  H      0.773456   -0.647608    2.911506
  H     -0.525231    0.071337    3.640186
  H      0.404115    0.919978    2.562187
  H     -0.151982    1.774833    0.187649
  H      1.512506    1.176329   -0.025157

FINAL SINGLE POINT ENERGY      -291.309257455718
                    ***********************HURRAY********************
 Multiplicity           Mult            ....    1
 Number of Electrons    NEL             ....   56
 Basis Dimension        Dim             ....  301
FINAL SINGLE POINT ENERGY      -291.309257616342

VIBRATIONAL FREQUENCIES
-----------------------

   0:         0.00 cm**-1
   1:         0.00 cm**-1
   2:         0.00 cm**-1
   3:         0.00 cm**-1
   4:         0.00 cm**-1
   5:         0.00 cm**-1
   6:        75.83 cm**-1
   7:       105.04 cm**-1
   8:       169.90 cm**-1
   9:       224.12 cm**-1
  10:       252.52 cm**-1
  11:       313.41 cm**-1
  12:       330.39 cm**-1
  13:       420.67 cm**-1
  14:       433.35 cm**-1
  15:       653.11 cm**-1
  16:       808.45 cm**-1
  17:       817.70 cm**-1
  18:       831.71 cm**-1
  19:       890.56 cm**-1
  20:       915.95 cm**-1
  21:       920.61 cm**-1
  22:       942.97 cm**-1
  23:       973.32 cm**-1
  24:      1006.68 cm**-1
  25:      1020.92 cm**-1
  26:      1056.18 cm**-1
  27:      1117.07 cm**-1
  28:      1141.45 cm**-1
  29:      1160.79 cm**-1
  30:      1213.50 cm**-1
  31:      1236.18 cm**-1
  32:      1260.75 cm**-1
  33:      1270.67 cm**-1
  34:      1283.59 cm**-1
  35:      1285.88 cm**-1
  36:      1341.76 cm**-1
  37:      1363.49 cm**-1
  38:      1375.17 cm**-1
  39:      1413.09 cm**-1
  40:      1414.57 cm**-1
  41:      1464.38 cm**-1
  42:      1484.69 cm**-1
  43:      1486.18 cm**-1
  44:      1492.69 cm**-1
  45:      1495.86 cm**-1
  46:      1499.46 cm**-1
  47:      1654.35 cm**-1
  48:      1663.34 cm**-1
  49:      3041.94 cm**-1
  50:      3046.57 cm**-1
  51:      3059.57 cm**-1
  52:      3076.89 cm**-1
  53:      3090.79 cm**-1
  54:      3102.06 cm**-1
  55:      3111.92 cm**-1
  56:      3124.57 cm**-1
  57:      3134.57 cm**-1
  58:      3142.28 cm**-1
  59:      3151.12 cm**-1
  60:      3418.57 cm**-1
  61:      3497.63 cm**-1
  62:      3513.82 cm**-1

IR SPECTRUM
-----------

 Mode    freq (cm**-1)   T**2         TX         TY         TZ
-------------------------------------------------------------------
   6:        75.83    3.732263  ( -1.447068   1.277421   0.080336)
   7:       105.04   11.698984  (  0.763024   2.091013  -2.597007)
   8:       169.90    6.023735  (  1.688581  -0.045050  -1.780562)
   9:       224.12    0.351247  ( -0.576370  -0.133090  -0.036504)
  10:       252.52    0.351944  ( -0.039149   0.027546   0.591314)
  11:       313.41    4.196993  (  0.034887  -0.371964  -2.014303)
  12:       330.39    3.502407  (  0.245496  -0.461043  -1.797103)
  13:       420.67    1.824471  (  0.334518  -0.600377  -1.162805)
  14:       433.35    7.663373  ( -0.013775   0.127170   2.765323)
  15:       653.11    0.455220  (  0.402481  -0.532217  -0.099874)
  16:       808.45    4.435409  ( -0.354198   1.588036  -1.337197)
  17:       817.70    0.105232  ( -0.249743  -0.203991   0.035330)
  18:       831.71    8.442587  ( -0.166651  -1.993870   2.106964)
  19:       890.56   18.725158  (  1.488190  -1.706513  -3.687582)
  20:       915.95    5.618603  ( -0.681612   0.265614  -2.254652)
  21:       920.61    1.924549  (  0.029518   0.602865  -1.249092)
  22:       942.97    2.982057  ( -0.030199   0.120699  -1.722375)
  23:       973.32    5.881635  (  1.152231   1.567306  -1.448292)
  24:      1006.68    2.534114  ( -1.562995   0.286182  -0.096229)
  25:      1020.92   10.374898  ( -1.430850   0.849380   2.757919)
  26:      1056.18    1.435592  ( -0.577340  -0.421644  -0.961503)
  27:      1117.07    5.985978  ( -2.047388  -0.893245  -0.998146)
  28:      1141.45    2.153980  ( -0.911674  -0.702719   0.910504)
  29:      1160.79    8.700858  ( -1.075944  -0.718496   2.650843)
  30:      1213.50    1.807362  (  0.668527  -0.169218  -1.154036)
  31:      1236.18    2.023157  (  0.238202   0.131603   1.396101)
  32:      1260.75    4.059824  (  1.499109  -1.345016  -0.058547)
  33:      1270.67    1.574928  ( -0.931311  -0.831380  -0.128043)
  34:      1283.59    3.606008  ( -0.524063   1.391450  -1.181200)
  35:      1285.88    0.892342  ( -0.796023  -0.469164   0.196407)
  36:      1341.76    1.950658  ( -0.154346   1.386665   0.063207)
  37:      1363.49   14.709516  ( -0.627856  -1.666198   3.396925)
  38:      1375.17    0.623777  ( -0.050549  -0.472045   0.631186)
  39:      1413.09   12.019835  ( -0.397568   0.682252   3.375842)
  40:      1414.57    7.239334  ( -2.397243   1.076692  -0.577316)
  41:      1464.38   12.405026  ( -2.269133  -2.264107  -1.459412)
  42:      1484.69    1.662182  (  0.149144  -0.926209   0.884350)
  43:      1486.18    6.924937  (  1.687427   0.254974   2.003126)
  44:      1492.69    8.389176  ( -1.391847  -2.261352   1.156818)
  45:      1495.86  106.337310  (  2.583752   3.292762   9.424397)
  46:      1499.46   68.498313  (  6.241570   1.371880   5.259188)
  47:      1654.35   49.591768  ( -2.016809   6.708927  -0.717321)
  48:      1663.34   32.934664  ( -3.812732  -0.949538   4.182836)
  49:      3041.94   28.156633  ( -0.234766   3.509310   3.973193)
  50:      3046.57    7.548189  (  2.716068  -0.413381   0.016688)
  51:      3059.57    9.170723  (  0.930154  -2.718483   0.956758)
  52:      3076.89   12.493625  (  3.354920   1.099776   0.169208)
  53:      3090.79    4.436848  ( -1.794601  -0.113500   1.096984)
  54:      3102.06    0.814922  (  0.543952  -0.705488   0.146031)
  55:      3111.92   16.055798  ( -3.849264  -0.542203   0.972101)
  56:      3124.57   30.333065  ( -2.010740   3.185077  -4.018118)
  57:      3134.57    8.998714  (  2.179907   1.709251   1.151165)
  58:      3142.28   11.694109  ( -1.133237   2.973857   1.251422)
  59:      3151.12    2.491564  (  0.638180  -1.363922   0.473293)
  60:      3418.57   31.309895  (  2.950454   2.121302   4.254973)
  61:      3497.63   98.332857  (  0.093938   8.010944  -5.843699)
  62:      3513.82   97.886362  (  7.708792  -2.652451  -5.605835)

--------------------------
THERMOCHEMISTRY AT 298.15K
--------------------------

Temperature         ... 298.15 K
Pressure            ... 1.00 atm
Total Mass          ... 100.18 AMU

Throughout the following assumptions are being made:
  (1) The electronic state is orbitally nondegenerate
  (2) There are no thermally accessible electronically excited states
  (3) Hindered rotations indicated by low frequency modes) are not
      treated as such but are treated as vibrations and this may
      case some error
  (4) All equations used are the standard statistical mechanics
      equations for an ideal gas
  (5) All vibrations are strinctly harmonic

------------
INNER ENERGY
------------

The inner energy is: U= E(el) + E(ZPE) + E(vib) + E(rot) + E(trans)
    E(el)   - is the total energy from the electronic structure calculation
              = E(kin-el) + E(nuc-el) + E(el-el) + E(nuc-nuc)
    E(ZPE)  - the the zero temperature vibrational energy from the frequency calculation
    E(vib)  - the the finite temperature correction to E(ZPE) due to population
              of excietd vibrational states
    E(rot)  - is the rotational thermal energy
    E(trans)- is the translational thermal energy

Summary of contributions to the inner energy U:
Electronic energy                ...   -291.30925762 Eh
Zero point energy                ...      0.20001073 Eh     125.51 kcal/mol
Thermal vibrational correction   ...      0.00539442 Eh       3.39 kcal/mol
Thermal rotational correction    ...      0.00141627 Eh       0.89 kcal/mol
Thermal translational correction ...      0.00141627 Eh       0.89 kcal/mol
-----------------------------------------------------------------------
Total thermal energy                   -291.10101992 Eh

Summary of corrections to the electronic energy:
(perhaps to be used in another calculation)
Total thermal correction                  0.00822696 Eh       5.16 kcal/mol
Non-thermal (ZPE) correction              0.20001073 Eh     125.51 kcal/mol
-----------------------------------------------------------------------
Total correction                          0.20823770 Eh     130.67 kcal/mol

--------
ENTHALPY
--------

The enthalpy is H = U + kB*T
                kB is Boltzmann's constant
Total free energy                 ...   -291.10101992 Eh
Thermal Enthalpy correction       ...      0.00094421 Eh       0.59 kcal/mol
-----------------------------------------------------------------------
Total Enthalpy                    ...   -291.10007571 Eh

-------
ENTROPY
-------

The entropy contributions are T*S = T*(S(el)+S(vib)+S(rot)+S(trans)
     S(el)   - electronic entropy
     S(vib)  - vibrational entropy
     S(rot)  - rotational entropy
     S(trans)- translational entropy
The entropies will be listed as mutliplied by the temperature to get
units of energy

Electronic entropy                ...      0.00000000 Eh      0.00 kcal/mol
Vibrational entropy               ...      0.00956502 Eh      6.00 kcal/mol
Rotational entropy                ...      0.01214638 Eh      7.62 kcal/mol
Translational entropy             ...      0.01887386 Eh     11.84 kcal/mol
-----------------------------------------------------------------------
Final entropy term                ...      0.04058525 Eh     25.47 kcal/mol

CAUTION: The rotational entropy is not quite correctly treated here
         because it includes a symmetry number that is not yet correctly
         implemented in ORCA!
For a nonlinear molecule the correct rotational entropy is:
    S(rot) = R*(ln(qrot/sn)+1.5)
    R    = 8.31441 J/mol/K = 1.987191683e-3 kcal/mol/K
    qrot = 258608.7437664
    sn is the rotational symmetry number. We have assumed 3 here
       if it is different for your molecule then you should correct
       the printed rotational entropy by manually evaluating the equation
       as given above

For convenience we print out the resulting values for sn=1 - 12:
 sn= 1  qrot/sn=  258608.7438 T*S(rot)=     8.27 kcal/mol T*S(tot)=    26.12 kcal/mol
 sn= 2  qrot/sn=  129304.3719 T*S(rot)=     7.86 kcal/mol T*S(tot)=    25.71 kcal/mol
 sn= 3  qrot/sn=   86202.9146 T*S(rot)=     7.62 kcal/mol T*S(tot)=    25.47 kcal/mol
 sn= 4  qrot/sn=   64652.1859 T*S(rot)=     7.45 kcal/mol T*S(tot)=    25.30 kcal/mol
 sn= 5  qrot/sn=   51721.7488 T*S(rot)=     7.32 kcal/mol T*S(tot)=    25.16 kcal/mol
 sn= 6  qrot/sn=   43101.4573 T*S(rot)=     7.21 kcal/mol T*S(tot)=    25.06 kcal/mol
 sn= 7  qrot/sn=   36944.1063 T*S(rot)=     7.12 kcal/mol T*S(tot)=    24.97 kcal/mol
 sn= 8  qrot/sn=   32326.0930 T*S(rot)=     7.04 kcal/mol T*S(tot)=    24.89 kcal/mol
 sn= 9  qrot/sn=   28734.3049 T*S(rot)=     6.97 kcal/mol T*S(tot)=    24.82 kcal/mol
 sn=10  qrot/sn=   25860.8744 T*S(rot)=     6.91 kcal/mol T*S(tot)=    24.75 kcal/mol
 sn=11  qrot/sn=   23509.8858 T*S(rot)=     6.85 kcal/mol T*S(tot)=    24.70 kcal/mol
 sn=12  qrot/sn=   21550.7286 T*S(rot)=     6.80 kcal/mol T*S(tot)=    24.65 kcal/mol

-------------------
GIBBS FREE ENTHALPY
-------------------

The Gibbs free enthalpy is G = H - T*S

Total enthalpy                    ...   -291.10007571 Eh
Total entropy correction          ...     -0.04058525 Eh    -25.47 kcal/mol
-----------------------------------------------------------------------
Final Gibbs free enthalpy         ...   -291.14066097 Eh

For completeness - the Gibbs free enthalpy minus the electronic energy
G-E(el)                           ...      0.16859665 Eh    105.80 kcal/mol

                             ****ORCA TERMINATED NORMALLY****
TOTAL RUN TIME: 0 days 0 hours 58 minutes 16 seconds 821 msec
