                         Program Version 3.0.3 - RELEASE   -
|  1> ! NORI PBE0 def2-TZVP UseSym TightOPT Freq TightSCF Grid3 FinalGrid5 XYZFile
|  2> % pal
|  3>     nprocs 8
|  4> end
|  5> %method
|  6>     SymThresh 5.0e-2
|  7> end
|  8> % geom
|  9>     MaxIter 10
| 10> end
| 11> % maxcore 2000
| 12> % output
| 13>     printlevel mini
| 14>     print[ P_Basis ] 0
| 15>     print[ P_SCFInfo ] 1
| 16>     print[ P_SCFIterInfo ] 1
| 17>     print[ P_OrbEn ] 0
| 18>     print[ P_Cartesian ] 0
| 19> end
| 20> % elprop
| 21>     Dipole false
| 22> end
| 23> *xyz 1 1
| 24>  C        1.0640971448    -0.1354182517     0.3261587552
| 25>  C        2.4608869108     0.2100294880    -0.1403515902
| 26>  C        3.1653079474     1.2762997649     0.7239327776
| 27>  C        3.8813055177     0.1604809666     1.4859194831
| 28>  N        3.4571250697    -0.8483286314     0.4443292217
| 29>  C        2.5625478506     0.2711753870    -1.6253648048
| 30>  C        2.9976163527     1.3120813870    -2.3197192728
| 31>  H        0.6935381092    -1.0394215680    -0.1629192416
| 32>  H        0.3968038124     0.6848039132     0.0562250671
| 33>  H        1.0114521624    -0.2652329429     1.4105054446
| 34>  H        2.5008625745     1.9052767893     1.3117622975
| 35>  H        3.8528776315     1.9059560802     0.1625745190
| 36>  H        4.9627572923     0.2165745798     1.5848794254
| 37>  H        3.4364709703    -0.1009194229     2.4430084229
| 38>  H        4.1974235118    -1.0731396802    -0.2189280006
| 39>  H        3.0460047372    -1.7153407737     0.7874278879
| 40>  H        2.1868828927    -0.6075700080    -2.1473698423
| 41>  H        3.3460500488     2.2265747858    -1.8534782393
| 42>  H        2.9950494632     1.2938181369    -3.4028823103
| 43> *
| 44>
| 45>                          ****END OF INPUT****
 Total Charge           Charge          ....    1
 Multiplicity           Mult            ....    1
 Number of Electrons    NEL             ....   54
FINAL SINGLE POINT ENERGY      -290.085137744155
FINAL SINGLE POINT ENERGY      -290.085139530413
FINAL SINGLE POINT ENERGY      -290.085141713790
FINAL SINGLE POINT ENERGY      -290.085143037813
FINAL SINGLE POINT ENERGY      -290.085144104998

CARTESIAN COORDINATES (ANGSTROEM)
---------------------------------
  C      1.823453   -0.003689   -0.268622
  C      0.323446    0.089803   -0.095493
  C     -0.412490   -1.254053   -0.277130
  C     -0.401471   -1.443549    1.239549
  N     -0.005112    0.000867    1.434137
  C     -0.239354    1.333148   -0.691997
  C     -1.204184    1.376556   -1.598603
  H      2.321742    0.900899    0.087984
  H      2.042715   -0.105938   -1.332461
  H      2.245191   -0.872165    0.244231
  H      0.124679   -2.000811   -0.856882
  H     -1.419504   -1.144489   -0.674925
  H     -1.337361   -1.683820    1.737959
  H      0.391523   -2.086996    1.613787
  H     -0.791352    0.599356    1.683955
  H      0.765981    0.183599    2.074768
  H      0.245385    2.255187   -0.375011
  H     -1.694963    0.487819   -1.979104
  H     -1.524860    2.321782   -2.019238

FINAL SINGLE POINT ENERGY      -290.085144490078
                    ***********************HURRAY********************
 Multiplicity           Mult            ....    1
 Number of Electrons    NEL             ....   54
 Basis Dimension        Dim             ....  289
FINAL SINGLE POINT ENERGY      -290.085144606341

VIBRATIONAL FREQUENCIES
-----------------------

   0:         0.00 cm**-1
   1:         0.00 cm**-1
   2:         0.00 cm**-1
   3:         0.00 cm**-1
   4:         0.00 cm**-1
   5:         0.00 cm**-1
   6:        91.34 cm**-1
   7:       119.03 cm**-1
   8:       249.73 cm**-1
   9:       276.19 cm**-1
  10:       304.48 cm**-1
  11:       337.11 cm**-1
  12:       367.92 cm**-1
  13:       501.47 cm**-1
  14:       611.86 cm**-1
  15:       684.01 cm**-1
  16:       723.88 cm**-1
  17:       798.84 cm**-1
  18:       838.21 cm**-1
  19:       897.70 cm**-1
  20:       932.97 cm**-1
  21:       946.06 cm**-1
  22:       971.99 cm**-1
  23:      1014.63 cm**-1
  24:      1017.82 cm**-1
  25:      1026.29 cm**-1
  26:      1041.18 cm**-1
  27:      1075.58 cm**-1
  28:      1123.51 cm**-1
  29:      1218.74 cm**-1
  30:      1228.22 cm**-1
  31:      1264.35 cm**-1
  32:      1279.10 cm**-1
  33:      1303.23 cm**-1
  34:      1334.73 cm**-1
  35:      1346.60 cm**-1
  36:      1350.88 cm**-1
  37:      1415.28 cm**-1
  38:      1455.94 cm**-1
  39:      1476.74 cm**-1
  40:      1483.93 cm**-1
  41:      1491.45 cm**-1
  42:      1502.61 cm**-1
  43:      1634.02 cm**-1
  44:      1722.01 cm**-1
  45:      3054.23 cm**-1
  46:      3125.06 cm**-1
  47:      3130.33 cm**-1
  48:      3133.51 cm**-1
  49:      3150.36 cm**-1
  50:      3152.56 cm**-1
  51:      3172.33 cm**-1
  52:      3181.65 cm**-1
  53:      3198.87 cm**-1
  54:      3260.58 cm**-1
  55:      3461.69 cm**-1
  56:      3540.43 cm**-1

IR SPECTRUM
-----------

 Mode    freq (cm**-1)   T**2         TX         TY         TZ
-------------------------------------------------------------------
   6:        91.34    1.394294  ( -0.872225   0.650676  -0.458409)
   7:       119.03    1.505487  ( -1.127954   0.200916  -0.439135)
   8:       249.73    0.558523  (  0.746693  -0.020131  -0.023820)
   9:       276.19    0.074755  (  0.065678   0.225237   0.140391)
  10:       304.48    0.744732  (  0.432940  -0.732456   0.144232)
  11:       337.11    1.368841  (  1.169408  -0.035409   0.008525)
  12:       367.92    0.575140  ( -0.319058   0.530504  -0.438073)
  13:       501.47    0.493743  ( -0.612850   0.294054  -0.178015)
  14:       611.86    2.214465  (  1.400572   0.446501  -0.231303)
  15:       684.01    3.761752  ( -1.124632   0.584548   1.468080)
  16:       723.88   15.369177  ( -2.582706  -0.705203   2.863826)
  17:       798.84   14.883469  (  0.237435   1.175327  -3.666838)
  18:       838.21    8.071052  ( -1.713104   1.481684  -1.714917)
  19:       897.70    5.508120  (  1.539473   1.126915  -1.366823)
  20:       932.97    2.639791  ( -0.351934   1.482197  -0.564823)
  21:       946.06    2.985295  ( -0.184731   1.335192   1.080940)
  22:       971.99    6.045357  ( -0.634173  -2.234231  -0.807090)
  23:      1014.63   37.690075  (  3.933449   0.191266  -4.709721)
  24:      1017.82   17.389857  (  2.631190  -0.440278  -3.205129)
  25:      1026.29    2.769927  ( -0.302181   0.827907  -1.411801)
  26:      1041.18    3.346446  ( -1.017099   0.652467   1.373405)
  27:      1075.58   14.769323  (  0.594867   0.716872  -3.728478)
  28:      1123.51   21.409780  (  0.211864  -0.702559   4.568512)
  29:      1218.74    2.353961  ( -1.281287   0.751613  -0.383852)
  30:      1228.22   39.376576  (  0.950690   3.734388  -4.952486)
  31:      1264.35    2.524902  ( -0.570925   0.766637  -1.269336)
  32:      1279.10   37.400953  ( -3.809112  -2.795600   3.882813)
  33:      1303.23    1.083188  (  0.056396  -0.941890  -0.439147)
  34:      1334.73   23.654509  ( -0.587966  -3.299016   3.524954)
  35:      1346.60    5.873382  ( -0.152819   2.372202  -0.471895)
  36:      1350.88   22.405368  ( -0.223571   3.531556  -3.143803)
  37:      1415.28   15.419413  ( -3.718698   1.210380   0.354517)
  38:      1455.94   26.198556  ( -3.516702   0.850472  -3.620505)
  39:      1476.74   18.873427  (  0.760180   2.421623   3.525804)
  40:      1483.93    4.383154  ( -1.261042  -0.933412  -1.386242)
  41:      1491.45    3.453764  ( -0.451007   1.276561  -1.273086)
  42:      1502.61   10.518444  ( -0.498868  -3.077580   0.893350)
  43:      1634.02   56.580301  (  0.547669  -3.896456  -6.410771)
  44:      1722.01    0.609179  (  0.155958  -0.751255   0.143079)
  45:      3054.23    3.546120  ( -0.855937   0.455231  -1.614391)
  46:      3125.06    1.177873  ( -0.826409  -0.235007  -0.663093)
  47:      3130.33    0.640125  ( -0.030491  -0.013609  -0.799381)
  48:      3133.51    6.522325  (  0.254945  -2.404051   0.823327)
  49:      3150.36    1.003659  (  0.922805  -0.387400   0.044857)
  50:      3152.56    1.725169  ( -0.954763  -0.821435  -0.372614)
  51:      3172.33    1.575159  (  0.154845  -1.193023   0.357599)
  52:      3181.65    0.248378  ( -0.492324  -0.030270  -0.071262)
  53:      3198.87    0.248436  (  0.219509   0.414092  -0.169646)
  54:      3260.58    0.268478  ( -0.421142   0.028511  -0.300508)
  55:      3461.69   51.803010  ( -0.029799   4.099999   5.915415)
  56:      3540.43   70.161705  (  7.791765  -2.461323   1.841735)

--------------------------
THERMOCHEMISTRY AT 298.15K
--------------------------

Temperature         ... 298.15 K
Pressure            ... 1.00 atm
Total Mass          ... 98.17 AMU

Throughout the following assumptions are being made:
  (1) The electronic state is orbitally nondegenerate
  (2) There are no thermally accessible electronically excited states
  (3) Hindered rotations indicated by low frequency modes) are not
      treated as such but are treated as vibrations and this may
      case some error
  (4) All equations used are the standard statistical mechanics
      equations for an ideal gas
  (5) All vibrations are strinctly harmonic

------------
INNER ENERGY
------------

The inner energy is: U= E(el) + E(ZPE) + E(vib) + E(rot) + E(trans)
    E(el)   - is the total energy from the electronic structure calculation
              = E(kin-el) + E(nuc-el) + E(el-el) + E(nuc-nuc)
    E(ZPE)  - the the zero temperature vibrational energy from the frequency calculation
    E(vib)  - the the finite temperature correction to E(ZPE) due to population
              of excietd vibrational states
    E(rot)  - is the rotational thermal energy
    E(trans)- is the translational thermal energy

Summary of contributions to the inner energy U:
Electronic energy                ...   -290.08514461 Eh
Zero point energy                ...      0.17546727 Eh     110.11 kcal/mol
Thermal vibrational correction   ...      0.00477192 Eh       2.99 kcal/mol
Thermal rotational correction    ...      0.00141627 Eh       0.89 kcal/mol
Thermal translational correction ...      0.00141627 Eh       0.89 kcal/mol
-----------------------------------------------------------------------
Total thermal energy                   -289.90207288 Eh

Summary of corrections to the electronic energy:
(perhaps to be used in another calculation)
Total thermal correction                  0.00760446 Eh       4.77 kcal/mol
Non-thermal (ZPE) correction              0.17546727 Eh     110.11 kcal/mol
-----------------------------------------------------------------------
Total correction                          0.18307173 Eh     114.88 kcal/mol

--------
ENTHALPY
--------

The enthalpy is H = U + kB*T
                kB is Boltzmann's constant
Total free energy                 ...   -289.90207288 Eh
Thermal Enthalpy correction       ...      0.00094421 Eh       0.59 kcal/mol
-----------------------------------------------------------------------
Total Enthalpy                    ...   -289.90112867 Eh

-------
ENTROPY
-------

The entropy contributions are T*S = T*(S(el)+S(vib)+S(rot)+S(trans)
     S(el)   - electronic entropy
     S(vib)  - vibrational entropy
     S(rot)  - rotational entropy
     S(trans)- translational entropy
The entropies will be listed as mutliplied by the temperature to get
units of energy

Electronic entropy                ...      0.00000000 Eh      0.00 kcal/mol
Vibrational entropy               ...      0.00812045 Eh      5.10 kcal/mol
Rotational entropy                ...      0.01197149 Eh      7.51 kcal/mol
Translational entropy             ...      0.01884507 Eh     11.83 kcal/mol
-----------------------------------------------------------------------
Final entropy term                ...      0.03893701 Eh     24.43 kcal/mol

CAUTION: The rotational entropy is not quite correctly treated here
         because it includes a symmetry number that is not yet correctly
         implemented in ORCA!
For a nonlinear molecule the correct rotational entropy is:
    S(rot) = R*(ln(qrot/sn)+1.5)
    R    = 8.31441 J/mol/K = 1.987191683e-3 kcal/mol/K
    qrot = 214883.2354929
    sn is the rotational symmetry number. We have assumed 3 here
       if it is different for your molecule then you should correct
       the printed rotational entropy by manually evaluating the equation
       as given above

For convenience we print out the resulting values for sn=1 - 12:
 sn= 1  qrot/sn=  214883.2355 T*S(rot)=     8.16 kcal/mol T*S(tot)=    25.08 kcal/mol
 sn= 2  qrot/sn=  107441.6177 T*S(rot)=     7.75 kcal/mol T*S(tot)=    24.67 kcal/mol
 sn= 3  qrot/sn=   71627.7452 T*S(rot)=     7.51 kcal/mol T*S(tot)=    24.43 kcal/mol
 sn= 4  qrot/sn=   53720.8089 T*S(rot)=     7.34 kcal/mol T*S(tot)=    24.26 kcal/mol
 sn= 5  qrot/sn=   42976.6471 T*S(rot)=     7.21 kcal/mol T*S(tot)=    24.13 kcal/mol
 sn= 6  qrot/sn=   35813.8726 T*S(rot)=     7.10 kcal/mol T*S(tot)=    24.02 kcal/mol
 sn= 7  qrot/sn=   30697.6051 T*S(rot)=     7.01 kcal/mol T*S(tot)=    23.93 kcal/mol
 sn= 8  qrot/sn=   26860.4044 T*S(rot)=     6.93 kcal/mol T*S(tot)=    23.85 kcal/mol
 sn= 9  qrot/sn=   23875.9151 T*S(rot)=     6.86 kcal/mol T*S(tot)=    23.78 kcal/mol
 sn=10  qrot/sn=   21488.3235 T*S(rot)=     6.80 kcal/mol T*S(tot)=    23.72 kcal/mol
 sn=11  qrot/sn=   19534.8396 T*S(rot)=     6.74 kcal/mol T*S(tot)=    23.66 kcal/mol
 sn=12  qrot/sn=   17906.9363 T*S(rot)=     6.69 kcal/mol T*S(tot)=    23.61 kcal/mol

-------------------
GIBBS FREE ENTHALPY
-------------------

The Gibbs free enthalpy is G = H - T*S

Total enthalpy                    ...   -289.90112867 Eh
Total entropy correction          ...     -0.03893701 Eh    -24.43 kcal/mol
-----------------------------------------------------------------------
Final Gibbs free enthalpy         ...   -289.94006568 Eh

For completeness - the Gibbs free enthalpy minus the electronic energy
G-E(el)                           ...      0.14507893 Eh     91.04 kcal/mol

                             ****ORCA TERMINATED NORMALLY****
TOTAL RUN TIME: 0 days 1 hours 0 minutes 18 seconds 883 msec
