                         Program Version 3.0.3 - RELEASE   -
|  1> ! NORI PBE0 def2-TZVP UseSym TightOPT Freq TightSCF Grid3 FinalGrid5 XYZFile
|  2> % pal
|  3>     nprocs 8
|  4> end
|  5> %method
|  6>     SymThresh 5.0e-2
|  7> end
|  8> % geom
|  9>     MaxIter 10
| 10> end
| 11> % maxcore 2000
| 12> % output
| 13>     printlevel mini
| 14>     print[ P_Basis ] 0
| 15>     print[ P_SCFInfo ] 1
| 16>     print[ P_SCFIterInfo ] 1
| 17>     print[ P_OrbEn ] 0
| 18>     print[ P_Cartesian ] 0
| 19> end
| 20> % elprop
| 21>     Dipole false
| 22> end
| 23> *xyz 1 1
| 24>  C        1.1426686227    -0.0432188226     0.4138594048
| 25>  C        2.5731160576     0.1753890483    -0.0286148276
| 26>  C        3.3481335230     1.2430839985     0.7906890467
| 27>  C        3.9984563958     0.1199913180     1.6009383635
| 28>  N        3.4952132611    -0.9075754169     0.6113850780
| 29>  C        2.7330749503     0.2053179608    -1.4615907643
| 30>  C        2.8738880703     0.2415385598    -2.6517742869
| 31>  H        0.7238309578    -0.9459254703    -0.0345407457
| 32>  H        0.5444694253     0.8054661057     0.0791069006
| 33>  H        1.0667308203    -0.1007724200     1.5028429861
| 34>  H        2.7169473779     1.9332407827     1.3456782225
| 35>  H        4.0559450194     1.8028118085     0.1827361001
| 36>  H        5.0824663388     0.1089330118     1.6846071859
| 37>  H        3.5501499080    -0.0660095177     2.5739657014
| 38>  H        4.2095038370    -1.2243694133    -0.0434854271
| 39>  H        3.0160540021    -1.7222175836     0.9939277263
| 40>  H        2.9915514326     0.2781760501    -3.7127606643
| 41> *
| 42>
| 43>                          ****END OF INPUT****
 Total Charge           Charge          ....    1
 Multiplicity           Mult            ....    1
 Number of Electrons    NEL             ....   52
FINAL SINGLE POINT ENERGY      -288.827447343105

CARTESIAN COORDINATES (ANGSTROEM)
---------------------------------
  C      1.747487   -0.000097   -0.451344
  C      0.258358    0.012314   -0.182068
  C     -0.424069   -1.380868   -0.253903
  C     -0.367298   -1.465048    1.272447
  N     -0.000473    0.000080    1.356130
  C     -0.429776    1.113116   -0.810252
  C     -1.011559    2.019589   -1.337089
  H      2.208181    0.948028   -0.168391
  H      1.903028   -0.141811   -1.521521
  H      2.240346   -0.822733    0.072929
  H      0.141109   -2.133712   -0.798245
  H     -1.437539   -1.329595   -0.646318
  H     -1.286483   -1.686482    1.808778
  H      0.447679   -2.064809    1.671309
  H     -0.784578    0.601304    1.607872
  H      0.800192    0.243876    1.938258
  H     -1.524283    2.826159   -1.813600

FINAL SINGLE POINT ENERGY      -288.827447927779
                    ***********************HURRAY********************
 Multiplicity           Mult            ....    1
 Number of Electrons    NEL             ....   52
 Basis Dimension        Dim             ....  277
FINAL SINGLE POINT ENERGY      -288.827448117771

VIBRATIONAL FREQUENCIES
-----------------------

   0:         0.00 cm**-1
   1:         0.00 cm**-1
   2:         0.00 cm**-1
   3:         0.00 cm**-1
   4:         0.00 cm**-1
   5:         0.00 cm**-1
   6:        91.63 cm**-1
   7:       167.93 cm**-1
   8:       179.02 cm**-1
   9:       272.85 cm**-1
  10:       327.44 cm**-1
  11:       351.45 cm**-1
  12:       517.66 cm**-1
  13:       520.00 cm**-1
  14:       597.29 cm**-1
  15:       726.14 cm**-1
  16:       727.48 cm**-1
  17:       772.36 cm**-1
  18:       808.49 cm**-1
  19:       837.01 cm**-1
  20:       896.09 cm**-1
  21:       931.58 cm**-1
  22:       951.54 cm**-1
  23:       973.08 cm**-1
  24:      1012.87 cm**-1
  25:      1065.59 cm**-1
  26:      1125.25 cm**-1
  27:      1199.45 cm**-1
  28:      1222.28 cm**-1
  29:      1259.41 cm**-1
  30:      1284.32 cm**-1
  31:      1294.45 cm**-1
  32:      1340.36 cm**-1
  33:      1348.75 cm**-1
  34:      1414.80 cm**-1
  35:      1472.81 cm**-1
  36:      1484.15 cm**-1
  37:      1489.33 cm**-1
  38:      1501.77 cm**-1
  39:      1632.91 cm**-1
  40:      2246.99 cm**-1
  41:      3059.93 cm**-1
  42:      3127.13 cm**-1
  43:      3131.81 cm**-1
  44:      3144.34 cm**-1
  45:      3158.31 cm**-1
  46:      3185.81 cm**-1
  47:      3201.49 cm**-1
  48:      3453.02 cm**-1
  49:      3459.19 cm**-1
  50:      3536.40 cm**-1

IR SPECTRUM
-----------

 Mode    freq (cm**-1)   T**2         TX         TY         TZ
-------------------------------------------------------------------
   6:        91.63    0.326127  (  0.531967   0.095207   0.184590)
   7:       167.93    3.458743  ( -0.765278   1.604292   0.547121)
   8:       179.02    2.334280  (  1.507066   0.251025   0.004197)
   9:       272.85    0.421036  (  0.144809   0.622875   0.109971)
  10:       327.44    2.246271  (  1.176130   0.755724   0.540252)
  11:       351.45    2.921386  ( -1.695697  -0.056041  -0.207019)
  12:       517.66   13.229100  ( -2.243269  -0.405831   2.834104)
  13:       520.00   10.992884  (  1.852019   2.212373   1.633497)
  14:       597.29    1.404640  (  0.669628   0.094465  -0.973301)
  15:       726.14   43.276434  (  5.671282   3.202497  -0.925750)
  16:       727.48    3.885692  (  0.612104   0.898851   1.644107)
  17:       772.36   28.727273  ( -1.548784   2.456675   4.504808)
  18:       808.49   15.510072  ( -0.440586   1.149868  -3.740823)
  19:       837.01   10.547392  ( -1.805598   1.796993  -2.014454)
  20:       896.09    7.204095  (  1.073401   1.699673  -1.778486)
  21:       931.58    3.705867  ( -0.046418   1.894126   0.340586)
  22:       951.54    2.921204  (  0.042485   1.282550   1.128921)
  23:       973.08    3.990151  (  1.078034   1.663481   0.246623)
  24:      1012.87    0.278269  ( -0.226889  -0.185400   0.438654)
  25:      1065.59   11.783259  (  0.472599  -0.194355  -3.394427)
  26:      1125.25   22.190100  (  0.029567  -0.896442   4.624459)
  27:      1199.45    2.740926  (  0.501890  -0.161429   1.569386)
  28:      1222.28    2.224214  (  1.310579  -0.478354  -0.527041)
  29:      1259.41   34.272176  (  0.236435  -3.833089   4.418563)
  30:      1284.32   53.070959  (  4.173579   3.231288  -5.021053)
  31:      1294.45   19.044054  (  0.564768   3.282862  -2.819204)
  32:      1340.36    2.704210  ( -0.196250  -1.338848   0.934443)
  33:      1348.75   44.883602  ( -1.740608   5.121775  -3.952380)
  34:      1414.80   14.917079  ( -3.616274   1.311885   0.344381)
  35:      1472.81   16.400775  ( -0.742878  -2.401523  -3.175153)
  36:      1484.15    3.451298  (  0.699274   1.291475   1.137719)
  37:      1489.33    6.608993  ( -0.759066   0.473077  -2.410189)
  38:      1501.77   10.966769  ( -0.340213  -3.183022   0.848172)
  39:      1632.91   54.952323  ( -0.228689   4.076340   6.187365)
  40:      2246.99   35.199163  ( -2.527069   4.211147  -3.328562)
  41:      3059.93    3.646070  (  0.384445  -0.802537   1.689439)
  42:      3127.13    0.101313  (  0.105255   0.072149   0.291597)
  43:      3131.81    0.580202  ( -0.173346   0.199351  -0.714432)
  44:      3144.34    3.547075  ( -0.604425   1.732338  -0.425146)
  45:      3158.31    1.108358  ( -0.961540  -0.034026   0.427364)
  46:      3185.81    0.068332  ( -0.089141   0.244969   0.019389)
  47:      3201.49    0.163367  ( -0.295177   0.227713  -0.156155)
  48:      3453.02   97.342764  ( -4.638330   7.016009  -5.157934)
  49:      3459.19   58.636036  (  0.485457  -5.320280  -5.485890)
  50:      3536.40   76.994063  ( -8.360383   2.276152  -1.384625)

--------------------------
THERMOCHEMISTRY AT 298.15K
--------------------------

Temperature         ... 298.15 K
Pressure            ... 1.00 atm
Total Mass          ... 96.15 AMU

Throughout the following assumptions are being made:
  (1) The electronic state is orbitally nondegenerate
  (2) There are no thermally accessible electronically excited states
  (3) Hindered rotations indicated by low frequency modes) are not
      treated as such but are treated as vibrations and this may
      case some error
  (4) All equations used are the standard statistical mechanics
      equations for an ideal gas
  (5) All vibrations are strinctly harmonic

------------
INNER ENERGY
------------

The inner energy is: U= E(el) + E(ZPE) + E(vib) + E(rot) + E(trans)
    E(el)   - is the total energy from the electronic structure calculation
              = E(kin-el) + E(nuc-el) + E(el-el) + E(nuc-nuc)
    E(ZPE)  - the the zero temperature vibrational energy from the frequency calculation
    E(vib)  - the the finite temperature correction to E(ZPE) due to population
              of excietd vibrational states
    E(rot)  - is the rotational thermal energy
    E(trans)- is the translational thermal energy

Summary of contributions to the inner energy U:
Electronic energy                ...   -288.82744812 Eh
Zero point energy                ...      0.15150255 Eh      95.07 kcal/mol
Thermal vibrational correction   ...      0.00457060 Eh       2.87 kcal/mol
Thermal rotational correction    ...      0.00141627 Eh       0.89 kcal/mol
Thermal translational correction ...      0.00141627 Eh       0.89 kcal/mol
-----------------------------------------------------------------------
Total thermal energy                   -288.66854242 Eh

Summary of corrections to the electronic energy:
(perhaps to be used in another calculation)
Total thermal correction                  0.00740314 Eh       4.65 kcal/mol
Non-thermal (ZPE) correction              0.15150255 Eh      95.07 kcal/mol
-----------------------------------------------------------------------
Total correction                          0.15890569 Eh      99.71 kcal/mol

--------
ENTHALPY
--------

The enthalpy is H = U + kB*T
                kB is Boltzmann's constant
Total free energy                 ...   -288.66854242 Eh
Thermal Enthalpy correction       ...      0.00094421 Eh       0.59 kcal/mol
-----------------------------------------------------------------------
Total Enthalpy                    ...   -288.66759821 Eh

-------
ENTROPY
-------

The entropy contributions are T*S = T*(S(el)+S(vib)+S(rot)+S(trans)
     S(el)   - electronic entropy
     S(vib)  - vibrational entropy
     S(rot)  - rotational entropy
     S(trans)- translational entropy
The entropies will be listed as mutliplied by the temperature to get
units of energy

Electronic entropy                ...      0.00000000 Eh      0.00 kcal/mol
Vibrational entropy               ...      0.00772695 Eh      4.85 kcal/mol
Rotational entropy                ...      0.01194472 Eh      7.50 kcal/mol
Translational entropy             ...      0.01881568 Eh     11.81 kcal/mol
-----------------------------------------------------------------------
Final entropy term                ...      0.03848735 Eh     24.15 kcal/mol

CAUTION: The rotational entropy is not quite correctly treated here
         because it includes a symmetry number that is not yet correctly
         implemented in ORCA!
For a nonlinear molecule the correct rotational entropy is:
    S(rot) = R*(ln(qrot/sn)+1.5)
    R    = 8.31441 J/mol/K = 1.987191683e-3 kcal/mol/K
    qrot = 208874.9663148
    sn is the rotational symmetry number. We have assumed 3 here
       if it is different for your molecule then you should correct
       the printed rotational entropy by manually evaluating the equation
       as given above

For convenience we print out the resulting values for sn=1 - 12:
 sn= 1  qrot/sn=  208874.9663 T*S(rot)=     8.15 kcal/mol T*S(tot)=    24.80 kcal/mol
 sn= 2  qrot/sn=  104437.4832 T*S(rot)=     7.74 kcal/mol T*S(tot)=    24.39 kcal/mol
 sn= 3  qrot/sn=   69624.9888 T*S(rot)=     7.50 kcal/mol T*S(tot)=    24.15 kcal/mol
 sn= 4  qrot/sn=   52218.7416 T*S(rot)=     7.32 kcal/mol T*S(tot)=    23.98 kcal/mol
 sn= 5  qrot/sn=   41774.9933 T*S(rot)=     7.19 kcal/mol T*S(tot)=    23.85 kcal/mol
 sn= 6  qrot/sn=   34812.4944 T*S(rot)=     7.08 kcal/mol T*S(tot)=    23.74 kcal/mol
 sn= 7  qrot/sn=   29839.2809 T*S(rot)=     6.99 kcal/mol T*S(tot)=    23.65 kcal/mol
 sn= 8  qrot/sn=   26109.3708 T*S(rot)=     6.91 kcal/mol T*S(tot)=    23.57 kcal/mol
 sn= 9  qrot/sn=   23208.3296 T*S(rot)=     6.84 kcal/mol T*S(tot)=    23.50 kcal/mol
 sn=10  qrot/sn=   20887.4966 T*S(rot)=     6.78 kcal/mol T*S(tot)=    23.44 kcal/mol
 sn=11  qrot/sn=   18988.6333 T*S(rot)=     6.73 kcal/mol T*S(tot)=    23.38 kcal/mol
 sn=12  qrot/sn=   17406.2472 T*S(rot)=     6.67 kcal/mol T*S(tot)=    23.33 kcal/mol

-------------------
GIBBS FREE ENTHALPY
-------------------

The Gibbs free enthalpy is G = H - T*S

Total enthalpy                    ...   -288.66759821 Eh
Total entropy correction          ...     -0.03848735 Eh    -24.15 kcal/mol
-----------------------------------------------------------------------
Final Gibbs free enthalpy         ...   -288.70608557 Eh

For completeness - the Gibbs free enthalpy minus the electronic energy
G-E(el)                           ...      0.12136255 Eh     76.16 kcal/mol

                             ****ORCA TERMINATED NORMALLY****
TOTAL RUN TIME: 0 days 0 hours 52 minutes 15 seconds 871 msec
