                         Program Version 3.0.3 - RELEASE   -
|  1> ! NORI PBE0 def2-TZVP UseSym TightOPT Freq TightSCF Grid3 FinalGrid5 XYZFile
|  2> % pal
|  3>     nprocs 8
|  4> end
|  5> %method
|  6>     SymThresh 5.0e-2
|  7> end
|  8> % geom
|  9>     MaxIter 10
| 10> end
| 11> % maxcore 2000
| 12> % output
| 13>     printlevel mini
| 14>     print[ P_Basis ] 0
| 15>     print[ P_SCFInfo ] 1
| 16>     print[ P_SCFIterInfo ] 1
| 17>     print[ P_OrbEn ] 0
| 18>     print[ P_Cartesian ] 0
| 19> end
| 20> % elprop
| 21>     Dipole false
| 22> end
| 23> *xyz 1 1
| 24>  C        0.9971979668    -0.0710189341     0.6644452742
| 25>  C        2.2888339573     0.2787271483    -0.0208797577
| 26>  C        3.2846196094     1.1399471651     0.7721351224
| 27>  C        4.0941835287    -0.1216199536     1.0904811318
| 28>  N        3.2857510866    -0.8841866038     0.0210501373
| 29>  C        5.5627662274    -0.1959498825     0.8948149073
| 30>  C        6.3362645620     0.8479905724     0.6348576738
| 31>  H        0.4449633574    -0.8377252875     0.1164890382
| 32>  H        0.3703073154     0.8218093103     0.7052129932
| 33>  H        1.1564041335    -0.4079449793     1.6921674907
| 34>  H        2.1240912531     0.5786991309    -1.0548688076
| 35>  H        2.8735605310     1.6648072652     1.6312899215
| 36>  H        3.8240407580     1.8457423556     0.1420633014
| 37>  H        3.8066302456    -0.5597680910     2.0487804098
| 38>  H        3.8168385477    -0.9897282499    -0.8428316615
| 39>  H        2.9059554334    -1.7913881891     0.2879558238
| 40>  H        6.0061815941    -1.1804189666     1.0284950620
| 41>  H        5.9459235990     1.8542285496     0.5324872519
| 42>  H        7.4091562936     0.7326176399     0.5394846876
| 43> *
| 44>
| 45>                          ****END OF INPUT****
 Total Charge           Charge          ....    1
 Multiplicity           Mult            ....    1
 Number of Electrons    NEL             ....   54
FINAL SINGLE POINT ENERGY      -290.086133104351
FINAL SINGLE POINT ENERGY      -290.086134222113

CARTESIAN COORDINATES (ANGSTROEM)
---------------------------------
  C      2.497487   -0.001183    0.914587
  C      1.208269    0.678937    0.545896
  C      0.621193    0.352448   -0.836644
  C     -0.374571   -0.601986   -0.168262
  N      0.000160    0.000557    1.201192
  C     -1.828712   -0.569320   -0.459633
  C     -2.377254    0.115715   -1.452520
  H      2.733930    0.128879    1.972923
  H      3.307397    0.449870    0.338375
  H      2.480278   -1.068377    0.678217
  H      1.221971    1.734304    0.815446
  H      1.309143   -0.104550   -1.544349
  H      0.141886    1.211962   -1.302646
  H     -0.004834   -1.629716   -0.150802
  H     -0.705949    0.661758    1.523374
  H      0.206770   -0.654548    1.954191
  H     -2.449513   -1.200975    0.172240
  H     -1.795745    0.726780   -2.133814
  H     -3.443300    0.066103   -1.636787

FINAL SINGLE POINT ENERGY      -290.086134769132
                    ***********************HURRAY********************
 Multiplicity           Mult            ....    1
 Number of Electrons    NEL             ....   54
 Basis Dimension        Dim             ....  289
FINAL SINGLE POINT ENERGY      -290.086134959594

VIBRATIONAL FREQUENCIES
-----------------------

   0:         0.00 cm**-1
   1:         0.00 cm**-1
   2:         0.00 cm**-1
   3:         0.00 cm**-1
   4:         0.00 cm**-1
   5:         0.00 cm**-1
   6:        67.65 cm**-1
   7:       104.26 cm**-1
   8:       209.40 cm**-1
   9:       259.96 cm**-1
  10:       297.40 cm**-1
  11:       356.45 cm**-1
  12:       408.33 cm**-1
  13:       518.46 cm**-1
  14:       637.98 cm**-1
  15:       685.51 cm**-1
  16:       782.06 cm**-1
  17:       852.87 cm**-1
  18:       869.95 cm**-1
  19:       888.54 cm**-1
  20:       938.84 cm**-1
  21:       960.43 cm**-1
  22:      1007.04 cm**-1
  23:      1017.64 cm**-1
  24:      1026.15 cm**-1
  25:      1035.76 cm**-1
  26:      1080.31 cm**-1
  27:      1127.66 cm**-1
  28:      1149.83 cm**-1
  29:      1175.76 cm**-1
  30:      1246.09 cm**-1
  31:      1259.65 cm**-1
  32:      1283.69 cm**-1
  33:      1318.67 cm**-1
  34:      1321.75 cm**-1
  35:      1346.79 cm**-1
  36:      1375.43 cm**-1
  37:      1401.77 cm**-1
  38:      1422.83 cm**-1
  39:      1455.61 cm**-1
  40:      1479.04 cm**-1
  41:      1486.71 cm**-1
  42:      1490.90 cm**-1
  43:      1631.37 cm**-1
  44:      1722.72 cm**-1
  45:      3056.07 cm**-1
  46:      3101.01 cm**-1
  47:      3119.78 cm**-1
  48:      3126.25 cm**-1
  49:      3144.04 cm**-1
  50:      3147.21 cm**-1
  51:      3161.65 cm**-1
  52:      3172.96 cm**-1
  53:      3180.93 cm**-1
  54:      3262.06 cm**-1
  55:      3457.80 cm**-1
  56:      3536.93 cm**-1

IR SPECTRUM
-----------

 Mode    freq (cm**-1)   T**2         TX         TY         TZ
-------------------------------------------------------------------
   6:        67.65    0.932572  ( -0.114991  -0.952714  -0.108101)
   7:       104.26    3.418155  (  0.917826  -1.499411   0.572289)
   8:       209.40    0.660356  ( -0.711341   0.248638   0.304186)
   9:       259.96    0.380800  (  0.193565  -0.562599  -0.163754)
  10:       297.40    0.184800  ( -0.252841  -0.259358  -0.231528)
  11:       356.45    1.103985  ( -1.012059   0.204466   0.194721)
  12:       408.33    3.269559  ( -1.033145   1.471186  -0.194373)
  13:       518.46    1.607813  (  0.764379  -0.997525  -0.168770)
  14:       637.98    2.390025  ( -0.669023   1.380259   0.193177)
  15:       685.51   12.756228  ( -1.155576  -1.973165  -2.743628)
  16:       782.06   14.594268  (  3.291418  -0.100179   1.936698)
  17:       852.87    2.234793  (  1.193970  -0.821884   0.365699)
  18:       869.95    8.386657  (  1.089973  -0.530978  -2.629958)
  19:       888.54   20.199082  (  2.794310   2.319019   2.648219)
  20:       938.84    9.888795  ( -2.378336  -0.231267  -2.044219)
  21:       960.43    3.694684  ( -0.555084  -1.059942  -1.504357)
  22:      1007.04   10.288119  ( -2.161051  -1.670323  -1.681665)
  23:      1017.64   50.869766  ( -1.069926   5.316259   4.632754)
  24:      1026.15    4.313623  ( -0.215926  -0.369919   2.032279)
  25:      1035.76    6.976488  ( -2.000497  -1.293215   1.141093)
  26:      1080.31    0.178613  ( -0.060026  -0.418301  -0.005853)
  27:      1127.66    6.559114  (  0.906591   1.865658   1.502174)
  28:      1149.83    3.669339  ( -1.648118  -0.154023   0.964015)
  29:      1175.76    1.534401  ( -1.114542   0.197582  -0.503149)
  30:      1246.09   54.018673  ( -6.202709  -3.179947  -2.330881)
  31:      1259.65    2.673544  ( -0.977085   1.105624  -0.704589)
  32:      1283.69   32.544569  ( -4.277990  -3.447578  -1.535442)
  33:      1318.67    8.658851  ( -1.500561   0.524639  -2.476272)
  34:      1321.75   16.036657  (  1.748686   2.926041   2.101676)
  35:      1346.79    0.976287  (  0.169472  -0.891834   0.390125)
  36:      1375.43   24.499278  ( -4.472438  -0.731735  -1.990262)
  37:      1401.77   10.957025  ( -2.592612   0.688006  -1.939596)
  38:      1422.83   10.337904  (  2.683169  -1.704490  -0.482928)
  39:      1455.61   25.773569  ( -2.416108   2.511186  -3.691875)
  40:      1479.04   16.627163  (  1.284886   0.552111  -3.830327)
  41:      1486.71    9.506497  ( -0.734991  -2.867895  -0.861083)
  42:      1490.90    5.534454  (  0.716487   1.597909  -1.570919)
  43:      1631.37   55.807845  ( -3.011110   0.311608   6.829638)
  44:      1722.72    0.615842  ( -0.713943  -0.325762  -0.002751)
  45:      3056.07    2.201549  ( -0.455007  -1.293096   0.567821)
  46:      3101.01    0.927408  (  0.718270  -0.336984   0.545838)
  47:      3119.78    1.041677  (  0.206723  -0.630633   0.775400)
  48:      3126.25    0.580885  ( -0.178032   0.040422  -0.739970)
  49:      3144.04    5.433544  (  0.795043   1.616677   1.479123)
  50:      3147.21    1.422913  (  0.372762  -1.128225   0.105212)
  51:      3161.65    0.869629  (  0.657307   0.456420  -0.478808)
  52:      3172.96    1.402616  ( -1.168623  -0.188630  -0.036808)
  53:      3180.93    0.281633  (  0.239922  -0.451752   0.141387)
  54:      3262.06    0.267728  ( -0.258594   0.265455  -0.361098)
  55:      3457.80   49.847522  (  2.789721  -0.032246  -6.485672)
  56:      3536.93   71.862987  (  4.925077  -6.563146   2.128783)

--------------------------
THERMOCHEMISTRY AT 298.15K
--------------------------

Temperature         ... 298.15 K
Pressure            ... 1.00 atm
Total Mass          ... 98.17 AMU

Throughout the following assumptions are being made:
  (1) The electronic state is orbitally nondegenerate
  (2) There are no thermally accessible electronically excited states
  (3) Hindered rotations indicated by low frequency modes) are not
      treated as such but are treated as vibrations and this may
      case some error
  (4) All equations used are the standard statistical mechanics
      equations for an ideal gas
  (5) All vibrations are strinctly harmonic

------------
INNER ENERGY
------------

The inner energy is: U= E(el) + E(ZPE) + E(vib) + E(rot) + E(trans)
    E(el)   - is the total energy from the electronic structure calculation
              = E(kin-el) + E(nuc-el) + E(el-el) + E(nuc-nuc)
    E(ZPE)  - the the zero temperature vibrational energy from the frequency calculation
    E(vib)  - the the finite temperature correction to E(ZPE) due to population
              of excietd vibrational states
    E(rot)  - is the rotational thermal energy
    E(trans)- is the translational thermal energy

Summary of contributions to the inner energy U:
Electronic energy                ...   -290.08613496 Eh
Zero point energy                ...      0.17580156 Eh     110.32 kcal/mol
Thermal vibrational correction   ...      0.00478864 Eh       3.00 kcal/mol
Thermal rotational correction    ...      0.00141627 Eh       0.89 kcal/mol
Thermal translational correction ...      0.00141627 Eh       0.89 kcal/mol
-----------------------------------------------------------------------
Total thermal energy                   -289.90271221 Eh

Summary of corrections to the electronic energy:
(perhaps to be used in another calculation)
Total thermal correction                  0.00762119 Eh       4.78 kcal/mol
Non-thermal (ZPE) correction              0.17580156 Eh     110.32 kcal/mol
-----------------------------------------------------------------------
Total correction                          0.18342275 Eh     115.10 kcal/mol

--------
ENTHALPY
--------

The enthalpy is H = U + kB*T
                kB is Boltzmann's constant
Total free energy                 ...   -289.90271221 Eh
Thermal Enthalpy correction       ...      0.00094421 Eh       0.59 kcal/mol
-----------------------------------------------------------------------
Total Enthalpy                    ...   -289.90176800 Eh

-------
ENTROPY
-------

The entropy contributions are T*S = T*(S(el)+S(vib)+S(rot)+S(trans)
     S(el)   - electronic entropy
     S(vib)  - vibrational entropy
     S(rot)  - rotational entropy
     S(trans)- translational entropy
The entropies will be listed as mutliplied by the temperature to get
units of energy

Electronic entropy                ...      0.00000000 Eh      0.00 kcal/mol
Vibrational entropy               ...      0.00850705 Eh      5.34 kcal/mol
Rotational entropy                ...      0.01200126 Eh      7.53 kcal/mol
Translational entropy             ...      0.01884507 Eh     11.83 kcal/mol
-----------------------------------------------------------------------
Final entropy term                ...      0.03935338 Eh     24.69 kcal/mol

CAUTION: The rotational entropy is not quite correctly treated here
         because it includes a symmetry number that is not yet correctly
         implemented in ORCA!
For a nonlinear molecule the correct rotational entropy is:
    S(rot) = R*(ln(qrot/sn)+1.5)
    R    = 8.31441 J/mol/K = 1.987191683e-3 kcal/mol/K
    qrot = 221764.9183010
    sn is the rotational symmetry number. We have assumed 3 here
       if it is different for your molecule then you should correct
       the printed rotational entropy by manually evaluating the equation
       as given above

For convenience we print out the resulting values for sn=1 - 12:
 sn= 1  qrot/sn=  221764.9183 T*S(rot)=     8.18 kcal/mol T*S(tot)=    25.35 kcal/mol
 sn= 2  qrot/sn=  110882.4592 T*S(rot)=     7.77 kcal/mol T*S(tot)=    24.93 kcal/mol
 sn= 3  qrot/sn=   73921.6394 T*S(rot)=     7.53 kcal/mol T*S(tot)=    24.69 kcal/mol
 sn= 4  qrot/sn=   55441.2296 T*S(rot)=     7.36 kcal/mol T*S(tot)=    24.52 kcal/mol
 sn= 5  qrot/sn=   44352.9837 T*S(rot)=     7.23 kcal/mol T*S(tot)=    24.39 kcal/mol
 sn= 6  qrot/sn=   36960.8197 T*S(rot)=     7.12 kcal/mol T*S(tot)=    24.28 kcal/mol
 sn= 7  qrot/sn=   31680.7026 T*S(rot)=     7.03 kcal/mol T*S(tot)=    24.19 kcal/mol
 sn= 8  qrot/sn=   27720.6148 T*S(rot)=     6.95 kcal/mol T*S(tot)=    24.11 kcal/mol
 sn= 9  qrot/sn=   24640.5465 T*S(rot)=     6.88 kcal/mol T*S(tot)=    24.04 kcal/mol
 sn=10  qrot/sn=   22176.4918 T*S(rot)=     6.82 kcal/mol T*S(tot)=    23.98 kcal/mol
 sn=11  qrot/sn=   20160.4471 T*S(rot)=     6.76 kcal/mol T*S(tot)=    23.92 kcal/mol
 sn=12  qrot/sn=   18480.4099 T*S(rot)=     6.71 kcal/mol T*S(tot)=    23.87 kcal/mol

-------------------
GIBBS FREE ENTHALPY
-------------------

The Gibbs free enthalpy is G = H - T*S

Total enthalpy                    ...   -289.90176800 Eh
Total entropy correction          ...     -0.03935338 Eh    -24.69 kcal/mol
-----------------------------------------------------------------------
Final Gibbs free enthalpy         ...   -289.94112138 Eh

For completeness - the Gibbs free enthalpy minus the electronic energy
G-E(el)                           ...      0.14501358 Eh     91.00 kcal/mol

                             ****ORCA TERMINATED NORMALLY****
TOTAL RUN TIME: 0 days 0 hours 46 minutes 2 seconds 476 msec
