                         Program Version 3.0.3 - RELEASE   -
|  1> ! NORI PBE0 def2-TZVP UseSym TightOPT Freq TightSCF Grid3 FinalGrid5 XYZFile
|  2> % pal
|  3>     nprocs 8
|  4> end
|  5> %method
|  6>     SymThresh 5.0e-2
|  7> end
|  8> % geom
|  9>     MaxIter 10
| 10> end
| 11> % maxcore 2000
| 12> % output
| 13>     printlevel mini
| 14>     print[ P_Basis ] 0
| 15>     print[ P_SCFInfo ] 1
| 16>     print[ P_SCFIterInfo ] 1
| 17>     print[ P_OrbEn ] 0
| 18>     print[ P_Cartesian ] 0
| 19> end
| 20> % elprop
| 21>     Dipole false
| 22> end
| 23> *xyz 1 1
| 24>  C        0.8937286899    -0.0569033519     0.5382352409
| 25>  C        2.1501199903     0.2125576680    -0.2413940386
| 26>  C        3.1393786389     1.2234006135     0.3622210937
| 27>  C        4.0113372291     0.0465010426     0.8467506168
| 28>  N        3.1910797405    -0.8983928276    -0.0426785035
| 29>  C        5.4194007805     0.0301356620     0.5668542944
| 30>  C        6.5925728733     0.0345334604     0.3202842063
| 31>  H        0.3550740952    -0.9234156910     0.1480104148
| 32>  H        0.2346258833     0.8089335046     0.4473282588
| 33>  H        1.0944758582    -0.2066571802     1.6028294678
| 34>  H        1.9459116474     0.3309595834    -1.3046918335
| 35>  H        2.7433930651     1.8610909310     1.1494158028
| 36>  H        3.6480769975     1.8333404149    -0.3822265764
| 37>  H        3.8071866073    -0.2259470334     1.8838952832
| 38>  H        3.6982601819    -1.1398045915    -0.8940222610
| 39>  H        2.8609875518    -1.7572933989     0.3968259146
| 40>  H        7.6395401699     0.0405011940     0.1090726188
| 41> *
| 42>
| 43>                          ****END OF INPUT****
 Total Charge           Charge          ....    1
 Multiplicity           Mult            ....    1
 Number of Electrons    NEL             ....   52
FINAL SINGLE POINT ENERGY      -288.827826165381

CARTESIAN COORDINATES (ANGSTROEM)
---------------------------------
  C      2.505718    0.000624    0.864950
  C      1.230234    0.704773    0.495040
  C      0.679025    0.448977   -0.917826
  C     -0.351261   -0.528330   -0.314714
  N      0.000036   -0.000717    1.083584
  C     -1.742176   -0.405374   -0.648703
  C     -2.899102   -0.283765   -0.938362
  H      2.711944    0.075263    1.934908
  H      3.333090    0.477693    0.336225
  H      2.493249   -1.052949    0.573092
  H      1.238019    1.745496    0.815907
  H      1.376750    0.007276   -1.625464
  H      0.206000    1.321024   -1.365584
  H     -0.019521   -1.567216   -0.362069
  H     -0.713562    0.641898    1.427266
  H      0.178793   -0.705081    1.799148
  H     -3.929151   -0.182786   -1.201691

FINAL SINGLE POINT ENERGY      -288.827826939182
                    ***********************HURRAY********************
 Multiplicity           Mult            ....    1
 Number of Electrons    NEL             ....   52
 Basis Dimension        Dim             ....  277
FINAL SINGLE POINT ENERGY      -288.827827362223

VIBRATIONAL FREQUENCIES
-----------------------

   0:         0.00 cm**-1
   1:         0.00 cm**-1
   2:         0.00 cm**-1
   3:         0.00 cm**-1
   4:         0.00 cm**-1
   5:         0.00 cm**-1
   6:        58.05 cm**-1
   7:       144.66 cm**-1
   8:       208.93 cm**-1
   9:       259.28 cm**-1
  10:       332.43 cm**-1
  11:       363.10 cm**-1
  12:       500.13 cm**-1
  13:       520.80 cm**-1
  14:       650.33 cm**-1
  15:       727.82 cm**-1
  16:       775.29 cm**-1
  17:       785.14 cm**-1
  18:       851.21 cm**-1
  19:       866.65 cm**-1
  20:       889.81 cm**-1
  21:       941.85 cm**-1
  22:       962.35 cm**-1
  23:      1023.51 cm**-1
  24:      1070.27 cm**-1
  25:      1101.85 cm**-1
  26:      1151.24 cm**-1
  27:      1159.05 cm**-1
  28:      1253.72 cm**-1
  29:      1257.55 cm**-1
  30:      1278.73 cm**-1
  31:      1303.27 cm**-1
  32:      1319.51 cm**-1
  33:      1369.95 cm**-1
  34:      1397.10 cm**-1
  35:      1421.91 cm**-1
  36:      1478.46 cm**-1
  37:      1486.60 cm**-1
  38:      1491.48 cm**-1
  39:      1630.69 cm**-1
  40:      2251.95 cm**-1
  41:      3056.10 cm**-1
  42:      3111.43 cm**-1
  43:      3124.97 cm**-1
  44:      3128.53 cm**-1
  45:      3146.00 cm**-1
  46:      3148.27 cm**-1
  47:      3188.31 cm**-1
  48:      3453.12 cm**-1
  49:      3455.46 cm**-1
  50:      3532.59 cm**-1

IR SPECTRUM
-----------

 Mode    freq (cm**-1)   T**2         TX         TY         TZ
-------------------------------------------------------------------
   6:        58.05    1.869542  (  0.181205  -1.355107  -0.019763)
   7:       144.66    0.701245  (  0.741647   0.086965  -0.379002)
   8:       208.93    5.734894  ( -0.524454   2.332251   0.143002)
   9:       259.28    0.268667  (  0.124973   0.501194   0.043047)
  10:       332.43    4.540436  ( -1.549580  -0.279752   1.435610)
  11:       363.10    6.514536  ( -0.302649   2.503331   0.395315)
  12:       500.13   11.750849  (  0.707591   1.281175  -3.099799)
  13:       520.80    9.286242  (  1.123655   1.721494   2.249467)
  14:       650.33    3.549047  ( -1.475786  -0.030969  -1.170532)
  15:       727.82   40.118980  (  1.105495   6.013486  -1.653736)
  16:       775.29   28.948321  ( -2.003685   1.814766   4.651902)
  17:       785.14   11.582088  (  2.892979  -0.046640   1.791811)
  18:       851.21    3.182548  ( -1.633628   0.687821  -0.201762)
  19:       866.65    6.558225  (  1.601520   0.364439  -1.964827)
  20:       889.81   15.787852  (  2.203993   1.866860   2.728571)
  21:       941.85   17.634628  ( -2.903923   0.039570  -3.033198)
  22:       962.35    8.455465  ( -1.590080  -0.498139  -2.383058)
  23:      1023.51   15.366820  ( -3.629006  -0.999595   1.094506)
  24:      1070.27    0.322864  (  0.380255   0.408814   0.105557)
  25:      1101.85    2.439628  (  0.559729  -0.864947   1.173966)
  26:      1151.24    3.678576  ( -1.800460   0.400425   0.525908)
  27:      1159.05    2.780914  (  0.271605  -1.599631   0.385131)
  28:      1253.72   51.235442  (  5.754043   3.655814   2.182078)
  29:      1257.55   11.087427  ( -3.072805  -0.083798  -1.279952)
  30:      1278.73   13.499326  (  2.544949   2.186668   1.497012)
  31:      1303.27   15.587685  (  2.643245   2.787679   0.910926)
  32:      1319.51   19.330117  (  2.188860   2.720060   2.672130)
  33:      1369.95   41.469983  (  6.010777   0.685822   2.206851)
  34:      1397.10   10.095748  ( -2.670071   0.599930  -1.614483)
  35:      1421.91   11.432611  ( -2.856308   1.796340   0.217432)
  36:      1478.46   16.662969  (  1.438631   0.624302  -3.768760)
  37:      1486.60   10.797144  (  0.770317   2.998356   1.101642)
  38:      1491.48    6.645794  (  0.749094   1.410429  -2.023695)
  39:      1630.69   53.771908  (  2.971234   0.060238  -6.703734)
  40:      2251.95   40.917105  ( -5.967826   0.056213  -2.301955)
  41:      3056.10    2.606151  ( -0.732553  -1.378244   0.412261)
  42:      3111.43    1.980941  (  0.999003   0.748748   0.649854)
  43:      3124.97    0.030413  (  0.000975  -0.009956   0.174107)
  44:      3128.53    0.738755  ( -0.177535  -0.327094  -0.774756)
  45:      3146.00    3.101070  (  0.783554   0.946264   1.261625)
  46:      3148.27    1.905752  ( -0.358897   1.283479   0.360037)
  47:      3188.31    0.173174  ( -0.323348  -0.261696   0.011641)
  48:      3453.12   87.546509  (  7.949700  -0.636188   4.893265)
  49:      3455.46   67.753505  ( -6.150160  -0.081660   5.470135)
  50:      3532.59   78.145895  (  5.056094  -7.107549   1.436857)

--------------------------
THERMOCHEMISTRY AT 298.15K
--------------------------

Temperature         ... 298.15 K
Pressure            ... 1.00 atm
Total Mass          ... 96.15 AMU

Throughout the following assumptions are being made:
  (1) The electronic state is orbitally nondegenerate
  (2) There are no thermally accessible electronically excited states
  (3) Hindered rotations indicated by low frequency modes) are not
      treated as such but are treated as vibrations and this may
      case some error
  (4) All equations used are the standard statistical mechanics
      equations for an ideal gas
  (5) All vibrations are strinctly harmonic

------------
INNER ENERGY
------------

The inner energy is: U= E(el) + E(ZPE) + E(vib) + E(rot) + E(trans)
    E(el)   - is the total energy from the electronic structure calculation
              = E(kin-el) + E(nuc-el) + E(el-el) + E(nuc-nuc)
    E(ZPE)  - the the zero temperature vibrational energy from the frequency calculation
    E(vib)  - the the finite temperature correction to E(ZPE) due to population
              of excietd vibrational states
    E(rot)  - is the rotational thermal energy
    E(trans)- is the translational thermal energy

Summary of contributions to the inner energy U:
Electronic energy                ...   -288.82782736 Eh
Zero point energy                ...      0.15179297 Eh      95.25 kcal/mol
Thermal vibrational correction   ...      0.00455690 Eh       2.86 kcal/mol
Thermal rotational correction    ...      0.00141627 Eh       0.89 kcal/mol
Thermal translational correction ...      0.00141627 Eh       0.89 kcal/mol
-----------------------------------------------------------------------
Total thermal energy                   -288.66864494 Eh

Summary of corrections to the electronic energy:
(perhaps to be used in another calculation)
Total thermal correction                  0.00738945 Eh       4.64 kcal/mol
Non-thermal (ZPE) correction              0.15179297 Eh      95.25 kcal/mol
-----------------------------------------------------------------------
Total correction                          0.15918242 Eh      99.89 kcal/mol

--------
ENTHALPY
--------

The enthalpy is H = U + kB*T
                kB is Boltzmann's constant
Total free energy                 ...   -288.66864494 Eh
Thermal Enthalpy correction       ...      0.00094421 Eh       0.59 kcal/mol
-----------------------------------------------------------------------
Total Enthalpy                    ...   -288.66770073 Eh

-------
ENTROPY
-------

The entropy contributions are T*S = T*(S(el)+S(vib)+S(rot)+S(trans)
     S(el)   - electronic entropy
     S(vib)  - vibrational entropy
     S(rot)  - rotational entropy
     S(trans)- translational entropy
The entropies will be listed as mutliplied by the temperature to get
units of energy

Electronic entropy                ...      0.00000000 Eh      0.00 kcal/mol
Vibrational entropy               ...      0.00806104 Eh      5.06 kcal/mol
Rotational entropy                ...      0.01194483 Eh      7.50 kcal/mol
Translational entropy             ...      0.01881568 Eh     11.81 kcal/mol
-----------------------------------------------------------------------
Final entropy term                ...      0.03882155 Eh     24.36 kcal/mol

CAUTION: The rotational entropy is not quite correctly treated here
         because it includes a symmetry number that is not yet correctly
         implemented in ORCA!
For a nonlinear molecule the correct rotational entropy is:
    S(rot) = R*(ln(qrot/sn)+1.5)
    R    = 8.31441 J/mol/K = 1.987191683e-3 kcal/mol/K
    qrot = 208899.1462678
    sn is the rotational symmetry number. We have assumed 3 here
       if it is different for your molecule then you should correct
       the printed rotational entropy by manually evaluating the equation
       as given above

For convenience we print out the resulting values for sn=1 - 12:
 sn= 1  qrot/sn=  208899.1463 T*S(rot)=     8.15 kcal/mol T*S(tot)=    25.01 kcal/mol
 sn= 2  qrot/sn=  104449.5731 T*S(rot)=     7.74 kcal/mol T*S(tot)=    24.60 kcal/mol
 sn= 3  qrot/sn=   69633.0488 T*S(rot)=     7.50 kcal/mol T*S(tot)=    24.36 kcal/mol
 sn= 4  qrot/sn=   52224.7866 T*S(rot)=     7.33 kcal/mol T*S(tot)=    24.19 kcal/mol
 sn= 5  qrot/sn=   41779.8293 T*S(rot)=     7.19 kcal/mol T*S(tot)=    24.06 kcal/mol
 sn= 6  qrot/sn=   34816.5244 T*S(rot)=     7.08 kcal/mol T*S(tot)=    23.95 kcal/mol
 sn= 7  qrot/sn=   29842.7352 T*S(rot)=     6.99 kcal/mol T*S(tot)=    23.86 kcal/mol
 sn= 8  qrot/sn=   26112.3933 T*S(rot)=     6.91 kcal/mol T*S(tot)=    23.78 kcal/mol
 sn= 9  qrot/sn=   23211.0163 T*S(rot)=     6.84 kcal/mol T*S(tot)=    23.71 kcal/mol
 sn=10  qrot/sn=   20889.9146 T*S(rot)=     6.78 kcal/mol T*S(tot)=    23.65 kcal/mol
 sn=11  qrot/sn=   18990.8315 T*S(rot)=     6.73 kcal/mol T*S(tot)=    23.59 kcal/mol
 sn=12  qrot/sn=   17408.2622 T*S(rot)=     6.67 kcal/mol T*S(tot)=    23.54 kcal/mol

-------------------
GIBBS FREE ENTHALPY
-------------------

The Gibbs free enthalpy is G = H - T*S

Total enthalpy                    ...   -288.66770073 Eh
Total entropy correction          ...     -0.03882155 Eh    -24.36 kcal/mol
-----------------------------------------------------------------------
Final Gibbs free enthalpy         ...   -288.70652228 Eh

For completeness - the Gibbs free enthalpy minus the electronic energy
G-E(el)                           ...      0.12130508 Eh     76.12 kcal/mol

                             ****ORCA TERMINATED NORMALLY****
TOTAL RUN TIME: 0 days 0 hours 38 minutes 31 seconds 263 msec
