                         Program Version 3.0.3 - RELEASE   -
|  1> ! NORI PBE0 def2-TZVP UseSym TightOPT Freq TightSCF Grid3 FinalGrid5 XYZFile
|  2> % pal
|  3>     nprocs 8
|  4> end
|  5> %method
|  6>     SymThresh 5.0e-2
|  7> end
|  8> % geom
|  9>     MaxIter 10
| 10> end
| 11> % maxcore 2000
| 12> % output
| 13>     printlevel mini
| 14>     print[ P_Basis ] 0
| 15>     print[ P_SCFInfo ] 1
| 16>     print[ P_SCFIterInfo ] 1
| 17>     print[ P_OrbEn ] 0
| 18>     print[ P_Cartesian ] 0
| 19> end
| 20> % elprop
| 21>     Dipole false
| 22> end
| 23> *xyz 1 1
| 24>  C        1.0000701184    -0.0392005972     0.3533005906
| 25>  C        2.4349329706     0.1959790207    -0.0604634424
| 26>  C        3.2097580627     1.2531705697     0.7693409457
| 27>  C        3.8972239758     0.1134049299     1.5267930283
| 28>  N        3.3676398426    -0.8929313189     0.5218836484
| 29>  C        2.5965716109     0.2718433971    -1.5020589077
| 30>  N        2.7589278263     0.3250255008    -2.6382620971
| 31>  H        0.5890777132    -0.9323608281    -0.1211044407
| 32>  H        0.4018398791     0.8163509256     0.0347433785
| 33>  H        0.9175454255    -0.1230471705     1.4396066839
| 34>  H        2.5751959031     1.9097663091     1.3598086893
| 35>  H        3.8929676246     1.8498346222     0.1678842465
| 36>  H        4.9837962049     0.1100093737     1.5672729495
| 37>  H        3.4864015325    -0.1057586131     2.5093853308
| 38>  H        4.0716337707    -1.2073171113    -0.1473047766
| 39>  H        2.8911075394    -1.7127390097     0.8991041731
| 40> *
| 41>
| 42>                          ****END OF INPUT****
 Total Charge           Charge          ....    1
 Multiplicity           Mult            ....    1
 Number of Electrons    NEL             ....   52
FINAL SINGLE POINT ENERGY      -304.899561738091

CARTESIAN COORDINATES (ANGSTROEM)
---------------------------------
  C     -0.795059   -1.573687   -0.451006
  C     -0.130617   -0.245200   -0.169462
  C     -1.052230    0.999754   -0.254643
  C     -1.124433    1.016255    1.274739
  N      0.000054    0.000078    1.353024
  C      1.168714   -0.122818   -0.807192
  N      2.204535   -0.000218   -1.289004
  H     -0.153083   -2.409358   -0.166107
  H     -0.985793   -1.646282   -1.522961
  H     -1.753482   -1.646496    0.068085
  H     -1.988893    0.826707   -0.778877
  H     -0.553826    1.870864   -0.675752
  H     -0.869961    1.940141    1.787705
  H     -2.028931    0.589178    1.701926
  H      0.899596    0.408938    1.610375
  H     -0.161230   -0.820508    1.937774

FINAL SINGLE POINT ENERGY      -304.899562248231
                    ***********************HURRAY********************
 Multiplicity           Mult            ....    1
 Number of Electrons    NEL             ....   52
 Basis Dimension        Dim             ....  271
FINAL SINGLE POINT ENERGY      -304.899562357003

VIBRATIONAL FREQUENCIES
-----------------------

   0:         0.00 cm**-1
   1:         0.00 cm**-1
   2:         0.00 cm**-1
   3:         0.00 cm**-1
   4:         0.00 cm**-1
   5:         0.00 cm**-1
   6:        80.39 cm**-1
   7:       173.19 cm**-1
   8:       180.08 cm**-1
   9:       272.28 cm**-1
  10:       328.43 cm**-1
  11:       348.76 cm**-1
  12:       542.61 cm**-1
  13:       556.04 cm**-1
  14:       599.24 cm**-1
  15:       740.17 cm**-1
  16:       821.55 cm**-1
  17:       848.61 cm**-1
  18:       895.19 cm**-1
  19:       926.76 cm**-1
  20:       945.40 cm**-1
  21:       974.52 cm**-1
  22:      1013.81 cm**-1
  23:      1075.88 cm**-1
  24:      1135.77 cm**-1
  25:      1203.66 cm**-1
  26:      1222.59 cm**-1
  27:      1266.58 cm**-1
  28:      1291.66 cm**-1
  29:      1298.76 cm**-1
  30:      1341.87 cm**-1
  31:      1351.90 cm**-1
  32:      1417.38 cm**-1
  33:      1472.70 cm**-1
  34:      1483.82 cm**-1
  35:      1488.38 cm**-1
  36:      1501.05 cm**-1
  37:      1634.45 cm**-1
  38:      2387.34 cm**-1
  39:      3061.70 cm**-1
  40:      3127.29 cm**-1
  41:      3133.50 cm**-1
  42:      3148.92 cm**-1
  43:      3155.84 cm**-1
  44:      3187.65 cm**-1
  45:      3204.07 cm**-1
  46:      3448.64 cm**-1
  47:      3521.62 cm**-1

IR SPECTRUM
-----------

 Mode    freq (cm**-1)   T**2         TX         TY         TZ
-------------------------------------------------------------------
   6:        80.39    3.278153  ( -0.257225  -1.711998  -0.530144)
   7:       173.19    8.469843  (  0.369463   0.753927  -2.786563)
   8:       180.08    3.896497  ( -0.310944   1.827372   0.678618)
   9:       272.28    0.350027  ( -0.405099   0.138222   0.408431)
  10:       328.43    1.443185  ( -0.266526  -0.682930  -0.951712)
  11:       348.76    2.337661  ( -1.203048  -0.877863   0.345966)
  12:       542.61    0.786176  ( -0.636315   0.556973   0.266570)
  13:       556.04    0.563981  ( -0.186104   0.027013   0.727060)
  14:       599.24    0.504559  (  0.687381   0.023237   0.177557)
  15:       740.17    7.361758  (  1.164413   2.323443   0.779430)
  16:       821.55    3.741412  ( -0.092649  -0.782661  -1.766428)
  17:       848.61    8.126028  (  2.048603   0.687770  -1.859093)
  18:       895.19    8.403392  (  1.473046  -1.891192  -1.630006)
  19:       926.76    4.204824  (  1.756338  -0.972649   0.417198)
  20:       945.40    1.373502  ( -0.473283   0.000269  -1.072150)
  21:       974.52    4.683427  (  1.065583  -1.852747   0.339544)
  22:      1013.81    0.049491  (  0.032885   0.126065   0.180324)
  23:      1075.88   12.007228  (  0.516346   0.536352   3.384220)
  24:      1135.77   15.814379  ( -0.318989   0.344483   3.948918)
  25:      1203.66    2.125573  ( -0.466520  -0.368163   1.331311)
  26:      1222.59    1.620863  (  1.135421   0.566814  -0.101994)
  27:      1266.58   16.879951  ( -2.867307   0.404616   2.914582)
  28:      1291.66   25.495540  ( -0.361119   3.700074   3.416810)
  29:      1298.76   53.490394  ( -2.716883   4.429711   5.146513)
  30:      1341.87    2.041720  (  0.545096  -1.101582  -0.728771)
  31:      1351.90   32.877782  (  4.371102  -1.109483  -3.541228)
  32:      1417.38   13.152159  ( -2.612950  -2.467770  -0.484523)
  33:      1472.70   17.890488  (  1.876630  -1.789135   3.341817)
  34:      1483.82    3.193385  ( -1.275675   1.068248  -0.651832)
  35:      1488.38   10.264618  (  1.025763   0.354035  -3.014480)
  36:      1501.05   10.732449  ( -2.597190   1.890056   0.644003)
  37:      1634.45   59.466784  ( -3.972181   1.838456  -6.348909)
  38:      2387.34    7.242131  ( -2.167288  -0.275035   1.571416)
  39:      3061.70    3.902734  ( -0.269952   0.820506   1.776691)
  40:      3127.29    0.267638  (  0.208291  -0.445347   0.160992)
  41:      3133.50    0.150682  (  0.022411   0.282375  -0.265413)
  42:      3148.92    1.052963  ( -1.024789  -0.052629   0.000382)
  43:      3155.84    1.784234  ( -0.501000  -0.659636  -1.047909)
  44:      3187.65    0.102589  (  0.235710   0.201946  -0.079043)
  45:      3204.07    1.269709  (  0.837746   0.748492  -0.087466)
  46:      3448.64   70.994500  ( -4.807157   1.985760  -6.628914)
  47:      3521.62   89.184994  (  6.197550   6.914856  -1.720502)

--------------------------
THERMOCHEMISTRY AT 298.15K
--------------------------

Temperature         ... 298.15 K
Pressure            ... 1.00 atm
Total Mass          ... 97.14 AMU

Throughout the following assumptions are being made:
  (1) The electronic state is orbitally nondegenerate
  (2) There are no thermally accessible electronically excited states
  (3) Hindered rotations indicated by low frequency modes) are not
      treated as such but are treated as vibrations and this may
      case some error
  (4) All equations used are the standard statistical mechanics
      equations for an ideal gas
  (5) All vibrations are strinctly harmonic

------------
INNER ENERGY
------------

The inner energy is: U= E(el) + E(ZPE) + E(vib) + E(rot) + E(trans)
    E(el)   - is the total energy from the electronic structure calculation
              = E(kin-el) + E(nuc-el) + E(el-el) + E(nuc-nuc)
    E(ZPE)  - the the zero temperature vibrational energy from the frequency calculation
    E(vib)  - the the finite temperature correction to E(ZPE) due to population
              of excietd vibrational states
    E(rot)  - is the rotational thermal energy
    E(trans)- is the translational thermal energy

Summary of contributions to the inner energy U:
Electronic energy                ...   -304.89956236 Eh
Zero point energy                ...      0.14081358 Eh      88.36 kcal/mol
Thermal vibrational correction   ...      0.00434066 Eh       2.72 kcal/mol
Thermal rotational correction    ...      0.00141627 Eh       0.89 kcal/mol
Thermal translational correction ...      0.00141627 Eh       0.89 kcal/mol
-----------------------------------------------------------------------
Total thermal energy                   -304.75157557 Eh

Summary of corrections to the electronic energy:
(perhaps to be used in another calculation)
Total thermal correction                  0.00717320 Eh       4.50 kcal/mol
Non-thermal (ZPE) correction              0.14081358 Eh      88.36 kcal/mol
-----------------------------------------------------------------------
Total correction                          0.14798679 Eh      92.86 kcal/mol

--------
ENTHALPY
--------

The enthalpy is H = U + kB*T
                kB is Boltzmann's constant
Total free energy                 ...   -304.75157557 Eh
Thermal Enthalpy correction       ...      0.00094421 Eh       0.59 kcal/mol
-----------------------------------------------------------------------
Total Enthalpy                    ...   -304.75063136 Eh

-------
ENTROPY
-------

The entropy contributions are T*S = T*(S(el)+S(vib)+S(rot)+S(trans)
     S(el)   - electronic entropy
     S(vib)  - vibrational entropy
     S(rot)  - rotational entropy
     S(trans)- translational entropy
The entropies will be listed as mutliplied by the temperature to get
units of energy

Electronic entropy                ...      0.00000000 Eh      0.00 kcal/mol
Vibrational entropy               ...      0.00749781 Eh      4.70 kcal/mol
Rotational entropy                ...      0.01193075 Eh      7.49 kcal/mol
Translational entropy             ...      0.01883016 Eh     11.82 kcal/mol
-----------------------------------------------------------------------
Final entropy term                ...      0.03825872 Eh     24.01 kcal/mol

CAUTION: The rotational entropy is not quite correctly treated here
         because it includes a symmetry number that is not yet correctly
         implemented in ORCA!
For a nonlinear molecule the correct rotational entropy is:
    S(rot) = R*(ln(qrot/sn)+1.5)
    R    = 8.31441 J/mol/K = 1.987191683e-3 kcal/mol/K
    qrot = 205807.7416263
    sn is the rotational symmetry number. We have assumed 3 here
       if it is different for your molecule then you should correct
       the printed rotational entropy by manually evaluating the equation
       as given above

For convenience we print out the resulting values for sn=1 - 12:
 sn= 1  qrot/sn=  205807.7416 T*S(rot)=     8.14 kcal/mol T*S(tot)=    24.66 kcal/mol
 sn= 2  qrot/sn=  102903.8708 T*S(rot)=     7.73 kcal/mol T*S(tot)=    24.25 kcal/mol
 sn= 3  qrot/sn=   68602.5805 T*S(rot)=     7.49 kcal/mol T*S(tot)=    24.01 kcal/mol
 sn= 4  qrot/sn=   51451.9354 T*S(rot)=     7.32 kcal/mol T*S(tot)=    23.84 kcal/mol
 sn= 5  qrot/sn=   41161.5483 T*S(rot)=     7.18 kcal/mol T*S(tot)=    23.71 kcal/mol
 sn= 6  qrot/sn=   34301.2903 T*S(rot)=     7.08 kcal/mol T*S(tot)=    23.60 kcal/mol
 sn= 7  qrot/sn=   29401.1059 T*S(rot)=     6.98 kcal/mol T*S(tot)=    23.51 kcal/mol
 sn= 8  qrot/sn=   25725.9677 T*S(rot)=     6.91 kcal/mol T*S(tot)=    23.43 kcal/mol
 sn= 9  qrot/sn=   22867.5268 T*S(rot)=     6.84 kcal/mol T*S(tot)=    23.36 kcal/mol
 sn=10  qrot/sn=   20580.7742 T*S(rot)=     6.77 kcal/mol T*S(tot)=    23.29 kcal/mol
 sn=11  qrot/sn=   18709.7947 T*S(rot)=     6.72 kcal/mol T*S(tot)=    23.24 kcal/mol
 sn=12  qrot/sn=   17150.6451 T*S(rot)=     6.67 kcal/mol T*S(tot)=    23.19 kcal/mol

-------------------
GIBBS FREE ENTHALPY
-------------------

The Gibbs free enthalpy is G = H - T*S

Total enthalpy                    ...   -304.75063136 Eh
Total entropy correction          ...     -0.03825872 Eh    -24.01 kcal/mol
-----------------------------------------------------------------------
Final Gibbs free enthalpy         ...   -304.78889008 Eh

For completeness - the Gibbs free enthalpy minus the electronic energy
G-E(el)                           ...      0.11067227 Eh     69.45 kcal/mol

                             ****ORCA TERMINATED NORMALLY****
TOTAL RUN TIME: 0 days 0 hours 43 minutes 10 seconds 558 msec
