                         Program Version 3.0.3 - RELEASE   -
|  1> ! NORI PBE0 def2-TZVP UseSym TightOPT Freq TightSCF Grid3 FinalGrid5 XYZFile
|  2> % pal
|  3>     nprocs 8
|  4> end
|  5> %method
|  6>     SymThresh 5.0e-2
|  7> end
|  8> % geom
|  9>     MaxIter 10
| 10> end
| 11> % maxcore 2000
| 12> % output
| 13>     printlevel mini
| 14>     print[ P_Basis ] 0
| 15>     print[ P_SCFInfo ] 1
| 16>     print[ P_SCFIterInfo ] 1
| 17>     print[ P_OrbEn ] 0
| 18>     print[ P_Cartesian ] 0
| 19> end
| 20> % elprop
| 21>     Dipole false
| 22> end
| 23> *xyz 1 1
| 24>  C        1.0612751833    -0.0666157585     0.5138154716
| 25>  C        2.4159070381     0.1913230317    -0.0801760384
| 26>  C        3.3180310467     1.2145822159     0.6344055654
| 27>  C        4.1526269100     0.0470398207     1.1977048002
| 28>  N        3.4245229300    -0.9216061364     0.2747674766
| 29>  C        5.5838516149     0.0485878413     0.9945817967
| 30>  N        6.7144101955     0.0479905690     0.7909454324
| 31>  H        0.5817860224    -0.9369485479     0.0605607206
| 32>  H        0.4256047455     0.7989700469     0.3143219658
| 33>  H        1.1045220463    -0.2002356271     1.5982515647
| 34>  H        2.3708682439     0.2918336429    -1.1639643887
| 35>  H        2.8284696751     1.8270482151     1.3880415304
| 36>  H        3.8851902292     1.8513294921    -0.0420353680
| 37>  H        3.9144557613    -0.2056149383     2.2316617134
| 38>  H        4.0005611726    -1.2210736662    -0.5132919318
| 39>  H        3.0359971853    -1.7512602014     0.7246196891
| 40> *
| 41>
| 42>                          ****END OF INPUT****
 Total Charge           Charge          ....    1
 Multiplicity           Mult            ....    1
 Number of Electrons    NEL             ....   52
FINAL SINGLE POINT ENERGY      -304.899087038393

CARTESIAN COORDINATES (ANGSTROEM)
---------------------------------
  C     -2.516070    0.113027    0.911516
  C     -1.278828   -0.612981    0.468246
  C     -0.739793   -0.296796   -0.939291
  C      0.381152    0.541886   -0.293478
  N      0.000025   -0.000955    1.077921
  C      1.754964    0.263079   -0.646417
  N      2.842135    0.002278   -0.910327
  H     -2.705069   -0.026975    1.978037
  H     -3.370711   -0.298121    0.370263
  H     -2.469250    1.182510    0.688886
  H     -1.316869   -1.671501    0.721842
  H     -1.411473    0.264652   -1.584456
  H     -0.362388   -1.166801   -1.473192
  H      0.193067    1.616244   -0.311635
  H      0.663977   -0.695325    1.423689
  H     -0.142387    0.700505    1.805597

FINAL SINGLE POINT ENERGY      -304.899087844322
                    ***********************HURRAY********************
 Multiplicity           Mult            ....    1
 Number of Electrons    NEL             ....   52
 Basis Dimension        Dim             ....  271
FINAL SINGLE POINT ENERGY      -304.899088666124

VIBRATIONAL FREQUENCIES
-----------------------

   0:         0.00 cm**-1
   1:         0.00 cm**-1
   2:         0.00 cm**-1
   3:         0.00 cm**-1
   4:         0.00 cm**-1
   5:         0.00 cm**-1
   6:        39.46 cm**-1
   7:       149.31 cm**-1
   8:       210.99 cm**-1
   9:       261.32 cm**-1
  10:       334.95 cm**-1
  11:       367.09 cm**-1
  12:       527.68 cm**-1
  13:       549.56 cm**-1
  14:       659.34 cm**-1
  15:       783.27 cm**-1
  16:       851.69 cm**-1
  17:       858.12 cm**-1
  18:       906.32 cm**-1
  19:       942.45 cm**-1
  20:       968.54 cm**-1
  21:      1022.89 cm**-1
  22:      1076.29 cm**-1
  23:      1092.62 cm**-1
  24:      1156.30 cm**-1
  25:      1161.06 cm**-1
  26:      1258.15 cm**-1
  27:      1267.94 cm**-1
  28:      1282.25 cm**-1
  29:      1302.48 cm**-1
  30:      1323.03 cm**-1
  31:      1371.49 cm**-1
  32:      1399.14 cm**-1
  33:      1421.48 cm**-1
  34:      1477.11 cm**-1
  35:      1485.55 cm**-1
  36:      1491.16 cm**-1
  37:      1632.36 cm**-1
  38:      2393.68 cm**-1
  39:      3055.41 cm**-1
  40:      3124.52 cm**-1
  41:      3128.74 cm**-1
  42:      3130.01 cm**-1
  43:      3146.84 cm**-1
  44:      3149.24 cm**-1
  45:      3190.83 cm**-1
  46:      3447.29 cm**-1
  47:      3520.55 cm**-1

IR SPECTRUM
-----------

 Mode    freq (cm**-1)   T**2         TX         TY         TZ
-------------------------------------------------------------------
   6:        39.46    9.985802  ( -0.159068  -3.137444   0.341968)
   7:       149.31   10.830657  ( -0.110713  -0.381883  -3.266889)
   8:       210.99    3.107194  (  1.269977   0.995727  -0.709142)
   9:       261.32    0.466612  (  0.063885   0.503797  -0.456858)
  10:       334.95    1.590532  ( -1.175776   0.373184   0.262327)
  11:       367.09    0.751881  ( -0.363122   0.702997   0.354708)
  12:       527.68    0.652427  ( -0.741605   0.286725  -0.142261)
  13:       549.56    2.588599  (  1.181148  -0.394796  -1.018638)
  14:       659.34    2.020241  (  1.098220   0.256212  -0.865164)
  15:       783.27    6.736988  ( -2.522831   0.603973   0.086778)
  16:       851.69    2.059172  (  0.830991  -1.142968  -0.249500)
  17:       858.12    8.294706  (  2.645346   0.530653   1.007599)
  18:       906.32    3.926325  ( -0.683634  -1.274984   1.354025)
  19:       942.45    4.473752  ( -1.676666   0.103319   1.285250)
  20:       968.54   18.744593  ( -2.684040  -0.682266   3.327918)
  21:      1022.89   13.917138  ( -3.438775  -0.779781  -1.218158)
  22:      1076.29    1.968655  ( -1.094071  -0.700972  -0.529435)
  23:      1092.62    2.327040  ( -0.218183   0.881950   1.225398)
  24:      1156.30    2.931387  (  1.586644  -0.266184   0.585741)
  25:      1161.06    3.851569  ( -0.977767   1.647881   0.424299)
  26:      1258.15    1.634739  (  0.293768  -1.169493  -0.425118)
  27:      1267.94   52.075434  (  6.428872   2.821491  -1.668602)
  28:      1282.25    4.865914  (  1.662625   1.149656  -0.883111)
  29:      1302.48   20.017563  ( -3.333315  -2.733750   1.197155)
  30:      1323.03   26.669235  (  3.043456   3.266028  -2.596087)
  31:      1371.49   23.798594  (  4.579827   0.386827  -1.635280)
  32:      1399.14    6.135147  (  1.877115  -0.831038  -1.385988)
  33:      1421.48   11.999274  (  2.951879  -1.812497  -0.023146)
  34:      1477.11   16.579284  (  1.321943   0.195249   3.846249)
  35:      1485.55   12.205067  ( -0.987421  -3.258413   0.782822)
  36:      1491.16    8.174814  ( -0.614417  -0.820766  -2.669016)
  37:      1632.36   58.031412  ( -3.186594   0.177280  -6.917051)
  38:      2393.68    8.391737  ( -2.629614   0.402156   1.146795)
  39:      3055.41    3.276806  (  1.269261   1.262233   0.269353)
  40:      3124.52    2.963424  ( -0.175714  -1.547953   0.732387)
  41:      3128.74    1.450500  ( -0.057533  -1.196266  -0.127038)
  42:      3130.01    0.309800  (  0.038892   0.295606  -0.470004)
  43:      3146.84    1.408538  (  1.045246   0.215087  -0.519360)
  44:      3149.24    1.648795  ( -0.301434   1.075690  -0.633106)
  45:      3190.83    0.900078  ( -0.144109   0.937637   0.012174)
  46:      3447.29   69.992987  (  3.269087  -0.274410   7.696152)
  47:      3520.55   91.333596  (  4.856832  -8.037528  -1.772827)

--------------------------
THERMOCHEMISTRY AT 298.15K
--------------------------

Temperature         ... 298.15 K
Pressure            ... 1.00 atm
Total Mass          ... 97.14 AMU

Throughout the following assumptions are being made:
  (1) The electronic state is orbitally nondegenerate
  (2) There are no thermally accessible electronically excited states
  (3) Hindered rotations indicated by low frequency modes) are not
      treated as such but are treated as vibrations and this may
      case some error
  (4) All equations used are the standard statistical mechanics
      equations for an ideal gas
  (5) All vibrations are strinctly harmonic

------------
INNER ENERGY
------------

The inner energy is: U= E(el) + E(ZPE) + E(vib) + E(rot) + E(trans)
    E(el)   - is the total energy from the electronic structure calculation
              = E(kin-el) + E(nuc-el) + E(el-el) + E(nuc-nuc)
    E(ZPE)  - the the zero temperature vibrational energy from the frequency calculation
    E(vib)  - the the finite temperature correction to E(ZPE) due to population
              of excietd vibrational states
    E(rot)  - is the rotational thermal energy
    E(trans)- is the translational thermal energy

Summary of contributions to the inner energy U:
Electronic energy                ...   -304.89908867 Eh
Zero point energy                ...      0.14106071 Eh      88.52 kcal/mol
Thermal vibrational correction   ...      0.00434038 Eh       2.72 kcal/mol
Thermal rotational correction    ...      0.00141627 Eh       0.89 kcal/mol
Thermal translational correction ...      0.00141627 Eh       0.89 kcal/mol
-----------------------------------------------------------------------
Total thermal energy                   -304.75085503 Eh

Summary of corrections to the electronic energy:
(perhaps to be used in another calculation)
Total thermal correction                  0.00717292 Eh       4.50 kcal/mol
Non-thermal (ZPE) correction              0.14106071 Eh      88.52 kcal/mol
-----------------------------------------------------------------------
Total correction                          0.14823364 Eh      93.02 kcal/mol

--------
ENTHALPY
--------

The enthalpy is H = U + kB*T
                kB is Boltzmann's constant
Total free energy                 ...   -304.75085503 Eh
Thermal Enthalpy correction       ...      0.00094421 Eh       0.59 kcal/mol
-----------------------------------------------------------------------
Total Enthalpy                    ...   -304.74991082 Eh

-------
ENTROPY
-------

The entropy contributions are T*S = T*(S(el)+S(vib)+S(rot)+S(trans)
     S(el)   - electronic entropy
     S(vib)  - vibrational entropy
     S(rot)  - rotational entropy
     S(trans)- translational entropy
The entropies will be listed as mutliplied by the temperature to get
units of energy

Electronic entropy                ...      0.00000000 Eh      0.00 kcal/mol
Vibrational entropy               ...      0.00805600 Eh      5.06 kcal/mol
Rotational entropy                ...      0.01193509 Eh      7.49 kcal/mol
Translational entropy             ...      0.01883016 Eh     11.82 kcal/mol
-----------------------------------------------------------------------
Final entropy term                ...      0.03882125 Eh     24.36 kcal/mol

CAUTION: The rotational entropy is not quite correctly treated here
         because it includes a symmetry number that is not yet correctly
         implemented in ORCA!
For a nonlinear molecule the correct rotational entropy is:
    S(rot) = R*(ln(qrot/sn)+1.5)
    R    = 8.31441 J/mol/K = 1.987191683e-3 kcal/mol/K
    qrot = 206756.7476384
    sn is the rotational symmetry number. We have assumed 3 here
       if it is different for your molecule then you should correct
       the printed rotational entropy by manually evaluating the equation
       as given above

For convenience we print out the resulting values for sn=1 - 12:
 sn= 1  qrot/sn=  206756.7476 T*S(rot)=     8.14 kcal/mol T*S(tot)=    25.01 kcal/mol
 sn= 2  qrot/sn=  103378.3738 T*S(rot)=     7.73 kcal/mol T*S(tot)=    24.60 kcal/mol
 sn= 3  qrot/sn=   68918.9159 T*S(rot)=     7.49 kcal/mol T*S(tot)=    24.36 kcal/mol
 sn= 4  qrot/sn=   51689.1869 T*S(rot)=     7.32 kcal/mol T*S(tot)=    24.19 kcal/mol
 sn= 5  qrot/sn=   41351.3495 T*S(rot)=     7.19 kcal/mol T*S(tot)=    24.06 kcal/mol
 sn= 6  qrot/sn=   34459.4579 T*S(rot)=     7.08 kcal/mol T*S(tot)=    23.95 kcal/mol
 sn= 7  qrot/sn=   29536.6782 T*S(rot)=     6.99 kcal/mol T*S(tot)=    23.86 kcal/mol
 sn= 8  qrot/sn=   25844.5935 T*S(rot)=     6.91 kcal/mol T*S(tot)=    23.78 kcal/mol
 sn= 9  qrot/sn=   22972.9720 T*S(rot)=     6.84 kcal/mol T*S(tot)=    23.71 kcal/mol
 sn=10  qrot/sn=   20675.6748 T*S(rot)=     6.78 kcal/mol T*S(tot)=    23.65 kcal/mol
 sn=11  qrot/sn=   18796.0680 T*S(rot)=     6.72 kcal/mol T*S(tot)=    23.59 kcal/mol
 sn=12  qrot/sn=   17229.7290 T*S(rot)=     6.67 kcal/mol T*S(tot)=    23.54 kcal/mol

-------------------
GIBBS FREE ENTHALPY
-------------------

The Gibbs free enthalpy is G = H - T*S

Total enthalpy                    ...   -304.74991082 Eh
Total entropy correction          ...     -0.03882125 Eh    -24.36 kcal/mol
-----------------------------------------------------------------------
Final Gibbs free enthalpy         ...   -304.78873207 Eh

For completeness - the Gibbs free enthalpy minus the electronic energy
G-E(el)                           ...      0.11035659 Eh     69.25 kcal/mol

                             ****ORCA TERMINATED NORMALLY****
TOTAL RUN TIME: 0 days 0 hours 31 minutes 13 seconds 378 msec
