                         Program Version 3.0.3 - RELEASE   -
|  1> ! NORI PBE0 def2-TZVP UseSym TightOPT Freq TightSCF Grid3 FinalGrid5 XYZFile
|  2> % pal
|  3>     nprocs 8
|  4> end
|  5> %method
|  6>     SymThresh 5.0e-2
|  7> end
|  8> % geom
|  9>     MaxIter 10
| 10> end
| 11> % maxcore 2000
| 12> % output
| 13>     printlevel mini
| 14>     print[ P_Basis ] 0
| 15>     print[ P_SCFInfo ] 1
| 16>     print[ P_SCFIterInfo ] 1
| 17>     print[ P_OrbEn ] 0
| 18>     print[ P_Cartesian ] 0
| 19> end
| 20> % elprop
| 21>     Dipole false
| 22> end
| 23> *xyz 1 1
| 24>  C        0.9028453661     0.1907357842     0.2066498758
| 25>  C        2.3998129266     0.0137738817    -0.0046542638
| 26>  C        2.8162419463    -1.4368072062    -0.3288089779
| 27>  C        2.8998330978    -1.5243742652    -1.8472899902
| 28>  N        3.2929706080    -0.1474518009    -2.2648437299
| 29>  C        2.2436386572     0.8738935558    -2.4586441912
| 30>  C        2.9604633016     0.8168818753    -1.1727705740
| 31>  H        0.6346574721     1.2438131145     0.3079061908
| 32>  H        0.6000031004    -0.3163828594     1.1234322797
| 33>  H        0.3103875642    -0.2356766480    -0.6067709899
| 34>  H        2.9173294669     0.3447120312     0.8971092191
| 35>  H        3.7964876499    -1.6509307711     0.1013231761
| 36>  H        2.1134676783    -2.1646702439     0.0767079203
| 37>  H        3.6547400363    -2.2202605391    -2.2100078440
| 38>  H        1.9504835219    -1.7663666578    -2.3250487020
| 39>  H        4.1546303120    -0.0347473320    -2.7867044257
| 40>  H        1.2451903521     0.4644800799    -2.5389053945
| 41>  H        2.4966770818     1.6470516288    -3.1740041767
| 42>  H        3.7192798604     1.5685163723    -0.9893254021
| 43> *
| 44>
| 45>                          ****END OF INPUT****
 Total Charge           Charge          ....    1
 Multiplicity           Mult            ....    1
 Number of Electrons    NEL             ....   54
FINAL SINGLE POINT ENERGY      -290.099992085893
FINAL SINGLE POINT ENERGY      -290.099993164832

CARTESIAN COORDINATES (ANGSTROEM)
---------------------------------
  C      0.677446    0.001299   -2.001814
  C     -0.306584    0.535536   -0.970272
  C     -1.347288   -0.504801   -0.503102
  C     -0.796936   -1.107231    0.783608
  N     -0.000165    0.000270    1.385924
  C      1.402488    0.189749    0.963884
  C      0.346777    0.996361    0.327612
  H      1.466985    0.724716   -2.213556
  H      0.154549   -0.199670   -2.937569
  H      1.147700   -0.934638   -1.688636
  H     -0.823786    1.395265   -1.399719
  H     -2.300657   -0.014802   -0.295743
  H     -1.528807   -1.270034   -1.258109
  H     -1.563691   -1.404578    1.497274
  H     -0.131246   -1.954837    0.619964
  H     -0.255690    0.323182    2.312008
  H      1.819711   -0.661779    0.442434
  H      2.039167    0.644331    1.712858
  H      0.253100    2.031042    0.635988

FINAL SINGLE POINT ENERGY      -290.099993633338
                    ***********************HURRAY********************
 Multiplicity           Mult            ....    1
 Number of Electrons    NEL             ....   54
 Basis Dimension        Dim             ....  289
FINAL SINGLE POINT ENERGY      -290.099993857746

VIBRATIONAL FREQUENCIES
-----------------------

   0:         0.00 cm**-1
   1:         0.00 cm**-1
   2:         0.00 cm**-1
   3:         0.00 cm**-1
   4:         0.00 cm**-1
   5:         0.00 cm**-1
   6:        86.54 cm**-1
   7:       223.37 cm**-1
   8:       262.72 cm**-1
   9:       343.67 cm**-1
  10:       383.67 cm**-1
  11:       471.35 cm**-1
  12:       640.33 cm**-1
  13:       668.07 cm**-1
  14:       750.47 cm**-1
  15:       807.28 cm**-1
  16:       822.87 cm**-1
  17:       852.15 cm**-1
  18:       915.56 cm**-1
  19:       944.28 cm**-1
  20:       970.43 cm**-1
  21:       988.39 cm**-1
  22:      1013.33 cm**-1
  23:      1053.29 cm**-1
  24:      1071.68 cm**-1
  25:      1112.86 cm**-1
  26:      1122.71 cm**-1
  27:      1148.57 cm**-1
  28:      1173.59 cm**-1
  29:      1190.96 cm**-1
  30:      1239.18 cm**-1
  31:      1253.48 cm**-1
  32:      1274.87 cm**-1
  33:      1315.96 cm**-1
  34:      1340.93 cm**-1
  35:      1364.69 cm**-1
  36:      1376.24 cm**-1
  37:      1392.38 cm**-1
  38:      1420.01 cm**-1
  39:      1429.33 cm**-1
  40:      1484.41 cm**-1
  41:      1487.79 cm**-1
  42:      1489.54 cm**-1
  43:      1502.11 cm**-1
  44:      1514.37 cm**-1
  45:      3057.56 cm**-1
  46:      3088.98 cm**-1
  47:      3104.76 cm**-1
  48:      3109.06 cm**-1
  49:      3133.41 cm**-1
  50:      3146.18 cm**-1
  51:      3150.07 cm**-1
  52:      3169.47 cm**-1
  53:      3170.05 cm**-1
  54:      3207.29 cm**-1
  55:      3269.86 cm**-1
  56:      3565.38 cm**-1

IR SPECTRUM
-----------

 Mode    freq (cm**-1)   T**2         TX         TY         TZ
-------------------------------------------------------------------
   6:        86.54    0.386019  (  0.003612  -0.200721  -0.587977)
   7:       223.37    0.457253  (  0.417725  -0.136521  -0.513927)
   8:       262.72    0.422387  ( -0.194949   0.236897   0.572941)
   9:       343.67    0.209781  (  0.238777  -0.316982   0.228667)
  10:       383.67    0.132649  ( -0.213194   0.237891  -0.174944)
  11:       471.35    0.213363  (  0.312681   0.105185   0.323310)
  12:       640.33    1.609665  ( -0.871022  -0.200455   0.900446)
  13:       668.07    0.439745  (  0.403914   0.523731   0.048004)
  14:       750.47    4.670405  ( -0.271261  -1.692230   1.316503)
  15:       807.28   10.400323  ( -2.283808  -0.301810   2.256869)
  16:       822.87    0.533725  ( -0.666064  -0.213404   0.211050)
  17:       852.15    1.053338  (  0.219925   0.918871   0.400809)
  18:       915.56   14.484790  ( -2.078762   1.879002  -2.575440)
  19:       944.28    8.180061  (  2.323447  -1.490624   0.748126)
  20:       970.43    0.528756  (  0.291740   0.622991  -0.235640)
  21:       988.39    8.042761  (  0.091193   2.446312  -1.431783)
  22:      1013.33   18.833380  (  4.057476   1.414969   0.606741)
  23:      1053.29    3.759397  ( -1.167164  -1.299812   0.841198)
  24:      1071.68    8.373659  ( -0.137666  -2.875211  -0.296423)
  25:      1112.86    6.880294  (  1.343842  -1.539081   1.644874)
  26:      1122.71    2.179635  (  1.343606  -0.605080   0.090750)
  27:      1148.57    4.474326  ( -0.363235   0.530308  -2.015232)
  28:      1173.59    0.831617  ( -0.394071  -0.126622   0.812583)
  29:      1190.96    1.132523  ( -0.819734  -0.035930  -0.677693)
  30:      1239.18    6.974566  (  0.755994   1.797443  -1.781078)
  31:      1253.48    1.368108  ( -0.671412   0.619470   0.730459)
  32:      1274.87    1.037784  ( -0.163032   0.357354   0.939948)
  33:      1315.96    0.148112  ( -0.179770  -0.283930   0.187560)
  34:      1340.93    1.291588  (  0.615602   0.589732  -0.751558)
  35:      1364.69    3.663012  ( -1.793493  -0.552698  -0.375395)
  36:      1376.24    1.648744  ( -0.641639   0.343867  -1.057733)
  37:      1392.38    6.406347  ( -0.610978  -2.291731   0.883754)
  38:      1420.01   14.896652  ( -1.428437  -3.490232  -0.821279)
  39:      1429.33   27.081620  (  4.911856   1.301227  -1.123431)
  40:      1484.41    0.141033  ( -0.152070  -0.301480   0.164369)
  41:      1487.79   10.552284  (  2.666995   1.068934   1.515520)
  42:      1489.54    3.745464  (  0.621096  -0.366733   1.795887)
  43:      1502.11    2.408323  ( -1.000319   0.960808  -0.696083)
  44:      1514.37   32.252797  ( -1.296938   5.045271  -2.261856)
  45:      3057.56    6.403456  (  2.003616  -1.530576  -0.215213)
  46:      3088.98    2.863660  (  1.678164   0.216068  -0.027233)
  47:      3104.76    1.969389  (  1.172177  -0.719515  -0.278727)
  48:      3109.06    1.981569  (  0.355744  -1.173085   0.692016)
  49:      3133.41   12.136621  (  0.405239  -2.878812   1.919594)
  50:      3146.18    1.533364  ( -1.018220   0.702979   0.049112)
  51:      3150.07    3.248312  ( -1.316511  -0.834591  -0.904747)
  52:      3169.47    1.033834  ( -1.014789   0.015351   0.061651)
  53:      3170.05    0.389730  ( -0.037170  -0.502464  -0.368617)
  54:      3207.29    0.785439  ( -0.082892   0.858895  -0.202156)
  55:      3269.86    3.658825  (  0.253256   1.284241   1.394780)
  56:      3565.38  106.579948  ( -2.824143   2.324049   9.654168)

--------------------------
THERMOCHEMISTRY AT 298.15K
--------------------------

Temperature         ... 298.15 K
Pressure            ... 1.00 atm
Total Mass          ... 98.17 AMU

Throughout the following assumptions are being made:
  (1) The electronic state is orbitally nondegenerate
  (2) There are no thermally accessible electronically excited states
  (3) Hindered rotations indicated by low frequency modes) are not
      treated as such but are treated as vibrations and this may
      case some error
  (4) All equations used are the standard statistical mechanics
      equations for an ideal gas
  (5) All vibrations are strinctly harmonic

------------
INNER ENERGY
------------

The inner energy is: U= E(el) + E(ZPE) + E(vib) + E(rot) + E(trans)
    E(el)   - is the total energy from the electronic structure calculation
              = E(kin-el) + E(nuc-el) + E(el-el) + E(nuc-nuc)
    E(ZPE)  - the the zero temperature vibrational energy from the frequency calculation
    E(vib)  - the the finite temperature correction to E(ZPE) due to population
              of excietd vibrational states
    E(rot)  - is the rotational thermal energy
    E(trans)- is the translational thermal energy

Summary of contributions to the inner energy U:
Electronic energy                ...   -290.09999386 Eh
Zero point energy                ...      0.17786909 Eh     111.61 kcal/mol
Thermal vibrational correction   ...      0.00376255 Eh       2.36 kcal/mol
Thermal rotational correction    ...      0.00141627 Eh       0.89 kcal/mol
Thermal translational correction ...      0.00141627 Eh       0.89 kcal/mol
-----------------------------------------------------------------------
Total thermal energy                   -289.91552968 Eh

Summary of corrections to the electronic energy:
(perhaps to be used in another calculation)
Total thermal correction                  0.00659509 Eh       4.14 kcal/mol
Non-thermal (ZPE) correction              0.17786909 Eh     111.61 kcal/mol
-----------------------------------------------------------------------
Total correction                          0.18446418 Eh     115.75 kcal/mol

--------
ENTHALPY
--------

The enthalpy is H = U + kB*T
                kB is Boltzmann's constant
Total free energy                 ...   -289.91552968 Eh
Thermal Enthalpy correction       ...      0.00094421 Eh       0.59 kcal/mol
-----------------------------------------------------------------------
Total Enthalpy                    ...   -289.91458547 Eh

-------
ENTROPY
-------

The entropy contributions are T*S = T*(S(el)+S(vib)+S(rot)+S(trans)
     S(el)   - electronic entropy
     S(vib)  - vibrational entropy
     S(rot)  - rotational entropy
     S(trans)- translational entropy
The entropies will be listed as mutliplied by the temperature to get
units of energy

Electronic entropy                ...      0.00000000 Eh      0.00 kcal/mol
Vibrational entropy               ...      0.00620026 Eh      3.89 kcal/mol
Rotational entropy                ...      0.01180439 Eh      7.41 kcal/mol
Translational entropy             ...      0.01884507 Eh     11.83 kcal/mol
-----------------------------------------------------------------------
Final entropy term                ...      0.03684972 Eh     23.12 kcal/mol

CAUTION: The rotational entropy is not quite correctly treated here
         because it includes a symmetry number that is not yet correctly
         implemented in ORCA!
For a nonlinear molecule the correct rotational entropy is:
    S(rot) = R*(ln(qrot/sn)+1.5)
    R    = 8.31441 J/mol/K = 1.987191683e-3 kcal/mol/K
    qrot = 180028.2673208
    sn is the rotational symmetry number. We have assumed 3 here
       if it is different for your molecule then you should correct
       the printed rotational entropy by manually evaluating the equation
       as given above

For convenience we print out the resulting values for sn=1 - 12:
 sn= 1  qrot/sn=  180028.2673 T*S(rot)=     8.06 kcal/mol T*S(tot)=    23.77 kcal/mol
 sn= 2  qrot/sn=   90014.1337 T*S(rot)=     7.65 kcal/mol T*S(tot)=    23.36 kcal/mol
 sn= 3  qrot/sn=   60009.4224 T*S(rot)=     7.41 kcal/mol T*S(tot)=    23.12 kcal/mol
 sn= 4  qrot/sn=   45007.0668 T*S(rot)=     7.24 kcal/mol T*S(tot)=    22.95 kcal/mol
 sn= 5  qrot/sn=   36005.6535 T*S(rot)=     7.10 kcal/mol T*S(tot)=    22.82 kcal/mol
 sn= 6  qrot/sn=   30004.7112 T*S(rot)=     7.00 kcal/mol T*S(tot)=    22.71 kcal/mol
 sn= 7  qrot/sn=   25718.3239 T*S(rot)=     6.91 kcal/mol T*S(tot)=    22.62 kcal/mol
 sn= 8  qrot/sn=   22503.5334 T*S(rot)=     6.83 kcal/mol T*S(tot)=    22.54 kcal/mol
 sn= 9  qrot/sn=   20003.1408 T*S(rot)=     6.76 kcal/mol T*S(tot)=    22.47 kcal/mol
 sn=10  qrot/sn=   18002.8267 T*S(rot)=     6.69 kcal/mol T*S(tot)=    22.41 kcal/mol
 sn=11  qrot/sn=   16366.2061 T*S(rot)=     6.64 kcal/mol T*S(tot)=    22.35 kcal/mol
 sn=12  qrot/sn=   15002.3556 T*S(rot)=     6.59 kcal/mol T*S(tot)=    22.30 kcal/mol

-------------------
GIBBS FREE ENTHALPY
-------------------

The Gibbs free enthalpy is G = H - T*S

Total enthalpy                    ...   -289.91458547 Eh
Total entropy correction          ...     -0.03684972 Eh    -23.12 kcal/mol
-----------------------------------------------------------------------
Final Gibbs free enthalpy         ...   -289.95143519 Eh

For completeness - the Gibbs free enthalpy minus the electronic energy
G-E(el)                           ...      0.14855866 Eh     93.22 kcal/mol

                             ****ORCA TERMINATED NORMALLY****
TOTAL RUN TIME: 0 days 0 hours 53 minutes 5 seconds 547 msec
