                         Program Version 3.0.3 - RELEASE   -
|  1> ! NORI PBE0 def2-TZVP UseSym TightOPT Freq TightSCF Grid3 FinalGrid5 XYZFile
|  2> % pal
|  3>     nprocs 8
|  4> end
|  5> %method
|  6>     SymThresh 5.0e-2
|  7> end
|  8> % geom
|  9>     MaxIter 10
| 10> end
| 11> % maxcore 2000
| 12> % output
| 13>     printlevel mini
| 14>     print[ P_Basis ] 0
| 15>     print[ P_SCFInfo ] 1
| 16>     print[ P_SCFIterInfo ] 1
| 17>     print[ P_OrbEn ] 0
| 18>     print[ P_Cartesian ] 0
| 19> end
| 20> % elprop
| 21>     Dipole false
| 22> end
| 23> *xyz 1 1
| 24>  C        1.1258753647     0.1427183743     0.6788717279
| 25>  C        2.2190550627    -0.0022234066    -0.0528129762
| 26>  C        2.7918256553    -1.2702931710    -0.6330837335
| 27>  C        4.3024490269    -1.0395448223    -0.6441553944
| 28>  N        4.4497229987     0.4379758979    -0.7296196700
| 29>  C        3.6961920886     1.1726526244    -1.7603136218
| 30>  C        3.1482967272     1.1014871153    -0.3869942135
| 31>  H        0.4950356256    -0.7046047429     0.9193427422
| 32>  H        0.8149696147     1.1110918912     1.0527130076
| 33>  H        2.5315391739    -2.1475449603    -0.0428170373
| 34>  H        2.4165093306    -1.4439477314    -1.6454724590
| 35>  H        4.7662308637    -1.3403689030     0.2958047517
| 36>  H        4.8298298928    -1.5068190735    -1.4750594906
| 37>  H        5.3189110324     0.8466882639    -0.4051926848
| 38>  H        3.2807727544     0.5507904387    -2.5427040010
| 39>  H        4.1692573229     2.0907735157    -2.0840708154
| 40>  H        3.2126374648     1.9814386899     0.2416438682
| 41> *
| 42>
| 43>                          ****END OF INPUT****
 Total Charge           Charge          ....    1
 Multiplicity           Mult            ....    1
 Number of Electrons    NEL             ....   52
FINAL SINGLE POINT ENERGY      -288.873057505043

CARTESIAN COORDINATES (ANGSTROEM)
---------------------------------
  C      1.072998   -0.000485   -2.083506
  C      0.361071    0.034152   -0.968391
  C     -0.868231    0.854873   -0.671549
  C     -0.790171    1.135176    0.828848
  N     -0.000348   -0.000056    1.376161
  C     -0.382129   -1.376286    1.015467
  C      0.706528   -0.714449    0.261839
  H      0.792354    0.590081   -2.947168
  H      1.951410   -0.627911   -2.179305
  H     -0.893974    1.780661   -1.244535
  H     -1.778975    0.301875   -0.917903
  H     -0.218527    2.038441    1.043966
  H     -1.753595    1.186116    1.334787
  H      0.473946    0.136744    2.261829
  H     -1.366913   -1.469537    0.576215
  H     -0.122294   -2.117131    1.760894
  H      1.728768   -1.013698    0.459844

FINAL SINGLE POINT ENERGY      -288.873058072639
                    ***********************HURRAY********************
 Multiplicity           Mult            ....    1
 Number of Electrons    NEL             ....   52
 Basis Dimension        Dim             ....  277
FINAL SINGLE POINT ENERGY      -288.873058291575

VIBRATIONAL FREQUENCIES
-----------------------

   0:         0.00 cm**-1
   1:         0.00 cm**-1
   2:         0.00 cm**-1
   3:         0.00 cm**-1
   4:         0.00 cm**-1
   5:         0.00 cm**-1
   6:       141.69 cm**-1
   7:       258.18 cm**-1
   8:       350.96 cm**-1
   9:       363.45 cm**-1
  10:       504.71 cm**-1
  11:       627.75 cm**-1
  12:       637.98 cm**-1
  13:       751.98 cm**-1
  14:       760.44 cm**-1
  15:       796.13 cm**-1
  16:       842.28 cm**-1
  17:       853.27 cm**-1
  18:       922.83 cm**-1
  19:       953.84 cm**-1
  20:       983.12 cm**-1
  21:       992.66 cm**-1
  22:      1027.18 cm**-1
  23:      1051.63 cm**-1
  24:      1068.38 cm**-1
  25:      1137.10 cm**-1
  26:      1153.27 cm**-1
  27:      1158.10 cm**-1
  28:      1226.09 cm**-1
  29:      1229.74 cm**-1
  30:      1262.75 cm**-1
  31:      1278.93 cm**-1
  32:      1323.55 cm**-1
  33:      1351.69 cm**-1
  34:      1371.90 cm**-1
  35:      1430.67 cm**-1
  36:      1461.82 cm**-1
  37:      1479.34 cm**-1
  38:      1491.69 cm**-1
  39:      1509.98 cm**-1
  40:      1758.91 cm**-1
  41:      3076.39 cm**-1
  42:      3106.34 cm**-1
  43:      3149.93 cm**-1
  44:      3168.86 cm**-1
  45:      3171.67 cm**-1
  46:      3172.48 cm**-1
  47:      3215.28 cm**-1
  48:      3263.37 cm**-1
  49:      3272.82 cm**-1
  50:      3562.26 cm**-1

IR SPECTRUM
-----------

 Mode    freq (cm**-1)   T**2         TX         TY         TZ
-------------------------------------------------------------------
   6:       141.69    1.675134  (  1.041469   0.658090  -0.396727)
   7:       258.18    1.341757  (  0.863332   0.715914   0.289623)
   8:       350.96    1.112841  ( -0.829633  -0.402630   0.512288)
   9:       363.45    0.968123  (  0.721694   0.617309   0.257315)
  10:       504.71    4.756474  ( -1.178980  -1.717915  -0.644397)
  11:       627.75    3.970753  (  1.337041   1.352269   0.595349)
  12:       637.98    1.760508  ( -0.794865  -1.001740  -0.353858)
  13:       751.98   10.089845  (  0.313512  -2.208315  -2.261614)
  14:       760.44    3.366767  (  1.137605  -0.223498  -1.422206)
  15:       796.13    4.099970  ( -0.175584  -1.229867  -1.598927)
  16:       842.28    5.554657  ( -0.019574  -0.371178  -2.327338)
  17:       853.27    2.252117  ( -1.430215  -0.077806   0.447826)
  18:       922.83   14.127166  (  2.216715   1.806953  -2.438906)
  19:       953.84    4.479051  ( -1.900654  -0.829220   0.423035)
  20:       983.12    6.819916  ( -2.392065  -0.041449   1.047008)
  21:       992.66   41.263698  ( -2.783950  -5.052262  -2.826300)
  22:      1027.18   14.435649  ( -0.589507   3.594793   1.079626)
  23:      1051.63   14.574252  (  3.189490  -1.909327  -0.869413)
  24:      1068.38    5.493892  ( -0.864007  -0.922713   1.973825)
  25:      1137.10    3.275089  (  1.148982   0.349352  -1.353840)
  26:      1153.27    1.216446  (  0.104480   0.756196   0.796051)
  27:      1158.10    0.243428  (  0.243203   0.294067   0.312738)
  28:      1226.09    2.984558  (  1.622484   0.075188  -0.588599)
  29:      1229.74    6.735194  ( -1.679852   0.566163   1.895456)
  30:      1262.75    1.467902  ( -0.798845  -0.763264  -0.497169)
  31:      1278.93    0.017356  (  0.065391  -0.114306   0.003711)
  32:      1323.55    0.093757  (  0.131451  -0.171326   0.217084)
  33:      1351.69   13.038948  (  0.511346  -3.377983  -1.169061)
  34:      1371.90    7.120618  (  1.824783  -1.881089  -0.502284)
  35:      1430.67   23.933682  ( -1.165530   4.748860  -0.153459)
  36:      1461.82    6.700194  (  1.505829   0.240359  -2.091626)
  37:      1479.34   12.541620  (  0.785918  -0.287178   3.441146)
  38:      1491.69   12.332706  ( -2.654419  -1.915719  -1.271529)
  39:      1509.98   15.195420  ( -3.268626   1.119565   1.805016)
  40:      1758.91    2.127789  (  1.126910  -0.425817  -0.822522)
  41:      3076.39    1.534938  ( -1.022210  -0.696758  -0.067481)
  42:      3106.34    1.823063  ( -0.188158   0.929879   0.960721)
  43:      3149.93    0.252951  (  0.078213   0.268775  -0.417844)
  44:      3168.86    0.234233  ( -0.205220   0.432196  -0.072964)
  45:      3171.67    1.955126  (  0.514238   1.186111  -0.532753)
  46:      3172.48    1.206383  (  0.347999   0.285848  -1.001784)
  47:      3215.28    2.735899  ( -1.589662   0.307052   0.338515)
  48:      3263.37    0.269076  (  0.042544  -0.276339   0.436924)
  49:      3272.82    5.241143  (  1.395938  -0.970470   1.533195)
  50:      3562.26  116.231757  ( -3.682682  -1.973860  -9.938485)

--------------------------
THERMOCHEMISTRY AT 298.15K
--------------------------

Temperature         ... 298.15 K
Pressure            ... 1.00 atm
Total Mass          ... 96.15 AMU

Throughout the following assumptions are being made:
  (1) The electronic state is orbitally nondegenerate
  (2) There are no thermally accessible electronically excited states
  (3) Hindered rotations indicated by low frequency modes) are not
      treated as such but are treated as vibrations and this may
      case some error
  (4) All equations used are the standard statistical mechanics
      equations for an ideal gas
  (5) All vibrations are strinctly harmonic

------------
INNER ENERGY
------------

The inner energy is: U= E(el) + E(ZPE) + E(vib) + E(rot) + E(trans)
    E(el)   - is the total energy from the electronic structure calculation
              = E(kin-el) + E(nuc-el) + E(el-el) + E(nuc-nuc)
    E(ZPE)  - the the zero temperature vibrational energy from the frequency calculation
    E(vib)  - the the finite temperature correction to E(ZPE) due to population
              of excietd vibrational states
    E(rot)  - is the rotational thermal energy
    E(trans)- is the translational thermal energy

Summary of contributions to the inner energy U:
Electronic energy                ...   -288.87305829 Eh
Zero point energy                ...      0.15417130 Eh      96.74 kcal/mol
Thermal vibrational correction   ...      0.00317697 Eh       1.99 kcal/mol
Thermal rotational correction    ...      0.00141627 Eh       0.89 kcal/mol
Thermal translational correction ...      0.00141627 Eh       0.89 kcal/mol
-----------------------------------------------------------------------
Total thermal energy                   -288.71287748 Eh

Summary of corrections to the electronic energy:
(perhaps to be used in another calculation)
Total thermal correction                  0.00600951 Eh       3.77 kcal/mol
Non-thermal (ZPE) correction              0.15417130 Eh      96.74 kcal/mol
-----------------------------------------------------------------------
Total correction                          0.16018081 Eh     100.51 kcal/mol

--------
ENTHALPY
--------

The enthalpy is H = U + kB*T
                kB is Boltzmann's constant
Total free energy                 ...   -288.71287748 Eh
Thermal Enthalpy correction       ...      0.00094421 Eh       0.59 kcal/mol
-----------------------------------------------------------------------
Total Enthalpy                    ...   -288.71193327 Eh

-------
ENTROPY
-------

The entropy contributions are T*S = T*(S(el)+S(vib)+S(rot)+S(trans)
     S(el)   - electronic entropy
     S(vib)  - vibrational entropy
     S(rot)  - rotational entropy
     S(trans)- translational entropy
The entropies will be listed as mutliplied by the temperature to get
units of energy

Electronic entropy                ...      0.00000000 Eh      0.00 kcal/mol
Vibrational entropy               ...      0.00489513 Eh      3.07 kcal/mol
Rotational entropy                ...      0.01175976 Eh      7.38 kcal/mol
Translational entropy             ...      0.01881568 Eh     11.81 kcal/mol
-----------------------------------------------------------------------
Final entropy term                ...      0.03547058 Eh     22.26 kcal/mol

CAUTION: The rotational entropy is not quite correctly treated here
         because it includes a symmetry number that is not yet correctly
         implemented in ORCA!
For a nonlinear molecule the correct rotational entropy is:
    S(rot) = R*(ln(qrot/sn)+1.5)
    R    = 8.31441 J/mol/K = 1.987191683e-3 kcal/mol/K
    qrot = 171716.7539508
    sn is the rotational symmetry number. We have assumed 3 here
       if it is different for your molecule then you should correct
       the printed rotational entropy by manually evaluating the equation
       as given above

For convenience we print out the resulting values for sn=1 - 12:
 sn= 1  qrot/sn=  171716.7540 T*S(rot)=     8.03 kcal/mol T*S(tot)=    22.91 kcal/mol
 sn= 2  qrot/sn=   85858.3770 T*S(rot)=     7.62 kcal/mol T*S(tot)=    22.50 kcal/mol
 sn= 3  qrot/sn=   57238.9180 T*S(rot)=     7.38 kcal/mol T*S(tot)=    22.26 kcal/mol
 sn= 4  qrot/sn=   42929.1885 T*S(rot)=     7.21 kcal/mol T*S(tot)=    22.09 kcal/mol
 sn= 5  qrot/sn=   34343.3508 T*S(rot)=     7.08 kcal/mol T*S(tot)=    21.96 kcal/mol
 sn= 6  qrot/sn=   28619.4590 T*S(rot)=     6.97 kcal/mol T*S(tot)=    21.85 kcal/mol
 sn= 7  qrot/sn=   24530.9649 T*S(rot)=     6.88 kcal/mol T*S(tot)=    21.76 kcal/mol
 sn= 8  qrot/sn=   21464.5942 T*S(rot)=     6.80 kcal/mol T*S(tot)=    21.68 kcal/mol
 sn= 9  qrot/sn=   19079.6393 T*S(rot)=     6.73 kcal/mol T*S(tot)=    21.61 kcal/mol
 sn=10  qrot/sn=   17171.6754 T*S(rot)=     6.67 kcal/mol T*S(tot)=    21.54 kcal/mol
 sn=11  qrot/sn=   15610.6140 T*S(rot)=     6.61 kcal/mol T*S(tot)=    21.49 kcal/mol
 sn=12  qrot/sn=   14309.7295 T*S(rot)=     6.56 kcal/mol T*S(tot)=    21.44 kcal/mol

-------------------
GIBBS FREE ENTHALPY
-------------------

The Gibbs free enthalpy is G = H - T*S

Total enthalpy                    ...   -288.71193327 Eh
Total entropy correction          ...     -0.03547058 Eh    -22.26 kcal/mol
-----------------------------------------------------------------------
Final Gibbs free enthalpy         ...   -288.74740385 Eh

For completeness - the Gibbs free enthalpy minus the electronic energy
G-E(el)                           ...      0.12565444 Eh     78.85 kcal/mol

                             ****ORCA TERMINATED NORMALLY****
TOTAL RUN TIME: 0 days 0 hours 40 minutes 39 seconds 578 msec
