                         Program Version 3.0.3 - RELEASE   -
|  1> ! NORI PBE0 def2-TZVP UseSym TightOPT Freq TightSCF Grid3 FinalGrid5 XYZFile
|  2> % pal
|  3>     nprocs 8
|  4> end
|  5> %method
|  6>     SymThresh 5.0e-2
|  7> end
|  8> % geom
|  9>     MaxIter 10
| 10> end
| 11> % maxcore 2000
| 12> % output
| 13>     printlevel mini
| 14>     print[ P_Basis ] 0
| 15>     print[ P_SCFInfo ] 1
| 16>     print[ P_SCFIterInfo ] 1
| 17>     print[ P_OrbEn ] 0
| 18>     print[ P_Cartesian ] 0
| 19> end
| 20> % elprop
| 21>     Dipole false
| 22> end
| 23> *xyz 1 1
| 24>  C        0.8848036765    -0.0475539988    -0.1182860392
| 25>  C        2.3373724522     0.1890992983     0.0674508666
| 26>  C        3.0401834954     1.3040248606    -0.1211855906
| 27>  C        4.4894149246     1.1542971245     0.2096239960
| 28>  N        4.5985496501    -0.2882951171     0.5498860465
| 29>  C        4.2897504123    -1.3224016149    -0.4608538140
| 30>  C        3.2431025327    -0.9136422986     0.4987960308
| 31>  H        0.3811670262     0.8602669386    -0.4465611509
| 32>  H        0.4238352481    -0.3770427237     0.8175901799
| 33>  H        0.7031369953    -0.8323810492    -0.8583602717
| 34>  H        2.6395669808     2.2436147341    -0.4772948561
| 35>  H        4.7941498504     1.7347892735     1.0845829822
| 36>  H        5.1704002413     1.3878245188    -0.6123931564
| 37>  H        5.2370047387    -0.5541841332     1.2906688897
| 38>  H        4.2364810273    -0.9482055635    -1.4758294430
| 39>  H        4.8295113333    -2.2495830040    -0.3098091070
| 40>  H        2.9805194147    -1.5767572453     1.3165644371
| 41> *
| 42>
| 43>                          ****END OF INPUT****
 Total Charge           Charge          ....    1
 Multiplicity           Mult            ....    1
 Number of Electrons    NEL             ....   52
FINAL SINGLE POINT ENERGY      -288.877934265365

CARTESIAN COORDINATES (ANGSTROEM)
---------------------------------
  C      0.784555    0.000394   -2.276494
  C      0.213152   -0.191999   -0.921131
  C     -0.897837   -0.829335   -0.557721
  C     -1.121737   -0.835190    0.919460
  N      0.000039   -0.000030    1.422339
  C      0.116622    1.418309    1.020966
  C      0.877546    0.391680    0.279018
  H      0.164860   -0.479526   -3.032245
  H      1.790728   -0.425008   -2.335950
  H      0.871183    1.062744   -2.522237
  H     -1.595053   -1.306632   -1.233293
  H     -1.032643   -1.829484    1.365166
  H     -2.071929   -0.399517    1.237413
  H      0.425638   -0.258526    2.304826
  H     -0.779239    1.826111    0.569311
  H      0.617562    2.036074    1.756414
  H      1.948012    0.305113    0.433480

FINAL SINGLE POINT ENERGY      -288.877934779240
                    ***********************HURRAY********************
 Multiplicity           Mult            ....    1
 Number of Electrons    NEL             ....   52
 Basis Dimension        Dim             ....  277
FINAL SINGLE POINT ENERGY      -288.877934951175

VIBRATIONAL FREQUENCIES
-----------------------

   0:         0.00 cm**-1
   1:         0.00 cm**-1
   2:         0.00 cm**-1
   3:         0.00 cm**-1
   4:         0.00 cm**-1
   5:         0.00 cm**-1
   6:       168.10 cm**-1
   7:       199.26 cm**-1
   8:       284.68 cm**-1
   9:       319.48 cm**-1
  10:       368.54 cm**-1
  11:       564.03 cm**-1
  12:       601.32 cm**-1
  13:       741.21 cm**-1
  14:       776.84 cm**-1
  15:       809.52 cm**-1
  16:       823.17 cm**-1
  17:       866.17 cm**-1
  18:       920.28 cm**-1
  19:       970.38 cm**-1
  20:      1011.60 cm**-1
  21:      1020.96 cm**-1
  22:      1052.47 cm**-1
  23:      1056.52 cm**-1
  24:      1085.57 cm**-1
  25:      1141.40 cm**-1
  26:      1157.61 cm**-1
  27:      1162.26 cm**-1
  28:      1209.03 cm**-1
  29:      1233.15 cm**-1
  30:      1258.33 cm**-1
  31:      1286.95 cm**-1
  32:      1357.23 cm**-1
  33:      1403.30 cm**-1
  34:      1419.60 cm**-1
  35:      1433.19 cm**-1
  36:      1467.53 cm**-1
  37:      1475.91 cm**-1
  38:      1478.57 cm**-1
  39:      1496.94 cm**-1
  40:      1732.49 cm**-1
  41:      3053.09 cm**-1
  42:      3077.19 cm**-1
  43:      3111.86 cm**-1
  44:      3124.92 cm**-1
  45:      3162.54 cm**-1
  46:      3165.35 cm**-1
  47:      3196.19 cm**-1
  48:      3242.04 cm**-1
  49:      3268.39 cm**-1
  50:      3571.96 cm**-1

IR SPECTRUM
-----------

 Mode    freq (cm**-1)   T**2         TX         TY         TZ
-------------------------------------------------------------------
   6:       168.10    0.745421  ( -0.576958   0.642276  -0.004713)
   7:       199.26    3.787042  (  0.915696  -1.671836   0.391801)
   8:       284.68    1.549863  ( -1.046127   0.420455   0.527919)
   9:       319.48    1.185093  (  1.004948   0.140390  -0.394288)
  10:       368.54    2.051325  ( -0.727764   1.206561   0.256698)
  11:       564.03    1.270455  (  0.749116  -0.841461  -0.034975)
  12:       601.32    1.379903  ( -0.638634   0.904946   0.391308)
  13:       741.21    0.986860  ( -0.835443   0.379836   0.380289)
  14:       776.84   12.804408  (  0.942621   2.360010  -2.519172)
  15:       809.52    0.384170  (  0.424181  -0.090761   0.442722)
  16:       823.17   21.277613  ( -2.238981   4.032923   0.010624)
  17:       866.17    3.330693  ( -1.170953   1.359087  -0.335330)
  18:       920.28   16.999714  ( -1.986839   2.432374   2.671280)
  19:       970.38    2.656479  ( -0.566111  -0.479304   1.451298)
  20:      1011.60    1.307773  (  0.312852   0.409009   1.021082)
  21:      1020.96    5.372179  (  0.572052  -2.177411   0.551197)
  22:      1052.47   22.546156  ( -4.591312   0.518867   1.093977)
  23:      1056.52   20.013394  (  2.133940   3.895295  -0.535135)
  24:      1085.57    4.060088  (  1.303727  -1.524592   0.189748)
  25:      1141.40    5.943569  (  1.013368  -0.840161  -2.052019)
  26:      1157.61    0.061619  (  0.176759   0.137270  -0.107387)
  27:      1162.26    1.690480  (  0.407320   1.116598  -0.527049)
  28:      1209.03    1.635784  (  1.150443  -0.430610  -0.356145)
  29:      1233.15    2.592879  ( -1.491018  -0.375136   0.478558)
  30:      1258.33    2.019642  (  0.723152   0.273850  -1.192351)
  31:      1286.95    1.531375  ( -0.119163  -0.243980  -1.207331)
  32:      1357.23    3.848615  (  0.425364   1.896059   0.269522)
  33:      1403.30    4.254231  (  1.838121  -0.249448  -0.901842)
  34:      1419.60    7.844228  (  1.277801  -0.344399  -2.468368)
  35:      1433.19   30.341874  ( -2.717968  -4.643111   1.181545)
  36:      1467.53   13.534631  ( -1.873245   3.113955  -0.573468)
  37:      1475.91   22.679798  (  4.055998   2.471277   0.348520)
  38:      1478.57    4.188450  ( -0.653137   1.819672  -0.671309)
  39:      1496.94   19.135391  ( -3.501986   0.192227   2.614294)
  40:      1732.49    8.084734  (  1.073198   0.661721  -2.548550)
  41:      3053.09    0.920001  ( -0.718829  -0.463271   0.434357)
  42:      3077.19    2.791398  ( -0.926597  -0.606891   1.250800)
  43:      3111.86    1.437003  (  0.580527  -1.014859   0.264675)
  44:      3124.92    0.138874  ( -0.146084   0.292168   0.179364)
  45:      3162.54    1.545766  ( -0.334155   1.197526   0.006088)
  46:      3165.35    1.104507  ( -0.439875  -0.382363  -0.874537)
  47:      3196.19    0.574752  (  0.608437  -0.418206  -0.172221)
  48:      3242.04    4.631532  (  1.752315   1.094245   0.602952)
  49:      3268.39    4.273693  (  1.762341   0.005728   1.080655)
  50:      3571.96  117.504369  ( -3.454520   2.972440  -9.835408)

--------------------------
THERMOCHEMISTRY AT 298.15K
--------------------------

Temperature         ... 298.15 K
Pressure            ... 1.00 atm
Total Mass          ... 96.15 AMU

Throughout the following assumptions are being made:
  (1) The electronic state is orbitally nondegenerate
  (2) There are no thermally accessible electronically excited states
  (3) Hindered rotations indicated by low frequency modes) are not
      treated as such but are treated as vibrations and this may
      case some error
  (4) All equations used are the standard statistical mechanics
      equations for an ideal gas
  (5) All vibrations are strinctly harmonic

------------
INNER ENERGY
------------

The inner energy is: U= E(el) + E(ZPE) + E(vib) + E(rot) + E(trans)
    E(el)   - is the total energy from the electronic structure calculation
              = E(kin-el) + E(nuc-el) + E(el-el) + E(nuc-nuc)
    E(ZPE)  - the the zero temperature vibrational energy from the frequency calculation
    E(vib)  - the the finite temperature correction to E(ZPE) due to population
              of excietd vibrational states
    E(rot)  - is the rotational thermal energy
    E(trans)- is the translational thermal energy

Summary of contributions to the inner energy U:
Electronic energy                ...   -288.87793495 Eh
Zero point energy                ...      0.15338241 Eh      96.25 kcal/mol
Thermal vibrational correction   ...      0.00349916 Eh       2.20 kcal/mol
Thermal rotational correction    ...      0.00141627 Eh       0.89 kcal/mol
Thermal translational correction ...      0.00141627 Eh       0.89 kcal/mol
-----------------------------------------------------------------------
Total thermal energy                   -288.71822084 Eh

Summary of corrections to the electronic energy:
(perhaps to be used in another calculation)
Total thermal correction                  0.00633170 Eh       3.97 kcal/mol
Non-thermal (ZPE) correction              0.15338241 Eh      96.25 kcal/mol
-----------------------------------------------------------------------
Total correction                          0.15971411 Eh     100.22 kcal/mol

--------
ENTHALPY
--------

The enthalpy is H = U + kB*T
                kB is Boltzmann's constant
Total free energy                 ...   -288.71822084 Eh
Thermal Enthalpy correction       ...      0.00094421 Eh       0.59 kcal/mol
-----------------------------------------------------------------------
Total Enthalpy                    ...   -288.71727663 Eh

-------
ENTROPY
-------

The entropy contributions are T*S = T*(S(el)+S(vib)+S(rot)+S(trans)
     S(el)   - electronic entropy
     S(vib)  - vibrational entropy
     S(rot)  - rotational entropy
     S(trans)- translational entropy
The entropies will be listed as mutliplied by the temperature to get
units of energy

Electronic entropy                ...      0.00000000 Eh      0.00 kcal/mol
Vibrational entropy               ...      0.00548342 Eh      3.44 kcal/mol
Rotational entropy                ...      0.01178596 Eh      7.40 kcal/mol
Translational entropy             ...      0.01881568 Eh     11.81 kcal/mol
-----------------------------------------------------------------------
Final entropy term                ...      0.03608506 Eh     22.64 kcal/mol

CAUTION: The rotational entropy is not quite correctly treated here
         because it includes a symmetry number that is not yet correctly
         implemented in ORCA!
For a nonlinear molecule the correct rotational entropy is:
    S(rot) = R*(ln(qrot/sn)+1.5)
    R    = 8.31441 J/mol/K = 1.987191683e-3 kcal/mol/K
    qrot = 176548.0513863
    sn is the rotational symmetry number. We have assumed 3 here
       if it is different for your molecule then you should correct
       the printed rotational entropy by manually evaluating the equation
       as given above

For convenience we print out the resulting values for sn=1 - 12:
 sn= 1  qrot/sn=  176548.0514 T*S(rot)=     8.05 kcal/mol T*S(tot)=    23.29 kcal/mol
 sn= 2  qrot/sn=   88274.0257 T*S(rot)=     7.64 kcal/mol T*S(tot)=    22.88 kcal/mol
 sn= 3  qrot/sn=   58849.3505 T*S(rot)=     7.40 kcal/mol T*S(tot)=    22.64 kcal/mol
 sn= 4  qrot/sn=   44137.0128 T*S(rot)=     7.23 kcal/mol T*S(tot)=    22.47 kcal/mol
 sn= 5  qrot/sn=   35309.6103 T*S(rot)=     7.09 kcal/mol T*S(tot)=    22.34 kcal/mol
 sn= 6  qrot/sn=   29424.6752 T*S(rot)=     6.99 kcal/mol T*S(tot)=    22.23 kcal/mol
 sn= 7  qrot/sn=   25221.1502 T*S(rot)=     6.89 kcal/mol T*S(tot)=    22.14 kcal/mol
 sn= 8  qrot/sn=   22068.5064 T*S(rot)=     6.81 kcal/mol T*S(tot)=    22.06 kcal/mol
 sn= 9  qrot/sn=   19616.4502 T*S(rot)=     6.74 kcal/mol T*S(tot)=    21.99 kcal/mol
 sn=10  qrot/sn=   17654.8051 T*S(rot)=     6.68 kcal/mol T*S(tot)=    21.93 kcal/mol
 sn=11  qrot/sn=   16049.8229 T*S(rot)=     6.63 kcal/mol T*S(tot)=    21.87 kcal/mol
 sn=12  qrot/sn=   14712.3376 T*S(rot)=     6.57 kcal/mol T*S(tot)=    21.82 kcal/mol

-------------------
GIBBS FREE ENTHALPY
-------------------

The Gibbs free enthalpy is G = H - T*S

Total enthalpy                    ...   -288.71727663 Eh
Total entropy correction          ...     -0.03608506 Eh    -22.64 kcal/mol
-----------------------------------------------------------------------
Final Gibbs free enthalpy         ...   -288.75336169 Eh

For completeness - the Gibbs free enthalpy minus the electronic energy
G-E(el)                           ...      0.12457326 Eh     78.17 kcal/mol

                             ****ORCA TERMINATED NORMALLY****
TOTAL RUN TIME: 0 days 0 hours 39 minutes 47 seconds 58 msec
