                         Program Version 3.0.3 - RELEASE   -
|  1> ! NORI PBE0 def2-TZVP UseSym TightOPT Freq TightSCF Grid3 FinalGrid5 XYZFile
|  2> % pal
|  3>     nprocs 8
|  4> end
|  5> %method
|  6>     SymThresh 5.0e-2
|  7> end
|  8> % geom
|  9>     MaxIter 10
| 10> end
| 11> % maxcore 2000
| 12> % output
| 13>     printlevel mini
| 14>     print[ P_Basis ] 0
| 15>     print[ P_SCFInfo ] 1
| 16>     print[ P_SCFIterInfo ] 1
| 17>     print[ P_OrbEn ] 0
| 18>     print[ P_Cartesian ] 0
| 19> end
| 20> % elprop
| 21>     Dipole false
| 22> end
| 23> *xyz 1 1
| 24>  C        1.0219369222     0.0082492004    -0.2695941629
| 25>  C        2.5244523785     0.0981152411    -0.0908758994
| 26>  C        2.9779010178     1.1824597623     0.8832154500
| 27>  C        4.4153125128     0.8208666611     1.2272109183
| 28>  N        4.5079964193    -0.6718320470     0.9578429809
| 29>  C        3.1391453612    -1.1612659359     0.5066689774
| 30>  C        3.2684549070    -2.3695203082    -0.3849906671
| 31>  H        0.7463403857    -0.7741879815    -0.9785400117
| 32>  H        0.6273916264     0.9496685080    -0.6542691515
| 33>  H        0.5237632909    -0.1982638333     0.6816194677
| 34>  H        2.9942885208     0.2752707447    -1.0685593203
| 35>  H        2.3511909614     1.1634389017     1.7785287847
| 36>  H        2.9142546378     2.1841113133     0.4588480690
| 37>  H        4.6906627137     1.0065492514     2.2634416144
| 38>  H        5.1409608112     1.3125365637     0.5816331345
| 39>  H        5.1844975992    -0.8546310557     0.2166482891
| 40>  H        4.8320532360    -1.1863363203     1.7752594892
| 41>  H        2.6064450029    -1.4133633349     1.4293253534
| 42>  H        3.8183278440    -2.1333513639    -1.3006751180
| 43>  H        2.2745966679    -2.7097648539    -0.6767118483
| 44>  H        3.7595871835    -3.2047091130     0.1190736507
| 45> *
| 46>
| 47>                          ****END OF INPUT****
 Total Charge           Charge          ....    1
 Multiplicity           Mult            ....    1
 Number of Electrons    NEL             ....   56
FINAL SINGLE POINT ENERGY      -291.348447732208
FINAL SINGLE POINT ENERGY      -291.348449260277
FINAL SINGLE POINT ENERGY      -291.348450508840

CARTESIAN COORDINATES (ANGSTROEM)
---------------------------------
  C      0.254837   -0.002164   -2.230818
  C     -0.325704    0.021733   -0.830694
  C     -0.784096   -1.341207   -0.316874
  C     -0.916849   -1.164527    1.188679
  N      0.004507   -0.002651    1.519040
  C      0.674832    0.457322    0.232122
  C      1.024151    1.921747    0.305939
  H      0.567215    0.991558   -2.555671
  H     -0.488198   -0.359200   -2.945007
  H      1.120103   -0.668389   -2.286284
  H     -1.173948    0.719761   -0.802862
  H     -0.031373   -2.098737   -0.551468
  H     -1.725154   -1.665192   -0.760540
  H     -0.610938   -2.030488    1.772265
  H     -1.922207   -0.877608    1.493168
  H     -0.532565    0.773732    1.905265
  H      0.694659   -0.252974    2.225292
  H      1.577861   -0.154586    0.143189
  H      0.127961    2.540186    0.413210
  H      1.521998    2.220935   -0.617097
  H      1.709507    2.142539    1.127148

FINAL SINGLE POINT ENERGY      -291.348451183893
                    ***********************HURRAY********************
 Multiplicity           Mult            ....    1
 Number of Electrons    NEL             ....   56
 Basis Dimension        Dim             ....  301
FINAL SINGLE POINT ENERGY      -291.348452242628

VIBRATIONAL FREQUENCIES
-----------------------

   0:         0.00 cm**-1
   1:         0.00 cm**-1
   2:         0.00 cm**-1
   3:         0.00 cm**-1
   4:         0.00 cm**-1
   5:         0.00 cm**-1
   6:        52.15 cm**-1
   7:       146.18 cm**-1
   8:       223.93 cm**-1
   9:       238.03 cm**-1
  10:       248.09 cm**-1
  11:       323.43 cm**-1
  12:       360.49 cm**-1
  13:       495.91 cm**-1
  14:       531.06 cm**-1
  15:       632.00 cm**-1
  16:       780.85 cm**-1
  17:       813.74 cm**-1
  18:       850.70 cm**-1
  19:       884.02 cm**-1
  20:       900.20 cm**-1
  21:       959.04 cm**-1
  22:       965.33 cm**-1
  23:      1001.56 cm**-1
  24:      1026.34 cm**-1
  25:      1063.62 cm**-1
  26:      1107.34 cm**-1
  27:      1127.01 cm**-1
  28:      1156.24 cm**-1
  29:      1183.64 cm**-1
  30:      1233.92 cm**-1
  31:      1255.33 cm**-1
  32:      1295.43 cm**-1
  33:      1323.90 cm**-1
  34:      1333.08 cm**-1
  35:      1339.85 cm**-1
  36:      1368.49 cm**-1
  37:      1379.53 cm**-1
  38:      1395.67 cm**-1
  39:      1410.03 cm**-1
  40:      1417.39 cm**-1
  41:      1423.76 cm**-1
  42:      1481.83 cm**-1
  43:      1485.84 cm**-1
  44:      1489.17 cm**-1
  45:      1492.89 cm**-1
  46:      1497.26 cm**-1
  47:      1507.29 cm**-1
  48:      1651.75 cm**-1
  49:      3022.05 cm**-1
  50:      3053.32 cm**-1
  51:      3058.35 cm**-1
  52:      3077.21 cm**-1
  53:      3082.86 cm**-1
  54:      3117.65 cm**-1
  55:      3131.86 cm**-1
  56:      3134.71 cm**-1
  57:      3146.88 cm**-1
  58:      3148.10 cm**-1
  59:      3152.96 cm**-1
  60:      3177.67 cm**-1
  61:      3467.14 cm**-1
  62:      3527.51 cm**-1

IR SPECTRUM
-----------

 Mode    freq (cm**-1)   T**2         TX         TY         TZ
-------------------------------------------------------------------
   6:        52.15    3.558035  (  1.449975  -1.196593   0.154186)
   7:       146.18    0.579166  ( -0.711811   0.235238  -0.130976)
   8:       223.93    0.054981  (  0.026874  -0.228519  -0.045145)
   9:       238.03    0.529628  ( -0.695826   0.142990  -0.158139)
  10:       248.09    0.606885  (  0.011319   0.649993  -0.429263)
  11:       323.43    0.818809  ( -0.689033   0.578854  -0.094720)
  12:       360.49    2.505701  (  0.569531   1.388219  -0.504167)
  13:       495.91    0.992478  ( -0.085592  -0.370870   0.920656)
  14:       531.06    1.010986  (  0.566159  -0.668930   0.492933)
  15:       632.00    1.078198  (  0.333165   0.120564  -0.976045)
  16:       780.85    2.909948  (  1.237041  -0.928882   0.718928)
  17:       813.74    2.077179  ( -0.991437   0.803756  -0.669483)
  18:       850.70    3.147514  ( -0.443517  -1.084120   1.332475)
  19:       884.02    3.540376  (  0.580860  -1.576746   0.846669)
  20:       900.20    4.647624  (  1.276945   1.603567   0.667538)
  21:       959.04    2.663694  ( -1.548763  -0.457638   0.235785)
  22:       965.33    0.939105  (  0.191438   0.819194   0.481018)
  23:      1001.56    4.570505  (  1.835013   0.063978   1.095052)
  24:      1026.34   12.432200  (  2.111928   2.806822  -0.306118)
  25:      1063.62    8.252778  ( -0.487484  -0.263230   2.818838)
  26:      1107.34    0.515284  ( -0.452651  -0.464002   0.308372)
  27:      1127.01    1.157001  ( -0.412544  -0.850310   0.513596)
  28:      1156.24   10.119900  ( -1.506967  -0.485669   2.759180)
  29:      1183.64    4.798382  ( -0.838965  -1.109477   1.692212)
  30:      1233.92    1.254491  (  1.078536   0.298761   0.044634)
  31:      1255.33    0.558966  (  0.136168  -0.718675   0.154692)
  32:      1295.43    1.902162  ( -0.960969   0.558144  -0.816809)
  33:      1323.90   19.213786  ( -2.899570  -2.774014   1.763837)
  34:      1333.08    5.089963  ( -1.976361  -0.148967   1.077853)
  35:      1339.85   32.947548  ( -3.059284  -4.291579   2.273913)
  36:      1368.49    2.448039  ( -0.111067  -1.228353   0.962732)
  37:      1379.53    1.165294  (  0.905417   0.473144  -0.348782)
  38:      1395.67    3.919009  (  0.409538   1.114780  -1.583842)
  39:      1410.03   13.047938  ( -2.188326  -1.639644   2.360240)
  40:      1417.39    9.661109  ( -0.528438  -2.941402  -0.854411)
  41:      1423.76    8.954050  ( -0.986027  -2.455086   1.397982)
  42:      1481.83    6.964477  ( -1.521798   0.568400   2.079791)
  43:      1485.84    3.281868  ( -0.281186  -1.187642   1.338771)
  44:      1489.17   22.694000  (  4.055874   0.879420   2.338911)
  45:      1492.89   13.833591  ( -2.530584   2.462596   1.168485)
  46:      1497.26    8.884345  ( -1.029935   2.712263  -0.683526)
  47:      1507.29    8.274737  (  1.029617   2.334580  -1.328293)
  48:      1651.75   53.710092  ( -0.179173   2.912171   6.722890)
  49:      3022.05    6.169181  (  1.676601  -1.560463  -0.960804)
  50:      3053.32    3.136975  (  0.690830  -0.870968  -1.378819)
  51:      3058.35    5.716132  ( -1.703174   0.191643   1.666915)
  52:      3077.21    0.067348  (  0.002225  -0.008377   0.259370)
  53:      3082.86   11.344552  (  1.776320  -2.677316  -1.010555)
  54:      3117.65    2.442885  (  0.777376   0.277269  -1.327288)
  55:      3131.86    5.379953  (  2.191260  -0.238537   0.722103)
  56:      3134.71   10.388522  (  1.548609  -2.632471   1.029772)
  57:      3146.88    1.173677  (  0.857364  -0.601143  -0.277903)
  58:      3148.10    5.917094  ( -1.721367  -1.589832  -0.653012)
  59:      3152.96    0.638831  (  0.325570  -0.155506  -0.713199)
  60:      3177.67    0.483210  ( -0.435158   0.507933  -0.189346)
  61:      3467.14   50.626544  (  0.191943   3.170336   6.366999)
  62:      3527.51   70.944541  (  6.128061  -4.865803   3.116948)

--------------------------
THERMOCHEMISTRY AT 298.15K
--------------------------

Temperature         ... 298.15 K
Pressure            ... 1.00 atm
Total Mass          ... 100.18 AMU

Throughout the following assumptions are being made:
  (1) The electronic state is orbitally nondegenerate
  (2) There are no thermally accessible electronically excited states
  (3) Hindered rotations indicated by low frequency modes) are not
      treated as such but are treated as vibrations and this may
      case some error
  (4) All equations used are the standard statistical mechanics
      equations for an ideal gas
  (5) All vibrations are strinctly harmonic

------------
INNER ENERGY
------------

The inner energy is: U= E(el) + E(ZPE) + E(vib) + E(rot) + E(trans)
    E(el)   - is the total energy from the electronic structure calculation
              = E(kin-el) + E(nuc-el) + E(el-el) + E(nuc-nuc)
    E(ZPE)  - the the zero temperature vibrational energy from the frequency calculation
    E(vib)  - the the finite temperature correction to E(ZPE) due to population
              of excietd vibrational states
    E(rot)  - is the rotational thermal energy
    E(trans)- is the translational thermal energy

Summary of contributions to the inner energy U:
Electronic energy                ...   -291.34845224 Eh
Zero point energy                ...      0.20082409 Eh     126.02 kcal/mol
Thermal vibrational correction   ...      0.00506164 Eh       3.18 kcal/mol
Thermal rotational correction    ...      0.00141627 Eh       0.89 kcal/mol
Thermal translational correction ...      0.00141627 Eh       0.89 kcal/mol
-----------------------------------------------------------------------
Total thermal energy                   -291.13973397 Eh

Summary of corrections to the electronic energy:
(perhaps to be used in another calculation)
Total thermal correction                  0.00789418 Eh       4.95 kcal/mol
Non-thermal (ZPE) correction              0.20082409 Eh     126.02 kcal/mol
-----------------------------------------------------------------------
Total correction                          0.20871827 Eh     130.97 kcal/mol

--------
ENTHALPY
--------

The enthalpy is H = U + kB*T
                kB is Boltzmann's constant
Total free energy                 ...   -291.13973397 Eh
Thermal Enthalpy correction       ...      0.00094421 Eh       0.59 kcal/mol
-----------------------------------------------------------------------
Total Enthalpy                    ...   -291.13878976 Eh

-------
ENTROPY
-------

The entropy contributions are T*S = T*(S(el)+S(vib)+S(rot)+S(trans)
     S(el)   - electronic entropy
     S(vib)  - vibrational entropy
     S(rot)  - rotational entropy
     S(trans)- translational entropy
The entropies will be listed as mutliplied by the temperature to get
units of energy

Electronic entropy                ...      0.00000000 Eh      0.00 kcal/mol
Vibrational entropy               ...      0.00898944 Eh      5.64 kcal/mol
Rotational entropy                ...      0.01205328 Eh      7.56 kcal/mol
Translational entropy             ...      0.01887386 Eh     11.84 kcal/mol
-----------------------------------------------------------------------
Final entropy term                ...      0.03991658 Eh     25.05 kcal/mol

CAUTION: The rotational entropy is not quite correctly treated here
         because it includes a symmetry number that is not yet correctly
         implemented in ORCA!
For a nonlinear molecule the correct rotational entropy is:
    S(rot) = R*(ln(qrot/sn)+1.5)
    R    = 8.31441 J/mol/K = 1.987191683e-3 kcal/mol/K
    qrot = 234325.7427531
    sn is the rotational symmetry number. We have assumed 3 here
       if it is different for your molecule then you should correct
       the printed rotational entropy by manually evaluating the equation
       as given above

For convenience we print out the resulting values for sn=1 - 12:
 sn= 1  qrot/sn=  234325.7428 T*S(rot)=     8.21 kcal/mol T*S(tot)=    25.70 kcal/mol
 sn= 2  qrot/sn=  117162.8714 T*S(rot)=     7.80 kcal/mol T*S(tot)=    25.29 kcal/mol
 sn= 3  qrot/sn=   78108.5809 T*S(rot)=     7.56 kcal/mol T*S(tot)=    25.05 kcal/mol
 sn= 4  qrot/sn=   58581.4357 T*S(rot)=     7.39 kcal/mol T*S(tot)=    24.88 kcal/mol
 sn= 5  qrot/sn=   46865.1486 T*S(rot)=     7.26 kcal/mol T*S(tot)=    24.75 kcal/mol
 sn= 6  qrot/sn=   39054.2905 T*S(rot)=     7.15 kcal/mol T*S(tot)=    24.64 kcal/mol
 sn= 7  qrot/sn=   33475.1061 T*S(rot)=     7.06 kcal/mol T*S(tot)=    24.55 kcal/mol
 sn= 8  qrot/sn=   29290.7178 T*S(rot)=     6.98 kcal/mol T*S(tot)=    24.47 kcal/mol
 sn= 9  qrot/sn=   26036.1936 T*S(rot)=     6.91 kcal/mol T*S(tot)=    24.40 kcal/mol
 sn=10  qrot/sn=   23432.5743 T*S(rot)=     6.85 kcal/mol T*S(tot)=    24.33 kcal/mol
 sn=11  qrot/sn=   21302.3403 T*S(rot)=     6.79 kcal/mol T*S(tot)=    24.28 kcal/mol
 sn=12  qrot/sn=   19527.1452 T*S(rot)=     6.74 kcal/mol T*S(tot)=    24.23 kcal/mol

-------------------
GIBBS FREE ENTHALPY
-------------------

The Gibbs free enthalpy is G = H - T*S

Total enthalpy                    ...   -291.13878976 Eh
Total entropy correction          ...     -0.03991658 Eh    -25.05 kcal/mol
-----------------------------------------------------------------------
Final Gibbs free enthalpy         ...   -291.17870634 Eh

For completeness - the Gibbs free enthalpy minus the electronic energy
G-E(el)                           ...      0.16974590 Eh    106.52 kcal/mol

                             ****ORCA TERMINATED NORMALLY****
TOTAL RUN TIME: 0 days 1 hours 0 minutes 38 seconds 614 msec
