                         Program Version 3.0.3 - RELEASE   -
|  1> ! NORI PBE0 def2-TZVP UseSym TightOPT Freq TightSCF Grid3 FinalGrid5 XYZFile
|  2> % pal
|  3>     nprocs 8
|  4> end
|  5> %method
|  6>     SymThresh 5.0e-2
|  7> end
|  8> % geom
|  9>     MaxIter 10
| 10> end
| 11> % maxcore 2000
| 12> % output
| 13>     printlevel mini
| 14>     print[ P_Basis ] 0
| 15>     print[ P_SCFInfo ] 1
| 16>     print[ P_SCFIterInfo ] 1
| 17>     print[ P_OrbEn ] 0
| 18>     print[ P_Cartesian ] 0
| 19> end
| 20> % elprop
| 21>     Dipole false
| 22> end
| 23> *xyz 1 1
| 24>  C        1.0136391067    -0.0797451477     0.0850048564
| 25>  C        2.5206877799    -0.0470601642     0.1006984966
| 26>  C        3.2379973860     1.0097768336     0.9736570216
| 27>  C        4.2737553891    -0.0499741807     1.3578294780
| 28>  N        5.4783670877     0.0325391134     0.4530845253
| 29>  C        3.2897910482    -1.1391764996     0.8876662290
| 30>  C        3.7864344563    -2.3889931750     0.1989427871
| 31>  H        0.6423302261    -0.9497582420    -0.4611746679
| 32>  H        0.6050578462     0.8102489008    -0.3984788282
| 33>  H        0.6144587701    -0.1233242583     1.1018012383
| 34>  H        2.8948128011    -0.0040540158    -0.9315455733
| 35>  H        2.6452205855     1.2826502696     1.8478549976
| 36>  H        3.5951734015     1.9313190988     0.5071832236
| 37>  H        4.6668646199    -0.0861202838     2.3741364010
| 38>  H        5.1886528098     0.1216479254    -0.5232130143
| 39>  H        6.0579584512    -0.8061864224     0.5278406692
| 40>  H        6.0554283364     0.8438098609     0.6829585561
| 41>  H        2.7000528587    -1.4131435533     1.7678898520
| 42>  H        4.3584813414    -2.1764378018    -0.7115809323
| 43>  H        2.9403916702    -3.0038002828    -0.1135845696
| 44>  H        4.4006540278    -3.0065379751     0.8606892538
| 45> *
| 46>
| 47>                          ****END OF INPUT****
 Total Charge           Charge          ....    1
 Multiplicity           Mult            ....    1
 Number of Electrons    NEL             ....   56
FINAL SINGLE POINT ENERGY      -291.314483545792
FINAL SINGLE POINT ENERGY      -291.314485013311

CARTESIAN COORDINATES (ANGSTROEM)
---------------------------------
  C      0.976246    0.000252   -2.266503
  C      0.708617   -0.088855   -0.785325
  C      0.859830    1.183638    0.081508
  C     -0.386337    0.765112    0.865950
  N     -0.000895   -0.001263    2.107295
  C     -0.757188   -0.186131   -0.288453
  C     -1.397547   -1.526561   -0.013584
  H      0.705612   -0.928448   -2.773435
  H      2.033808    0.186766   -2.464763
  H      0.400676    0.812546   -2.718071
  H      1.299283   -0.910953   -0.358751
  H      0.649801    2.088645   -0.490422
  H      1.787775    1.342341    0.636577
  H     -1.104310    1.517722    1.191556
  H      0.712271   -0.700816    1.890663
  H     -0.803824   -0.492915    2.505456
  H      0.379783    0.622707    2.820921
  H     -1.391385    0.393904   -0.965630
  H     -0.788078   -2.164763    0.636148
  H     -1.523075   -2.078278   -0.946822
  H     -2.391623   -1.423906    0.430792

FINAL SINGLE POINT ENERGY      -291.314485603894
                    ***********************HURRAY********************
 Multiplicity           Mult            ....    1
 Number of Electrons    NEL             ....   56
 Basis Dimension        Dim             ....  301
FINAL SINGLE POINT ENERGY      -291.314485774805

VIBRATIONAL FREQUENCIES
-----------------------

   0:         0.00 cm**-1
   1:         0.00 cm**-1
   2:         0.00 cm**-1
   3:         0.00 cm**-1
   4:         0.00 cm**-1
   5:         0.00 cm**-1
   6:        99.61 cm**-1
   7:       194.64 cm**-1
   8:       212.33 cm**-1
   9:       222.53 cm**-1
  10:       235.81 cm**-1
  11:       250.63 cm**-1
  12:       306.18 cm**-1
  13:       347.49 cm**-1
  14:       424.06 cm**-1
  15:       527.58 cm**-1
  16:       661.60 cm**-1
  17:       764.23 cm**-1
  18:       790.37 cm**-1
  19:       851.29 cm**-1
  20:       891.44 cm**-1
  21:       912.67 cm**-1
  22:       943.05 cm**-1
  23:       972.98 cm**-1
  24:      1001.53 cm**-1
  25:      1037.50 cm**-1
  26:      1102.69 cm**-1
  27:      1124.68 cm**-1
  28:      1138.30 cm**-1
  29:      1148.53 cm**-1
  30:      1195.24 cm**-1
  31:      1215.41 cm**-1
  32:      1257.37 cm**-1
  33:      1265.86 cm**-1
  34:      1286.07 cm**-1
  35:      1299.90 cm**-1
  36:      1362.43 cm**-1
  37:      1390.02 cm**-1
  38:      1407.17 cm**-1
  39:      1413.26 cm**-1
  40:      1417.50 cm**-1
  41:      1472.91 cm**-1
  42:      1481.22 cm**-1
  43:      1484.11 cm**-1
  44:      1489.38 cm**-1
  45:      1494.56 cm**-1
  46:      1496.55 cm**-1
  47:      1651.85 cm**-1
  48:      1655.09 cm**-1
  49:      3016.81 cm**-1
  50:      3035.18 cm**-1
  51:      3052.95 cm**-1
  52:      3077.58 cm**-1
  53:      3080.30 cm**-1
  54:      3106.89 cm**-1
  55:      3128.60 cm**-1
  56:      3129.40 cm**-1
  57:      3135.00 cm**-1
  58:      3136.27 cm**-1
  59:      3140.93 cm**-1
  60:      3420.76 cm**-1
  61:      3503.12 cm**-1
  62:      3511.62 cm**-1

IR SPECTRUM
-----------

 Mode    freq (cm**-1)   T**2         TX         TY         TZ
-------------------------------------------------------------------
   6:        99.61    6.871533  (  2.018527  -0.833736  -1.449815)
   7:       194.64    3.477782  (  0.605562   1.038927   1.425379)
   8:       212.33    0.499243  ( -0.488664  -0.507997  -0.048884)
   9:       222.53    1.303105  ( -0.567364  -0.620374  -0.772230)
  10:       235.81    3.217145  (  0.487689  -0.389163  -1.681624)
  11:       250.63   10.789314  (  1.512300   2.148548   1.971295)
  12:       306.18    1.372898  (  0.895549   0.356677   0.666086)
  13:       347.49   11.880346  ( -1.251519  -0.461707   3.178187)
  14:       424.06    1.274860  (  0.877626   0.629546   0.329099)
  15:       527.58    1.848876  ( -0.346597  -0.852774  -1.000761)
  16:       661.60    6.673956  (  0.020158  -0.203212   2.575316)
  17:       764.23    0.440619  ( -0.167486   0.147232   0.625212)
  18:       790.37    3.128366  (  0.727519  -0.657770  -1.471877)
  19:       851.29    0.724503  (  0.108341  -0.824790  -0.180241)
  20:       891.44    1.364479  (  1.149123   0.086798  -0.190947)
  21:       912.67    3.586232  (  0.842691   0.567936  -1.597984)
  22:       943.05    2.862166  (  1.514541   0.030461   0.753262)
  23:       972.98    3.444093  ( -1.451230   1.155903   0.043726)
  24:      1001.53   14.801944  ( -3.127489  -2.224359   0.270151)
  25:      1037.50   12.321535  (  0.142526   1.714360   3.059770)
  26:      1102.69    9.092013  (  0.865324   2.758020   0.858228)
  27:      1124.68    0.665031  (  0.483570   0.478123   0.450099)
  28:      1138.30    1.422107  (  1.067883  -0.418458   0.326535)
  29:      1148.53    2.505230  ( -0.406023   1.298556  -0.808781)
  30:      1195.24    2.899029  (  1.410929  -0.928687  -0.214122)
  31:      1215.41    1.265867  (  1.110688  -0.000041   0.179550)
  32:      1257.37    0.950165  ( -0.577983  -0.264608   0.738974)
  33:      1265.86    1.188130  (  0.772921  -0.753149  -0.153261)
  34:      1286.07    4.277914  (  1.066250  -1.466306  -0.995475)
  35:      1299.90    1.607476  (  1.149904  -0.443324  -0.297761)
  36:      1362.43    0.531852  (  0.002566  -0.573961  -0.449904)
  37:      1390.02   11.815353  (  1.573520  -0.380431  -3.032269)
  38:      1407.17   10.275786  (  1.122323   0.153218  -2.998783)
  39:      1413.26    6.777730  (  0.338589   2.237815   1.286574)
  40:      1417.50    7.483553  (  0.233037   1.174602   2.459585)
  41:      1472.91   33.062115  ( -1.158832  -3.848820   4.111667)
  42:      1481.22   27.276516  ( -1.074702  -0.456026  -5.090537)
  43:      1484.11    7.378793  (  2.143203   1.620763   0.398250)
  44:      1489.38   12.738506  ( -1.576210   3.182898   0.351039)
  45:      1494.56  126.507452  ( -3.985926   5.016235  -9.244308)
  46:      1496.55   13.633017  (  2.962347  -1.914362   1.092123)
  47:      1651.85   45.833821  ( -4.553326   3.546648   3.538691)
  48:      1655.09   37.031721  ( -4.419813  -3.645030  -2.052007)
  49:      3016.81   18.108021  ( -1.516637   2.882831  -2.738087)
  50:      3035.18   18.124350  (  0.307841  -2.625605   3.337032)
  51:      3052.95    7.370319  ( -0.069337  -0.573649   2.652629)
  52:      3077.58    4.726098  ( -1.061591   0.000421  -1.897135)
  53:      3080.30    9.390032  (  2.068542   2.095718   0.848015)
  54:      3106.89   14.400845  (  3.177475  -1.577623   1.347443)
  55:      3128.60   12.898874  ( -1.753743   2.225184   2.207220)
  56:      3129.40    7.301986  (  1.380420  -2.151926   0.875008)
  57:      3135.00    6.312575  ( -2.191891  -1.180595   0.338205)
  58:      3136.27    2.992869  (  0.702571   0.889335   1.307037)
  59:      3140.93    4.476573  ( -1.870949   0.585451  -0.795845)
  60:      3420.76   30.589305  ( -0.796575   2.068994  -5.066956)
  61:      3503.12   77.478635  (  7.582520  -1.363779  -4.257244)
  62:      3511.62   92.067531  ( -3.760511  -7.406889  -4.802508)

--------------------------
THERMOCHEMISTRY AT 298.15K
--------------------------

Temperature         ... 298.15 K
Pressure            ... 1.00 atm
Total Mass          ... 100.18 AMU

Throughout the following assumptions are being made:
  (1) The electronic state is orbitally nondegenerate
  (2) There are no thermally accessible electronically excited states
  (3) Hindered rotations indicated by low frequency modes) are not
      treated as such but are treated as vibrations and this may
      case some error
  (4) All equations used are the standard statistical mechanics
      equations for an ideal gas
  (5) All vibrations are strinctly harmonic

------------
INNER ENERGY
------------

The inner energy is: U= E(el) + E(ZPE) + E(vib) + E(rot) + E(trans)
    E(el)   - is the total energy from the electronic structure calculation
              = E(kin-el) + E(nuc-el) + E(el-el) + E(nuc-nuc)
    E(ZPE)  - the the zero temperature vibrational energy from the frequency calculation
    E(vib)  - the the finite temperature correction to E(ZPE) due to population
              of excietd vibrational states
    E(rot)  - is the rotational thermal energy
    E(trans)- is the translational thermal energy

Summary of contributions to the inner energy U:
Electronic energy                ...   -291.31448577 Eh
Zero point energy                ...      0.19905037 Eh     124.91 kcal/mol
Thermal vibrational correction   ...      0.00550511 Eh       3.45 kcal/mol
Thermal rotational correction    ...      0.00141627 Eh       0.89 kcal/mol
Thermal translational correction ...      0.00141627 Eh       0.89 kcal/mol
-----------------------------------------------------------------------
Total thermal energy                   -291.10709775 Eh

Summary of corrections to the electronic energy:
(perhaps to be used in another calculation)
Total thermal correction                  0.00833765 Eh       5.23 kcal/mol
Non-thermal (ZPE) correction              0.19905037 Eh     124.91 kcal/mol
-----------------------------------------------------------------------
Total correction                          0.20738802 Eh     130.14 kcal/mol

--------
ENTHALPY
--------

The enthalpy is H = U + kB*T
                kB is Boltzmann's constant
Total free energy                 ...   -291.10709775 Eh
Thermal Enthalpy correction       ...      0.00094421 Eh       0.59 kcal/mol
-----------------------------------------------------------------------
Total Enthalpy                    ...   -291.10615354 Eh

-------
ENTROPY
-------

The entropy contributions are T*S = T*(S(el)+S(vib)+S(rot)+S(trans)
     S(el)   - electronic entropy
     S(vib)  - vibrational entropy
     S(rot)  - rotational entropy
     S(trans)- translational entropy
The entropies will be listed as mutliplied by the temperature to get
units of energy

Electronic entropy                ...      0.00000000 Eh      0.00 kcal/mol
Vibrational entropy               ...      0.00924216 Eh      5.80 kcal/mol
Rotational entropy                ...      0.01209342 Eh      7.59 kcal/mol
Translational entropy             ...      0.01887386 Eh     11.84 kcal/mol
-----------------------------------------------------------------------
Final entropy term                ...      0.04020943 Eh     25.23 kcal/mol

CAUTION: The rotational entropy is not quite correctly treated here
         because it includes a symmetry number that is not yet correctly
         implemented in ORCA!
For a nonlinear molecule the correct rotational entropy is:
    S(rot) = R*(ln(qrot/sn)+1.5)
    R    = 8.31441 J/mol/K = 1.987191683e-3 kcal/mol/K
    qrot = 244502.1634208
    sn is the rotational symmetry number. We have assumed 3 here
       if it is different for your molecule then you should correct
       the printed rotational entropy by manually evaluating the equation
       as given above

For convenience we print out the resulting values for sn=1 - 12:
 sn= 1  qrot/sn=  244502.1634 T*S(rot)=     8.24 kcal/mol T*S(tot)=    25.88 kcal/mol
 sn= 2  qrot/sn=  122251.0817 T*S(rot)=     7.83 kcal/mol T*S(tot)=    25.47 kcal/mol
 sn= 3  qrot/sn=   81500.7211 T*S(rot)=     7.59 kcal/mol T*S(tot)=    25.23 kcal/mol
 sn= 4  qrot/sn=   61125.5409 T*S(rot)=     7.42 kcal/mol T*S(tot)=    25.06 kcal/mol
 sn= 5  qrot/sn=   48900.4327 T*S(rot)=     7.29 kcal/mol T*S(tot)=    24.93 kcal/mol
 sn= 6  qrot/sn=   40750.3606 T*S(rot)=     7.18 kcal/mol T*S(tot)=    24.82 kcal/mol
 sn= 7  qrot/sn=   34928.8805 T*S(rot)=     7.09 kcal/mol T*S(tot)=    24.73 kcal/mol
 sn= 8  qrot/sn=   30562.7704 T*S(rot)=     7.01 kcal/mol T*S(tot)=    24.65 kcal/mol
 sn= 9  qrot/sn=   27166.9070 T*S(rot)=     6.94 kcal/mol T*S(tot)=    24.58 kcal/mol
 sn=10  qrot/sn=   24450.2163 T*S(rot)=     6.88 kcal/mol T*S(tot)=    24.52 kcal/mol
 sn=11  qrot/sn=   22227.4694 T*S(rot)=     6.82 kcal/mol T*S(tot)=    24.46 kcal/mol
 sn=12  qrot/sn=   20375.1803 T*S(rot)=     6.77 kcal/mol T*S(tot)=    24.41 kcal/mol

-------------------
GIBBS FREE ENTHALPY
-------------------

The Gibbs free enthalpy is G = H - T*S

Total enthalpy                    ...   -291.10615354 Eh
Total entropy correction          ...     -0.04020943 Eh    -25.23 kcal/mol
-----------------------------------------------------------------------
Final Gibbs free enthalpy         ...   -291.14636298 Eh

For completeness - the Gibbs free enthalpy minus the electronic energy
G-E(el)                           ...      0.16812280 Eh    105.50 kcal/mol

                             ****ORCA TERMINATED NORMALLY****
TOTAL RUN TIME: 0 days 0 hours 58 minutes 35 seconds 430 msec
