                         Program Version 3.0.3 - RELEASE   -
|  1> ! NORI PBE0 def2-TZVP UseSym TightOPT Freq TightSCF Grid3 FinalGrid5 XYZFile
|  2> % pal
|  3>     nprocs 8
|  4> end
|  5> %method
|  6>     SymThresh 5.0e-2
|  7> end
|  8> % geom
|  9>     MaxIter 10
| 10> end
| 11> % maxcore 2000
| 12> % output
| 13>     printlevel mini
| 14>     print[ P_Basis ] 0
| 15>     print[ P_SCFInfo ] 1
| 16>     print[ P_SCFIterInfo ] 1
| 17>     print[ P_OrbEn ] 0
| 18>     print[ P_Cartesian ] 0
| 19> end
| 20> % elprop
| 21>     Dipole false
| 22> end
| 23> *xyz 1 1
| 24>  C        0.9574688160     0.1007992796     0.2609114636
| 25>  C        2.4697910807     0.0500337896     0.0839216079
| 26>  C        2.9771242485    -1.3435003143    -0.2977753591
| 27>  C        2.6330208602    -1.7232718707    -1.7221611165
| 28>  N        3.1605212262    -0.6803153900    -2.6665146132
| 29>  C        2.6317266785     0.6932009622    -2.3629354975
| 30>  C        2.9801459390     1.0689311018    -0.9384837854
| 31>  H        0.6411653957     1.0933943058     0.5865308874
| 32>  H        0.6341589556    -0.6126816519     1.0212215181
| 33>  H        0.4050795026    -0.1285831623    -0.6545720532
| 34>  H        2.9230423055     0.3040744387     1.0460534507
| 35>  H        4.0643963770    -1.3966856996    -0.1655399644
| 36>  H        2.5534708790    -2.1040234846     0.3618630736
| 37>  H        3.0724008461    -2.6776381701    -2.0150318220
| 38>  H        1.5566868781    -1.7714619286    -1.8926681175
| 39>  H        4.1810339484    -0.6621791450    -2.6012230550
| 40>  H        2.9348074232    -0.9356514342    -3.6285615897
| 41>  H        1.5546275014     0.6474261510    -2.5306884518
| 42>  H        3.0672290560     1.3774051359    -3.0919911477
| 43>  H        2.5599573472     2.0579918108    -0.7419720193
| 44>  H        4.0676847352     1.1770552757    -0.8527934091
| 45> *
| 46>
| 47>                          ****END OF INPUT****
 Total Charge           Charge          ....    1
 Multiplicity           Mult            ....    1
 Number of Electrons    NEL             ....   56
FINAL SINGLE POINT ENERGY      -291.346969770989

CARTESIAN COORDINATES (ANGSTROEM)
---------------------------------
  C     -1.906028   -0.961912   -0.000000
  C     -1.189600    0.382595   -0.000000
  C     -0.328472    0.595179    1.248006
  C      0.920392   -0.259796    1.249971
  N      1.712883   -0.000121    0.000000
  C      0.920392   -0.259796   -1.249971
  C     -0.328472    0.595179   -1.248006
  H     -2.544263   -1.058521   -0.880352
  H     -2.544263   -1.058521    0.880352
  H     -1.224096   -1.816854   -0.000000
  H     -1.954503    1.163872   -0.000000
  H     -0.040556    1.649812    1.331614
  H     -0.893914    0.361752    2.153012
  H      1.571171   -0.042977    2.097931
  H      0.694940   -1.327232    1.250488
  H      2.017818    0.975949   -0.000000
  H      2.559734   -0.569713    0.000000
  H      0.694940   -1.327232   -1.250488
  H      1.571171   -0.042977   -2.097931
  H     -0.893914    0.361752   -2.153012
  H     -0.040556    1.649812   -1.331614

FINAL SINGLE POINT ENERGY      -291.346970488921
                    ***********************HURRAY********************
 Multiplicity           Mult            ....    1
 Number of Electrons    NEL             ....   56
 Basis Dimension        Dim             ....  301
FINAL SINGLE POINT ENERGY      -291.346970644760

VIBRATIONAL FREQUENCIES
-----------------------

   0:         0.00 cm**-1
   1:         0.00 cm**-1
   2:         0.00 cm**-1
   3:         0.00 cm**-1
   4:         0.00 cm**-1
   5:         0.00 cm**-1
   6:       160.46 cm**-1
   7:       202.48 cm**-1
   8:       222.58 cm**-1
   9:       303.90 cm**-1
  10:       372.08 cm**-1
  11:       391.36 cm**-1
  12:       459.58 cm**-1
  13:       473.15 cm**-1
  14:       614.04 cm**-1
  15:       772.17 cm**-1
  16:       800.25 cm**-1
  17:       827.39 cm**-1
  18:       861.01 cm**-1
  19:       872.54 cm**-1
  20:       958.98 cm**-1
  21:       972.08 cm**-1
  22:       990.86 cm**-1
  23:      1011.68 cm**-1
  24:      1045.38 cm**-1
  25:      1063.02 cm**-1
  26:      1083.39 cm**-1
  27:      1119.37 cm**-1
  28:      1171.99 cm**-1
  29:      1191.85 cm**-1
  30:      1203.15 cm**-1
  31:      1302.57 cm**-1
  32:      1321.09 cm**-1
  33:      1334.57 cm**-1
  34:      1361.09 cm**-1
  35:      1370.84 cm**-1
  36:      1371.89 cm**-1
  37:      1393.96 cm**-1
  38:      1417.06 cm**-1
  39:      1422.51 cm**-1
  40:      1428.13 cm**-1
  41:      1437.85 cm**-1
  42:      1473.25 cm**-1
  43:      1476.68 cm**-1
  44:      1484.23 cm**-1
  45:      1495.68 cm**-1
  46:      1498.73 cm**-1
  47:      1509.19 cm**-1
  48:      1644.78 cm**-1
  49:      3045.84 cm**-1
  50:      3047.82 cm**-1
  51:      3054.83 cm**-1
  52:      3081.53 cm**-1
  53:      3097.01 cm**-1
  54:      3097.06 cm**-1
  55:      3115.54 cm**-1
  56:      3116.19 cm**-1
  57:      3123.79 cm**-1
  58:      3140.12 cm**-1
  59:      3153.14 cm**-1
  60:      3154.29 cm**-1
  61:      3438.16 cm**-1
  62:      3499.21 cm**-1

IR SPECTRUM
-----------

 Mode    freq (cm**-1)   T**2         TX         TY         TZ
-------------------------------------------------------------------
   6:       160.46    3.658979  ( -0.792149  -1.741114   0.000005)
   7:       202.48    0.095154  ( -0.000011  -0.000047  -0.308471)
   8:       222.58    0.007634  ( -0.000001  -0.000002   0.087373)
   9:       303.90    4.893618  (  1.986437  -0.973491   0.000001)
  10:       372.08    0.247967  (  0.000003  -0.000017   0.497963)
  11:       391.36    0.410846  ( -0.265168   0.583551   0.000013)
  12:       459.58    0.781293  ( -0.000002   0.000001   0.883908)
  13:       473.15    5.226744  (  1.914784  -1.249138   0.000002)
  14:       614.04    2.923728  (  1.401093   0.980136   0.000002)
  15:       772.17    0.076680  ( -0.058154  -0.270736  -0.000000)
  16:       800.25    1.776386  ( -0.000003  -0.000000  -1.332811)
  17:       827.39    0.775644  ( -0.804239   0.358947   0.000000)
  18:       861.01   10.513148  (  2.869318  -1.510021   0.000006)
  19:       872.54    0.165846  (  0.000037  -0.000018  -0.407242)
  20:       958.98    3.521348  (  0.000013  -0.000001  -1.876525)
  21:       972.08    2.877496  ( -1.274391  -1.119565  -0.000008)
  22:       990.86    0.182392  ( -0.412910  -0.109074  -0.000031)
  23:      1011.68    2.362819  (  0.000000  -0.000005   1.537146)
  24:      1045.38   18.623671  (  0.000005   0.000011  -4.315515)
  25:      1063.02    3.697770  ( -0.780449   1.757461   0.000007)
  26:      1083.39    4.251731  (  0.932127   1.839258   0.000018)
  27:      1119.37    0.227212  ( -0.000001   0.000006   0.476668)
  28:      1171.99    0.645698  (  0.000003   0.000003   0.803553)
  29:      1191.85    1.302488  ( -0.342516   1.088656  -0.000010)
  30:      1203.15    0.000000  (  0.000013  -0.000012   0.000440)
  31:      1302.57    1.992963  ( -1.385107   0.272838   0.000012)
  32:      1321.09   16.121888  ( -0.000019  -0.000005  -4.015207)
  33:      1334.57    5.746260  (  1.916913   1.439341  -0.000008)
  34:      1361.09    1.101121  ( -0.000002  -0.000005   1.049343)
  35:      1370.84    1.191205  ( -0.000007   0.000001  -1.091423)
  36:      1371.89    2.979108  (  1.424567  -0.974534  -0.000004)
  37:      1393.96    1.169895  (  1.035702  -0.311796   0.000025)
  38:      1417.06   40.424358  ( -0.000060  -0.000087  -6.358015)
  39:      1422.51    9.450578  (  1.587584   2.632519  -0.000247)
  40:      1428.13    0.305546  ( -0.350767  -0.427211   0.000028)
  41:      1437.85   10.779877  ( -0.000008  -0.000040  -3.283272)
  42:      1473.25    3.122153  (  0.000002   0.000021  -1.766962)
  43:      1476.68    9.061115  ( -0.435479   2.978502   0.000115)
  44:      1484.23   16.532233  ( -0.000074   0.000129  -4.065985)
  45:      1495.68    4.444892  (  1.671097  -1.285429  -0.000094)
  46:      1498.73    0.093092  ( -0.000002   0.000007   0.305110)
  47:      1509.19   36.139768  ( -4.006597   4.481846   0.000017)
  48:      1644.78   75.102716  (  7.959998   3.426535   0.000000)
  49:      3045.84    2.313067  ( -0.000002  -0.000009  -1.520877)
  50:      3047.82   23.357586  (  1.935876   4.428315  -0.000006)
  51:      3054.83    3.560449  (  1.063763  -1.558479   0.000012)
  52:      3081.53    6.215003  ( -0.359986   2.466863  -0.000014)
  53:      3097.01    0.435171  (  0.000214  -0.000279  -0.659675)
  54:      3097.06    3.519192  ( -1.142928   1.487585  -0.000146)
  55:      3115.54    2.479296  ( -0.000041   0.000028  -1.574578)
  56:      3116.19    3.466030  ( -0.341847  -1.830074  -0.000003)
  57:      3123.79   21.620102  (  4.139084  -2.118510  -0.000228)
  58:      3140.12    7.136824  ( -0.000315   0.000131  -2.671484)
  59:      3153.14    0.706170  ( -0.000012  -0.000005  -0.840339)
  60:      3154.29    2.664387  (  0.415677   1.578480  -0.000004)
  61:      3438.16   43.781828  ( -6.065979  -2.643052   0.000000)
  62:      3499.21   68.245839  ( -4.646263   6.830672  -0.000000)

--------------------------
THERMOCHEMISTRY AT 298.15K
--------------------------

Temperature         ... 298.15 K
Pressure            ... 1.00 atm
Total Mass          ... 100.18 AMU

Throughout the following assumptions are being made:
  (1) The electronic state is orbitally nondegenerate
  (2) There are no thermally accessible electronically excited states
  (3) Hindered rotations indicated by low frequency modes) are not
      treated as such but are treated as vibrations and this may
      case some error
  (4) All equations used are the standard statistical mechanics
      equations for an ideal gas
  (5) All vibrations are strinctly harmonic

------------
INNER ENERGY
------------

The inner energy is: U= E(el) + E(ZPE) + E(vib) + E(rot) + E(trans)
    E(el)   - is the total energy from the electronic structure calculation
              = E(kin-el) + E(nuc-el) + E(el-el) + E(nuc-nuc)
    E(ZPE)  - the the zero temperature vibrational energy from the frequency calculation
    E(vib)  - the the finite temperature correction to E(ZPE) due to population
              of excietd vibrational states
    E(rot)  - is the rotational thermal energy
    E(trans)- is the translational thermal energy

Summary of contributions to the inner energy U:
Electronic energy                ...   -291.34697064 Eh
Zero point energy                ...      0.20287846 Eh     127.31 kcal/mol
Thermal vibrational correction   ...      0.00423463 Eh       2.66 kcal/mol
Thermal rotational correction    ...      0.00141627 Eh       0.89 kcal/mol
Thermal translational correction ...      0.00141627 Eh       0.89 kcal/mol
-----------------------------------------------------------------------
Total thermal energy                   -291.13702502 Eh

Summary of corrections to the electronic energy:
(perhaps to be used in another calculation)
Total thermal correction                  0.00706717 Eh       4.43 kcal/mol
Non-thermal (ZPE) correction              0.20287846 Eh     127.31 kcal/mol
-----------------------------------------------------------------------
Total correction                          0.20994563 Eh     131.74 kcal/mol

--------
ENTHALPY
--------

The enthalpy is H = U + kB*T
                kB is Boltzmann's constant
Total free energy                 ...   -291.13702502 Eh
Thermal Enthalpy correction       ...      0.00094421 Eh       0.59 kcal/mol
-----------------------------------------------------------------------
Total Enthalpy                    ...   -291.13608081 Eh

-------
ENTROPY
-------

The entropy contributions are T*S = T*(S(el)+S(vib)+S(rot)+S(trans)
     S(el)   - electronic entropy
     S(vib)  - vibrational entropy
     S(rot)  - rotational entropy
     S(trans)- translational entropy
The entropies will be listed as mutliplied by the temperature to get
units of energy

Electronic entropy                ...      0.00000000 Eh      0.00 kcal/mol
Vibrational entropy               ...      0.00666450 Eh      4.18 kcal/mol
Rotational entropy                ...      0.01194719 Eh      7.50 kcal/mol
Translational entropy             ...      0.01887386 Eh     11.84 kcal/mol
-----------------------------------------------------------------------
Final entropy term                ...      0.03748555 Eh     23.52 kcal/mol

CAUTION: The rotational entropy is not quite correctly treated here
         because it includes a symmetry number that is not yet correctly
         implemented in ORCA!
For a nonlinear molecule the correct rotational entropy is:
    S(rot) = R*(ln(qrot/sn)+1.5)
    R    = 8.31441 J/mol/K = 1.987191683e-3 kcal/mol/K
    qrot = 209421.6734557
    sn is the rotational symmetry number. We have assumed 3 here
       if it is different for your molecule then you should correct
       the printed rotational entropy by manually evaluating the equation
       as given above

For convenience we print out the resulting values for sn=1 - 12:
 sn= 1  qrot/sn=  209421.6735 T*S(rot)=     8.15 kcal/mol T*S(tot)=    24.17 kcal/mol
 sn= 2  qrot/sn=  104710.8367 T*S(rot)=     7.74 kcal/mol T*S(tot)=    23.76 kcal/mol
 sn= 3  qrot/sn=   69807.2245 T*S(rot)=     7.50 kcal/mol T*S(tot)=    23.52 kcal/mol
 sn= 4  qrot/sn=   52355.4184 T*S(rot)=     7.33 kcal/mol T*S(tot)=    23.35 kcal/mol
 sn= 5  qrot/sn=   41884.3347 T*S(rot)=     7.19 kcal/mol T*S(tot)=    23.22 kcal/mol
 sn= 6  qrot/sn=   34903.6122 T*S(rot)=     7.09 kcal/mol T*S(tot)=    23.11 kcal/mol
 sn= 7  qrot/sn=   29917.3819 T*S(rot)=     6.99 kcal/mol T*S(tot)=    23.02 kcal/mol
 sn= 8  qrot/sn=   26177.7092 T*S(rot)=     6.92 kcal/mol T*S(tot)=    22.94 kcal/mol
 sn= 9  qrot/sn=   23269.0748 T*S(rot)=     6.85 kcal/mol T*S(tot)=    22.87 kcal/mol
 sn=10  qrot/sn=   20942.1673 T*S(rot)=     6.78 kcal/mol T*S(tot)=    22.81 kcal/mol
 sn=11  qrot/sn=   19038.3340 T*S(rot)=     6.73 kcal/mol T*S(tot)=    22.75 kcal/mol
 sn=12  qrot/sn=   17451.8061 T*S(rot)=     6.68 kcal/mol T*S(tot)=    22.70 kcal/mol

-------------------
GIBBS FREE ENTHALPY
-------------------

The Gibbs free enthalpy is G = H - T*S

Total enthalpy                    ...   -291.13608081 Eh
Total entropy correction          ...     -0.03748555 Eh    -23.52 kcal/mol
-----------------------------------------------------------------------
Final Gibbs free enthalpy         ...   -291.17356635 Eh

For completeness - the Gibbs free enthalpy minus the electronic energy
G-E(el)                           ...      0.17340429 Eh    108.81 kcal/mol

                             ****ORCA TERMINATED NORMALLY****
TOTAL RUN TIME: 0 days 0 hours 55 minutes 20 seconds 177 msec
