                         Program Version 3.0.3 - RELEASE   -
|  1> ! NORI PBE0 def2-TZVP UseSym TightOPT Freq TightSCF Grid3 FinalGrid5 XYZFile
|  2> % pal
|  3>     nprocs 8
|  4> end
|  5> %method
|  6>     SymThresh 5.0e-2
|  7> end
|  8> % geom
|  9>     MaxIter 10
| 10> end
| 11> % maxcore 2000
| 12> % output
| 13>     printlevel mini
| 14>     print[ P_Basis ] 0
| 15>     print[ P_SCFInfo ] 1
| 16>     print[ P_SCFIterInfo ] 1
| 17>     print[ P_OrbEn ] 0
| 18>     print[ P_Cartesian ] 0
| 19> end
| 20> % elprop
| 21>     Dipole false
| 22> end
| 23> *xyz 1 1
| 24>  C        1.0621856243    -0.0548754742     0.0359012088
| 25>  C        2.3869562451    -0.0736458425    -0.0076753752
| 26>  C        3.1908173510    -1.3417245448    -0.0183150834
| 27>  C        4.1539494490    -1.3720692941    -1.1903412211
| 28>  N        4.9995202099    -0.1302419702    -1.1847404140
| 29>  C        4.1888086182     1.1337012307    -1.2337855018
| 30>  C        3.2251209467     1.1708684520    -0.0622677168
| 31>  H        0.5080463377     0.8768575725     0.0463469528
| 32>  H        0.4833566585    -0.9704976017     0.0789441074
| 33>  H        3.7609182710    -1.4368758342     0.9162187183
| 34>  H        2.5466410424    -2.2199774498    -0.0817445559
| 35>  H        4.8313779951    -2.2262901681    -1.1554772915
| 36>  H        3.6251211051    -1.3774032072    -2.1451444342
| 37>  H        5.5709865473    -0.1233442504    -0.3363799808
| 38>  H        5.6492268646    -0.1529861189    -1.9720350000
| 39>  H        3.6604666668     1.1210202608    -2.1887715822
| 40>  H        4.8899067230     1.9693556722    -1.2277373045
| 41>  H        2.6054525927     2.0636087868    -0.1576311910
| 42>  H        3.7973407518     1.2832797809     0.8689856653
| 43> *
| 44>
| 45>                          ****END OF INPUT****
 Total Charge           Charge          ....    1
 Multiplicity           Mult            ....    1
 Number of Electrons    NEL             ....   54
FINAL SINGLE POINT ENERGY      -290.116300967570

CARTESIAN COORDINATES (ANGSTROEM)
---------------------------------
  C     -2.363685   -0.297758   -0.000000
  C     -1.114105    0.144701   -0.000000
  C     -0.337518    0.412743    1.256799
  C      0.987322   -0.327565    1.253161
  N      1.748846    0.000352   -0.000000
  C      0.987322   -0.327566   -1.253161
  C     -0.337518    0.412743   -1.256799
  H     -2.900854   -0.479782   -0.923928
  H     -2.900854   -0.479782    0.923928
  H     -0.146015    1.489622    1.361573
  H     -0.897133    0.107710    2.142173
  H      1.621649   -0.057619    2.098462
  H      0.843322   -1.409385    1.248732
  H      1.971256    0.998757   -0.000000
  H      2.641244   -0.495405   -0.000000
  H      0.843322   -1.409385   -1.248732
  H      1.621649   -0.057619   -2.098462
  H     -0.897133    0.107711   -2.142173
  H     -0.146015    1.489622   -1.361573

FINAL SINGLE POINT ENERGY      -290.116301780656
                    ***********************HURRAY********************
 Multiplicity           Mult            ....    1
 Number of Electrons    NEL             ....   54
 Basis Dimension        Dim             ....  289
FINAL SINGLE POINT ENERGY      -290.116302090274

VIBRATIONAL FREQUENCIES
-----------------------

   0:         0.00 cm**-1
   1:         0.00 cm**-1
   2:         0.00 cm**-1
   3:         0.00 cm**-1
   4:         0.00 cm**-1
   5:         0.00 cm**-1
   6:       127.82 cm**-1
   7:       206.39 cm**-1
   8:       300.82 cm**-1
   9:       398.58 cm**-1
  10:       399.57 cm**-1
  11:       445.61 cm**-1
  12:       467.09 cm**-1
  13:       635.35 cm**-1
  14:       739.69 cm**-1
  15:       776.32 cm**-1
  16:       808.45 cm**-1
  17:       835.74 cm**-1
  18:       874.34 cm**-1
  19:       892.82 cm**-1
  20:       978.78 cm**-1
  21:       987.90 cm**-1
  22:      1008.25 cm**-1
  23:      1012.26 cm**-1
  24:      1050.34 cm**-1
  25:      1068.60 cm**-1
  26:      1128.24 cm**-1
  27:      1139.36 cm**-1
  28:      1204.74 cm**-1
  29:      1272.76 cm**-1
  30:      1293.58 cm**-1
  31:      1318.05 cm**-1
  32:      1326.57 cm**-1
  33:      1375.16 cm**-1
  34:      1377.52 cm**-1
  35:      1416.28 cm**-1
  36:      1416.33 cm**-1
  37:      1432.55 cm**-1
  38:      1456.96 cm**-1
  39:      1463.45 cm**-1
  40:      1475.20 cm**-1
  41:      1486.90 cm**-1
  42:      1504.08 cm**-1
  43:      1645.03 cm**-1
  44:      1747.14 cm**-1
  45:      3023.14 cm**-1
  46:      3027.12 cm**-1
  47:      3093.59 cm**-1
  48:      3094.18 cm**-1
  49:      3129.49 cm**-1
  50:      3130.21 cm**-1
  51:      3153.53 cm**-1
  52:      3154.31 cm**-1
  53:      3163.72 cm**-1
  54:      3252.67 cm**-1
  55:      3435.71 cm**-1
  56:      3496.37 cm**-1

IR SPECTRUM
-----------

 Mode    freq (cm**-1)   T**2         TX         TY         TZ
-------------------------------------------------------------------
   6:       127.82    3.953191  ( -0.018417  -1.988178   0.000006)
   7:       206.39    0.170944  ( -0.000001  -0.000003  -0.413454)
   8:       300.82    2.598398  (  1.596943  -0.219478   0.000001)
   9:       398.58    0.019722  ( -0.000190  -0.000190  -0.140436)
  10:       399.57    1.297007  (  0.807929   0.802657  -0.000040)
  11:       445.61    0.572239  (  0.000009  -0.000002   0.756465)
  12:       467.09   12.636664  ( -2.553312   2.473310  -0.000004)
  13:       635.35    3.226242  ( -1.035576   1.467591   0.000000)
  14:       739.69    0.001510  (  0.000001  -0.000000   0.038855)
  15:       776.32    1.696116  (  1.297267   0.114956  -0.000002)
  16:       808.45    1.445942  ( -0.000001  -0.000001  -1.202473)
  17:       835.74    0.495688  ( -0.582758   0.395071  -0.000005)
  18:       874.34   15.998289  (  3.193609  -2.408142  -0.000007)
  19:       892.82    0.494721  (  0.000002   0.000002   0.703364)
  20:       978.78    7.498395  (  0.000006   0.000005   2.738320)
  21:       987.90   37.407458  (  1.602466  -5.902505   0.000020)
  22:      1008.25    8.684674  ( -2.078979  -2.088665   0.000027)
  23:      1012.26    4.818018  ( -0.000020  -0.000018  -2.194998)
  24:      1050.34    5.055321  ( -1.304857   1.831030   0.000003)
  25:      1068.60    7.192512  ( -0.000003   0.000002  -2.681886)
  26:      1128.24    0.614072  ( -0.754589  -0.211347   0.000002)
  27:      1139.36    1.599538  (  0.000001   0.000000   1.264728)
  28:      1204.74    1.522210  ( -0.000001   0.000001   1.233779)
  29:      1272.76    9.129733  ( -2.904140   0.834089  -0.000013)
  30:      1293.58    0.081384  (  0.000001  -0.000000   0.285279)
  31:      1318.05   13.629941  (  0.000002  -0.000004  -3.691875)
  32:      1326.57    1.648634  (  0.110354   1.279240  -0.000026)
  33:      1375.16    2.719492  ( -0.806036  -1.438679  -0.000101)
  34:      1377.52    3.138049  (  0.000038   0.000069  -1.771454)
  35:      1416.28   33.089604  (  0.000011   0.000001   5.752356)
  36:      1416.33    1.440671  (  1.194506   0.117592  -0.000056)
  37:      1432.55   19.088871  (  0.000000  -0.000000   4.369081)
  38:      1456.96   10.677503  (  1.256454   3.016426  -0.000001)
  39:      1463.45    4.845515  ( -0.000008   0.000003  -2.201253)
  40:      1475.20   17.769792  ( -3.673715   2.067272   0.000014)
  41:      1486.90    8.839448  (  0.000002  -0.000001  -2.973121)
  42:      1504.08   20.920970  ( -2.904368   3.533499  -0.000000)
  43:      1645.03   75.959881  (  7.737434   4.011484   0.000001)
  44:      1747.14    4.985574  ( -2.046793  -0.892308  -0.000000)
  45:      3023.14    1.192821  ( -0.000028  -0.000038  -1.092164)
  46:      3027.12   19.463153  (  2.649864   3.527233  -0.000007)
  47:      3093.59    0.723343  (  0.000018  -0.000014   0.850496)
  48:      3094.18    4.932687  (  1.696782  -1.433045  -0.000010)
  49:      3129.49    1.234514  (  0.000010  -0.000026  -1.111087)
  50:      3130.21    0.405048  (  0.246449  -0.586780   0.000054)
  51:      3153.53    0.771739  ( -0.000007  -0.000005   0.878487)
  52:      3154.31    1.482173  (  0.912939   0.805429   0.000006)
  53:      3163.72    0.027678  ( -0.152338   0.066869  -0.000004)
  54:      3252.67    0.802308  (  0.000000  -0.000000   0.895717)
  55:      3435.71   45.538478  ( -5.926616  -3.227028  -0.000000)
  56:      3496.37   74.618914  ( -5.713922   6.478427   0.000000)

--------------------------
THERMOCHEMISTRY AT 298.15K
--------------------------

Temperature         ... 298.15 K
Pressure            ... 1.00 atm
Total Mass          ... 98.17 AMU

Throughout the following assumptions are being made:
  (1) The electronic state is orbitally nondegenerate
  (2) There are no thermally accessible electronically excited states
  (3) Hindered rotations indicated by low frequency modes) are not
      treated as such but are treated as vibrations and this may
      case some error
  (4) All equations used are the standard statistical mechanics
      equations for an ideal gas
  (5) All vibrations are strinctly harmonic

------------
INNER ENERGY
------------

The inner energy is: U= E(el) + E(ZPE) + E(vib) + E(rot) + E(trans)
    E(el)   - is the total energy from the electronic structure calculation
              = E(kin-el) + E(nuc-el) + E(el-el) + E(nuc-nuc)
    E(ZPE)  - the the zero temperature vibrational energy from the frequency calculation
    E(vib)  - the the finite temperature correction to E(ZPE) due to population
              of excietd vibrational states
    E(rot)  - is the rotational thermal energy
    E(trans)- is the translational thermal energy

Summary of contributions to the inner energy U:
Electronic energy                ...   -290.11630209 Eh
Zero point energy                ...      0.17917484 Eh     112.43 kcal/mol
Thermal vibrational correction   ...      0.00375570 Eh       2.36 kcal/mol
Thermal rotational correction    ...      0.00141627 Eh       0.89 kcal/mol
Thermal translational correction ...      0.00141627 Eh       0.89 kcal/mol
-----------------------------------------------------------------------
Total thermal energy                   -289.93053901 Eh

Summary of corrections to the electronic energy:
(perhaps to be used in another calculation)
Total thermal correction                  0.00658825 Eh       4.13 kcal/mol
Non-thermal (ZPE) correction              0.17917484 Eh     112.43 kcal/mol
-----------------------------------------------------------------------
Total correction                          0.18576308 Eh     116.57 kcal/mol

--------
ENTHALPY
--------

The enthalpy is H = U + kB*T
                kB is Boltzmann's constant
Total free energy                 ...   -289.93053901 Eh
Thermal Enthalpy correction       ...      0.00094421 Eh       0.59 kcal/mol
-----------------------------------------------------------------------
Total Enthalpy                    ...   -289.92959480 Eh

-------
ENTROPY
-------

The entropy contributions are T*S = T*(S(el)+S(vib)+S(rot)+S(trans)
     S(el)   - electronic entropy
     S(vib)  - vibrational entropy
     S(rot)  - rotational entropy
     S(trans)- translational entropy
The entropies will be listed as mutliplied by the temperature to get
units of energy

Electronic entropy                ...      0.00000000 Eh      0.00 kcal/mol
Vibrational entropy               ...      0.00592205 Eh      3.72 kcal/mol
Rotational entropy                ...      0.01192560 Eh      7.48 kcal/mol
Translational entropy             ...      0.01884507 Eh     11.83 kcal/mol
-----------------------------------------------------------------------
Final entropy term                ...      0.03669271 Eh     23.02 kcal/mol

CAUTION: The rotational entropy is not quite correctly treated here
         because it includes a symmetry number that is not yet correctly
         implemented in ORCA!
For a nonlinear molecule the correct rotational entropy is:
    S(rot) = R*(ln(qrot/sn)+1.5)
    R    = 8.31441 J/mol/K = 1.987191683e-3 kcal/mol/K
    qrot = 204687.3661377
    sn is the rotational symmetry number. We have assumed 3 here
       if it is different for your molecule then you should correct
       the printed rotational entropy by manually evaluating the equation
       as given above

For convenience we print out the resulting values for sn=1 - 12:
 sn= 1  qrot/sn=  204687.3661 T*S(rot)=     8.13 kcal/mol T*S(tot)=    23.68 kcal/mol
 sn= 2  qrot/sn=  102343.6831 T*S(rot)=     7.72 kcal/mol T*S(tot)=    23.27 kcal/mol
 sn= 3  qrot/sn=   68229.1220 T*S(rot)=     7.48 kcal/mol T*S(tot)=    23.02 kcal/mol
 sn= 4  qrot/sn=   51171.8415 T*S(rot)=     7.31 kcal/mol T*S(tot)=    22.85 kcal/mol
 sn= 5  qrot/sn=   40937.4732 T*S(rot)=     7.18 kcal/mol T*S(tot)=    22.72 kcal/mol
 sn= 6  qrot/sn=   34114.5610 T*S(rot)=     7.07 kcal/mol T*S(tot)=    22.61 kcal/mol
 sn= 7  qrot/sn=   29241.0523 T*S(rot)=     6.98 kcal/mol T*S(tot)=    22.52 kcal/mol
 sn= 8  qrot/sn=   25585.9208 T*S(rot)=     6.90 kcal/mol T*S(tot)=    22.44 kcal/mol
 sn= 9  qrot/sn=   22743.0407 T*S(rot)=     6.83 kcal/mol T*S(tot)=    22.37 kcal/mol
 sn=10  qrot/sn=   20468.7366 T*S(rot)=     6.77 kcal/mol T*S(tot)=    22.31 kcal/mol
 sn=11  qrot/sn=   18607.9424 T*S(rot)=     6.71 kcal/mol T*S(tot)=    22.26 kcal/mol
 sn=12  qrot/sn=   17057.2805 T*S(rot)=     6.66 kcal/mol T*S(tot)=    22.20 kcal/mol

-------------------
GIBBS FREE ENTHALPY
-------------------

The Gibbs free enthalpy is G = H - T*S

Total enthalpy                    ...   -289.92959480 Eh
Total entropy correction          ...     -0.03669271 Eh    -23.02 kcal/mol
-----------------------------------------------------------------------
Final Gibbs free enthalpy         ...   -289.96628751 Eh

For completeness - the Gibbs free enthalpy minus the electronic energy
G-E(el)                           ...      0.15001458 Eh     94.14 kcal/mol

                             ****ORCA TERMINATED NORMALLY****
TOTAL RUN TIME: 0 days 0 hours 48 minutes 55 seconds 271 msec
