                         Program Version 3.0.3 - RELEASE   -
|  1> ! NORI PBE0 def2-TZVP UseSym TightOPT Freq TightSCF Grid3 FinalGrid5 XYZFile
|  2> % pal
|  3>     nprocs 8
|  4> end
|  5> %method
|  6>     SymThresh 5.0e-2
|  7> end
|  8> % geom
|  9>     MaxIter 10
| 10> end
| 11> % maxcore 2000
| 12> % output
| 13>     printlevel mini
| 14>     print[ P_Basis ] 0
| 15>     print[ P_SCFInfo ] 1
| 16>     print[ P_SCFIterInfo ] 1
| 17>     print[ P_OrbEn ] 0
| 18>     print[ P_Cartesian ] 0
| 19> end
| 20> % elprop
| 21>     Dipole false
| 22> end
| 23> *xyz 1 1
| 24>  C        0.9269329890    -0.0577894182     0.0496417627
| 25>  C        2.4166243047    -0.0316166315     0.0211036543
| 26>  C        3.1139330399     1.0982958391    -0.0825150516
| 27>  C        4.6026225081     1.1755983625    -0.0662863980
| 28>  N        5.1781951743    -0.0989227000     0.4658841906
| 29>  C        4.5769255074    -1.2993048620    -0.2016682167
| 30>  C        3.1032865464    -1.3648613207     0.1287848002
| 31>  H        0.5030587429     0.9448978708     0.0198462638
| 32>  H        0.5659086930    -0.5583602156     0.9535823368
| 33>  H        0.5361832004    -0.6252186210    -0.8004475765
| 34>  H        2.6051133046     2.0514740077    -0.1761514934
| 35>  H        4.9582463314     1.9846879313     0.5757713997
| 36>  H        5.0337762401     1.3287291059    -1.0606090223
| 37>  H        6.1923640938    -0.0987100911     0.3510885174
| 38>  H        4.9900512866    -0.1502048344     1.4695775989
| 39>  H        4.7468826417    -1.1665251435    -1.2712209788
| 40>  H        5.1234529172    -2.1800461846     0.1364554639
| 41>  H        2.9457231034    -1.7855475452     1.1297514173
| 42>  H        2.6362293752    -2.0762655495    -0.5589086685
| 43> *
| 44>
| 45>                          ****END OF INPUT****
 Total Charge           Charge          ....    1
 Multiplicity           Mult            ....    1
 Number of Electrons    NEL             ....   54
FINAL SINGLE POINT ENERGY      -290.122603948294

CARTESIAN COORDINATES (ANGSTROEM)
---------------------------------
  C      0.577774    0.000115   -2.457406
  C      0.209225   -0.050875   -1.014402
  C      0.018138   -1.195750   -0.361304
  C     -0.304869   -1.295106    1.090633
  N     -0.000156   -0.000035    1.775093
  C     -0.584441    1.167057    1.037284
  C      0.072316    1.275520   -0.319949
  H      0.707470   -0.996194   -2.878139
  H      1.508081    0.558661   -2.599653
  H     -0.192912    0.522144   -3.032548
  H      0.104218   -2.144674   -0.879131
  H      0.286788   -2.069453    1.584336
  H     -1.360336   -1.514134    1.279877
  H     -0.345361   -0.022846    2.735110
  H      1.014527    0.114510    1.824363
  H     -1.653911    0.967430    0.955559
  H     -0.436926    2.057673    1.648329
  H      1.054364    1.758316   -0.241396
  H     -0.532022    1.951178   -0.932503

FINAL SINGLE POINT ENERGY      -290.122604528557
                    ***********************HURRAY********************
 Multiplicity           Mult            ....    1
 Number of Electrons    NEL             ....   54
 Basis Dimension        Dim             ....  289
FINAL SINGLE POINT ENERGY      -290.122604692895

VIBRATIONAL FREQUENCIES
-----------------------

   0:         0.00 cm**-1
   1:         0.00 cm**-1
   2:         0.00 cm**-1
   3:         0.00 cm**-1
   4:         0.00 cm**-1
   5:         0.00 cm**-1
   6:       126.58 cm**-1
   7:       170.71 cm**-1
   8:       244.37 cm**-1
   9:       313.52 cm**-1
  10:       332.98 cm**-1
  11:       426.60 cm**-1
  12:       448.17 cm**-1
  13:       518.14 cm**-1
  14:       639.87 cm**-1
  15:       779.31 cm**-1
  16:       816.56 cm**-1
  17:       846.68 cm**-1
  18:       869.07 cm**-1
  19:       914.42 cm**-1
  20:       977.88 cm**-1
  21:       991.95 cm**-1
  22:      1019.95 cm**-1
  23:      1046.72 cm**-1
  24:      1069.30 cm**-1
  25:      1111.43 cm**-1
  26:      1122.43 cm**-1
  27:      1188.76 cm**-1
  28:      1202.56 cm**-1
  29:      1233.54 cm**-1
  30:      1301.83 cm**-1
  31:      1335.98 cm**-1
  32:      1343.55 cm**-1
  33:      1405.63 cm**-1
  34:      1414.81 cm**-1
  35:      1418.90 cm**-1
  36:      1425.99 cm**-1
  37:      1436.42 cm**-1
  38:      1466.33 cm**-1
  39:      1469.19 cm**-1
  40:      1478.75 cm**-1
  41:      1486.74 cm**-1
  42:      1503.61 cm**-1
  43:      1639.47 cm**-1
  44:      1756.99 cm**-1
  45:      3042.26 cm**-1
  46:      3049.35 cm**-1
  47:      3067.01 cm**-1
  48:      3092.56 cm**-1
  49:      3102.27 cm**-1
  50:      3107.47 cm**-1
  51:      3117.64 cm**-1
  52:      3157.87 cm**-1
  53:      3158.75 cm**-1
  54:      3201.76 cm**-1
  55:      3442.52 cm**-1
  56:      3503.28 cm**-1

IR SPECTRUM
-----------

 Mode    freq (cm**-1)   T**2         TX         TY         TZ
-------------------------------------------------------------------
   6:       126.58    3.334281  ( -1.668835   0.002443   0.741125)
   7:       170.71    1.321209  ( -1.106726  -0.000177  -0.310428)
   8:       244.37    5.140710  ( -2.147190   0.012758   0.728094)
   9:       313.52    5.285539  ( -0.444592   0.411023  -2.217868)
  10:       332.98    1.037736  (  0.473943   0.893816  -0.119191)
  11:       426.60    2.997708  ( -0.417087  -0.156607  -1.673087)
  12:       448.17    5.195803  ( -2.143054  -0.701998   0.332145)
  13:       518.14    0.447293  ( -0.602692   0.289601   0.013668)
  14:       639.87    2.852334  ( -1.351723   0.085396   1.008904)
  15:       779.31    5.885004  ( -2.296068  -0.619439  -0.478926)
  16:       816.56   10.047973  (  3.159305  -0.065434   0.249969)
  17:       846.68    4.982916  ( -1.761699   1.315766   0.384828)
  18:       869.07    6.598386  (  0.545053  -0.238103  -2.498922)
  19:       914.42    0.733912  ( -0.693957   0.073663   0.496899)
  20:       977.88    6.369038  (  1.834904   1.665626   0.477342)
  21:       991.95    6.350157  ( -2.025989  -1.488277   0.174804)
  22:      1019.95    0.600621  ( -0.344298  -0.335721  -0.607760)
  23:      1046.72    1.335949  ( -0.986687  -0.070121  -0.597896)
  24:      1069.30    3.972193  ( -0.699549   1.493472  -1.119091)
  25:      1111.43    2.259076  ( -1.146897   0.970161  -0.049927)
  26:      1122.43    9.448892  (  0.133283  -3.070826  -0.033950)
  27:      1188.76    4.535944  (  1.086220  -1.611117   0.871993)
  28:      1202.56    0.688365  (  0.813846   0.011175   0.160917)
  29:      1233.54    4.642213  ( -0.042636   2.048740  -0.665626)
  30:      1301.83    8.259470  ( -1.563910   2.114868   1.158011)
  31:      1335.98    1.018309  ( -0.025333   0.715608   0.711036)
  32:      1343.55    4.425412  ( -1.115718  -1.763575   0.265311)
  33:      1405.63    7.842294  ( -0.470524   2.662100   0.730839)
  34:      1414.81    8.157166  ( -0.608521   2.040439   1.903543)
  35:      1418.90   13.524432  ( -0.476833   3.389447   1.344883)
  36:      1425.99   12.419971  (  0.170077   2.018754  -2.883692)
  37:      1436.42   18.716274  (  0.272431  -4.175116   1.100211)
  38:      1466.33   12.297990  ( -3.335904  -0.017715   1.081398)
  39:      1469.19    7.286925  ( -2.172243  -0.369959  -1.559299)
  40:      1478.75   18.433105  (  0.376517   4.059553  -1.345872)
  41:      1486.74   14.669638  (  0.527987  -3.711391   0.785141)
  42:      1503.61   19.811022  (  2.977612   0.383159  -3.286037)
  43:      1639.47   79.077255  (  4.853009   0.651324   7.423027)
  44:      1756.99   13.800723  (  0.797326   2.616004  -2.514262)
  45:      3042.26    3.369079  (  1.328644   1.265146   0.056464)
  46:      3049.35    4.092792  ( -0.790284  -1.249355   1.381070)
  47:      3067.01    6.982837  ( -0.996295  -1.201299   2.132396)
  48:      3092.56    0.480244  (  0.304042   0.020898  -0.622387)
  49:      3102.27    2.089894  (  0.923945  -0.451025  -1.016266)
  50:      3107.47    3.152310  (  1.738774   0.050875   0.355508)
  51:      3117.64    0.210323  (  0.232709  -0.393131  -0.040215)
  52:      3157.87    3.894948  (  0.270514  -1.743902  -0.883502)
  53:      3158.75    1.472740  ( -0.110817  -1.077041  -0.548125)
  54:      3201.76    0.481111  (  0.091605   0.582652  -0.365016)
  55:      3442.52   50.244030  ( -4.217642  -0.395793  -5.683210)
  56:      3503.28   72.698084  (  6.052799   0.566717  -5.978339)

--------------------------
THERMOCHEMISTRY AT 298.15K
--------------------------

Temperature         ... 298.15 K
Pressure            ... 1.00 atm
Total Mass          ... 98.17 AMU

Throughout the following assumptions are being made:
  (1) The electronic state is orbitally nondegenerate
  (2) There are no thermally accessible electronically excited states
  (3) Hindered rotations indicated by low frequency modes) are not
      treated as such but are treated as vibrations and this may
      case some error
  (4) All equations used are the standard statistical mechanics
      equations for an ideal gas
  (5) All vibrations are strinctly harmonic

------------
INNER ENERGY
------------

The inner energy is: U= E(el) + E(ZPE) + E(vib) + E(rot) + E(trans)
    E(el)   - is the total energy from the electronic structure calculation
              = E(kin-el) + E(nuc-el) + E(el-el) + E(nuc-nuc)
    E(ZPE)  - the the zero temperature vibrational energy from the frequency calculation
    E(vib)  - the the finite temperature correction to E(ZPE) due to population
              of excietd vibrational states
    E(rot)  - is the rotational thermal energy
    E(trans)- is the translational thermal energy

Summary of contributions to the inner energy U:
Electronic energy                ...   -290.12260469 Eh
Zero point energy                ...      0.17846808 Eh     111.99 kcal/mol
Thermal vibrational correction   ...      0.00416992 Eh       2.62 kcal/mol
Thermal rotational correction    ...      0.00141627 Eh       0.89 kcal/mol
Thermal translational correction ...      0.00141627 Eh       0.89 kcal/mol
-----------------------------------------------------------------------
Total thermal energy                   -289.93713416 Eh

Summary of corrections to the electronic energy:
(perhaps to be used in another calculation)
Total thermal correction                  0.00700246 Eh       4.39 kcal/mol
Non-thermal (ZPE) correction              0.17846808 Eh     111.99 kcal/mol
-----------------------------------------------------------------------
Total correction                          0.18547053 Eh     116.38 kcal/mol

--------
ENTHALPY
--------

The enthalpy is H = U + kB*T
                kB is Boltzmann's constant
Total free energy                 ...   -289.93713416 Eh
Thermal Enthalpy correction       ...      0.00094421 Eh       0.59 kcal/mol
-----------------------------------------------------------------------
Total Enthalpy                    ...   -289.93618995 Eh

-------
ENTROPY
-------

The entropy contributions are T*S = T*(S(el)+S(vib)+S(rot)+S(trans)
     S(el)   - electronic entropy
     S(vib)  - vibrational entropy
     S(rot)  - rotational entropy
     S(trans)- translational entropy
The entropies will be listed as mutliplied by the temperature to get
units of energy

Electronic entropy                ...      0.00000000 Eh      0.00 kcal/mol
Vibrational entropy               ...      0.00676516 Eh      4.25 kcal/mol
Rotational entropy                ...      0.01195679 Eh      7.50 kcal/mol
Translational entropy             ...      0.01884507 Eh     11.83 kcal/mol
-----------------------------------------------------------------------
Final entropy term                ...      0.03756702 Eh     23.57 kcal/mol

CAUTION: The rotational entropy is not quite correctly treated here
         because it includes a symmetry number that is not yet correctly
         implemented in ORCA!
For a nonlinear molecule the correct rotational entropy is:
    S(rot) = R*(ln(qrot/sn)+1.5)
    R    = 8.31441 J/mol/K = 1.987191683e-3 kcal/mol/K
    qrot = 211562.3941825
    sn is the rotational symmetry number. We have assumed 3 here
       if it is different for your molecule then you should correct
       the printed rotational entropy by manually evaluating the equation
       as given above

For convenience we print out the resulting values for sn=1 - 12:
 sn= 1  qrot/sn=  211562.3942 T*S(rot)=     8.15 kcal/mol T*S(tot)=    24.22 kcal/mol
 sn= 2  qrot/sn=  105781.1971 T*S(rot)=     7.74 kcal/mol T*S(tot)=    23.81 kcal/mol
 sn= 3  qrot/sn=   70520.7981 T*S(rot)=     7.50 kcal/mol T*S(tot)=    23.57 kcal/mol
 sn= 4  qrot/sn=   52890.5985 T*S(rot)=     7.33 kcal/mol T*S(tot)=    23.40 kcal/mol
 sn= 5  qrot/sn=   42312.4788 T*S(rot)=     7.20 kcal/mol T*S(tot)=    23.27 kcal/mol
 sn= 6  qrot/sn=   35260.3990 T*S(rot)=     7.09 kcal/mol T*S(tot)=    23.16 kcal/mol
 sn= 7  qrot/sn=   30223.1992 T*S(rot)=     7.00 kcal/mol T*S(tot)=    23.07 kcal/mol
 sn= 8  qrot/sn=   26445.2993 T*S(rot)=     6.92 kcal/mol T*S(tot)=    22.99 kcal/mol
 sn= 9  qrot/sn=   23506.9327 T*S(rot)=     6.85 kcal/mol T*S(tot)=    22.92 kcal/mol
 sn=10  qrot/sn=   21156.2394 T*S(rot)=     6.79 kcal/mol T*S(tot)=    22.86 kcal/mol
 sn=11  qrot/sn=   19232.9449 T*S(rot)=     6.73 kcal/mol T*S(tot)=    22.80 kcal/mol
 sn=12  qrot/sn=   17630.1995 T*S(rot)=     6.68 kcal/mol T*S(tot)=    22.75 kcal/mol

-------------------
GIBBS FREE ENTHALPY
-------------------

The Gibbs free enthalpy is G = H - T*S

Total enthalpy                    ...   -289.93618995 Eh
Total entropy correction          ...     -0.03756702 Eh    -23.57 kcal/mol
-----------------------------------------------------------------------
Final Gibbs free enthalpy         ...   -289.97375697 Eh

For completeness - the Gibbs free enthalpy minus the electronic energy
G-E(el)                           ...      0.14884773 Eh     93.40 kcal/mol

                             ****ORCA TERMINATED NORMALLY****
TOTAL RUN TIME: 0 days 0 hours 45 minutes 35 seconds 954 msec
