                         Program Version 3.0.3 - RELEASE   -
|  1> ! NORI PBE0 def2-TZVP UseSym TightOPT Freq TightSCF Grid3 FinalGrid5 XYZFile
|  2> % pal
|  3>     nprocs 8
|  4> end
|  5> %method
|  6>     SymThresh 5.0e-2
|  7> end
|  8> % geom
|  9>     MaxIter 10
| 10> end
| 11> % maxcore 2000
| 12> % output
| 13>     printlevel mini
| 14>     print[ P_Basis ] 0
| 15>     print[ P_SCFInfo ] 1
| 16>     print[ P_SCFIterInfo ] 1
| 17>     print[ P_OrbEn ] 0
| 18>     print[ P_Cartesian ] 0
| 19> end
| 20> % elprop
| 21>     Dipole false
| 22> end
| 23> *xyz 1 1
| 24>  C        1.0305826971    -0.0004571834    -0.0788564630
| 25>  C        2.5108224660    -0.0166152122    -0.1208598553
| 26>  C        3.2999109199    -1.0940302213    -0.2015118057
| 27>  C        4.7399605232    -0.7221604887    -0.2104606495
| 28>  N        5.3722815813    -1.1161057180     1.1402957221
| 29>  C        4.7489003070     0.7980403342    -0.3819403361
| 30>  C        3.3133585521     1.2518713263    -0.0850040441
| 31>  H        0.6068377396    -1.0037485424    -0.0785079937
| 32>  H        0.6345425382     0.5459770762    -0.9402485873
| 33>  H        0.6779823081     0.5312014847     0.8103815739
| 34>  H        2.9552163641    -2.1196993413    -0.2665986167
| 35>  H        5.3532782892    -1.2519902151    -0.9422842952
| 36>  H        4.8717692009    -0.6549322159     1.9023236393
| 37>  H        6.3589440176    -0.8546897070     1.1920628525
| 38>  H        5.3000178829    -2.1236842784     1.2927876358
| 39>  H        5.0070647355     1.0155654359    -1.4187178009
| 40>  H        5.5031650918     1.2971097819     0.2321261048
| 41>  H        2.9557212309     1.9728515641    -0.8242767792
| 42>  H        3.2055535547     1.7468961205     0.8871396982
| 43> *
| 44>
| 45>                          ****END OF INPUT****
 Total Charge           Charge          ....    1
 Multiplicity           Mult            ....    1
 Number of Electrons    NEL             ....   54
FINAL SINGLE POINT ENERGY      -290.125254027077

CARTESIAN COORDINATES (ANGSTROEM)
---------------------------------
  C      1.507866    0.000091   -2.109053
  C      0.545051    0.027301   -0.984053
  C      0.534333    0.884424    0.043418
  C     -0.579186    0.598336    0.987155
  N     -0.000195   -0.000167    2.285444
  C     -1.448085   -0.432378    0.263938
  C     -0.584064   -0.958054   -0.890331
  H      2.283100    0.758526   -2.007064
  H      0.985043    0.159898   -3.056813
  H      1.983700   -0.982445   -2.182684
  H      1.232053    1.701978    0.184932
  H     -1.131330    1.473810    1.335303
  H      0.531924   -0.844787    2.067718
  H     -0.732681   -0.239268    2.956658
  H      0.640393    0.658158    2.732274
  H     -2.325487    0.084884   -0.125922
  H     -1.824879   -1.218455    0.924123
  H     -1.146957   -1.011603   -1.825270
  H     -0.197601   -1.969230   -0.719322

FINAL SINGLE POINT ENERGY      -290.125254848562
                    ***********************HURRAY********************
 Multiplicity           Mult            ....    1
 Number of Electrons    NEL             ....   54
 Basis Dimension        Dim             ....  289
FINAL SINGLE POINT ENERGY      -290.125255223994

VIBRATIONAL FREQUENCIES
-----------------------

   0:         0.00 cm**-1
   1:         0.00 cm**-1
   2:         0.00 cm**-1
   3:         0.00 cm**-1
   4:         0.00 cm**-1
   5:         0.00 cm**-1
   6:        95.47 cm**-1
   7:       146.16 cm**-1
   8:       173.54 cm**-1
   9:       217.17 cm**-1
  10:       303.01 cm**-1
  11:       372.70 cm**-1
  12:       402.66 cm**-1
  13:       487.61 cm**-1
  14:       596.42 cm**-1
  15:       709.63 cm**-1
  16:       726.16 cm**-1
  17:       826.20 cm**-1
  18:       849.44 cm**-1
  19:       896.29 cm**-1
  20:       915.88 cm**-1
  21:       946.85 cm**-1
  22:       977.78 cm**-1
  23:       998.40 cm**-1
  24:      1022.25 cm**-1
  25:      1056.00 cm**-1
  26:      1089.59 cm**-1
  27:      1124.52 cm**-1
  28:      1195.23 cm**-1
  29:      1204.33 cm**-1
  30:      1257.31 cm**-1
  31:      1292.30 cm**-1
  32:      1325.53 cm**-1
  33:      1351.44 cm**-1
  34:      1373.84 cm**-1
  35:      1398.65 cm**-1
  36:      1414.49 cm**-1
  37:      1465.85 cm**-1
  38:      1467.15 cm**-1
  39:      1470.03 cm**-1
  40:      1472.56 cm**-1
  41:      1489.78 cm**-1
  42:      1645.74 cm**-1
  43:      1656.49 cm**-1
  44:      1707.11 cm**-1
  45:      3051.46 cm**-1
  46:      3055.92 cm**-1
  47:      3077.71 cm**-1
  48:      3103.41 cm**-1
  49:      3104.26 cm**-1
  50:      3110.99 cm**-1
  51:      3133.60 cm**-1
  52:      3157.63 cm**-1
  53:      3208.75 cm**-1
  54:      3417.44 cm**-1
  55:      3514.95 cm**-1
  56:      3517.23 cm**-1

IR SPECTRUM
-----------

 Mode    freq (cm**-1)   T**2         TX         TY         TZ
-------------------------------------------------------------------
   6:        95.47    7.253081  ( -1.234853   1.952847   1.383694)
   7:       146.16    4.042434  ( -1.891197   0.648119   0.213893)
   8:       173.54    2.492528  (  1.131028   0.128537  -1.093975)
   9:       217.17    0.131829  ( -0.251746   0.040043   0.258553)
  10:       303.01    4.769938  ( -1.033800  -1.866956  -0.464404)
  11:       372.70    3.797740  (  1.502944   0.982485   0.757379)
  12:       402.66   11.714990  (  0.823484  -1.341755   3.039170)
  13:       487.61    1.605635  ( -1.112274   0.606952  -0.009529)
  14:       596.42    0.293987  (  0.435940   0.242477   0.212479)
  15:       709.63   15.284728  ( -1.089080   1.644847   3.375368)
  16:       726.16    0.216726  (  0.100144   0.414670   0.186403)
  17:       826.20   36.285061  ( -1.736505   2.482320  -5.206505)
  18:       849.44    2.438833  (  0.659998  -1.415106  -0.026676)
  19:       896.29    4.863404  (  0.327448   0.361193  -2.150749)
  20:       915.88    9.426568  ( -0.688032  -1.763382   2.417367)
  21:       946.85    0.599807  ( -0.035163  -0.498617   0.591567)
  22:       977.78   27.241773  (  2.148817  -0.392187   4.740311)
  23:       998.40    5.692341  ( -1.246395  -1.083383   1.721953)
  24:      1022.25    9.536356  (  1.711209  -2.460673   0.743779)
  25:      1056.00    4.324094  ( -1.891916   0.588188   0.631492)
  26:      1089.59    7.343256  (  2.590239  -0.742545   0.287307)
  27:      1124.52    9.745684  ( -2.816184  -1.264709   0.464008)
  28:      1195.23    3.515764  ( -1.278528  -0.008086   1.371519)
  29:      1204.33    1.823739  (  0.379212   1.166309  -0.565385)
  30:      1257.31    2.565782  (  0.781535   0.140346   1.391146)
  31:      1292.30    2.360109  (  0.321861  -1.005485  -1.116026)
  32:      1325.53    7.121364  (  1.851100   1.018832  -1.629961)
  33:      1351.44   15.463950  (  0.180775  -1.996129  -3.383303)
  34:      1373.84    2.633856  (  0.835482   1.207500   0.691208)
  35:      1398.65   38.224582  (  1.096901  -1.154001  -5.974083)
  36:      1414.49   28.152255  ( -2.763320   0.175044   4.526111)
  37:      1465.85   26.236119  ( -3.233924   2.236936  -3.282373)
  38:      1467.15   48.795704  (  3.224194  -0.217320   6.192984)
  39:      1470.03   60.641603  ( -1.803972   0.211442  -7.572488)
  40:      1472.56   51.123132  (  3.361666  -4.441456   4.482834)
  41:      1489.78   25.735810  ( -1.200703  -4.752495   1.306870)
  42:      1645.74   34.728145  (  1.912218   5.371822   1.488318)
  43:      1656.49   41.908796  ( -5.002369   2.186987   3.478820)
  44:      1707.11   53.406512  ( -1.626256   2.398515   6.708869)
  45:      3051.46    0.398002  ( -0.059326   0.611633   0.142784)
  46:      3055.92    8.428720  (  1.232257  -2.070003  -1.620294)
  47:      3077.71   11.447062  (  1.668428   1.757854  -2.360796)
  48:      3103.41    7.124653  ( -1.427351   0.778329   2.116962)
  49:      3104.26    3.355946  (  0.275952  -0.668538  -1.683108)
  50:      3110.99    1.290148  ( -0.638566   0.723038  -0.599664)
  51:      3133.60    1.755356  ( -0.154699   1.202653  -0.533901)
  52:      3157.63    5.266464  ( -1.762423  -1.412488   0.406456)
  53:      3208.75    0.368364  ( -0.536652   0.029927   0.281910)
  54:      3417.44   33.556669  (  1.525299  -1.342618   5.424713)
  55:      3514.95   68.804151  ( -5.341787   4.521854   4.452224)
  56:      3517.23   79.540229  (  5.982529   6.445888   1.483275)

--------------------------
THERMOCHEMISTRY AT 298.15K
--------------------------

Temperature         ... 298.15 K
Pressure            ... 1.00 atm
Total Mass          ... 98.17 AMU

Throughout the following assumptions are being made:
  (1) The electronic state is orbitally nondegenerate
  (2) There are no thermally accessible electronically excited states
  (3) Hindered rotations indicated by low frequency modes) are not
      treated as such but are treated as vibrations and this may
      case some error
  (4) All equations used are the standard statistical mechanics
      equations for an ideal gas
  (5) All vibrations are strinctly harmonic

------------
INNER ENERGY
------------

The inner energy is: U= E(el) + E(ZPE) + E(vib) + E(rot) + E(trans)
    E(el)   - is the total energy from the electronic structure calculation
              = E(kin-el) + E(nuc-el) + E(el-el) + E(nuc-nuc)
    E(ZPE)  - the the zero temperature vibrational energy from the frequency calculation
    E(vib)  - the the finite temperature correction to E(ZPE) due to population
              of excietd vibrational states
    E(rot)  - is the rotational thermal energy
    E(trans)- is the translational thermal energy

Summary of contributions to the inner energy U:
Electronic energy                ...   -290.12525522 Eh
Zero point energy                ...      0.17672862 Eh     110.90 kcal/mol
Thermal vibrational correction   ...      0.00480980 Eh       3.02 kcal/mol
Thermal rotational correction    ...      0.00141627 Eh       0.89 kcal/mol
Thermal translational correction ...      0.00141627 Eh       0.89 kcal/mol
-----------------------------------------------------------------------
Total thermal energy                   -289.94088425 Eh

Summary of corrections to the electronic energy:
(perhaps to be used in another calculation)
Total thermal correction                  0.00764235 Eh       4.80 kcal/mol
Non-thermal (ZPE) correction              0.17672862 Eh     110.90 kcal/mol
-----------------------------------------------------------------------
Total correction                          0.18437097 Eh     115.69 kcal/mol

--------
ENTHALPY
--------

The enthalpy is H = U + kB*T
                kB is Boltzmann's constant
Total free energy                 ...   -289.94088425 Eh
Thermal Enthalpy correction       ...      0.00094421 Eh       0.59 kcal/mol
-----------------------------------------------------------------------
Total Enthalpy                    ...   -289.93994004 Eh

-------
ENTROPY
-------

The entropy contributions are T*S = T*(S(el)+S(vib)+S(rot)+S(trans)
     S(el)   - electronic entropy
     S(vib)  - vibrational entropy
     S(rot)  - rotational entropy
     S(trans)- translational entropy
The entropies will be listed as mutliplied by the temperature to get
units of energy

Electronic entropy                ...      0.00000000 Eh      0.00 kcal/mol
Vibrational entropy               ...      0.00823780 Eh      5.17 kcal/mol
Rotational entropy                ...      0.01201039 Eh      7.54 kcal/mol
Translational entropy             ...      0.01884507 Eh     11.83 kcal/mol
-----------------------------------------------------------------------
Final entropy term                ...      0.03909326 Eh     24.53 kcal/mol

CAUTION: The rotational entropy is not quite correctly treated here
         because it includes a symmetry number that is not yet correctly
         implemented in ORCA!
For a nonlinear molecule the correct rotational entropy is:
    S(rot) = R*(ln(qrot/sn)+1.5)
    R    = 8.31441 J/mol/K = 1.987191683e-3 kcal/mol/K
    qrot = 223920.2735232
    sn is the rotational symmetry number. We have assumed 3 here
       if it is different for your molecule then you should correct
       the printed rotational entropy by manually evaluating the equation
       as given above

For convenience we print out the resulting values for sn=1 - 12:
 sn= 1  qrot/sn=  223920.2735 T*S(rot)=     8.19 kcal/mol T*S(tot)=    25.18 kcal/mol
 sn= 2  qrot/sn=  111960.1368 T*S(rot)=     7.78 kcal/mol T*S(tot)=    24.77 kcal/mol
 sn= 3  qrot/sn=   74640.0912 T*S(rot)=     7.54 kcal/mol T*S(tot)=    24.53 kcal/mol
 sn= 4  qrot/sn=   55980.0684 T*S(rot)=     7.37 kcal/mol T*S(tot)=    24.36 kcal/mol
 sn= 5  qrot/sn=   44784.0547 T*S(rot)=     7.23 kcal/mol T*S(tot)=    24.23 kcal/mol
 sn= 6  qrot/sn=   37320.0456 T*S(rot)=     7.13 kcal/mol T*S(tot)=    24.12 kcal/mol
 sn= 7  qrot/sn=   31988.6105 T*S(rot)=     7.03 kcal/mol T*S(tot)=    24.03 kcal/mol
 sn= 8  qrot/sn=   27990.0342 T*S(rot)=     6.96 kcal/mol T*S(tot)=    23.95 kcal/mol
 sn= 9  qrot/sn=   24880.0304 T*S(rot)=     6.89 kcal/mol T*S(tot)=    23.88 kcal/mol
 sn=10  qrot/sn=   22392.0274 T*S(rot)=     6.82 kcal/mol T*S(tot)=    23.82 kcal/mol
 sn=11  qrot/sn=   20356.3885 T*S(rot)=     6.77 kcal/mol T*S(tot)=    23.76 kcal/mol
 sn=12  qrot/sn=   18660.0228 T*S(rot)=     6.72 kcal/mol T*S(tot)=    23.71 kcal/mol

-------------------
GIBBS FREE ENTHALPY
-------------------

The Gibbs free enthalpy is G = H - T*S

Total enthalpy                    ...   -289.93994004 Eh
Total entropy correction          ...     -0.03909326 Eh    -24.53 kcal/mol
-----------------------------------------------------------------------
Final Gibbs free enthalpy         ...   -289.97903331 Eh

For completeness - the Gibbs free enthalpy minus the electronic energy
G-E(el)                           ...      0.14622192 Eh     91.76 kcal/mol

                             ****ORCA TERMINATED NORMALLY****
TOTAL RUN TIME: 0 days 0 hours 45 minutes 59 seconds 798 msec
