                         Program Version 3.0.3 - RELEASE   -
|  1> ! NORI PBE0 def2-TZVP UseSym TightOPT Freq TightSCF Grid3 FinalGrid5 XYZFile
|  2> % pal
|  3>     nprocs 8
|  4> end
|  5> %method
|  6>     SymThresh 5.0e-2
|  7> end
|  8> % geom
|  9>     MaxIter 10
| 10> end
| 11> % maxcore 2000
| 12> % output
| 13>     printlevel mini
| 14>     print[ P_Basis ] 0
| 15>     print[ P_SCFInfo ] 1
| 16>     print[ P_SCFIterInfo ] 1
| 17>     print[ P_OrbEn ] 0
| 18>     print[ P_Cartesian ] 0
| 19> end
| 20> % elprop
| 21>     Dipole false
| 22> end
| 23> *xyz 1 1
| 24>  C        0.8759770597     0.0863206938     0.0551531909
| 25>  C        2.3533468205     0.0061656663     0.0160403294
| 26>  C        3.1275609500    -1.0897721264    -0.0218237437
| 27>  C        4.5628083211    -0.6716122773     0.0335866543
| 28>  N        5.3263765956    -1.1910814946    -1.1680566454
| 29>  C        4.5142395836     0.8284579750     0.0214949935
| 30>  C        3.2320608011     1.1975707278     0.0389799883
| 31>  H        0.4131544043    -0.8980867616     0.0058722932
| 32>  H        0.5026171825     0.6932299805    -0.7751991161
| 33>  H        0.5466429484     0.5798301586     0.9745792097
| 34>  H        2.7968634579    -2.1201821488    -0.0085011671
| 35>  H        5.0841140198    -1.0615850968     0.9150385654
| 36>  H        4.8786711958    -0.8487625416    -2.0218314500
| 37>  H        5.3250997174    -2.2125916327    -1.1978152422
| 38>  H        6.2984564748    -0.8752477260    -1.1671671305
| 39>  H        5.3875055181     1.4664255120     0.0565433419
| 40>  H        2.8659249495     2.2156610920     0.0800059285
| 41> *
| 42>
| 43>                          ****END OF INPUT****
 Total Charge           Charge          ....    1
 Multiplicity           Mult            ....    1
 Number of Electrons    NEL             ....   52
FINAL SINGLE POINT ENERGY      -288.890204467626

CARTESIAN COORDINATES (ANGSTROEM)
---------------------------------
  C      1.299240    0.000220   -2.265951
  C      0.468954   -0.029444   -1.041026
  C      0.650901   -0.758071    0.071745
  C     -0.492378   -0.512010    1.004638
  N      0.000170   -0.000073    2.343247
  C     -1.320799    0.530425    0.311691
  C     -0.764239    0.773494   -0.876421
  H      2.175086   -0.641296   -2.179956
  H      1.629603    1.020774   -2.480557
  H      0.712567   -0.325708   -3.129991
  H      1.438587   -1.476816    0.256805
  H     -1.066112   -1.420062    1.220756
  H      0.542397    0.854648    2.195016
  H      0.605141   -0.682647    2.803982
  H     -0.772834    0.216283    2.975959
  H     -2.237892    0.943706    0.710197
  H     -1.150746    1.445840   -1.631888

FINAL SINGLE POINT ENERGY      -288.890204888899
                    ***********************HURRAY********************
 Multiplicity           Mult            ....    1
 Number of Electrons    NEL             ....   52
 Basis Dimension        Dim             ....  277
FINAL SINGLE POINT ENERGY      -288.890205007066

VIBRATIONAL FREQUENCIES
-----------------------

   0:         0.00 cm**-1
   1:         0.00 cm**-1
   2:         0.00 cm**-1
   3:         0.00 cm**-1
   4:         0.00 cm**-1
   5:         0.00 cm**-1
   6:       129.64 cm**-1
   7:       171.06 cm**-1
   8:       234.59 cm**-1
   9:       244.14 cm**-1
  10:       305.78 cm**-1
  11:       381.65 cm**-1
  12:       524.50 cm**-1
  13:       595.25 cm**-1
  14:       620.88 cm**-1
  15:       722.21 cm**-1
  16:       751.87 cm**-1
  17:       816.17 cm**-1
  18:       882.40 cm**-1
  19:       915.24 cm**-1
  20:       963.60 cm**-1
  21:       989.68 cm**-1
  22:       996.54 cm**-1
  23:      1020.62 cm**-1
  24:      1054.36 cm**-1
  25:      1068.70 cm**-1
  26:      1105.49 cm**-1
  27:      1118.85 cm**-1
  28:      1225.94 cm**-1
  29:      1272.04 cm**-1
  30:      1316.16 cm**-1
  31:      1364.12 cm**-1
  32:      1385.75 cm**-1
  33:      1415.45 cm**-1
  34:      1464.52 cm**-1
  35:      1471.38 cm**-1
  36:      1493.52 cm**-1
  37:      1627.51 cm**-1
  38:      1645.72 cm**-1
  39:      1656.79 cm**-1
  40:      1704.22 cm**-1
  41:      3053.26 cm**-1
  42:      3079.15 cm**-1
  43:      3112.22 cm**-1
  44:      3161.41 cm**-1
  45:      3226.12 cm**-1
  46:      3231.64 cm**-1
  47:      3246.62 cm**-1
  48:      3415.93 cm**-1
  49:      3502.32 cm**-1
  50:      3507.94 cm**-1

IR SPECTRUM
-----------

 Mode    freq (cm**-1)   T**2         TX         TY         TZ
-------------------------------------------------------------------
   6:       129.64   15.482613  (  2.433024   2.731675  -1.449468)
   7:       171.06    1.772266  ( -0.951231  -0.096507   0.926343)
   8:       234.59    5.947950  (  1.216947  -1.449998   1.537692)
   9:       244.14    3.017344  ( -1.248223   1.078928  -0.543322)
  10:       305.78    3.709055  (  0.632219  -1.516415  -1.004908)
  11:       381.65    6.117560  ( -0.793732   1.563779   1.744175)
  12:       524.50    6.295765  (  0.366816  -0.487449   2.433845)
  13:       595.25   13.814159  ( -2.689238  -2.038891  -1.557267)
  14:       620.88    3.461173  (  1.330028  -0.418842  -1.231571)
  15:       722.21   10.285762  (  1.809983   2.630489   0.300420)
  16:       751.87    7.892812  (  0.720871   2.715237  -0.025452)
  17:       816.17   66.532457  (  3.583682   4.197457   6.005917)
  18:       882.40    7.937089  (  0.016405  -0.206537   2.809655)
  19:       915.24    4.844930  (  1.588779  -0.849605   1.264470)
  20:       963.60    0.605053  ( -0.490221   0.560042   0.226032)
  21:       989.68    1.569115  (  0.397018   0.173666   1.175301)
  22:       996.54   13.573222  (  0.538663  -0.629336  -3.589847)
  23:      1020.62    0.707609  (  0.460389   0.701825   0.055608)
  24:      1054.36   16.752187  (  2.204626   2.829790   1.970812)
  25:      1068.70   12.308135  (  2.042217   2.581615   1.213569)
  26:      1105.49   23.158121  ( -3.717739   2.999333   0.583558)
  27:      1118.85    0.756908  ( -0.589366   0.634252   0.085330)
  28:      1225.94    1.007677  (  0.919411   0.055905  -0.399044)
  29:      1272.04    1.126317  (  0.282613  -0.651333   0.788805)
  30:      1316.16    5.016054  (  1.223278   0.060291  -1.875103)
  31:      1364.12   23.354021  ( -0.500007  -1.987672   4.376434)
  32:      1385.75   20.356563  ( -1.322152  -0.501696   4.284481)
  33:      1415.45   19.553671  ( -2.109158  -0.146083   3.883785)
  34:      1464.52   12.294311  (  1.978701   2.467047   1.514177)
  35:      1471.38   42.343820  ( -2.092925   2.310663  -5.711770)
  36:      1493.52  137.074424  (  3.753483   4.803531   9.995593)
  37:      1627.51   14.542058  ( -0.831106  -1.050444   3.570419)
  38:      1645.72   31.796550  (  4.380243  -3.496200  -0.621775)
  39:      1656.79   39.234258  (  3.312054   4.640283  -2.594673)
  40:      1704.22   21.103542  (  1.537086   0.794325  -4.255580)
  41:      3053.26    0.111339  ( -0.311103  -0.106091   0.057431)
  42:      3079.15    0.168669  (  0.054023   0.332189   0.235374)
  43:      3112.22    0.857625  ( -0.505854  -0.763454  -0.137387)
  44:      3161.41    3.972846  (  1.624419  -0.931920  -0.682373)
  45:      3226.12    1.178756  ( -0.988387   0.321511   0.313812)
  46:      3231.64    1.010564  (  0.550432  -0.803787   0.248021)
  47:      3246.62    1.113717  ( -0.787390   0.561809  -0.422026)
  48:      3415.93   40.919267  ( -1.686061  -1.962277  -5.850293)
  49:      3502.32   87.500061  ( -5.279719  -6.045318   4.804035)
  50:      3507.94   87.292894  (  6.937174  -6.244283   0.421231)

--------------------------
THERMOCHEMISTRY AT 298.15K
--------------------------

Temperature         ... 298.15 K
Pressure            ... 1.00 atm
Total Mass          ... 96.15 AMU

Throughout the following assumptions are being made:
  (1) The electronic state is orbitally nondegenerate
  (2) There are no thermally accessible electronically excited states
  (3) Hindered rotations indicated by low frequency modes) are not
      treated as such but are treated as vibrations and this may
      case some error
  (4) All equations used are the standard statistical mechanics
      equations for an ideal gas
  (5) All vibrations are strinctly harmonic

------------
INNER ENERGY
------------

The inner energy is: U= E(el) + E(ZPE) + E(vib) + E(rot) + E(trans)
    E(el)   - is the total energy from the electronic structure calculation
              = E(kin-el) + E(nuc-el) + E(el-el) + E(nuc-nuc)
    E(ZPE)  - the the zero temperature vibrational energy from the frequency calculation
    E(vib)  - the the finite temperature correction to E(ZPE) due to population
              of excietd vibrational states
    E(rot)  - is the rotational thermal energy
    E(trans)- is the translational thermal energy

Summary of contributions to the inner energy U:
Electronic energy                ...   -288.89020501 Eh
Zero point energy                ...      0.15307686 Eh      96.06 kcal/mol
Thermal vibrational correction   ...      0.00427484 Eh       2.68 kcal/mol
Thermal rotational correction    ...      0.00141627 Eh       0.89 kcal/mol
Thermal translational correction ...      0.00141627 Eh       0.89 kcal/mol
-----------------------------------------------------------------------
Total thermal energy                   -288.73002077 Eh

Summary of corrections to the electronic energy:
(perhaps to be used in another calculation)
Total thermal correction                  0.00710738 Eh       4.46 kcal/mol
Non-thermal (ZPE) correction              0.15307686 Eh      96.06 kcal/mol
-----------------------------------------------------------------------
Total correction                          0.16018424 Eh     100.52 kcal/mol

--------
ENTHALPY
--------

The enthalpy is H = U + kB*T
                kB is Boltzmann's constant
Total free energy                 ...   -288.73002077 Eh
Thermal Enthalpy correction       ...      0.00094421 Eh       0.59 kcal/mol
-----------------------------------------------------------------------
Total Enthalpy                    ...   -288.72907656 Eh

-------
ENTROPY
-------

The entropy contributions are T*S = T*(S(el)+S(vib)+S(rot)+S(trans)
     S(el)   - electronic entropy
     S(vib)  - vibrational entropy
     S(rot)  - rotational entropy
     S(trans)- translational entropy
The entropies will be listed as mutliplied by the temperature to get
units of energy

Electronic entropy                ...      0.00000000 Eh      0.00 kcal/mol
Vibrational entropy               ...      0.00700983 Eh      4.40 kcal/mol
Rotational entropy                ...      0.01192738 Eh      7.48 kcal/mol
Translational entropy             ...      0.01881568 Eh     11.81 kcal/mol
-----------------------------------------------------------------------
Final entropy term                ...      0.03775289 Eh     23.69 kcal/mol

CAUTION: The rotational entropy is not quite correctly treated here
         because it includes a symmetry number that is not yet correctly
         implemented in ORCA!
For a nonlinear molecule the correct rotational entropy is:
    S(rot) = R*(ln(qrot/sn)+1.5)
    R    = 8.31441 J/mol/K = 1.987191683e-3 kcal/mol/K
    qrot = 205073.8956571
    sn is the rotational symmetry number. We have assumed 3 here
       if it is different for your molecule then you should correct
       the printed rotational entropy by manually evaluating the equation
       as given above

For convenience we print out the resulting values for sn=1 - 12:
 sn= 1  qrot/sn=  205073.8957 T*S(rot)=     8.14 kcal/mol T*S(tot)=    24.34 kcal/mol
 sn= 2  qrot/sn=  102536.9478 T*S(rot)=     7.72 kcal/mol T*S(tot)=    23.93 kcal/mol
 sn= 3  qrot/sn=   68357.9652 T*S(rot)=     7.48 kcal/mol T*S(tot)=    23.69 kcal/mol
 sn= 4  qrot/sn=   51268.4739 T*S(rot)=     7.31 kcal/mol T*S(tot)=    23.52 kcal/mol
 sn= 5  qrot/sn=   41014.7791 T*S(rot)=     7.18 kcal/mol T*S(tot)=    23.39 kcal/mol
 sn= 6  qrot/sn=   34178.9826 T*S(rot)=     7.07 kcal/mol T*S(tot)=    23.28 kcal/mol
 sn= 7  qrot/sn=   29296.2708 T*S(rot)=     6.98 kcal/mol T*S(tot)=    23.19 kcal/mol
 sn= 8  qrot/sn=   25634.2370 T*S(rot)=     6.90 kcal/mol T*S(tot)=    23.11 kcal/mol
 sn= 9  qrot/sn=   22785.9884 T*S(rot)=     6.83 kcal/mol T*S(tot)=    23.04 kcal/mol
 sn=10  qrot/sn=   20507.3896 T*S(rot)=     6.77 kcal/mol T*S(tot)=    22.98 kcal/mol
 sn=11  qrot/sn=   18643.0814 T*S(rot)=     6.71 kcal/mol T*S(tot)=    22.92 kcal/mol
 sn=12  qrot/sn=   17089.4913 T*S(rot)=     6.66 kcal/mol T*S(tot)=    22.87 kcal/mol

-------------------
GIBBS FREE ENTHALPY
-------------------

The Gibbs free enthalpy is G = H - T*S

Total enthalpy                    ...   -288.72907656 Eh
Total entropy correction          ...     -0.03775289 Eh    -23.69 kcal/mol
-----------------------------------------------------------------------
Final Gibbs free enthalpy         ...   -288.76682945 Eh

For completeness - the Gibbs free enthalpy minus the electronic energy
G-E(el)                           ...      0.12337556 Eh     77.42 kcal/mol

                             ****ORCA TERMINATED NORMALLY****
TOTAL RUN TIME: 0 days 0 hours 40 minutes 9 seconds 418 msec
