                         Program Version 3.0.3 - RELEASE   -
|  1> ! NORI PBE0 def2-TZVP UseSym TightOPT Freq TightSCF Grid3 FinalGrid5 XYZFile
|  2> % pal
|  3>     nprocs 8
|  4> end
|  5> %method
|  6>     SymThresh 5.0e-2
|  7> end
|  8> % geom
|  9>     MaxIter 10
| 10> end
| 11> % maxcore 2000
| 12> % output
| 13>     printlevel mini
| 14>     print[ P_Basis ] 0
| 15>     print[ P_SCFInfo ] 1
| 16>     print[ P_SCFIterInfo ] 1
| 17>     print[ P_OrbEn ] 0
| 18>     print[ P_Cartesian ] 0
| 19> end
| 20> % elprop
| 21>     Dipole false
| 22> end
| 23> *xyz 1 1
| 24>  C        0.6249005424    -0.1063159045    -0.3602049173
| 25>  C        2.1090836030    -0.0637370659    -0.0986012379
| 26>  C        2.5171789938    -0.0806633724     1.3579940002
| 27>  C        2.0688422517     1.1736662719     2.0776527213
| 28>  N        2.5176833796     1.1468564098     3.5178500469
| 29>  C        3.0115084431    -0.7877581831    -1.0515513358
| 30>  C        2.9859649478     0.7098285016    -1.0446525403
| 31>  H        0.4298686610    -0.1497109280    -1.4326008877
| 32>  H        0.1043590350     0.7789528625     0.0186101892
| 33>  H        0.1665232178    -0.9910673655     0.0920091734
| 34>  H        3.6083068703    -0.1665373818     1.4234284523
| 35>  H        2.0888551273    -0.9643280308     1.8498884494
| 36>  H        0.9840710870     1.2773285946     2.1003358369
| 37>  H        2.4981150812     2.0723134583     1.6329185680
| 38>  H        2.1338831666     0.3318080245     4.0012107678
| 39>  H        2.2223139051     1.9821235052     4.0273764872
| 40>  H        3.5363280887     1.0847982587     3.5808112659
| 41>  H        3.8919701275    -1.2835461056    -0.6601221308
| 42>  H        2.5459880150    -1.3020394843    -1.8829098624
| 43>  H        2.5086701409     1.2186006158    -1.8727917391
| 44>  H        3.8562653153     1.2237873189    -0.6511613071
| 45> *
| 46>
| 47>                          ****END OF INPUT****
 Total Charge           Charge          ....    1
 Multiplicity           Mult            ....    1
 Number of Electrons    NEL             ....   56
FINAL SINGLE POINT ENERGY      -291.304856182021
FINAL SINGLE POINT ENERGY      -291.304857608447
FINAL SINGLE POINT ENERGY      -291.304858611331

CARTESIAN COORDINATES (ANGSTROEM)
---------------------------------
  C      1.524438    0.001852   -1.294816
  C      0.073897    0.121477   -0.901974
  C     -0.182363    0.570433    0.520028
  C      0.293922   -0.458138    1.523076
  N      0.002731    0.002304    2.930639
  C     -0.897009    0.603110   -1.937607
  C     -0.919279   -0.831593   -1.508420
  H      1.612079   -0.259849   -2.350072
  H      2.051575   -0.776592   -0.734100
  H      2.054394    0.947717   -1.147518
  H     -1.256951    0.739572    0.655104
  H      0.324539    1.527746    0.700603
  H      1.370305   -0.622141    1.474311
  H     -0.213708   -1.415040    1.396463
  H      0.467146    0.892545    3.123275
  H      0.318044   -0.673876    3.628901
  H     -1.000129    0.148186    3.064872
  H     -1.715594    1.240643   -1.625626
  H     -0.501830    0.836412   -2.918093
  H     -0.544298   -1.578817   -2.196426
  H     -1.760938   -1.163575   -0.910236

FINAL SINGLE POINT ENERGY      -291.304858847042
                    ***********************HURRAY********************
 Multiplicity           Mult            ....    1
 Number of Electrons    NEL             ....   56
 Basis Dimension        Dim             ....  301
FINAL SINGLE POINT ENERGY      -291.304858966548

VIBRATIONAL FREQUENCIES
-----------------------

   0:         0.00 cm**-1
   1:         0.00 cm**-1
   2:         0.00 cm**-1
   3:         0.00 cm**-1
   4:         0.00 cm**-1
   5:         0.00 cm**-1
   6:        82.06 cm**-1
   7:        88.46 cm**-1
   8:       166.93 cm**-1
   9:       215.01 cm**-1
  10:       227.70 cm**-1
  11:       296.66 cm**-1
  12:       336.93 cm**-1
  13:       354.88 cm**-1
  14:       394.99 cm**-1
  15:       467.43 cm**-1
  16:       736.57 cm**-1
  17:       771.83 cm**-1
  18:       792.01 cm**-1
  19:       887.69 cm**-1
  20:       893.84 cm**-1
  21:       905.46 cm**-1
  22:       945.10 cm**-1
  23:       952.18 cm**-1
  24:       965.87 cm**-1
  25:      1005.60 cm**-1
  26:      1032.17 cm**-1
  27:      1055.93 cm**-1
  28:      1091.79 cm**-1
  29:      1108.03 cm**-1
  30:      1127.03 cm**-1
  31:      1157.56 cm**-1
  32:      1188.38 cm**-1
  33:      1284.61 cm**-1
  34:      1307.91 cm**-1
  35:      1341.89 cm**-1
  36:      1354.27 cm**-1
  37:      1382.26 cm**-1
  38:      1407.58 cm**-1
  39:      1425.08 cm**-1
  40:      1461.76 cm**-1
  41:      1472.88 cm**-1
  42:      1487.91 cm**-1
  43:      1492.16 cm**-1
  44:      1501.68 cm**-1
  45:      1505.63 cm**-1
  46:      1514.92 cm**-1
  47:      1657.56 cm**-1
  48:      1664.19 cm**-1
  49:      3019.80 cm**-1
  50:      3039.90 cm**-1
  51:      3070.27 cm**-1
  52:      3101.37 cm**-1
  53:      3105.75 cm**-1
  54:      3138.11 cm**-1
  55:      3144.87 cm**-1
  56:      3155.36 cm**-1
  57:      3165.97 cm**-1
  58:      3229.76 cm**-1
  59:      3244.71 cm**-1
  60:      3422.12 cm**-1
  61:      3503.26 cm**-1
  62:      3509.51 cm**-1

IR SPECTRUM
-----------

 Mode    freq (cm**-1)   T**2         TX         TY         TZ
-------------------------------------------------------------------
   6:        82.06    2.529516  (  1.461269   0.627611   0.017671)
   7:        88.46    4.575683  (  1.841307   0.994595   0.442779)
   8:       166.93    5.118044  ( -1.224420   1.825084   0.536570)
   9:       215.01    0.073769  ( -0.062124  -0.027115  -0.263010)
  10:       227.70    0.326796  (  0.152116  -0.058180   0.547970)
  11:       296.66   14.323453  (  0.131478   0.857423  -3.683883)
  12:       336.93    0.717196  (  0.126055  -0.278930  -0.789622)
  13:       354.88    0.428520  (  0.604332  -0.244065  -0.061120)
  14:       394.99    0.818222  (  0.504649  -0.284370   0.694755)
  15:       467.43    3.683384  ( -0.007785  -1.202059   1.496121)
  16:       736.57    9.321154  (  1.551724  -0.385145   2.600956)
  17:       771.83    5.908455  (  2.269254   0.856840  -0.157377)
  18:       792.01    0.548028  ( -0.664001  -0.223691  -0.238942)
  19:       887.69   15.015608  (  0.857227   2.796807  -2.541385)
  20:       893.84    4.000728  ( -0.466404   0.233889  -1.930930)
  21:       905.46    5.701193  ( -1.351263   0.361616  -1.935075)
  22:       945.10    9.440630  ( -0.414396  -0.321295  -3.027487)
  23:       952.18    1.403114  ( -0.112117  -1.176261  -0.083392)
  24:       965.87    8.306165  ( -2.036191  -1.189273  -1.657022)
  25:      1005.60    4.852073  ( -1.914537   1.086636   0.076447)
  26:      1032.17   12.008690  (  2.902615   0.655127   1.776041)
  27:      1055.93    2.677796  ( -1.250994  -0.263266  -1.021519)
  28:      1091.79    1.545637  (  0.237912   1.185780  -0.288029)
  29:      1108.03    0.476863  (  0.632313  -0.206475  -0.185501)
  30:      1127.03    9.062523  (  1.710089  -0.535967   2.418855)
  31:      1157.56   12.929451  (  0.397211  -3.050851   1.861178)
  32:      1188.38    0.306272  (  0.075822   0.469025  -0.283793)
  33:      1284.61    1.032167  ( -0.650177   0.094276   0.774951)
  34:      1307.91    1.634587  ( -0.399993   0.111874  -1.209164)
  35:      1341.89    2.811119  (  1.473348   0.800209  -0.005296)
  36:      1354.27    4.757228  ( -1.898987   0.052208   1.071612)
  37:      1382.26    0.875120  ( -0.706210   0.610012   0.065361)
  38:      1407.58   10.340947  (  0.918801  -0.429585  -3.051591)
  39:      1425.08    3.629270  (  1.396811  -0.133149  -1.288588)
  40:      1461.76    8.958679  ( -0.234685   2.983849  -0.015658)
  41:      1472.88    4.565443  (  0.128215   1.670500  -1.326059)
  42:      1487.91    8.263191  (  0.375568  -1.218631   2.576253)
  43:      1492.16    5.439666  ( -0.253276  -1.991006  -1.188028)
  44:      1501.68   16.001940  (  0.830266  -1.526335   3.603179)
  45:      1505.63  144.234450  (  2.220832  -4.188702 -11.034361)
  46:      1514.92    7.589852  (  1.858092  -0.900195  -1.824005)
  47:      1657.56   52.896971  ( -6.527062  -3.195980  -0.283095)
  48:      1664.19   36.473704  ( -2.295857   4.928442  -2.629298)
  49:      3019.80   23.215677  (  0.650343  -3.317906  -3.432817)
  50:      3039.90   24.376125  (  4.540986  -0.267303   1.919406)
  51:      3070.27   11.194475  (  3.177279   1.043480  -0.102591)
  52:      3101.37   11.591683  ( -0.249936  -3.126846   1.323650)
  53:      3105.75   10.494886  (  0.634982  -2.875626   1.349984)
  54:      3138.11    7.904522  ( -0.897227  -0.684319  -2.575114)
  55:      3144.87    8.239503  (  1.372206   2.337812  -0.944027)
  56:      3155.36    3.885849  (  1.400626  -1.315819   0.438994)
  57:      3165.97    1.025994  (  0.941389   0.180491   0.327418)
  58:      3229.76    0.927231  (  0.524148   0.195158  -0.783845)
  59:      3244.71    4.046774  ( -1.453522   0.417408   1.326581)
  60:      3422.12   45.681230  (  0.756964  -1.402359  -6.568228)
  61:      3503.26   87.221206  (  8.159786   4.538427   0.204390)
  62:      3509.51   95.634083  ( -4.191782   7.926649  -3.902728)

--------------------------
THERMOCHEMISTRY AT 298.15K
--------------------------

Temperature         ... 298.15 K
Pressure            ... 1.00 atm
Total Mass          ... 100.18 AMU

Throughout the following assumptions are being made:
  (1) The electronic state is orbitally nondegenerate
  (2) There are no thermally accessible electronically excited states
  (3) Hindered rotations indicated by low frequency modes) are not
      treated as such but are treated as vibrations and this may
      case some error
  (4) All equations used are the standard statistical mechanics
      equations for an ideal gas
  (5) All vibrations are strinctly harmonic

------------
INNER ENERGY
------------

The inner energy is: U= E(el) + E(ZPE) + E(vib) + E(rot) + E(trans)
    E(el)   - is the total energy from the electronic structure calculation
              = E(kin-el) + E(nuc-el) + E(el-el) + E(nuc-nuc)
    E(ZPE)  - the the zero temperature vibrational energy from the frequency calculation
    E(vib)  - the the finite temperature correction to E(ZPE) due to population
              of excietd vibrational states
    E(rot)  - is the rotational thermal energy
    E(trans)- is the translational thermal energy

Summary of contributions to the inner energy U:
Electronic energy                ...   -291.30485897 Eh
Zero point energy                ...      0.19902334 Eh     124.89 kcal/mol
Thermal vibrational correction   ...      0.00579208 Eh       3.63 kcal/mol
Thermal rotational correction    ...      0.00141627 Eh       0.89 kcal/mol
Thermal translational correction ...      0.00141627 Eh       0.89 kcal/mol
-----------------------------------------------------------------------
Total thermal energy                   -291.09721101 Eh

Summary of corrections to the electronic energy:
(perhaps to be used in another calculation)
Total thermal correction                  0.00862462 Eh       5.41 kcal/mol
Non-thermal (ZPE) correction              0.19902334 Eh     124.89 kcal/mol
-----------------------------------------------------------------------
Total correction                          0.20764796 Eh     130.30 kcal/mol

--------
ENTHALPY
--------

The enthalpy is H = U + kB*T
                kB is Boltzmann's constant
Total free energy                 ...   -291.09721101 Eh
Thermal Enthalpy correction       ...      0.00094421 Eh       0.59 kcal/mol
-----------------------------------------------------------------------
Total Enthalpy                    ...   -291.09626680 Eh

-------
ENTROPY
-------

The entropy contributions are T*S = T*(S(el)+S(vib)+S(rot)+S(trans)
     S(el)   - electronic entropy
     S(vib)  - vibrational entropy
     S(rot)  - rotational entropy
     S(trans)- translational entropy
The entropies will be listed as mutliplied by the temperature to get
units of energy

Electronic entropy                ...      0.00000000 Eh      0.00 kcal/mol
Vibrational entropy               ...      0.01030223 Eh      6.46 kcal/mol
Rotational entropy                ...      0.01224658 Eh      7.68 kcal/mol
Translational entropy             ...      0.01887386 Eh     11.84 kcal/mol
-----------------------------------------------------------------------
Final entropy term                ...      0.04142267 Eh     25.99 kcal/mol

CAUTION: The rotational entropy is not quite correctly treated here
         because it includes a symmetry number that is not yet correctly
         implemented in ORCA!
For a nonlinear molecule the correct rotational entropy is:
    S(rot) = R*(ln(qrot/sn)+1.5)
    R    = 8.31441 J/mol/K = 1.987191683e-3 kcal/mol/K
    qrot = 287564.0596025
    sn is the rotational symmetry number. We have assumed 3 here
       if it is different for your molecule then you should correct
       the printed rotational entropy by manually evaluating the equation
       as given above

For convenience we print out the resulting values for sn=1 - 12:
 sn= 1  qrot/sn=  287564.0596 T*S(rot)=     8.34 kcal/mol T*S(tot)=    26.64 kcal/mol
 sn= 2  qrot/sn=  143782.0298 T*S(rot)=     7.93 kcal/mol T*S(tot)=    26.23 kcal/mol
 sn= 3  qrot/sn=   95854.6865 T*S(rot)=     7.68 kcal/mol T*S(tot)=    25.99 kcal/mol
 sn= 4  qrot/sn=   71891.0149 T*S(rot)=     7.51 kcal/mol T*S(tot)=    25.82 kcal/mol
 sn= 5  qrot/sn=   57512.8119 T*S(rot)=     7.38 kcal/mol T*S(tot)=    25.69 kcal/mol
 sn= 6  qrot/sn=   47927.3433 T*S(rot)=     7.27 kcal/mol T*S(tot)=    25.58 kcal/mol
 sn= 7  qrot/sn=   41080.5799 T*S(rot)=     7.18 kcal/mol T*S(tot)=    25.49 kcal/mol
 sn= 8  qrot/sn=   35945.5075 T*S(rot)=     7.10 kcal/mol T*S(tot)=    25.41 kcal/mol
 sn= 9  qrot/sn=   31951.5622 T*S(rot)=     7.03 kcal/mol T*S(tot)=    25.34 kcal/mol
 sn=10  qrot/sn=   28756.4060 T*S(rot)=     6.97 kcal/mol T*S(tot)=    25.28 kcal/mol
 sn=11  qrot/sn=   26142.1872 T*S(rot)=     6.92 kcal/mol T*S(tot)=    25.22 kcal/mol
 sn=12  qrot/sn=   23963.6716 T*S(rot)=     6.86 kcal/mol T*S(tot)=    25.17 kcal/mol

-------------------
GIBBS FREE ENTHALPY
-------------------

The Gibbs free enthalpy is G = H - T*S

Total enthalpy                    ...   -291.09626680 Eh
Total entropy correction          ...     -0.04142267 Eh    -25.99 kcal/mol
-----------------------------------------------------------------------
Final Gibbs free enthalpy         ...   -291.13768947 Eh

For completeness - the Gibbs free enthalpy minus the electronic energy
G-E(el)                           ...      0.16716949 Eh    104.90 kcal/mol

                             ****ORCA TERMINATED NORMALLY****
TOTAL RUN TIME: 0 days 0 hours 50 minutes 28 seconds 757 msec
