                         Program Version 3.0.3 - RELEASE   -
|  1> ! NORI PBE0 def2-TZVP UseSym TightOPT Freq TightSCF Grid3 FinalGrid5 XYZFile
|  2> % pal
|  3>     nprocs 8
|  4> end
|  5> %method
|  6>     SymThresh 5.0e-2
|  7> end
|  8> % geom
|  9>     MaxIter 10
| 10> end
| 11> % maxcore 2000
| 12> % output
| 13>     printlevel mini
| 14>     print[ P_Basis ] 0
| 15>     print[ P_SCFInfo ] 1
| 16>     print[ P_SCFIterInfo ] 1
| 17>     print[ P_OrbEn ] 0
| 18>     print[ P_Cartesian ] 0
| 19> end
| 20> % elprop
| 21>     Dipole false
| 22> end
| 23> *xyz 1 1
| 24>  C        1.1237126774     0.0233741896    -0.5349273772
| 25>  C        2.4694726078    -0.1558683948     0.1540303219
| 26>  C        2.5578700609    -1.4406211485     1.0019917798
| 27>  C        3.2973906246    -1.0568657063     2.2814599033
| 28>  N        4.7764625218    -1.4662673037     2.1950336015
| 29>  C        3.2141755083     0.4348807561     2.3239084098
| 30>  C        2.7872673145     0.9122039004     1.1572050577
| 31>  H        0.9264140087    -0.8042942969    -1.2191386899
| 32>  H        1.1012569728     0.9469512160    -1.1158795400
| 33>  H        0.3131922981     0.0625484415     0.1970746662
| 34>  H        3.2455660712    -0.1461898895    -0.6245798387
| 35>  H        3.0074897125    -2.2868796245     0.4747663750
| 36>  H        1.5507162756    -1.7540683189     1.2848441326
| 37>  H        2.9357854043    -1.5678149182     3.1758626834
| 38>  H        5.2059044132    -1.0392320257     1.3717784950
| 39>  H        4.8869495217    -2.4801981837     2.1302653956
| 40>  H        5.2937162683    -1.1411738750     3.0140764405
| 41>  H        3.4785691256     1.0191357640     3.1974310629
| 42>  H        2.6648486126     1.9670894180     0.9366471207
| 43> *
| 44>
| 45>                          ****END OF INPUT****
 Total Charge           Charge          ....    1
 Multiplicity           Mult            ....    1
 Number of Electrons    NEL             ....   54
FINAL SINGLE POINT ENERGY      -290.116022136757

CARTESIAN COORDINATES (ANGSTROEM)
---------------------------------
  C      0.970624   -0.000463   -2.372067
  C      0.644151    0.386482   -0.936076
  C      0.747364   -0.790702    0.054463
  C     -0.439097   -0.652890    1.005866
  N     -0.000354   -0.000526    2.326953
  C     -1.374183    0.274869    0.299394
  C     -0.767878    0.849695   -0.736460
  H      1.994606   -0.370863   -2.448985
  H      0.877008    0.857728   -3.039603
  H      0.296348   -0.783224   -2.727952
  H      1.323270    1.201522   -0.648626
  H      1.712281   -0.853870    0.565544
  H      0.625345   -1.729447   -0.490155
  H     -0.874986   -1.604571    1.315882
  H      0.435100    0.904483    2.137725
  H      0.668338   -0.583180    2.834531
  H     -0.803461    0.167006    2.935838
  H     -2.397378    0.439956    0.615526
  H     -1.235184    1.577254   -1.390791

FINAL SINGLE POINT ENERGY      -290.116022844994
                    ***********************HURRAY********************
 Multiplicity           Mult            ....    1
 Number of Electrons    NEL             ....   54
 Basis Dimension        Dim             ....  289
FINAL SINGLE POINT ENERGY      -290.116023093973

VIBRATIONAL FREQUENCIES
-----------------------

   0:         0.00 cm**-1
   1:         0.00 cm**-1
   2:         0.00 cm**-1
   3:         0.00 cm**-1
   4:         0.00 cm**-1
   5:         0.00 cm**-1
   6:        78.18 cm**-1
   7:       192.98 cm**-1
   8:       218.10 cm**-1
   9:       246.66 cm**-1
  10:       290.46 cm**-1
  11:       367.94 cm**-1
  12:       411.94 cm**-1
  13:       527.01 cm**-1
  14:       661.88 cm**-1
  15:       737.03 cm**-1
  16:       788.65 cm**-1
  17:       792.46 cm**-1
  18:       861.48 cm**-1
  19:       892.74 cm**-1
  20:       924.27 cm**-1
  21:       952.98 cm**-1
  22:       961.93 cm**-1
  23:      1001.43 cm**-1
  24:      1045.00 cm**-1
  25:      1074.33 cm**-1
  26:      1104.03 cm**-1
  27:      1115.44 cm**-1
  28:      1156.75 cm**-1
  29:      1163.92 cm**-1
  30:      1235.02 cm**-1
  31:      1303.80 cm**-1
  32:      1307.11 cm**-1
  33:      1337.82 cm**-1
  34:      1345.18 cm**-1
  35:      1386.51 cm**-1
  36:      1401.10 cm**-1
  37:      1415.85 cm**-1
  38:      1469.46 cm**-1
  39:      1480.71 cm**-1
  40:      1489.20 cm**-1
  41:      1492.71 cm**-1
  42:      1647.56 cm**-1
  43:      1656.76 cm**-1
  44:      1683.05 cm**-1
  45:      3015.40 cm**-1
  46:      3057.47 cm**-1
  47:      3073.82 cm**-1
  48:      3109.09 cm**-1
  49:      3122.66 cm**-1
  50:      3136.34 cm**-1
  51:      3143.97 cm**-1
  52:      3206.79 cm**-1
  53:      3227.12 cm**-1
  54:      3417.56 cm**-1
  55:      3512.40 cm**-1
  56:      3515.00 cm**-1

IR SPECTRUM
-----------

 Mode    freq (cm**-1)   T**2         TX         TY         TZ
-------------------------------------------------------------------
   6:        78.18    5.885299  (  1.373952   1.626776  -1.162392)
   7:       192.98    5.302963  ( -0.986545   1.488669  -1.453807)
   8:       218.10    0.120100  (  0.004244  -0.186180   0.292265)
   9:       246.66    0.359387  ( -0.303085   0.473560  -0.208009)
  10:       290.46    5.904595  ( -1.436631   0.475033   1.901323)
  11:       367.94    3.534038  ( -1.412435   1.147908   0.470502)
  12:       411.94    3.736333  (  0.671441   1.114450  -1.429511)
  13:       527.01    2.191638  (  1.392767   0.434830   0.250521)
  14:       661.88    3.958907  ( -0.356540  -0.639229  -1.850182)
  15:       737.03    9.950833  ( -0.808754  -2.585493   1.616161)
  16:       788.65   11.748554  (  1.146473   1.039961   3.058208)
  17:       792.46   37.627178  (  2.337939   3.903295   4.114062)
  18:       861.48    6.138168  (  0.594774  -0.384887  -2.374084)
  19:       892.74    9.396260  (  1.285920   0.426257  -2.749723)
  20:       924.27    6.467014  ( -1.944985   0.186131  -1.627698)
  21:       952.98   13.888369  ( -0.587037  -1.517901  -3.352571)
  22:       961.93    4.452893  ( -0.890583   0.288084  -1.891233)
  23:      1001.43    3.983115  (  0.685232   0.126581   1.870174)
  24:      1045.00    8.274778  (  1.279397  -0.595048  -2.506759)
  25:      1074.33   10.833941  ( -0.207197   2.847513   1.637888)
  26:      1104.03   16.834774  (  2.182408  -3.452028   0.394171)
  27:      1115.44    7.538036  ( -1.910459  -1.165348  -1.590643)
  28:      1156.75    3.100821  ( -1.411076   0.399227   0.974834)
  29:      1163.92    3.084339  ( -1.432632  -0.930327   0.407915)
  30:      1235.02    1.709428  (  0.316040   0.488999   1.170652)
  31:      1303.80    1.342822  (  0.705631   0.408273   0.823541)
  32:      1307.11    1.334813  ( -0.736441  -0.500012   0.736516)
  33:      1337.82    0.361447  ( -0.318127   0.454645  -0.231388)
  34:      1345.18    4.667163  (  0.010222   1.462334  -1.590169)
  35:      1386.51    0.100418  (  0.244992  -0.050883   0.194443)
  36:      1401.10   53.790533  (  0.479564   2.080797  -7.016469)
  37:      1415.85    5.991136  (  0.449114   1.790282  -1.607582)
  38:      1469.46   54.914876  ( -0.588892   4.323769   5.989416)
  39:      1480.71  115.261124  ( -4.567968  -4.022826  -8.843736)
  40:      1489.20    8.156979  ( -0.747001   2.608139  -0.892513)
  41:      1492.71    6.193349  (  2.244963   0.969067  -0.463034)
  42:      1647.56   34.655680  ( -5.220047  -1.285531   2.398792)
  43:      1656.76   41.887323  ( -0.986446   5.825237  -2.642132)
  44:      1683.05   14.187606  ( -1.657033  -0.625612   3.324223)
  45:      3015.40    7.219391  (  1.198139   2.217445   0.931017)
  46:      3057.47    8.689680  ( -0.534350   1.043693   2.704599)
  47:      3073.82    8.402909  (  2.043946  -1.097517   1.738001)
  48:      3109.09    7.403576  (  0.270221  -1.523418   2.238248)
  49:      3122.66    2.325418  ( -1.350562  -0.315598  -0.633875)
  50:      3136.34    9.869221  ( -2.625582  -1.720695   0.121450)
  51:      3143.97    6.510414  ( -1.110270   2.104059  -0.922307)
  52:      3206.79    0.086028  ( -0.214891  -0.143176   0.139106)
  53:      3227.12    0.128625  ( -0.150473  -0.070508  -0.317823)
  54:      3417.56   37.140410  ( -1.122946  -1.617372  -5.767453)
  55:      3512.40   76.561868  ( -3.424309  -6.419492   4.860668)
  56:      3515.00   80.635311  ( -7.773514   4.336497   1.184306)

--------------------------
THERMOCHEMISTRY AT 298.15K
--------------------------

Temperature         ... 298.15 K
Pressure            ... 1.00 atm
Total Mass          ... 98.17 AMU

Throughout the following assumptions are being made:
  (1) The electronic state is orbitally nondegenerate
  (2) There are no thermally accessible electronically excited states
  (3) Hindered rotations indicated by low frequency modes) are not
      treated as such but are treated as vibrations and this may
      case some error
  (4) All equations used are the standard statistical mechanics
      equations for an ideal gas
  (5) All vibrations are strinctly harmonic

------------
INNER ENERGY
------------

The inner energy is: U= E(el) + E(ZPE) + E(vib) + E(rot) + E(trans)
    E(el)   - is the total energy from the electronic structure calculation
              = E(kin-el) + E(nuc-el) + E(el-el) + E(nuc-nuc)
    E(ZPE)  - the the zero temperature vibrational energy from the frequency calculation
    E(vib)  - the the finite temperature correction to E(ZPE) due to population
              of excietd vibrational states
    E(rot)  - is the rotational thermal energy
    E(trans)- is the translational thermal energy

Summary of contributions to the inner energy U:
Electronic energy                ...   -290.11602309 Eh
Zero point energy                ...      0.17714357 Eh     111.16 kcal/mol
Thermal vibrational correction   ...      0.00458283 Eh       2.88 kcal/mol
Thermal rotational correction    ...      0.00141627 Eh       0.89 kcal/mol
Thermal translational correction ...      0.00141627 Eh       0.89 kcal/mol
-----------------------------------------------------------------------
Total thermal energy                   -289.93146415 Eh

Summary of corrections to the electronic energy:
(perhaps to be used in another calculation)
Total thermal correction                  0.00741538 Eh       4.65 kcal/mol
Non-thermal (ZPE) correction              0.17714357 Eh     111.16 kcal/mol
-----------------------------------------------------------------------
Total correction                          0.18455895 Eh     115.81 kcal/mol

--------
ENTHALPY
--------

The enthalpy is H = U + kB*T
                kB is Boltzmann's constant
Total free energy                 ...   -289.93146415 Eh
Thermal Enthalpy correction       ...      0.00094421 Eh       0.59 kcal/mol
-----------------------------------------------------------------------
Total Enthalpy                    ...   -289.93051994 Eh

-------
ENTROPY
-------

The entropy contributions are T*S = T*(S(el)+S(vib)+S(rot)+S(trans)
     S(el)   - electronic entropy
     S(vib)  - vibrational entropy
     S(rot)  - rotational entropy
     S(trans)- translational entropy
The entropies will be listed as mutliplied by the temperature to get
units of energy

Electronic entropy                ...      0.00000000 Eh      0.00 kcal/mol
Vibrational entropy               ...      0.00777210 Eh      4.88 kcal/mol
Rotational entropy                ...      0.01196872 Eh      7.51 kcal/mol
Translational entropy             ...      0.01884507 Eh     11.83 kcal/mol
-----------------------------------------------------------------------
Final entropy term                ...      0.03858589 Eh     24.21 kcal/mol

CAUTION: The rotational entropy is not quite correctly treated here
         because it includes a symmetry number that is not yet correctly
         implemented in ORCA!
For a nonlinear molecule the correct rotational entropy is:
    S(rot) = R*(ln(qrot/sn)+1.5)
    R    = 8.31441 J/mol/K = 1.987191683e-3 kcal/mol/K
    qrot = 214252.4701207
    sn is the rotational symmetry number. We have assumed 3 here
       if it is different for your molecule then you should correct
       the printed rotational entropy by manually evaluating the equation
       as given above

For convenience we print out the resulting values for sn=1 - 12:
 sn= 1  qrot/sn=  214252.4701 T*S(rot)=     8.16 kcal/mol T*S(tot)=    24.86 kcal/mol
 sn= 2  qrot/sn=  107126.2351 T*S(rot)=     7.75 kcal/mol T*S(tot)=    24.45 kcal/mol
 sn= 3  qrot/sn=   71417.4900 T*S(rot)=     7.51 kcal/mol T*S(tot)=    24.21 kcal/mol
 sn= 4  qrot/sn=   53563.1175 T*S(rot)=     7.34 kcal/mol T*S(tot)=    24.04 kcal/mol
 sn= 5  qrot/sn=   42850.4940 T*S(rot)=     7.21 kcal/mol T*S(tot)=    23.91 kcal/mol
 sn= 6  qrot/sn=   35708.7450 T*S(rot)=     7.10 kcal/mol T*S(tot)=    23.80 kcal/mol
 sn= 7  qrot/sn=   30607.4957 T*S(rot)=     7.01 kcal/mol T*S(tot)=    23.71 kcal/mol
 sn= 8  qrot/sn=   26781.5588 T*S(rot)=     6.93 kcal/mol T*S(tot)=    23.63 kcal/mol
 sn= 9  qrot/sn=   23805.8300 T*S(rot)=     6.86 kcal/mol T*S(tot)=    23.56 kcal/mol
 sn=10  qrot/sn=   21425.2470 T*S(rot)=     6.80 kcal/mol T*S(tot)=    23.50 kcal/mol
 sn=11  qrot/sn=   19477.4973 T*S(rot)=     6.74 kcal/mol T*S(tot)=    23.44 kcal/mol
 sn=12  qrot/sn=   17854.3725 T*S(rot)=     6.69 kcal/mol T*S(tot)=    23.39 kcal/mol

-------------------
GIBBS FREE ENTHALPY
-------------------

The Gibbs free enthalpy is G = H - T*S

Total enthalpy                    ...   -289.93051994 Eh
Total entropy correction          ...     -0.03858589 Eh    -24.21 kcal/mol
-----------------------------------------------------------------------
Final Gibbs free enthalpy         ...   -289.96910583 Eh

For completeness - the Gibbs free enthalpy minus the electronic energy
G-E(el)                           ...      0.14691727 Eh     92.19 kcal/mol

                             ****ORCA TERMINATED NORMALLY****
TOTAL RUN TIME: 0 days 1 hours 4 minutes 36 seconds 993 msec
