                         Program Version 3.0.3 - RELEASE   -
|  1> ! NORI PBE0 def2-TZVP UseSym TightOPT Freq TightSCF Grid3 FinalGrid5 XYZFile
|  2> % pal
|  3>     nprocs 8
|  4> end
|  5> %method
|  6>     SymThresh 5.0e-2
|  7> end
|  8> % geom
|  9>     MaxIter 10
| 10> end
| 11> % maxcore 2000
| 12> % output
| 13>     printlevel mini
| 14>     print[ P_Basis ] 0
| 15>     print[ P_SCFInfo ] 1
| 16>     print[ P_SCFIterInfo ] 1
| 17>     print[ P_OrbEn ] 0
| 18>     print[ P_Cartesian ] 0
| 19> end
| 20> % elprop
| 21>     Dipole false
| 22> end
| 23> *xyz 1 1
| 24>  C        0.9751660441     0.1054003848     0.0434991107
| 25>  C        2.4617000392    -0.0097042556     0.0526169735
| 26>  C        3.2221740130    -0.7701551595    -0.9772445099
| 27>  C        2.5457652021    -1.3987563858    -2.0754580861
| 28>  N        1.9866554240    -1.8832962636    -2.9541498044
| 29>  N        3.2366228668     0.7196264909    -0.9890733856
| 30>  C        4.4638361627     1.4747915509    -0.6965531548
| 31>  H        0.5599462291    -0.7121340861     0.6364948668
| 32>  H        0.5594409330     0.0305492633    -0.9633701777
| 33>  H        0.6594314663     1.0447218763     0.5001838024
| 34>  H        2.9556640917     0.0567683933     1.0167992533
| 35>  H        4.1774304821    -1.2042250629    -0.7004573500
| 36>  H        2.6590803060     1.1229382354    -1.7243975068
| 37>  H        5.0160946432     0.9630505481     0.0897631125
| 38>  H        4.1845774313     2.4731653994    -0.3622944388
| 39>  H        5.0686046653     1.5319890711    -1.6009687052
| 40> *
| 41>
| 42>                          ****END OF INPUT****
 Total Charge           Charge          ....    1
 Multiplicity           Mult            ....    1
 Number of Electrons    NEL             ....   52
FINAL SINGLE POINT ENERGY      -304.886970477968

CARTESIAN COORDINATES (ANGSTROEM)
---------------------------------
  C     -1.348096   -1.495506   -0.498655
  C     -0.764456   -0.166041   -0.838246
  C     -0.163877    0.739449    0.179750
  C     -0.074492    0.342476    1.555567
  N     -0.000249    0.000352    2.649550
  N      0.714051   -0.000598   -0.769614
  C      1.492219    0.704919   -1.798829
  H     -2.411387   -1.364189   -0.287792
  H     -0.885763   -1.937577    0.386169
  H     -1.255794   -2.182363   -1.341359
  H     -1.168268    0.342230   -1.708025
  H     -0.183404    1.809129   -0.002326
  H      1.197038   -0.788547   -0.342383
  H      0.899389    1.531883   -2.186198
  H      1.719254    0.004908   -2.602019
  H      2.411238    1.081919   -1.351775

FINAL SINGLE POINT ENERGY      -304.886971414373
                    ***********************HURRAY********************
 Multiplicity           Mult            ....    1
 Number of Electrons    NEL             ....   52
 Basis Dimension        Dim             ....  271
FINAL SINGLE POINT ENERGY      -304.886972116080

VIBRATIONAL FREQUENCIES
-----------------------

   0:         0.00 cm**-1
   1:         0.00 cm**-1
   2:         0.00 cm**-1
   3:         0.00 cm**-1
   4:         0.00 cm**-1
   5:         0.00 cm**-1
   6:       130.30 cm**-1
   7:       158.15 cm**-1
   8:       189.56 cm**-1
   9:       206.38 cm**-1
  10:       233.98 cm**-1
  11:       298.26 cm**-1
  12:       373.77 cm**-1
  13:       418.59 cm**-1
  14:       529.85 cm**-1
  15:       603.63 cm**-1
  16:       791.83 cm**-1
  17:       802.38 cm**-1
  18:       866.21 cm**-1
  19:       990.99 cm**-1
  20:      1002.37 cm**-1
  21:      1044.73 cm**-1
  22:      1085.42 cm**-1
  23:      1114.53 cm**-1
  24:      1156.75 cm**-1
  25:      1162.52 cm**-1
  26:      1199.99 cm**-1
  27:      1226.40 cm**-1
  28:      1278.85 cm**-1
  29:      1379.25 cm**-1
  30:      1387.51 cm**-1
  31:      1427.03 cm**-1
  32:      1453.27 cm**-1
  33:      1471.38 cm**-1
  34:      1475.34 cm**-1
  35:      1479.85 cm**-1
  36:      1490.24 cm**-1
  37:      1507.03 cm**-1
  38:      2399.49 cm**-1
  39:      3066.92 cm**-1
  40:      3084.00 cm**-1
  41:      3148.30 cm**-1
  42:      3155.23 cm**-1
  43:      3184.40 cm**-1
  44:      3186.58 cm**-1
  45:      3189.19 cm**-1
  46:      3195.71 cm**-1
  47:      3509.59 cm**-1

IR SPECTRUM
-----------

 Mode    freq (cm**-1)   T**2         TX         TY         TZ
-------------------------------------------------------------------
   6:       130.30    6.306185  (  2.165651   1.270510  -0.044106)
   7:       158.15    6.341527  (  1.046783  -1.798513  -1.418140)
   8:       189.56    0.482804  ( -0.249845   0.589433   0.270092)
   9:       206.38    1.352663  (  0.811880  -0.417000  -0.720850)
  10:       233.98    0.378011  ( -0.378645   0.472646  -0.106041)
  11:       298.26    0.822936  (  0.281769   0.291262   0.811609)
  12:       373.77    0.378558  ( -0.509565   0.051988  -0.340879)
  13:       418.59    1.149864  ( -0.143575   1.029933  -0.261701)
  14:       529.85    1.293580  (  0.250164  -0.130197  -1.101838)
  15:       603.63    0.098698  (  0.123994   0.067471  -0.280662)
  16:       791.83    3.974461  ( -0.523530  -1.721014  -0.859353)
  17:       802.38   18.972375  (  3.845826  -0.493295  -1.984605)
  18:       866.21    4.369814  ( -0.947498  -1.716324  -0.725460)
  19:       990.99    0.568427  ( -0.156461  -0.417680  -0.607857)
  20:      1002.37   19.321542  ( -2.099997  -2.503746  -2.939866)
  21:      1044.73   27.255773  (  5.014481  -1.159200  -0.875789)
  22:      1085.42   21.248306  (  3.916438   1.837739  -1.591395)
  23:      1114.53   30.269184  (  1.061032  -0.715483  -5.350839)
  24:      1156.75    6.639644  ( -0.505533  -1.331702  -2.147242)
  25:      1162.52    4.986873  ( -1.740667  -1.240983   0.645689)
  26:      1199.99    1.367094  (  0.522956   0.097380  -1.041215)
  27:      1226.40    4.269243  (  0.665978   1.930348  -0.315397)
  28:      1278.85    8.304806  ( -2.301479   0.817132  -1.529803)
  29:      1379.25    1.108905  ( -0.703767   0.780370  -0.068114)
  30:      1387.51    8.062802  ( -0.382982   0.272280  -2.800355)
  31:      1427.03   10.986075  ( -1.754678  -2.810331   0.096019)
  32:      1453.27    4.084718  (  1.749695   0.112662  -1.005283)
  33:      1471.38   11.794244  ( -2.117710   1.241364   2.401784)
  34:      1475.34   10.205665  (  1.683905   2.708882  -0.179133)
  35:      1479.85   14.980238  ( -1.849588  -1.855912  -2.848658)
  36:      1490.24   31.353683  (  3.080364  -3.684051   2.879724)
  37:      1507.03   36.716060  ( -5.383105   0.185333   2.775589)
  38:      2399.49    5.360446  (  0.083489  -0.876434   2.141340)
  39:      3066.92    2.350588  (  1.406004   0.610617   0.029800)
  40:      3084.00    0.149257  ( -0.327364   0.180493   0.097533)
  41:      3148.30    0.765903  ( -0.625535  -0.050730   0.609947)
  42:      3155.23    0.790766  ( -0.843199  -0.177022  -0.220101)
  43:      3184.40    1.037604  (  0.330549   0.537611   0.799572)
  44:      3186.58    0.177298  ( -0.050080  -0.100678  -0.405776)
  45:      3189.19    9.587063  ( -0.611225  -2.777876  -1.223468)
  46:      3195.71    6.539443  (  1.049595  -2.193096   0.792543)
  47:      3509.59   81.632076  (  5.793454  -6.656404   1.939138)

--------------------------
THERMOCHEMISTRY AT 298.15K
--------------------------

Temperature         ... 298.15 K
Pressure            ... 1.00 atm
Total Mass          ... 97.14 AMU

Throughout the following assumptions are being made:
  (1) The electronic state is orbitally nondegenerate
  (2) There are no thermally accessible electronically excited states
  (3) Hindered rotations indicated by low frequency modes) are not
      treated as such but are treated as vibrations and this may
      case some error
  (4) All equations used are the standard statistical mechanics
      equations for an ideal gas
  (5) All vibrations are strinctly harmonic

------------
INNER ENERGY
------------

The inner energy is: U= E(el) + E(ZPE) + E(vib) + E(rot) + E(trans)
    E(el)   - is the total energy from the electronic structure calculation
              = E(kin-el) + E(nuc-el) + E(el-el) + E(nuc-nuc)
    E(ZPE)  - the the zero temperature vibrational energy from the frequency calculation
    E(vib)  - the the finite temperature correction to E(ZPE) due to population
              of excietd vibrational states
    E(rot)  - is the rotational thermal energy
    E(trans)- is the translational thermal energy

Summary of contributions to the inner energy U:
Electronic energy                ...   -304.88697212 Eh
Zero point energy                ...      0.13909521 Eh      87.28 kcal/mol
Thermal vibrational correction   ...      0.00486966 Eh       3.06 kcal/mol
Thermal rotational correction    ...      0.00141627 Eh       0.89 kcal/mol
Thermal translational correction ...      0.00141627 Eh       0.89 kcal/mol
-----------------------------------------------------------------------
Total thermal energy                   -304.74017470 Eh

Summary of corrections to the electronic energy:
(perhaps to be used in another calculation)
Total thermal correction                  0.00770221 Eh       4.83 kcal/mol
Non-thermal (ZPE) correction              0.13909521 Eh      87.28 kcal/mol
-----------------------------------------------------------------------
Total correction                          0.14679741 Eh      92.12 kcal/mol

--------
ENTHALPY
--------

The enthalpy is H = U + kB*T
                kB is Boltzmann's constant
Total free energy                 ...   -304.74017470 Eh
Thermal Enthalpy correction       ...      0.00094421 Eh       0.59 kcal/mol
-----------------------------------------------------------------------
Total Enthalpy                    ...   -304.73923049 Eh

-------
ENTROPY
-------

The entropy contributions are T*S = T*(S(el)+S(vib)+S(rot)+S(trans)
     S(el)   - electronic entropy
     S(vib)  - vibrational entropy
     S(rot)  - rotational entropy
     S(trans)- translational entropy
The entropies will be listed as mutliplied by the temperature to get
units of energy

Electronic entropy                ...      0.00000000 Eh      0.00 kcal/mol
Vibrational entropy               ...      0.00826642 Eh      5.19 kcal/mol
Rotational entropy                ...      0.01209654 Eh      7.59 kcal/mol
Translational entropy             ...      0.01883016 Eh     11.82 kcal/mol
-----------------------------------------------------------------------
Final entropy term                ...      0.03919312 Eh     24.59 kcal/mol

CAUTION: The rotational entropy is not quite correctly treated here
         because it includes a symmetry number that is not yet correctly
         implemented in ORCA!
For a nonlinear molecule the correct rotational entropy is:
    S(rot) = R*(ln(qrot/sn)+1.5)
    R    = 8.31441 J/mol/K = 1.987191683e-3 kcal/mol/K
    qrot = 245312.6158874
    sn is the rotational symmetry number. We have assumed 3 here
       if it is different for your molecule then you should correct
       the printed rotational entropy by manually evaluating the equation
       as given above

For convenience we print out the resulting values for sn=1 - 12:
 sn= 1  qrot/sn=  245312.6159 T*S(rot)=     8.24 kcal/mol T*S(tot)=    25.24 kcal/mol
 sn= 2  qrot/sn=  122656.3079 T*S(rot)=     7.83 kcal/mol T*S(tot)=    24.83 kcal/mol
 sn= 3  qrot/sn=   81770.8720 T*S(rot)=     7.59 kcal/mol T*S(tot)=    24.59 kcal/mol
 sn= 4  qrot/sn=   61328.1540 T*S(rot)=     7.42 kcal/mol T*S(tot)=    24.42 kcal/mol
 sn= 5  qrot/sn=   49062.5232 T*S(rot)=     7.29 kcal/mol T*S(tot)=    24.29 kcal/mol
 sn= 6  qrot/sn=   40885.4360 T*S(rot)=     7.18 kcal/mol T*S(tot)=    24.18 kcal/mol
 sn= 7  qrot/sn=   35044.6594 T*S(rot)=     7.09 kcal/mol T*S(tot)=    24.09 kcal/mol
 sn= 8  qrot/sn=   30664.0770 T*S(rot)=     7.01 kcal/mol T*S(tot)=    24.01 kcal/mol
 sn= 9  qrot/sn=   27256.9573 T*S(rot)=     6.94 kcal/mol T*S(tot)=    23.94 kcal/mol
 sn=10  qrot/sn=   24531.2616 T*S(rot)=     6.88 kcal/mol T*S(tot)=    23.88 kcal/mol
 sn=11  qrot/sn=   22301.1469 T*S(rot)=     6.82 kcal/mol T*S(tot)=    23.82 kcal/mol
 sn=12  qrot/sn=   20442.7180 T*S(rot)=     6.77 kcal/mol T*S(tot)=    23.77 kcal/mol

-------------------
GIBBS FREE ENTHALPY
-------------------

The Gibbs free enthalpy is G = H - T*S

Total enthalpy                    ...   -304.73923049 Eh
Total entropy correction          ...     -0.03919312 Eh    -24.59 kcal/mol
-----------------------------------------------------------------------
Final Gibbs free enthalpy         ...   -304.77842362 Eh

For completeness - the Gibbs free enthalpy minus the electronic energy
G-E(el)                           ...      0.10854850 Eh     68.12 kcal/mol

                             ****ORCA TERMINATED NORMALLY****
TOTAL RUN TIME: 0 days 0 hours 34 minutes 25 seconds 106 msec
