                         Program Version 3.0.3 - RELEASE   -
|  1> ! NORI PBE0 def2-TZVP UseSym TightOPT Freq TightSCF Grid3 FinalGrid5 XYZFile
|  2> % pal
|  3>     nprocs 8
|  4> end
|  5> %method
|  6>     SymThresh 5.0e-2
|  7> end
|  8> % geom
|  9>     MaxIter 10
| 10> end
| 11> % maxcore 2000
| 12> % output
| 13>     printlevel mini
| 14>     print[ P_Basis ] 0
| 15>     print[ P_SCFInfo ] 1
| 16>     print[ P_SCFIterInfo ] 1
| 17>     print[ P_OrbEn ] 0
| 18>     print[ P_Cartesian ] 0
| 19> end
| 20> % elprop
| 21>     Dipole false
| 22> end
| 23> *xyz 1 1
| 24>  C        0.8575016721    -0.1396386038     0.1379133064
| 25>  C        2.3266407562    -0.2880810892    -0.0845588284
| 26>  C        2.9062673324    -0.4875594245    -1.4268202367
| 27>  N        3.0447151780     0.8283093381    -0.7649386562
| 28>  C        4.3392027813     1.3175829746    -0.3074897041
| 29>  C        4.9884464287     2.4278526344    -1.0599025864
| 30>  C        4.4122838588     2.6732873767     0.3038926654
| 31>  H        0.4282060100    -1.1256420557     0.3252502376
| 32>  H        0.3533293408     0.2793535945    -0.7362968900
| 33>  H        0.6513548199     0.4869826091     1.0068624148
| 34>  H        2.9100247375    -0.6647035690     0.7491762337
| 35>  H        3.8437876094    -1.0165752054    -1.5383073400
| 36>  H        2.2510315023    -0.4927018845    -2.2894629193
| 37>  H        2.4361073844     1.5546228117    -1.1309561814
| 38>  H        4.9420640376     0.5109640392     0.0910407800
| 39>  H        4.4629242380     2.8480492488    -1.9094707738
| 40>  H        6.0629133858     2.3817565246    -1.1798732991
| 41>  H        3.5021026279     3.2587781519     0.3650427411
| 42>  H        5.0803962987     2.8013225287     1.1452990365
| 43> *
| 44>
| 45>                          ****END OF INPUT****
 Total Charge           Charge          ....    1
 Multiplicity           Mult            ....    1
 Number of Electrons    NEL             ....   54
FINAL SINGLE POINT ENERGY      -290.067846063616
FINAL SINGLE POINT ENERGY      -290.067847067269

CARTESIAN COORDINATES (ANGSTROEM)
---------------------------------
  C      2.484434   -0.000039    0.972099
  C      1.303584   -0.722426    0.412185
  C      0.179253   -1.172788    1.254608
  N     -0.000526    0.000408    0.370764
  C     -0.882051   -0.048256   -0.788489
  C     -2.173227    0.692668   -0.734576
  C     -1.054988    1.185831   -1.604320
  H      3.248892   -0.731076    1.242559
  H      2.228827    0.560070    1.874572
  H      2.916261    0.679938    0.236343
  H      1.462230   -1.274926   -0.507968
  H     -0.408664   -2.031929    0.957970
  H      0.187235   -0.944353    2.313403
  H      0.002905    0.897321    0.847923
  H     -0.834497   -1.015425   -1.273155
  H     -2.401139    1.261574    0.159634
  H     -3.032848    0.222938   -1.194011
  H     -0.536473    2.085089   -1.291552
  H     -1.125764    1.064346   -2.677067

FINAL SINGLE POINT ENERGY      -290.067847397675
                    ***********************HURRAY********************
 Multiplicity           Mult            ....    1
 Number of Electrons    NEL             ....   54
 Basis Dimension        Dim             ....  289
FINAL SINGLE POINT ENERGY      -290.067847449091

VIBRATIONAL FREQUENCIES
-----------------------

   0:         0.00 cm**-1
   1:         0.00 cm**-1
   2:         0.00 cm**-1
   3:         0.00 cm**-1
   4:         0.00 cm**-1
   5:         0.00 cm**-1
   6:        57.23 cm**-1
   7:       151.55 cm**-1
   8:       187.53 cm**-1
   9:       228.78 cm**-1
  10:       352.49 cm**-1
  11:       366.46 cm**-1
  12:       386.65 cm**-1
  13:       473.20 cm**-1
  14:       738.03 cm**-1
  15:       790.41 cm**-1
  16:       809.31 cm**-1
  17:       834.78 cm**-1
  18:       880.15 cm**-1
  19:       905.17 cm**-1
  20:       938.71 cm**-1
  21:       965.96 cm**-1
  22:      1025.38 cm**-1
  23:      1038.96 cm**-1
  24:      1074.81 cm**-1
  25:      1093.83 cm**-1
  26:      1095.65 cm**-1
  27:      1112.94 cm**-1
  28:      1121.71 cm**-1
  29:      1154.60 cm**-1
  30:      1172.46 cm**-1
  31:      1192.73 cm**-1
  32:      1222.80 cm**-1
  33:      1244.44 cm**-1
  34:      1254.68 cm**-1
  35:      1279.87 cm**-1
  36:      1353.92 cm**-1
  37:      1407.97 cm**-1
  38:      1432.45 cm**-1
  39:      1462.21 cm**-1
  40:      1470.54 cm**-1
  41:      1477.02 cm**-1
  42:      1488.72 cm**-1
  43:      1508.28 cm**-1
  44:      1516.88 cm**-1
  45:      3062.90 cm**-1
  46:      3141.76 cm**-1
  47:      3152.25 cm**-1
  48:      3158.05 cm**-1
  49:      3160.93 cm**-1
  50:      3167.03 cm**-1
  51:      3193.05 cm**-1
  52:      3204.80 cm**-1
  53:      3244.43 cm**-1
  54:      3255.95 cm**-1
  55:      3269.14 cm**-1
  56:      3531.83 cm**-1

IR SPECTRUM
-----------

 Mode    freq (cm**-1)   T**2         TX         TY         TZ
-------------------------------------------------------------------
   6:        57.23    0.670356  ( -0.478412  -0.594296   0.297136)
   7:       151.55    0.117493  ( -0.285982  -0.066128   0.177016)
   8:       187.53    1.158098  (  0.189002   0.560842   0.898795)
   9:       228.78    0.697992  ( -0.117325   0.033843  -0.826487)
  10:       352.49    0.629887  (  0.127910  -0.029777   0.782713)
  11:       366.46    1.421248  ( -0.780106   0.707222  -0.559035)
  12:       386.65    2.315425  ( -1.518400  -0.095193  -0.028735)
  13:       473.20    0.957038  (  0.780750   0.436188  -0.396494)
  14:       738.03    0.362544  (  0.267632  -0.059766  -0.536046)
  15:       790.41    3.851600  (  1.257844   1.483957  -0.259424)
  16:       809.31    0.046361  (  0.001953  -0.170723   0.131190)
  17:       834.78   11.615079  ( -2.951871  -0.032294   1.703084)
  18:       880.15   37.981260  (  3.491440  -4.558741   2.238076)
  19:       905.17    0.830839  ( -0.777763   0.469764  -0.072423)
  20:       938.71   12.762710  (  2.713218  -2.320860  -0.121504)
  21:       965.96    4.296875  ( -1.595893  -0.933023   0.937799)
  22:      1025.38   20.769791  (  4.105881   0.416980  -1.933302)
  23:      1038.96    1.098910  ( -0.243513   0.824599  -0.599706)
  24:      1074.81    5.607546  ( -1.217286   2.029489  -0.083282)
  25:      1093.83   46.855694  (  3.905245  -4.402512   3.496090)
  26:      1095.65    3.367534  ( -0.123865  -1.176965   1.402478)
  27:      1112.94    7.094433  (  2.046282   0.989723  -1.388384)
  28:      1121.71    2.349628  (  1.160618   0.583110  -0.813988)
  29:      1154.60    4.092428  (  1.792739   0.050932   0.935907)
  30:      1172.46    4.275053  ( -1.877235   0.392497   0.772650)
  31:      1192.73    0.577703  ( -0.464519  -0.394090   0.454553)
  32:      1222.80    3.357815  ( -0.614012  -1.048978   1.371295)
  33:      1244.44    5.978621  (  1.943263  -1.193355   0.882187)
  34:      1254.68    2.391338  (  0.752329   0.296901   1.318024)
  35:      1279.87    5.023420  (  0.223783  -2.009843  -0.966372)
  36:      1353.92    4.704929  (  0.466133  -1.650740  -1.327670)
  37:      1407.97    1.423243  (  0.611332   0.592881   0.835469)
  38:      1432.45    6.965726  (  2.009609   1.475001   0.866932)
  39:      1462.21   10.781471  ( -2.283750  -1.227923   2.014487)
  40:      1470.54   27.370993  ( -1.736046   2.526678  -4.239461)
  41:      1477.02    3.763815  (  1.524107   0.785251   0.907906)
  42:      1488.72   20.632853  ( -3.387662   1.306356   2.729475)
  43:      1508.28    9.475914  ( -1.316129  -2.712833  -0.619885)
  44:      1516.88   37.499192  ( -5.183228   2.254063  -2.356383)
  45:      3062.90    1.613880  (  0.605214  -0.933534  -0.613279)
  46:      3141.76    1.869258  (  0.473583  -0.429984  -1.208342)
  47:      3152.25    1.022756  (  0.885861   0.033514  -0.486705)
  48:      3158.05    0.109898  (  0.307517   0.105059  -0.065526)
  49:      3160.93    3.378399  (  1.141205  -0.021795   1.440685)
  50:      3167.03    1.695392  ( -0.496858  -0.893951   0.805838)
  51:      3193.05    0.985050  ( -0.968051   0.126719   0.178519)
  52:      3204.80    0.438598  ( -0.258857  -0.194874  -0.577595)
  53:      3244.43    0.059800  ( -0.194454  -0.075072   0.127874)
  54:      3255.95    0.604329  (  0.307999   0.355188   0.619118)
  55:      3269.14    3.565047  (  0.582059   1.264135   1.276016)
  56:      3531.83   55.515818  (  0.862207  -6.880887  -2.725035)

--------------------------
THERMOCHEMISTRY AT 298.15K
--------------------------

Temperature         ... 298.15 K
Pressure            ... 1.00 atm
Total Mass          ... 98.17 AMU

Throughout the following assumptions are being made:
  (1) The electronic state is orbitally nondegenerate
  (2) There are no thermally accessible electronically excited states
  (3) Hindered rotations indicated by low frequency modes) are not
      treated as such but are treated as vibrations and this may
      case some error
  (4) All equations used are the standard statistical mechanics
      equations for an ideal gas
  (5) All vibrations are strinctly harmonic

------------
INNER ENERGY
------------

The inner energy is: U= E(el) + E(ZPE) + E(vib) + E(rot) + E(trans)
    E(el)   - is the total energy from the electronic structure calculation
              = E(kin-el) + E(nuc-el) + E(el-el) + E(nuc-nuc)
    E(ZPE)  - the the zero temperature vibrational energy from the frequency calculation
    E(vib)  - the the finite temperature correction to E(ZPE) due to population
              of excietd vibrational states
    E(rot)  - is the rotational thermal energy
    E(trans)- is the translational thermal energy

Summary of contributions to the inner energy U:
Electronic energy                ...   -290.06784745 Eh
Zero point energy                ...      0.17498920 Eh     109.81 kcal/mol
Thermal vibrational correction   ...      0.00470640 Eh       2.95 kcal/mol
Thermal rotational correction    ...      0.00141627 Eh       0.89 kcal/mol
Thermal translational correction ...      0.00141627 Eh       0.89 kcal/mol
-----------------------------------------------------------------------
Total thermal energy                   -289.88531930 Eh

Summary of corrections to the electronic energy:
(perhaps to be used in another calculation)
Total thermal correction                  0.00753894 Eh       4.73 kcal/mol
Non-thermal (ZPE) correction              0.17498920 Eh     109.81 kcal/mol
-----------------------------------------------------------------------
Total correction                          0.18252815 Eh     114.54 kcal/mol

--------
ENTHALPY
--------

The enthalpy is H = U + kB*T
                kB is Boltzmann's constant
Total free energy                 ...   -289.88531930 Eh
Thermal Enthalpy correction       ...      0.00094421 Eh       0.59 kcal/mol
-----------------------------------------------------------------------
Total Enthalpy                    ...   -289.88437509 Eh

-------
ENTROPY
-------

The entropy contributions are T*S = T*(S(el)+S(vib)+S(rot)+S(trans)
     S(el)   - electronic entropy
     S(vib)  - vibrational entropy
     S(rot)  - rotational entropy
     S(trans)- translational entropy
The entropies will be listed as mutliplied by the temperature to get
units of energy

Electronic entropy                ...      0.00000000 Eh      0.00 kcal/mol
Vibrational entropy               ...      0.00835786 Eh      5.24 kcal/mol
Rotational entropy                ...      0.01206987 Eh      7.57 kcal/mol
Translational entropy             ...      0.01884507 Eh     11.83 kcal/mol
-----------------------------------------------------------------------
Final entropy term                ...      0.03927280 Eh     24.64 kcal/mol

CAUTION: The rotational entropy is not quite correctly treated here
         because it includes a symmetry number that is not yet correctly
         implemented in ORCA!
For a nonlinear molecule the correct rotational entropy is:
    S(rot) = R*(ln(qrot/sn)+1.5)
    R    = 8.31441 J/mol/K = 1.987191683e-3 kcal/mol/K
    qrot = 238479.2111288
    sn is the rotational symmetry number. We have assumed 3 here
       if it is different for your molecule then you should correct
       the printed rotational entropy by manually evaluating the equation
       as given above

For convenience we print out the resulting values for sn=1 - 12:
 sn= 1  qrot/sn=  238479.2111 T*S(rot)=     8.22 kcal/mol T*S(tot)=    25.29 kcal/mol
 sn= 2  qrot/sn=  119239.6056 T*S(rot)=     7.81 kcal/mol T*S(tot)=    24.88 kcal/mol
 sn= 3  qrot/sn=   79493.0704 T*S(rot)=     7.57 kcal/mol T*S(tot)=    24.64 kcal/mol
 sn= 4  qrot/sn=   59619.8028 T*S(rot)=     7.40 kcal/mol T*S(tot)=    24.47 kcal/mol
 sn= 5  qrot/sn=   47695.8422 T*S(rot)=     7.27 kcal/mol T*S(tot)=    24.34 kcal/mol
 sn= 6  qrot/sn=   39746.5352 T*S(rot)=     7.16 kcal/mol T*S(tot)=    24.23 kcal/mol
 sn= 7  qrot/sn=   34068.4587 T*S(rot)=     7.07 kcal/mol T*S(tot)=    24.14 kcal/mol
 sn= 8  qrot/sn=   29809.9014 T*S(rot)=     6.99 kcal/mol T*S(tot)=    24.06 kcal/mol
 sn= 9  qrot/sn=   26497.6901 T*S(rot)=     6.92 kcal/mol T*S(tot)=    23.99 kcal/mol
 sn=10  qrot/sn=   23847.9211 T*S(rot)=     6.86 kcal/mol T*S(tot)=    23.93 kcal/mol
 sn=11  qrot/sn=   21679.9283 T*S(rot)=     6.80 kcal/mol T*S(tot)=    23.87 kcal/mol
 sn=12  qrot/sn=   19873.2676 T*S(rot)=     6.75 kcal/mol T*S(tot)=    23.82 kcal/mol

-------------------
GIBBS FREE ENTHALPY
-------------------

The Gibbs free enthalpy is G = H - T*S

Total enthalpy                    ...   -289.88437509 Eh
Total entropy correction          ...     -0.03927280 Eh    -24.64 kcal/mol
-----------------------------------------------------------------------
Final Gibbs free enthalpy         ...   -289.92364789 Eh

For completeness - the Gibbs free enthalpy minus the electronic energy
G-E(el)                           ...      0.14419956 Eh     90.49 kcal/mol

                             ****ORCA TERMINATED NORMALLY****
TOTAL RUN TIME: 0 days 0 hours 55 minutes 53 seconds 607 msec
