                         Program Version 3.0.3 - RELEASE   -
|  1> ! NORI PBE0 def2-TZVP UseSym TightOPT Freq TightSCF Grid3 FinalGrid5 XYZFile
|  2> % pal
|  3>     nprocs 8
|  4> end
|  5> %method
|  6>     SymThresh 5.0e-2
|  7> end
|  8> % geom
|  9>     MaxIter 10
| 10> end
| 11> % maxcore 2000
| 12> % output
| 13>     printlevel mini
| 14>     print[ P_Basis ] 0
| 15>     print[ P_SCFInfo ] 1
| 16>     print[ P_SCFIterInfo ] 1
| 17>     print[ P_OrbEn ] 0
| 18>     print[ P_Cartesian ] 0
| 19> end
| 20> % elprop
| 21>     Dipole false
| 22> end
| 23> *xyz 1 1
| 24>  C        0.9036461185     0.3208409053    -0.2270420881
| 25>  C        2.3281444479    -0.0645769816     0.0420146500
| 26>  C        3.0577511339    -0.8726147311    -0.9545687164
| 27>  N        3.3302139248     0.5823647768    -0.8783357165
| 28>  C        2.7412236035    -0.1407863329     1.4748101121
| 29>  C        4.1079593360     0.2006457921     1.9858939245
| 30>  C        2.9438128524     1.0863164399     2.3054010152
| 31>  H        0.6787342935     0.3725380838    -1.2946021455
| 32>  H        0.6670172613     1.2770218374     0.2414572963
| 33>  H        0.2514475360    -0.4365271349     0.2117939268
| 34>  H        3.8916421507    -1.4826966596    -0.6307874989
| 35>  H        2.5638242051    -1.1797050900    -1.8677634622
| 36>  H        2.9850719067     1.1763039426    -1.6238684197
| 37>  H        4.2212780432     0.8674650737    -0.4866395821
| 38>  H        2.2535053632    -0.9787468682     1.9635957852
| 39>  H        4.8766398979     0.5927651704     1.3253366828
| 40>  H        4.5139857006    -0.4299111672     2.7657214574
| 41>  H        2.5535491715     1.0894832541     3.3140420901
| 42>  H        2.9012830534     2.0499996893     1.8106206890
| 43> *
| 44>
| 45>                          ****END OF INPUT****
 Total Charge           Charge          ....    1
 Multiplicity           Mult            ....    1
 Number of Electrons    NEL             ....   54
FINAL SINGLE POINT ENERGY      -290.073044775509
FINAL SINGLE POINT ENERGY      -290.073047811915
FINAL SINGLE POINT ENERGY      -290.073050933560
FINAL SINGLE POINT ENERGY      -290.073052760925
FINAL SINGLE POINT ENERGY      -290.073054000034

CARTESIAN COORDINATES (ANGSTROEM)
---------------------------------
  C      2.016306   -0.012098    0.010556
  C      0.562680   -0.341705    0.182011
  C      0.173014   -1.402996    1.130866
  N      0.007061    0.013693    1.536116
  C     -0.331903   -0.037505   -0.973372
  C     -1.769680    0.365012   -0.851827
  C     -0.747555    1.361005   -1.304608
  H      2.604598   -0.246458    0.900595
  H      2.146478    1.040333   -0.245205
  H      2.412761   -0.608442   -0.813345
  H     -0.767465   -1.919152    0.984915
  H      0.932552   -1.934039    1.690630
  H      0.643609    0.392147    2.228326
  H     -0.938872    0.375897    1.588230
  H     -0.092817   -0.681493   -1.814132
  H     -2.230489    0.517683    0.120273
  H     -2.459753   -0.043939   -1.577948
  H     -0.738227    1.664236   -2.342827
  H     -0.480395    2.149828   -0.610268

FINAL SINGLE POINT ENERGY      -290.073054749939
                    ***********************HURRAY********************
 Multiplicity           Mult            ....    1
 Number of Electrons    NEL             ....   54
 Basis Dimension        Dim             ....  289
FINAL SINGLE POINT ENERGY      -290.073055097832

VIBRATIONAL FREQUENCIES
-----------------------

   0:         0.00 cm**-1
   1:         0.00 cm**-1
   2:         0.00 cm**-1
   3:         0.00 cm**-1
   4:         0.00 cm**-1
   5:         0.00 cm**-1
   6:        56.02 cm**-1
   7:       196.24 cm**-1
   8:       222.55 cm**-1
   9:       246.53 cm**-1
  10:       324.73 cm**-1
  11:       357.18 cm**-1
  12:       462.95 cm**-1
  13:       501.40 cm**-1
  14:       637.23 cm**-1
  15:       766.03 cm**-1
  16:       808.79 cm**-1
  17:       836.45 cm**-1
  18:       872.44 cm**-1
  19:       879.99 cm**-1
  20:       905.97 cm**-1
  21:       946.53 cm**-1
  22:       967.56 cm**-1
  23:       982.92 cm**-1
  24:      1012.43 cm**-1
  25:      1041.82 cm**-1
  26:      1067.07 cm**-1
  27:      1082.86 cm**-1
  28:      1095.02 cm**-1
  29:      1131.22 cm**-1
  30:      1138.27 cm**-1
  31:      1179.08 cm**-1
  32:      1189.92 cm**-1
  33:      1238.50 cm**-1
  34:      1245.41 cm**-1
  35:      1308.46 cm**-1
  36:      1353.76 cm**-1
  37:      1421.58 cm**-1
  38:      1440.24 cm**-1
  39:      1470.42 cm**-1
  40:      1471.83 cm**-1
  41:      1484.13 cm**-1
  42:      1496.79 cm**-1
  43:      1523.46 cm**-1
  44:      1612.88 cm**-1
  45:      3063.47 cm**-1
  46:      3132.59 cm**-1
  47:      3143.96 cm**-1
  48:      3154.40 cm**-1
  49:      3156.54 cm**-1
  50:      3168.76 cm**-1
  51:      3172.63 cm**-1
  52:      3231.38 cm**-1
  53:      3250.27 cm**-1
  54:      3271.60 cm**-1
  55:      3508.44 cm**-1
  56:      3617.01 cm**-1

IR SPECTRUM
-----------

 Mode    freq (cm**-1)   T**2         TX         TY         TZ
-------------------------------------------------------------------
   6:        56.02    1.271429  ( -0.322738  -0.967948   0.479944)
   7:       196.24    0.451002  (  0.476622  -0.214408   0.421738)
   8:       222.55    0.548632  ( -0.196099  -0.610142  -0.371355)
   9:       246.53    8.936018  ( -1.194130   0.958823  -2.567242)
  10:       324.73    0.697781  ( -0.466925   0.240980  -0.649377)
  11:       357.18    2.105499  ( -1.319596  -0.574427  -0.184930)
  12:       462.95    0.643732  ( -0.462819  -0.465219   0.461629)
  13:       501.40    2.397944  (  0.847094  -1.280389   0.202436)
  14:       637.23    0.215019  (  0.028519  -0.228032  -0.402749)
  15:       766.03    2.838420  (  1.199901  -0.721436  -0.937117)
  16:       808.79    9.736223  ( -1.318963   1.313194   2.504412)
  17:       836.45    7.168631  (  2.096885   1.474613  -0.772800)
  18:       872.44    4.100700  ( -0.897506  -0.381033  -1.774823)
  19:       879.99    6.176288  ( -1.075770   0.160845  -2.234533)
  20:       905.97    1.299725  (  0.546528  -0.954004   0.301512)
  21:       946.53    4.425725  (  1.661222  -1.260312  -0.278716)
  22:       967.56    3.839741  (  0.782576   1.772567   0.292103)
  23:       982.92   18.678645  (  3.187719  -1.930427  -2.188731)
  24:      1012.43   91.797418  (  1.787296   5.761761  -7.443460)
  25:      1041.82    4.727886  ( -0.067640   1.195367  -1.815050)
  26:      1067.07    5.801718  (  1.806649  -1.584810   0.161597)
  27:      1082.86    8.460871  ( -0.094544  -2.805472  -0.762405)
  28:      1095.02    6.129770  (  1.902504   1.305097  -0.898314)
  29:      1131.22    1.682697  (  0.059719  -1.294082  -0.066941)
  30:      1138.27    6.641098  (  1.924984  -1.427092  -0.948126)
  31:      1179.08    2.362722  ( -0.797352   0.799607   1.042871)
  32:      1189.92    1.056571  ( -0.630742  -0.806759   0.088750)
  33:      1238.50    0.737219  ( -0.062509  -0.667216  -0.536781)
  34:      1245.41    1.820628  ( -1.223700   0.183235  -0.538156)
  35:      1308.46   11.673873  ( -2.319759   0.767769  -2.388121)
  36:      1353.76    6.220116  (  0.240693   0.646511  -2.396707)
  37:      1421.58    8.703242  (  2.772508   0.801114  -0.612092)
  38:      1440.24   22.741467  (  4.190590  -2.020588   1.047684)
  39:      1470.42    3.663603  ( -1.856906  -0.153076   0.438258)
  40:      1471.83   21.705682  (  1.055215   4.528091   0.297656)
  41:      1484.13   12.633577  (  0.239654   2.050240  -2.893554)
  42:      1496.79    2.169208  ( -0.000069   1.329025   0.634744)
  43:      1523.46    1.154493  (  0.124830   1.046602   0.208650)
  44:      1612.88   85.388370  ( -2.299660   3.466781   8.251143)
  45:      3063.47    1.862875  ( -0.519900  -0.107140  -1.257418)
  46:      3132.59   13.612006  (  0.732821   0.464807  -3.585936)
  47:      3143.96    4.098769  (  1.263407  -0.714981   1.411160)
  48:      3154.40    1.034083  (  0.179999   0.662487  -0.750196)
  49:      3156.54    3.704044  (  0.709308   1.030769   1.462341)
  50:      3168.76    1.366944  (  0.308950   1.078685  -0.328530)
  51:      3172.63    1.094876  ( -0.518503   0.024978  -0.908519)
  52:      3231.38    0.671971  (  0.301444   0.245512  -0.721683)
  53:      3250.27    0.190470  ( -0.081935  -0.188162  -0.385164)
  54:      3271.60    3.155601  (  1.643175   0.108554   0.666178)
  55:      3508.44   68.430106  ( -3.006534   5.659810   5.230430)
  56:      3617.01  121.852899  (  9.214088   0.477596   6.060147)

--------------------------
THERMOCHEMISTRY AT 298.15K
--------------------------

Temperature         ... 298.15 K
Pressure            ... 1.00 atm
Total Mass          ... 98.17 AMU

Throughout the following assumptions are being made:
  (1) The electronic state is orbitally nondegenerate
  (2) There are no thermally accessible electronically excited states
  (3) Hindered rotations indicated by low frequency modes) are not
      treated as such but are treated as vibrations and this may
      case some error
  (4) All equations used are the standard statistical mechanics
      equations for an ideal gas
  (5) All vibrations are strinctly harmonic

------------
INNER ENERGY
------------

The inner energy is: U= E(el) + E(ZPE) + E(vib) + E(rot) + E(trans)
    E(el)   - is the total energy from the electronic structure calculation
              = E(kin-el) + E(nuc-el) + E(el-el) + E(nuc-nuc)
    E(ZPE)  - the the zero temperature vibrational energy from the frequency calculation
    E(vib)  - the the finite temperature correction to E(ZPE) due to population
              of excietd vibrational states
    E(rot)  - is the rotational thermal energy
    E(trans)- is the translational thermal energy

Summary of contributions to the inner energy U:
Electronic energy                ...   -290.07305510 Eh
Zero point energy                ...      0.17507195 Eh     109.86 kcal/mol
Thermal vibrational correction   ...      0.00461362 Eh       2.90 kcal/mol
Thermal rotational correction    ...      0.00141627 Eh       0.89 kcal/mol
Thermal translational correction ...      0.00141627 Eh       0.89 kcal/mol
-----------------------------------------------------------------------
Total thermal energy                   -289.89053698 Eh

Summary of corrections to the electronic energy:
(perhaps to be used in another calculation)
Total thermal correction                  0.00744616 Eh       4.67 kcal/mol
Non-thermal (ZPE) correction              0.17507195 Eh     109.86 kcal/mol
-----------------------------------------------------------------------
Total correction                          0.18251811 Eh     114.53 kcal/mol

--------
ENTHALPY
--------

The enthalpy is H = U + kB*T
                kB is Boltzmann's constant
Total free energy                 ...   -289.89053698 Eh
Thermal Enthalpy correction       ...      0.00094421 Eh       0.59 kcal/mol
-----------------------------------------------------------------------
Total Enthalpy                    ...   -289.88959277 Eh

-------
ENTROPY
-------

The entropy contributions are T*S = T*(S(el)+S(vib)+S(rot)+S(trans)
     S(el)   - electronic entropy
     S(vib)  - vibrational entropy
     S(rot)  - rotational entropy
     S(trans)- translational entropy
The entropies will be listed as mutliplied by the temperature to get
units of energy

Electronic entropy                ...      0.00000000 Eh      0.00 kcal/mol
Vibrational entropy               ...      0.00800336 Eh      5.02 kcal/mol
Rotational entropy                ...      0.01194264 Eh      7.49 kcal/mol
Translational entropy             ...      0.01884507 Eh     11.83 kcal/mol
-----------------------------------------------------------------------
Final entropy term                ...      0.03879107 Eh     24.34 kcal/mol

CAUTION: The rotational entropy is not quite correctly treated here
         because it includes a symmetry number that is not yet correctly
         implemented in ORCA!
For a nonlinear molecule the correct rotational entropy is:
    S(rot) = R*(ln(qrot/sn)+1.5)
    R    = 8.31441 J/mol/K = 1.987191683e-3 kcal/mol/K
    qrot = 208414.7142472
    sn is the rotational symmetry number. We have assumed 3 here
       if it is different for your molecule then you should correct
       the printed rotational entropy by manually evaluating the equation
       as given above

For convenience we print out the resulting values for sn=1 - 12:
 sn= 1  qrot/sn=  208414.7142 T*S(rot)=     8.15 kcal/mol T*S(tot)=    24.99 kcal/mol
 sn= 2  qrot/sn=  104207.3571 T*S(rot)=     7.73 kcal/mol T*S(tot)=    24.58 kcal/mol
 sn= 3  qrot/sn=   69471.5714 T*S(rot)=     7.49 kcal/mol T*S(tot)=    24.34 kcal/mol
 sn= 4  qrot/sn=   52103.6786 T*S(rot)=     7.32 kcal/mol T*S(tot)=    24.17 kcal/mol
 sn= 5  qrot/sn=   41682.9428 T*S(rot)=     7.19 kcal/mol T*S(tot)=    24.04 kcal/mol
 sn= 6  qrot/sn=   34735.7857 T*S(rot)=     7.08 kcal/mol T*S(tot)=    23.93 kcal/mol
 sn= 7  qrot/sn=   29773.5306 T*S(rot)=     6.99 kcal/mol T*S(tot)=    23.84 kcal/mol
 sn= 8  qrot/sn=   26051.8393 T*S(rot)=     6.91 kcal/mol T*S(tot)=    23.76 kcal/mol
 sn= 9  qrot/sn=   23157.1905 T*S(rot)=     6.84 kcal/mol T*S(tot)=    23.69 kcal/mol
 sn=10  qrot/sn=   20841.4714 T*S(rot)=     6.78 kcal/mol T*S(tot)=    23.63 kcal/mol
 sn=11  qrot/sn=   18946.7922 T*S(rot)=     6.72 kcal/mol T*S(tot)=    23.57 kcal/mol
 sn=12  qrot/sn=   17367.8929 T*S(rot)=     6.67 kcal/mol T*S(tot)=    23.52 kcal/mol

-------------------
GIBBS FREE ENTHALPY
-------------------

The Gibbs free enthalpy is G = H - T*S

Total enthalpy                    ...   -289.88959277 Eh
Total entropy correction          ...     -0.03879107 Eh    -24.34 kcal/mol
-----------------------------------------------------------------------
Final Gibbs free enthalpy         ...   -289.92838384 Eh

For completeness - the Gibbs free enthalpy minus the electronic energy
G-E(el)                           ...      0.14467126 Eh     90.78 kcal/mol

                             ****ORCA TERMINATED NORMALLY****
TOTAL RUN TIME: 0 days 0 hours 59 minutes 18 seconds 586 msec
