                         Program Version 3.0.3 - RELEASE   -
|  1> ! NORI PBE0 def2-TZVP UseSym TightOPT Freq TightSCF Grid3 FinalGrid5 XYZFile
|  2> % pal
|  3>     nprocs 8
|  4> end
|  5> %method
|  6>     SymThresh 5.0e-2
|  7> end
|  8> % geom
|  9>     MaxIter 10
| 10> end
| 11> % maxcore 2000
| 12> % output
| 13>     printlevel mini
| 14>     print[ P_Basis ] 0
| 15>     print[ P_SCFInfo ] 1
| 16>     print[ P_SCFIterInfo ] 1
| 17>     print[ P_OrbEn ] 0
| 18>     print[ P_Cartesian ] 0
| 19> end
| 20> % elprop
| 21>     Dipole false
| 22> end
| 23> *xyz 1 1
| 24>  C        0.9350073258     0.5675876074    -1.0250322335
| 25>  C        2.0350719553    -0.0212047180    -0.2048043742
| 26>  C        2.6995200581    -1.2875637217    -0.5672758379
| 27>  N        3.4096874843    -0.0077442174    -0.7716666311
| 28>  C        4.5941712177     0.3709248266     0.0450212511
| 29>  C        4.7555142497     1.8506079651     0.1039271570
| 30>  C        4.6693231817     2.5394377083     1.2320368456
| 31>  H        0.9350867726     1.6567497778    -0.9573261090
| 32>  H       -0.0219729485     0.2069151337    -0.6436037305
| 33>  H        1.0054184313     0.2711346212    -2.0741654504
| 34>  H        2.0533232774     0.2475697920     0.8461838956
| 35>  H        3.1362308251    -1.9103435047     0.2032414743
| 36>  H        2.4081282370    -1.7945846987    -1.4790702530
| 37>  H        3.4588313483     0.3062098420    -1.7363984044
| 38>  H        5.4540792159    -0.1229975552    -0.4161066749
| 39>  H        4.4442438991    -0.0553483401     1.0377354118
| 40>  H        4.9936192391     2.3563478170    -0.8289692811
| 41>  H        4.4660749112     2.0591901105     2.1842691558
| 42>  H        4.8239813187     3.6114415541     1.2499437889
| 43> *
| 44>
| 45>                          ****END OF INPUT****
 Total Charge           Charge          ....    1
 Multiplicity           Mult            ....    1
 Number of Electrons    NEL             ....   54
FINAL SINGLE POINT ENERGY      -290.071508896328
FINAL SINGLE POINT ENERGY      -290.071510683042
FINAL SINGLE POINT ENERGY      -290.071512403476
FINAL SINGLE POINT ENERGY      -290.071512984881

CARTESIAN COORDINATES (ANGSTROEM)
---------------------------------
  C      2.481728   -0.004163    0.210239
  C      1.163057   -0.704926    0.216394
  C      0.546271   -1.219875    1.453612
  N      0.001518    0.000027    0.821417
  C     -1.336701    0.014874    0.172079
  C     -1.423978    1.089889   -0.855459
  C     -1.615232    0.842388   -2.142733
  H      2.535366    0.723382   -0.600680
  H      3.272559   -0.740565    0.055476
  H      2.679387    0.499210    1.159650
  H      0.872088   -1.197934   -0.705447
  H     -0.123811   -2.069089    1.411128
  H      1.043550   -1.055571    2.401831
  H      0.240084    0.868425    1.291399
  H     -2.065740    0.149792    0.976111
  H     -1.486372   -0.972914   -0.266523
  H     -1.364979    2.115646   -0.498893
  H     -1.711148   -0.169188   -2.524980
  H     -1.707882    1.646982   -2.861973

FINAL SINGLE POINT ENERGY      -290.071513278998
                    ***********************HURRAY********************
 Multiplicity           Mult            ....    1
 Number of Electrons    NEL             ....   54
 Basis Dimension        Dim             ....  289
FINAL SINGLE POINT ENERGY      -290.071513222779

VIBRATIONAL FREQUENCIES
-----------------------

   0:         0.00 cm**-1
   1:         0.00 cm**-1
   2:         0.00 cm**-1
   3:         0.00 cm**-1
   4:         0.00 cm**-1
   5:         0.00 cm**-1
   6:        67.78 cm**-1
   7:        78.60 cm**-1
   8:       155.30 cm**-1
   9:       214.61 cm**-1
  10:       288.87 cm**-1
  11:       341.16 cm**-1
  12:       391.18 cm**-1
  13:       421.95 cm**-1
  14:       449.56 cm**-1
  15:       647.37 cm**-1
  16:       780.00 cm**-1
  17:       841.23 cm**-1
  18:       888.45 cm**-1
  19:       910.12 cm**-1
  20:       938.07 cm**-1
  21:       973.74 cm**-1
  22:      1009.20 cm**-1
  23:      1016.43 cm**-1
  24:      1030.06 cm**-1
  25:      1058.01 cm**-1
  26:      1086.81 cm**-1
  27:      1128.22 cm**-1
  28:      1152.33 cm**-1
  29:      1170.92 cm**-1
  30:      1210.77 cm**-1
  31:      1225.46 cm**-1
  32:      1259.94 cm**-1
  33:      1311.32 cm**-1
  34:      1328.91 cm**-1
  35:      1368.83 cm**-1
  36:      1396.90 cm**-1
  37:      1427.67 cm**-1
  38:      1457.67 cm**-1
  39:      1462.40 cm**-1
  40:      1474.19 cm**-1
  41:      1481.75 cm**-1
  42:      1488.62 cm**-1
  43:      1515.03 cm**-1
  44:      1726.51 cm**-1
  45:      3062.96 cm**-1
  46:      3075.97 cm**-1
  47:      3137.79 cm**-1
  48:      3141.69 cm**-1
  49:      3153.79 cm**-1
  50:      3160.00 cm**-1
  51:      3166.56 cm**-1
  52:      3168.11 cm**-1
  53:      3191.33 cm**-1
  54:      3256.15 cm**-1
  55:      3267.34 cm**-1
  56:      3533.81 cm**-1

IR SPECTRUM
-----------

 Mode    freq (cm**-1)   T**2         TX         TY         TZ
-------------------------------------------------------------------
   6:        67.78    0.434883  ( -0.408542   0.051058   0.515140)
   7:        78.60    0.221545  ( -0.093714   0.251349  -0.386764)
   8:       155.30    0.687574  ( -0.636282  -0.471280   0.246201)
   9:       214.61    0.148415  (  0.186969  -0.336716  -0.008915)
  10:       288.87    1.682843  (  0.494673  -0.367583  -1.141501)
  11:       341.16    0.810020  (  0.594040   0.161478  -0.656553)
  12:       391.18    0.934384  (  0.124119  -0.851494   0.440383)
  13:       421.95    0.091015  (  0.025774   0.040419  -0.297854)
  14:       449.56    0.994698  (  0.580817   0.424502   0.690759)
  15:       647.37   16.536087  ( -3.939211   0.822066   0.585586)
  16:       780.00    0.662431  (  0.530621   0.389000  -0.479115)
  17:       841.23    8.079711  ( -0.793230   2.435476   1.232458)
  18:       888.45    9.479414  ( -2.425924   1.788450  -0.629091)
  19:       910.12   17.869207  ( -2.725414   1.725928  -2.731758)
  20:       938.07    4.939896  ( -0.784881   0.380285  -2.044319)
  21:       973.74    9.212543  ( -2.587731   1.076660   1.164900)
  22:      1009.20    8.516659  ( -1.200451  -0.699551   2.566360)
  23:      1016.43   74.637984  (  8.528903  -0.481518  -1.289939)
  24:      1030.06   10.366707  ( -3.173924   0.537393  -0.064189)
  25:      1058.01   50.827665  (  5.586021  -3.801158   2.274913)
  26:      1086.81   15.555974  (  1.253853  -2.551628   2.733682)
  27:      1128.22   10.709616  (  0.591560  -1.758841   2.695580)
  28:      1152.33    5.422308  (  1.406832   0.434292   1.804029)
  29:      1170.92    6.545056  (  1.433652  -0.634723  -2.021589)
  30:      1210.77    1.711050  ( -1.271328  -0.305764  -0.035809)
  31:      1225.46    8.401721  (  0.204621   0.780618  -2.783970)
  32:      1259.94    7.163506  ( -1.657228   1.426355  -1.543571)
  33:      1311.32    5.044919  (  0.218538   1.657145   1.500344)
  34:      1328.91    6.545713  ( -0.751141  -1.081556  -2.193567)
  35:      1368.83    2.399849  (  0.754357  -0.918391   0.993656)
  36:      1396.90    3.047660  (  1.347512  -0.115692   1.103851)
  37:      1427.67    7.535845  (  1.807738   2.060546  -0.148591)
  38:      1457.67   10.275148  (  1.897394  -1.834719  -1.819024)
  39:      1462.40   49.147882  ( -4.205344   3.634555  -4.272350)
  40:      1474.19    3.250185  (  0.253195  -0.727183   1.630117)
  41:      1481.75   10.266495  (  1.828773   2.563685   0.591275)
  42:      1488.62   21.257248  ( -1.453762   1.479227   4.117732)
  43:      1515.03   25.486142  (  4.918360   1.136854  -0.058663)
  44:      1726.51    1.361127  (  0.603219  -0.919960   0.388493)
  45:      3062.96    1.551855  ( -0.252329   0.859846   0.865362)
  46:      3075.97    2.085320  (  0.400031   1.013013  -0.948209)
  47:      3137.79    0.376952  (  0.313840  -0.526127  -0.040586)
  48:      3141.69    1.771401  (  0.147493   0.281804   1.292375)
  49:      3153.79    0.786937  ( -0.497371  -0.094176   0.728484)
  50:      3160.00    2.078233  (  0.016358  -1.437998   0.100628)
  51:      3166.56    1.424627  ( -0.075438  -0.842720   0.841878)
  52:      3168.11    0.534889  ( -0.058499  -0.402668  -0.607722)
  53:      3191.33    0.781646  ( -0.730879  -0.099745   0.487352)
  54:      3256.15    0.226135  ( -0.043390  -0.257700  -0.397295)
  55:      3267.34    3.288423  ( -1.079360  -1.043821  -1.016780)
  56:      3533.81   63.718247  ( -0.646390  -7.028999  -3.727412)

--------------------------
THERMOCHEMISTRY AT 298.15K
--------------------------

Temperature         ... 298.15 K
Pressure            ... 1.00 atm
Total Mass          ... 98.17 AMU

Throughout the following assumptions are being made:
  (1) The electronic state is orbitally nondegenerate
  (2) There are no thermally accessible electronically excited states
  (3) Hindered rotations indicated by low frequency modes) are not
      treated as such but are treated as vibrations and this may
      case some error
  (4) All equations used are the standard statistical mechanics
      equations for an ideal gas
  (5) All vibrations are strinctly harmonic

------------
INNER ENERGY
------------

The inner energy is: U= E(el) + E(ZPE) + E(vib) + E(rot) + E(trans)
    E(el)   - is the total energy from the electronic structure calculation
              = E(kin-el) + E(nuc-el) + E(el-el) + E(nuc-nuc)
    E(ZPE)  - the the zero temperature vibrational energy from the frequency calculation
    E(vib)  - the the finite temperature correction to E(ZPE) due to population
              of excietd vibrational states
    E(rot)  - is the rotational thermal energy
    E(trans)- is the translational thermal energy

Summary of contributions to the inner energy U:
Electronic energy                ...   -290.07151322 Eh
Zero point energy                ...      0.17426034 Eh     109.35 kcal/mol
Thermal vibrational correction   ...      0.00524838 Eh       3.29 kcal/mol
Thermal rotational correction    ...      0.00141627 Eh       0.89 kcal/mol
Thermal translational correction ...      0.00141627 Eh       0.89 kcal/mol
-----------------------------------------------------------------------
Total thermal energy                   -289.88917196 Eh

Summary of corrections to the electronic energy:
(perhaps to be used in another calculation)
Total thermal correction                  0.00808092 Eh       5.07 kcal/mol
Non-thermal (ZPE) correction              0.17426034 Eh     109.35 kcal/mol
-----------------------------------------------------------------------
Total correction                          0.18234126 Eh     114.42 kcal/mol

--------
ENTHALPY
--------

The enthalpy is H = U + kB*T
                kB is Boltzmann's constant
Total free energy                 ...   -289.88917196 Eh
Thermal Enthalpy correction       ...      0.00094421 Eh       0.59 kcal/mol
-----------------------------------------------------------------------
Total Enthalpy                    ...   -289.88822776 Eh

-------
ENTROPY
-------

The entropy contributions are T*S = T*(S(el)+S(vib)+S(rot)+S(trans)
     S(el)   - electronic entropy
     S(vib)  - vibrational entropy
     S(rot)  - rotational entropy
     S(trans)- translational entropy
The entropies will be listed as mutliplied by the temperature to get
units of energy

Electronic entropy                ...      0.00000000 Eh      0.00 kcal/mol
Vibrational entropy               ...      0.00961985 Eh      6.04 kcal/mol
Rotational entropy                ...      0.01221166 Eh      7.66 kcal/mol
Translational entropy             ...      0.01884507 Eh     11.83 kcal/mol
-----------------------------------------------------------------------
Final entropy term                ...      0.04067659 Eh     25.52 kcal/mol

CAUTION: The rotational entropy is not quite correctly treated here
         because it includes a symmetry number that is not yet correctly
         implemented in ORCA!
For a nonlinear molecule the correct rotational entropy is:
    S(rot) = R*(ln(qrot/sn)+1.5)
    R    = 8.31441 J/mol/K = 1.987191683e-3 kcal/mol/K
    qrot = 277123.3032314
    sn is the rotational symmetry number. We have assumed 3 here
       if it is different for your molecule then you should correct
       the printed rotational entropy by manually evaluating the equation
       as given above

For convenience we print out the resulting values for sn=1 - 12:
 sn= 1  qrot/sn=  277123.3032 T*S(rot)=     8.31 kcal/mol T*S(tot)=    26.18 kcal/mol
 sn= 2  qrot/sn=  138561.6516 T*S(rot)=     7.90 kcal/mol T*S(tot)=    25.77 kcal/mol
 sn= 3  qrot/sn=   92374.4344 T*S(rot)=     7.66 kcal/mol T*S(tot)=    25.52 kcal/mol
 sn= 4  qrot/sn=   69280.8258 T*S(rot)=     7.49 kcal/mol T*S(tot)=    25.35 kcal/mol
 sn= 5  qrot/sn=   55424.6606 T*S(rot)=     7.36 kcal/mol T*S(tot)=    25.22 kcal/mol
 sn= 6  qrot/sn=   46187.2172 T*S(rot)=     7.25 kcal/mol T*S(tot)=    25.11 kcal/mol
 sn= 7  qrot/sn=   39589.0433 T*S(rot)=     7.16 kcal/mol T*S(tot)=    25.02 kcal/mol
 sn= 8  qrot/sn=   34640.4129 T*S(rot)=     7.08 kcal/mol T*S(tot)=    24.94 kcal/mol
 sn= 9  qrot/sn=   30791.4781 T*S(rot)=     7.01 kcal/mol T*S(tot)=    24.87 kcal/mol
 sn=10  qrot/sn=   27712.3303 T*S(rot)=     6.95 kcal/mol T*S(tot)=    24.81 kcal/mol
 sn=11  qrot/sn=   25193.0276 T*S(rot)=     6.89 kcal/mol T*S(tot)=    24.76 kcal/mol
 sn=12  qrot/sn=   23093.6086 T*S(rot)=     6.84 kcal/mol T*S(tot)=    24.70 kcal/mol

-------------------
GIBBS FREE ENTHALPY
-------------------

The Gibbs free enthalpy is G = H - T*S

Total enthalpy                    ...   -289.88822776 Eh
Total entropy correction          ...     -0.04067659 Eh    -25.52 kcal/mol
-----------------------------------------------------------------------
Final Gibbs free enthalpy         ...   -289.92890434 Eh

For completeness - the Gibbs free enthalpy minus the electronic energy
G-E(el)                           ...      0.14260888 Eh     89.49 kcal/mol

                             ****ORCA TERMINATED NORMALLY****
TOTAL RUN TIME: 0 days 0 hours 51 minutes 51 seconds 297 msec
