                         Program Version 3.0.3 - RELEASE   -
|  1> ! NORI PBE0 def2-TZVP UseSym TightOPT Freq TightSCF Grid3 FinalGrid5 XYZFile
|  2> % pal
|  3>     nprocs 8
|  4> end
|  5> %method
|  6>     SymThresh 5.0e-2
|  7> end
|  8> % geom
|  9>     MaxIter 10
| 10> end
| 11> % maxcore 2000
| 12> % output
| 13>     printlevel mini
| 14>     print[ P_Basis ] 0
| 15>     print[ P_SCFInfo ] 1
| 16>     print[ P_SCFIterInfo ] 1
| 17>     print[ P_OrbEn ] 0
| 18>     print[ P_Cartesian ] 0
| 19> end
| 20> % elprop
| 21>     Dipole false
| 22> end
| 23> *xyz 1 1
| 24>  C        0.9771268573     0.5152936603    -0.4043889714
| 25>  C        2.4252074681     0.3472368634    -0.0825555985
| 26>  C        3.2570960967    -0.7005191482    -0.7038630670
| 27>  N        3.4145983387     0.7030175214    -1.1391024378
| 28>  C        4.6419429217     1.4774503625    -0.8347593985
| 29>  C        4.3642744496     2.8960944923    -0.8509716235
| 30>  C        4.1356666986     4.0716324112    -0.8692556776
| 31>  H        0.6742195018     1.5587916314    -0.3109302770
| 32>  H        0.3892384832    -0.0724498978     0.3027898205
| 33>  H        0.7398908992     0.1587022708    -1.4093648777
| 34>  H        2.7533012624     0.7092255898     0.8863269754
| 35>  H        4.1167690431    -1.0938638782    -0.1761481055
| 36>  H        2.8179802945    -1.3548347429    -1.4469476293
| 37>  H        3.0031180339     0.9372489184    -2.0384535632
| 38>  H        5.3957797581     1.2052711955    -1.5788397056
| 39>  H        4.9994841127     1.1474606971     0.1438503596
| 40>  H        3.9444757804     5.1219820530    -0.8848062231
| 41> *
| 42>
| 43>                          ****END OF INPUT****
 Total Charge           Charge          ....    1
 Multiplicity           Mult            ....    1
 Number of Electrons    NEL             ....   52
FINAL SINGLE POINT ENERGY      -288.813021829685

CARTESIAN COORDINATES (ANGSTROEM)
---------------------------------
  C      2.433339   -0.000187   -0.046632
  C      1.162109   -0.751808    0.172512
  C      0.649430   -1.063887    1.519976
  N     -0.000053    0.000061    0.725538
  C     -1.369937   -0.163099    0.181346
  C     -1.568910    0.700438   -0.960841
  C     -1.735922    1.419476   -1.904045
  H      2.391806    0.577864   -0.970633
  H      3.254154   -0.714890   -0.131402
  H      2.660297    0.667700    0.787674
  H      0.844389   -1.413340   -0.627048
  H      0.027153   -1.936558    1.674071
  H      1.190560   -0.708945    2.388646
  H      0.211163    0.953910    1.005882
  H     -2.073334    0.064967    0.987067
  H     -1.490515   -1.216834   -0.083424
  H     -1.897357    2.057586   -2.744680

FINAL SINGLE POINT ENERGY      -288.813022671651
                    ***********************HURRAY********************
 Multiplicity           Mult            ....    1
 Number of Electrons    NEL             ....   52
 Basis Dimension        Dim             ....  277
FINAL SINGLE POINT ENERGY      -288.813023270630

VIBRATIONAL FREQUENCIES
-----------------------

   0:         0.00 cm**-1
   1:         0.00 cm**-1
   2:         0.00 cm**-1
   3:         0.00 cm**-1
   4:         0.00 cm**-1
   5:         0.00 cm**-1
   6:        62.84 cm**-1
   7:       112.12 cm**-1
   8:       213.17 cm**-1
   9:       242.42 cm**-1
  10:       286.73 cm**-1
  11:       326.28 cm**-1
  12:       395.67 cm**-1
  13:       418.59 cm**-1
  14:       522.27 cm**-1
  15:       724.86 cm**-1
  16:       769.49 cm**-1
  17:       773.30 cm**-1
  18:       835.12 cm**-1
  19:       894.05 cm**-1
  20:       910.19 cm**-1
  21:       983.25 cm**-1
  22:       987.06 cm**-1
  23:      1014.15 cm**-1
  24:      1067.94 cm**-1
  25:      1104.68 cm**-1
  26:      1150.01 cm**-1
  27:      1168.89 cm**-1
  28:      1178.54 cm**-1
  29:      1226.36 cm**-1
  30:      1258.31 cm**-1
  31:      1308.03 cm**-1
  32:      1371.95 cm**-1
  33:      1398.73 cm**-1
  34:      1427.45 cm**-1
  35:      1461.46 cm**-1
  36:      1470.92 cm**-1
  37:      1475.45 cm**-1
  38:      1488.05 cm**-1
  39:      1513.13 cm**-1
  40:      2259.03 cm**-1
  41:      3063.24 cm**-1
  42:      3072.86 cm**-1
  43:      3119.89 cm**-1
  44:      3141.95 cm**-1
  45:      3154.70 cm**-1
  46:      3165.93 cm**-1
  47:      3189.63 cm**-1
  48:      3266.51 cm**-1
  49:      3456.31 cm**-1
  50:      3529.12 cm**-1

IR SPECTRUM
-----------

 Mode    freq (cm**-1)   T**2         TX         TY         TZ
-------------------------------------------------------------------
   6:        62.84    0.341527  (  0.325923   0.080272  -0.478391)
   7:       112.12    0.109207  ( -0.100646   0.277664  -0.148258)
   8:       213.17    0.569777  (  0.691662  -0.297553  -0.053310)
   9:       242.42    4.001832  ( -1.675526  -1.058051   0.273813)
  10:       286.73    3.147533  ( -1.111555   0.824505   1.110031)
  11:       326.28   14.248214  (  1.016346  -2.883539  -2.213697)
  12:       395.67    1.966385  ( -0.414841   0.073855  -1.337474)
  13:       418.59    1.849867  ( -0.892698  -0.996823  -0.243521)
  14:       522.27   16.178760  (  3.855344   0.384797   1.080283)
  15:       724.86   41.245808  (  2.334452  -4.540898  -3.895689)
  16:       769.49   20.578879  ( -4.264832  -1.513148   0.316970)
  17:       773.30   11.501444  (  2.780219   1.825982   0.661528)
  18:       835.12   10.775895  (  1.012760  -2.811614  -1.358322)
  19:       894.05   11.693444  ( -2.781488   1.198871  -1.587287)
  20:       910.19   14.188720  ( -2.625146   1.294386  -2.371053)
  21:       983.25    2.856065  (  1.634192  -0.357369  -0.240355)
  22:       987.06   13.613537  (  3.374977  -1.007096  -1.099465)
  23:      1014.15   23.614611  ( -3.137630  -0.033415   3.710630)
  24:      1067.94   40.448759  (  5.387327  -2.930504   1.684520)
  25:      1104.68   34.846921  ( -2.615258   3.360410  -4.088397)
  26:      1150.01    1.311324  (  1.100983   0.312075   0.042048)
  27:      1168.89    9.320291  ( -0.199752  -0.686862  -2.967930)
  28:      1178.54    4.428102  ( -2.090425   0.216649   0.106241)
  29:      1226.36    7.951471  (  0.354404  -0.714390   2.704721)
  30:      1258.31    5.036415  (  1.889363  -0.880226   0.831821)
  31:      1308.03    6.851681  ( -0.234521  -2.435079  -0.931166)
  32:      1371.95   11.541838  ( -0.552191   2.476537  -2.259134)
  33:      1398.73    8.590121  (  1.743286  -1.126562   2.069283)
  34:      1427.45    9.801526  (  1.578971   2.437330  -1.169529)
  35:      1461.46   57.678940  ( -4.814543   4.597456  -3.655477)
  36:      1470.92    6.365442  ( -2.308697  -0.744514  -0.693584)
  37:      1475.45    6.065118  (  1.522629   1.338815  -1.397961)
  38:      1488.05   22.085547  (  1.344237  -2.242368  -3.905171)
  39:      1513.13   26.331187  (  5.069575   0.556496  -0.566485)
  40:      2259.03   30.246164  ( -1.853227   2.956953  -4.250664)
  41:      3063.24    1.643841  ( -0.454583   0.902555   0.789043)
  42:      3072.86    1.863757  ( -0.714805   0.831609  -0.813165)
  43:      3119.89    1.184330  (  0.079388   0.401025   1.008566)
  44:      3141.95    1.652594  ( -0.313091  -0.543148  -1.122300)
  45:      3154.70    0.801882  ( -0.522595   0.177180   0.705254)
  46:      3165.93    2.373511  (  0.144291  -0.834452   1.287005)
  47:      3189.63    1.217098  ( -0.719618   0.305100   0.778564)
  48:      3266.51    4.048004  ( -1.190098  -1.361441  -0.882128)
  49:      3456.31   91.362611  ( -2.006744   5.651651  -7.442743)
  50:      3529.12   73.006009  ( -0.400861  -8.191142  -2.398023)

--------------------------
THERMOCHEMISTRY AT 298.15K
--------------------------

Temperature         ... 298.15 K
Pressure            ... 1.00 atm
Total Mass          ... 96.15 AMU

Throughout the following assumptions are being made:
  (1) The electronic state is orbitally nondegenerate
  (2) There are no thermally accessible electronically excited states
  (3) Hindered rotations indicated by low frequency modes) are not
      treated as such but are treated as vibrations and this may
      case some error
  (4) All equations used are the standard statistical mechanics
      equations for an ideal gas
  (5) All vibrations are strinctly harmonic

------------
INNER ENERGY
------------

The inner energy is: U= E(el) + E(ZPE) + E(vib) + E(rot) + E(trans)
    E(el)   - is the total energy from the electronic structure calculation
              = E(kin-el) + E(nuc-el) + E(el-el) + E(nuc-nuc)
    E(ZPE)  - the the zero temperature vibrational energy from the frequency calculation
    E(vib)  - the the finite temperature correction to E(ZPE) due to population
              of excietd vibrational states
    E(rot)  - is the rotational thermal energy
    E(trans)- is the translational thermal energy

Summary of contributions to the inner energy U:
Electronic energy                ...   -288.81302327 Eh
Zero point energy                ...      0.15026930 Eh      94.30 kcal/mol
Thermal vibrational correction   ...      0.00496157 Eh       3.11 kcal/mol
Thermal rotational correction    ...      0.00141627 Eh       0.89 kcal/mol
Thermal translational correction ...      0.00141627 Eh       0.89 kcal/mol
-----------------------------------------------------------------------
Total thermal energy                   -288.65495986 Eh

Summary of corrections to the electronic energy:
(perhaps to be used in another calculation)
Total thermal correction                  0.00779411 Eh       4.89 kcal/mol
Non-thermal (ZPE) correction              0.15026930 Eh      94.30 kcal/mol
-----------------------------------------------------------------------
Total correction                          0.15806341 Eh      99.19 kcal/mol

--------
ENTHALPY
--------

The enthalpy is H = U + kB*T
                kB is Boltzmann's constant
Total free energy                 ...   -288.65495986 Eh
Thermal Enthalpy correction       ...      0.00094421 Eh       0.59 kcal/mol
-----------------------------------------------------------------------
Total Enthalpy                    ...   -288.65401565 Eh

-------
ENTROPY
-------

The entropy contributions are T*S = T*(S(el)+S(vib)+S(rot)+S(trans)
     S(el)   - electronic entropy
     S(vib)  - vibrational entropy
     S(rot)  - rotational entropy
     S(trans)- translational entropy
The entropies will be listed as mutliplied by the temperature to get
units of energy

Electronic entropy                ...      0.00000000 Eh      0.00 kcal/mol
Vibrational entropy               ...      0.00885062 Eh      5.55 kcal/mol
Rotational entropy                ...      0.01216324 Eh      7.63 kcal/mol
Translational entropy             ...      0.01881568 Eh     11.81 kcal/mol
-----------------------------------------------------------------------
Final entropy term                ...      0.03982954 Eh     24.99 kcal/mol

CAUTION: The rotational entropy is not quite correctly treated here
         because it includes a symmetry number that is not yet correctly
         implemented in ORCA!
For a nonlinear molecule the correct rotational entropy is:
    S(rot) = R*(ln(qrot/sn)+1.5)
    R    = 8.31441 J/mol/K = 1.987191683e-3 kcal/mol/K
    qrot = 263268.5945453
    sn is the rotational symmetry number. We have assumed 3 here
       if it is different for your molecule then you should correct
       the printed rotational entropy by manually evaluating the equation
       as given above

For convenience we print out the resulting values for sn=1 - 12:
 sn= 1  qrot/sn=  263268.5945 T*S(rot)=     8.28 kcal/mol T*S(tot)=    25.64 kcal/mol
 sn= 2  qrot/sn=  131634.2973 T*S(rot)=     7.87 kcal/mol T*S(tot)=    25.23 kcal/mol
 sn= 3  qrot/sn=   87756.1982 T*S(rot)=     7.63 kcal/mol T*S(tot)=    24.99 kcal/mol
 sn= 4  qrot/sn=   65817.1486 T*S(rot)=     7.46 kcal/mol T*S(tot)=    24.82 kcal/mol
 sn= 5  qrot/sn=   52653.7189 T*S(rot)=     7.33 kcal/mol T*S(tot)=    24.69 kcal/mol
 sn= 6  qrot/sn=   43878.0991 T*S(rot)=     7.22 kcal/mol T*S(tot)=    24.58 kcal/mol
 sn= 7  qrot/sn=   37609.7992 T*S(rot)=     7.13 kcal/mol T*S(tot)=    24.49 kcal/mol
 sn= 8  qrot/sn=   32908.5743 T*S(rot)=     7.05 kcal/mol T*S(tot)=    24.41 kcal/mol
 sn= 9  qrot/sn=   29252.0661 T*S(rot)=     6.98 kcal/mol T*S(tot)=    24.34 kcal/mol
 sn=10  qrot/sn=   26326.8595 T*S(rot)=     6.92 kcal/mol T*S(tot)=    24.28 kcal/mol
 sn=11  qrot/sn=   23933.5086 T*S(rot)=     6.86 kcal/mol T*S(tot)=    24.22 kcal/mol
 sn=12  qrot/sn=   21939.0495 T*S(rot)=     6.81 kcal/mol T*S(tot)=    24.17 kcal/mol

-------------------
GIBBS FREE ENTHALPY
-------------------

The Gibbs free enthalpy is G = H - T*S

Total enthalpy                    ...   -288.65401565 Eh
Total entropy correction          ...     -0.03982954 Eh    -24.99 kcal/mol
-----------------------------------------------------------------------
Final Gibbs free enthalpy         ...   -288.69384519 Eh

For completeness - the Gibbs free enthalpy minus the electronic energy
G-E(el)                           ...      0.11917808 Eh     74.79 kcal/mol

                             ****ORCA TERMINATED NORMALLY****
TOTAL RUN TIME: 0 days 0 hours 38 minutes 18 seconds 425 msec
