                         Program Version 3.0.3 - RELEASE   -
|  1> ! NORI PBE0 def2-TZVP UseSym TightOPT Freq TightSCF Grid3 FinalGrid5 XYZFile
|  2> % pal
|  3>     nprocs 8
|  4> end
|  5> %method
|  6>     SymThresh 5.0e-2
|  7> end
|  8> % geom
|  9>     MaxIter 10
| 10> end
| 11> % maxcore 2000
| 12> % output
| 13>     printlevel mini
| 14>     print[ P_Basis ] 0
| 15>     print[ P_SCFInfo ] 1
| 16>     print[ P_SCFIterInfo ] 1
| 17>     print[ P_OrbEn ] 0
| 18>     print[ P_Cartesian ] 0
| 19> end
| 20> % elprop
| 21>     Dipole false
| 22> end
| 23> *xyz 1 1
| 24>  C        0.8875654936     0.5802505178    -0.2810474827
| 25>  C        2.3349643080     0.4306996037     0.0500495700
| 26>  C        3.1888211579    -0.6037190256    -0.5605263605
| 27>  N        3.3268766057     0.8019815785    -1.0096906977
| 28>  C        4.5336173239     1.5932176356    -0.7055186406
| 29>  C        4.1942355687     3.0057862020    -0.6513314395
| 30>  N        3.8848346207     4.1103961325    -0.6136039500
| 31>  H        0.5712357739     1.6203227467    -0.1927904406
| 32>  H        0.3058376813    -0.0110536260     0.4286519679
| 33>  H        0.6583151154     0.2138940047    -1.2843517335
| 34>  H        2.6533443986     0.8050057182     1.0180173220
| 35>  H        4.0522788365    -0.9804564388    -0.0264421382
| 36>  H        2.7685538540    -1.2672722380    -1.3066952896
| 37>  H        2.9136492868     1.0151499894    -1.9141211230
| 38>  H        5.2845184804     1.4026637672    -1.4765593435
| 39>  H        4.9329614944     1.2595934320     0.2545497794
| 40> *
| 41>
| 42>                          ****END OF INPUT****
 Total Charge           Charge          ....    1
 Multiplicity           Mult            ....    1
 Number of Electrons    NEL             ....   52
FINAL SINGLE POINT ENERGY      -304.886396838075

CARTESIAN COORDINATES (ANGSTROEM)
---------------------------------
  C     -1.853701   -1.558141   -0.066004
  C     -1.366928   -0.165631    0.160213
  C     -1.206719    0.413616    1.505880
  N      0.000063    0.000004    0.750894
  C      0.960406    0.990748    0.229667
  C      1.628436    0.456494   -0.945831
  N      2.130169    0.000199   -1.871761
  H     -1.425319   -1.979757   -0.976294
  H     -2.938835   -1.531849   -0.184423
  H     -1.628108   -2.212311    0.779436
  H     -1.520191    0.540462   -0.650345
  H     -1.288834    1.483913    1.649880
  H     -1.415105   -0.197570    2.375921
  H      0.431904   -0.868122    1.057702
  H      1.683541    1.228013    1.014038
  H      0.414411    1.902359   -0.022874

FINAL SINGLE POINT ENERGY      -304.886397367246
                    ***********************HURRAY********************
 Multiplicity           Mult            ....    1
 Number of Electrons    NEL             ....   52
 Basis Dimension        Dim             ....  271
FINAL SINGLE POINT ENERGY      -304.886397616944

VIBRATIONAL FREQUENCIES
-----------------------

   0:         0.00 cm**-1
   1:         0.00 cm**-1
   2:         0.00 cm**-1
   3:         0.00 cm**-1
   4:         0.00 cm**-1
   5:         0.00 cm**-1
   6:        61.02 cm**-1
   7:       111.92 cm**-1
   8:       214.92 cm**-1
   9:       248.91 cm**-1
  10:       289.33 cm**-1
  11:       359.57 cm**-1
  12:       397.73 cm**-1
  13:       421.97 cm**-1
  14:       549.61 cm**-1
  15:       759.39 cm**-1
  16:       834.93 cm**-1
  17:       895.55 cm**-1
  18:       909.14 cm**-1
  19:       967.11 cm**-1
  20:       984.94 cm**-1
  21:      1005.54 cm**-1
  22:      1078.31 cm**-1
  23:      1102.07 cm**-1
  24:      1151.47 cm**-1
  25:      1172.45 cm**-1
  26:      1184.95 cm**-1
  27:      1226.41 cm**-1
  28:      1260.67 cm**-1
  29:      1309.13 cm**-1
  30:      1375.20 cm**-1
  31:      1399.47 cm**-1
  32:      1427.56 cm**-1
  33:      1464.76 cm**-1
  34:      1468.01 cm**-1
  35:      1475.28 cm**-1
  36:      1487.60 cm**-1
  37:      1513.64 cm**-1
  38:      2403.26 cm**-1
  39:      3062.96 cm**-1
  40:      3087.07 cm**-1
  41:      3138.73 cm**-1
  42:      3142.36 cm**-1
  43:      3154.90 cm**-1
  44:      3165.01 cm**-1
  45:      3185.62 cm**-1
  46:      3265.68 cm**-1
  47:      3522.92 cm**-1

IR SPECTRUM
-----------

 Mode    freq (cm**-1)   T**2         TX         TY         TZ
-------------------------------------------------------------------
   6:        61.02    6.911808  (  2.178904   0.148226   1.463631)
   7:       111.92    7.456442  ( -0.955604  -2.310572   1.097508)
   8:       214.92    0.111014  (  0.193371   0.209677   0.172212)
   9:       248.91    2.473200  ( -1.275276  -0.472902   0.789452)
  10:       289.33    0.581367  (  0.216970   0.234296  -0.692385)
  11:       359.57    0.077618  (  0.099807   0.238939   0.102786)
  12:       397.73    2.157485  (  0.137509   1.060584   1.006845)
  13:       421.97    0.701628  ( -0.447235   0.682295   0.189953)
  14:       549.61    2.792196  ( -1.404297  -0.249212   0.870655)
  15:       759.39    6.369485  ( -2.143590  -0.986683  -0.894967)
  16:       834.93   14.988031  (  3.500305  -1.127142   1.210558)
  17:       895.55    5.536927  (  2.140183   0.525186  -0.825059)
  18:       909.14    7.971347  (  1.971119   0.572911  -1.938507)
  19:       967.11    0.483543  (  0.239476  -0.051111  -0.650832)
  20:       984.94   16.267358  (  3.397545   1.361864   1.693922)
  21:      1005.54   25.110589  ( -1.335950  -2.178022  -4.310690)
  22:      1078.31   32.406664  (  5.460633   1.516149  -0.537994)
  23:      1102.07   38.164999  ( -4.576037   0.665230   4.096627)
  24:      1151.47    1.928027  (  0.674421   1.159141   0.359966)
  25:      1172.45    7.892533  (  0.336707  -0.645933   2.713288)
  26:      1184.95    5.045454  (  1.785223   1.349152   0.195505)
  27:      1226.41    6.573434  ( -0.879957   0.337718   2.384336)
  28:      1260.67    4.698547  ( -2.002507  -0.686853   0.465558)
  29:      1309.13    6.625318  (  1.305219  -1.959566   1.040108)
  30:      1375.20    4.198338  ( -1.246983   1.120961   1.177633)
  31:      1399.47    2.505407  (  0.995035   0.446400  -1.147188)
  32:      1427.56    9.610648  (  0.658797   2.935794   0.746826)
  33:      1464.76   19.019160  ( -1.903484   3.262736   2.179556)
  34:      1468.01   38.813728  (  5.345566   0.240579  -3.190733)
  35:      1475.28    5.693156  (  1.967135   1.322378   0.273588)
  36:      1487.60   22.894094  (  2.397490  -1.061960   4.002297)
  37:      1513.64   30.200932  ( -4.003724  -3.674363  -0.818646)
  38:      2403.26    7.248849  ( -1.551525   0.496291   2.143669)
  39:      3062.96    2.431312  ( -1.149078  -0.082139  -1.050802)
  40:      3087.07    2.334105  (  0.847354   1.120697   0.600111)
  41:      3138.73    4.870395  ( -1.283110   0.894244  -1.557033)
  42:      3142.36    1.697639  ( -0.082748  -0.758916   1.055859)
  43:      3154.90    1.007359  ( -0.905119  -0.020707  -0.433233)
  44:      3165.01    3.667628  ( -0.892805   0.638332   1.569414)
  45:      3185.62    2.152800  (  1.002524   0.175677   1.056827)
  46:      3265.68    5.592639  ( -0.071120  -2.111721   1.062175)
  47:      3522.92   85.000022  ( -5.018704   7.162232  -2.918059)

--------------------------
THERMOCHEMISTRY AT 298.15K
--------------------------

Temperature         ... 298.15 K
Pressure            ... 1.00 atm
Total Mass          ... 97.14 AMU

Throughout the following assumptions are being made:
  (1) The electronic state is orbitally nondegenerate
  (2) There are no thermally accessible electronically excited states
  (3) Hindered rotations indicated by low frequency modes) are not
      treated as such but are treated as vibrations and this may
      case some error
  (4) All equations used are the standard statistical mechanics
      equations for an ideal gas
  (5) All vibrations are strinctly harmonic

------------
INNER ENERGY
------------

The inner energy is: U= E(el) + E(ZPE) + E(vib) + E(rot) + E(trans)
    E(el)   - is the total energy from the electronic structure calculation
              = E(kin-el) + E(nuc-el) + E(el-el) + E(nuc-nuc)
    E(ZPE)  - the the zero temperature vibrational energy from the frequency calculation
    E(vib)  - the the finite temperature correction to E(ZPE) due to population
              of excietd vibrational states
    E(rot)  - is the rotational thermal energy
    E(trans)- is the translational thermal energy

Summary of contributions to the inner energy U:
Electronic energy                ...   -304.88639762 Eh
Zero point energy                ...      0.13950838 Eh      87.54 kcal/mol
Thermal vibrational correction   ...      0.00470515 Eh       2.95 kcal/mol
Thermal rotational correction    ...      0.00141627 Eh       0.89 kcal/mol
Thermal translational correction ...      0.00141627 Eh       0.89 kcal/mol
-----------------------------------------------------------------------
Total thermal energy                   -304.73935154 Eh

Summary of corrections to the electronic energy:
(perhaps to be used in another calculation)
Total thermal correction                  0.00753770 Eh       4.73 kcal/mol
Non-thermal (ZPE) correction              0.13950838 Eh      87.54 kcal/mol
-----------------------------------------------------------------------
Total correction                          0.14704608 Eh      92.27 kcal/mol

--------
ENTHALPY
--------

The enthalpy is H = U + kB*T
                kB is Boltzmann's constant
Total free energy                 ...   -304.73935154 Eh
Thermal Enthalpy correction       ...      0.00094421 Eh       0.59 kcal/mol
-----------------------------------------------------------------------
Total Enthalpy                    ...   -304.73840733 Eh

-------
ENTROPY
-------

The entropy contributions are T*S = T*(S(el)+S(vib)+S(rot)+S(trans)
     S(el)   - electronic entropy
     S(vib)  - vibrational entropy
     S(rot)  - rotational entropy
     S(trans)- translational entropy
The entropies will be listed as mutliplied by the temperature to get
units of energy

Electronic entropy                ...      0.00000000 Eh      0.00 kcal/mol
Vibrational entropy               ...      0.00849768 Eh      5.33 kcal/mol
Rotational entropy                ...      0.01214253 Eh      7.62 kcal/mol
Translational entropy             ...      0.01883016 Eh     11.82 kcal/mol
-----------------------------------------------------------------------
Final entropy term                ...      0.03947037 Eh     24.77 kcal/mol

CAUTION: The rotational entropy is not quite correctly treated here
         because it includes a symmetry number that is not yet correctly
         implemented in ORCA!
For a nonlinear molecule the correct rotational entropy is:
    S(rot) = R*(ln(qrot/sn)+1.5)
    R    = 8.31441 J/mol/K = 1.987191683e-3 kcal/mol/K
    qrot = 257555.7820366
    sn is the rotational symmetry number. We have assumed 3 here
       if it is different for your molecule then you should correct
       the printed rotational entropy by manually evaluating the equation
       as given above

For convenience we print out the resulting values for sn=1 - 12:
 sn= 1  qrot/sn=  257555.7820 T*S(rot)=     8.27 kcal/mol T*S(tot)=    25.42 kcal/mol
 sn= 2  qrot/sn=  128777.8910 T*S(rot)=     7.86 kcal/mol T*S(tot)=    25.01 kcal/mol
 sn= 3  qrot/sn=   85851.9273 T*S(rot)=     7.62 kcal/mol T*S(tot)=    24.77 kcal/mol
 sn= 4  qrot/sn=   64388.9455 T*S(rot)=     7.45 kcal/mol T*S(tot)=    24.60 kcal/mol
 sn= 5  qrot/sn=   51511.1564 T*S(rot)=     7.32 kcal/mol T*S(tot)=    24.47 kcal/mol
 sn= 6  qrot/sn=   42925.9637 T*S(rot)=     7.21 kcal/mol T*S(tot)=    24.36 kcal/mol
 sn= 7  qrot/sn=   36793.6831 T*S(rot)=     7.12 kcal/mol T*S(tot)=    24.27 kcal/mol
 sn= 8  qrot/sn=   32194.4728 T*S(rot)=     7.04 kcal/mol T*S(tot)=    24.19 kcal/mol
 sn= 9  qrot/sn=   28617.3091 T*S(rot)=     6.97 kcal/mol T*S(tot)=    24.12 kcal/mol
 sn=10  qrot/sn=   25755.5782 T*S(rot)=     6.91 kcal/mol T*S(tot)=    24.05 kcal/mol
 sn=11  qrot/sn=   23414.1620 T*S(rot)=     6.85 kcal/mol T*S(tot)=    24.00 kcal/mol
 sn=12  qrot/sn=   21462.9818 T*S(rot)=     6.80 kcal/mol T*S(tot)=    23.95 kcal/mol

-------------------
GIBBS FREE ENTHALPY
-------------------

The Gibbs free enthalpy is G = H - T*S

Total enthalpy                    ...   -304.73840733 Eh
Total entropy correction          ...     -0.03947037 Eh    -24.77 kcal/mol
-----------------------------------------------------------------------
Final Gibbs free enthalpy         ...   -304.77787770 Eh

For completeness - the Gibbs free enthalpy minus the electronic energy
G-E(el)                           ...      0.10851992 Eh     68.10 kcal/mol

                             ****ORCA TERMINATED NORMALLY****
TOTAL RUN TIME: 0 days 0 hours 34 minutes 13 seconds 560 msec
