                         Program Version 3.0.3 - RELEASE   -
|  1> ! NORI PBE0 def2-TZVP UseSym TightOPT Freq TightSCF Grid3 FinalGrid5 XYZFile
|  2> % pal
|  3>     nprocs 8
|  4> end
|  5> %method
|  6>     SymThresh 5.0e-2
|  7> end
|  8> % geom
|  9>     MaxIter 10
| 10> end
| 11> % maxcore 2000
| 12> % output
| 13>     printlevel mini
| 14>     print[ P_Basis ] 0
| 15>     print[ P_SCFInfo ] 1
| 16>     print[ P_SCFIterInfo ] 1
| 17>     print[ P_OrbEn ] 0
| 18>     print[ P_Cartesian ] 0
| 19> end
| 20> % elprop
| 21>     Dipole false
| 22> end
| 23> *xyz 1 1
| 24>  C        0.9024405433     0.0589390457    -0.0244252978
| 25>  C        2.4140480069     0.1132999419     0.0591012390
| 26>  C        3.0544767384    -0.9965764698     0.9355690404
| 27>  N        3.8343113251    -0.1406247987     1.8921382155
| 28>  C        4.4617387668     0.8961979188     0.9832583989
| 29>  C        2.9992852770     1.3336461354     0.7931121881
| 30>  C        2.8385876707     0.9346879791     2.2705601769
| 31>  H        0.5226364061     0.8795846574    -0.6353823552
| 32>  H        0.4262470529     0.1208236850     0.9572456846
| 33>  H        0.5747038647    -0.8729477639    -0.4895881592
| 34>  H        2.8306147800     0.0704724249    -0.9500104043
| 35>  H        3.7401418598    -1.6583379865     0.4085910325
| 36>  H        2.3313336347    -1.5863483065     1.4987109938
| 37>  H        4.3831376687    -0.6250767499     2.6008840542
| 38>  H        5.0739716697     1.5787679462     1.5699117713
| 39>  H        5.0117581214     0.4685176458     0.1460986092
| 40>  H        2.7397929711     2.3248531879     0.4370849652
| 41>  H        1.8907898476     0.5466307625     2.6377039996
| 42>  H        3.2956037951     1.6245207446     2.9777658472
| 43> *
| 44>
| 45>                          ****END OF INPUT****
 Total Charge           Charge          ....    1
 Multiplicity           Mult            ....    1
 Number of Electrons    NEL             ....   54
FINAL SINGLE POINT ENERGY      -290.094171259001
FINAL SINGLE POINT ENERGY      -290.094172423661

CARTESIAN COORDINATES (ANGSTROEM)
---------------------------------
  C      1.149547   -0.000719   -1.965775
  C      0.216992    0.552566   -0.907711
  C      0.887461    0.830148    0.464809
  N     -0.000071    0.000491    1.348456
  C     -1.387894    0.324273    0.834292
  C     -0.883844   -0.407776   -0.421057
  C     -0.123022   -1.296951    0.578062
  H      0.606421   -0.192363   -2.892538
  H      1.625979   -0.934050   -1.655343
  H      1.942683    0.713953   -2.193146
  H     -0.247209    1.468173   -1.281148
  H      0.848432    1.867646    0.792805
  H      1.908396    0.457100    0.540102
  H      0.209447    0.004916    2.345580
  H     -2.131726   -0.217390    1.415664
  H     -1.600640    1.391475    0.789776
  H     -1.566737   -0.825135   -1.153212
  H      0.833748   -1.738509    0.306581
  H     -0.749078   -1.994742    1.130908

FINAL SINGLE POINT ENERGY      -290.094172853331
                    ***********************HURRAY********************
 Multiplicity           Mult            ....    1
 Number of Electrons    NEL             ....   54
 Basis Dimension        Dim             ....  289
FINAL SINGLE POINT ENERGY      -290.094172925185

VIBRATIONAL FREQUENCIES
-----------------------

   0:         0.00 cm**-1
   1:         0.00 cm**-1
   2:         0.00 cm**-1
   3:         0.00 cm**-1
   4:         0.00 cm**-1
   5:         0.00 cm**-1
   6:       205.18 cm**-1
   7:       221.85 cm**-1
   8:       292.64 cm**-1
   9:       427.05 cm**-1
  10:       483.15 cm**-1
  11:       533.01 cm**-1
  12:       641.81 cm**-1
  13:       808.59 cm**-1
  14:       841.34 cm**-1
  15:       850.49 cm**-1
  16:       857.95 cm**-1
  17:       873.85 cm**-1
  18:       940.16 cm**-1
  19:       942.36 cm**-1
  20:       965.08 cm**-1
  21:       992.87 cm**-1
  22:      1044.80 cm**-1
  23:      1065.35 cm**-1
  24:      1077.37 cm**-1
  25:      1096.18 cm**-1
  26:      1132.49 cm**-1
  27:      1163.74 cm**-1
  28:      1176.89 cm**-1
  29:      1193.34 cm**-1
  30:      1238.18 cm**-1
  31:      1256.59 cm**-1
  32:      1263.79 cm**-1
  33:      1288.45 cm**-1
  34:      1312.55 cm**-1
  35:      1328.82 cm**-1
  36:      1350.32 cm**-1
  37:      1374.21 cm**-1
  38:      1399.05 cm**-1
  39:      1423.15 cm**-1
  40:      1484.95 cm**-1
  41:      1488.07 cm**-1
  42:      1499.08 cm**-1
  43:      1500.45 cm**-1
  44:      1535.09 cm**-1
  45:      3059.44 cm**-1
  46:      3091.96 cm**-1
  47:      3111.50 cm**-1
  48:      3114.02 cm**-1
  49:      3121.73 cm**-1
  50:      3135.11 cm**-1
  51:      3145.64 cm**-1
  52:      3176.43 cm**-1
  53:      3193.05 cm**-1
  54:      3197.92 cm**-1
  55:      3202.75 cm**-1
  56:      3504.46 cm**-1

IR SPECTRUM
-----------

 Mode    freq (cm**-1)   T**2         TX         TY         TZ
-------------------------------------------------------------------
   6:       205.18    0.429611  ( -0.359559   0.224609   0.499879)
   7:       221.85    0.056282  (  0.224443   0.049292  -0.058972)
   8:       292.64    0.142240  (  0.363723   0.084624  -0.052764)
   9:       427.05    0.172925  (  0.310162  -0.155104  -0.229495)
  10:       483.15    0.038024  ( -0.139093  -0.046409  -0.128541)
  11:       533.01    0.310369  (  0.393194   0.363243  -0.154344)
  12:       641.81    0.816525  (  0.418259  -0.288604   0.747189)
  13:       808.59    0.294608  ( -0.294705   0.344529  -0.298425)
  14:       841.34    4.320836  (  1.214103  -1.525124  -0.721657)
  15:       850.49    3.333264  (  1.038012   1.475933   0.278237)
  16:       857.95    5.483266  (  0.019722   0.437675  -2.300286)
  17:       873.85    1.707630  (  0.858218  -0.765948   0.620013)
  18:       940.16    5.793735  (  1.824385   1.302878   0.876278)
  19:       942.36    0.715763  ( -0.413369  -0.505036   0.538356)
  20:       965.08    0.847739  (  0.698111   0.572157  -0.181706)
  21:       992.87    0.591380  (  0.159584   0.752140  -0.014080)
  22:      1044.80    0.489890  ( -0.673109  -0.123887   0.146514)
  23:      1065.35    0.957574  ( -0.102377   0.820284  -0.523667)
  24:      1077.37    5.117629  ( -1.817524  -1.291722   0.381696)
  25:      1096.18    3.585655  ( -1.809425   0.464765   0.309242)
  26:      1132.49    0.307709  (  0.284843   0.076826  -0.469756)
  27:      1163.74    2.191721  ( -1.253370   0.681908  -0.394699)
  28:      1176.89    2.629529  (  0.417144  -1.519520  -0.382857)
  29:      1193.34    3.268969  (  1.311423  -1.238118  -0.127288)
  30:      1238.18   12.906306  (  2.062881  -2.925543  -0.303357)
  31:      1256.59    2.954056  (  1.064165  -1.279648  -0.429079)
  32:      1263.79    9.336129  (  2.115522   1.696363  -1.408208)
  33:      1288.45    3.406715  ( -1.156055  -0.973219   1.059763)
  34:      1312.55    5.507661  ( -0.586139  -2.254224  -0.287362)
  35:      1328.82   29.013946  ( -3.782454   3.758102   0.763974)
  36:      1350.32   10.270935  (  1.886586   0.505103   2.540984)
  37:      1374.21   13.965901  (  2.524631   2.739096   0.299154)
  38:      1399.05   11.376328  (  1.839329   1.389212  -2.462375)
  39:      1423.15    4.937412  (  1.351631  -1.326991  -1.161724)
  40:      1484.95   11.528470  ( -2.768363  -1.834121  -0.707558)
  41:      1488.07    3.772729  ( -0.374149   1.264002   1.426549)
  42:      1499.08   17.279732  (  2.957254  -2.761459   0.953268)
  43:      1500.45   10.357591  ( -0.497661  -3.137689   0.514619)
  44:      1535.09   10.661083  ( -0.503862   0.686077  -3.152222)
  45:      3059.44    4.765938  (  1.429172  -1.493536  -0.701966)
  46:      3091.96    2.796210  (  1.096755  -1.256454   0.121088)
  47:      3111.50    1.828275  (  1.210750   0.402510   0.447598)
  48:      3114.02    2.715813  (  0.935234  -1.188782  -0.654177)
  49:      3121.73    0.546401  ( -0.412333   0.581125  -0.196661)
  50:      3135.11   11.512815  ( -0.529194   2.837735  -1.783264)
  51:      3145.64    3.945418  ( -1.510125  -0.386723  -1.231010)
  52:      3176.43    0.198115  ( -0.224275   0.346726   0.166123)
  53:      3193.05    0.982518  (  0.359224  -0.910335   0.157370)
  54:      3197.92    0.779679  (  0.706701  -0.430460  -0.308150)
  55:      3202.75    0.037379  (  0.009612   0.147164  -0.125016)
  56:      3504.46   65.502193  (  1.588091   0.085615   7.935542)

--------------------------
THERMOCHEMISTRY AT 298.15K
--------------------------

Temperature         ... 298.15 K
Pressure            ... 1.00 atm
Total Mass          ... 98.17 AMU

Throughout the following assumptions are being made:
  (1) The electronic state is orbitally nondegenerate
  (2) There are no thermally accessible electronically excited states
  (3) Hindered rotations indicated by low frequency modes) are not
      treated as such but are treated as vibrations and this may
      case some error
  (4) All equations used are the standard statistical mechanics
      equations for an ideal gas
  (5) All vibrations are strinctly harmonic

------------
INNER ENERGY
------------

The inner energy is: U= E(el) + E(ZPE) + E(vib) + E(rot) + E(trans)
    E(el)   - is the total energy from the electronic structure calculation
              = E(kin-el) + E(nuc-el) + E(el-el) + E(nuc-nuc)
    E(ZPE)  - the the zero temperature vibrational energy from the frequency calculation
    E(vib)  - the the finite temperature correction to E(ZPE) due to population
              of excietd vibrational states
    E(rot)  - is the rotational thermal energy
    E(trans)- is the translational thermal energy

Summary of contributions to the inner energy U:
Electronic energy                ...   -290.09417293 Eh
Zero point energy                ...      0.17911937 Eh     112.40 kcal/mol
Thermal vibrational correction   ...      0.00319112 Eh       2.00 kcal/mol
Thermal rotational correction    ...      0.00141627 Eh       0.89 kcal/mol
Thermal translational correction ...      0.00141627 Eh       0.89 kcal/mol
-----------------------------------------------------------------------
Total thermal energy                   -289.90902989 Eh

Summary of corrections to the electronic energy:
(perhaps to be used in another calculation)
Total thermal correction                  0.00602366 Eh       3.78 kcal/mol
Non-thermal (ZPE) correction              0.17911937 Eh     112.40 kcal/mol
-----------------------------------------------------------------------
Total correction                          0.18514303 Eh     116.18 kcal/mol

--------
ENTHALPY
--------

The enthalpy is H = U + kB*T
                kB is Boltzmann's constant
Total free energy                 ...   -289.90902989 Eh
Thermal Enthalpy correction       ...      0.00094421 Eh       0.59 kcal/mol
-----------------------------------------------------------------------
Total Enthalpy                    ...   -289.90808569 Eh

-------
ENTROPY
-------

The entropy contributions are T*S = T*(S(el)+S(vib)+S(rot)+S(trans)
     S(el)   - electronic entropy
     S(vib)  - vibrational entropy
     S(rot)  - rotational entropy
     S(trans)- translational entropy
The entropies will be listed as mutliplied by the temperature to get
units of energy

Electronic entropy                ...      0.00000000 Eh      0.00 kcal/mol
Vibrational entropy               ...      0.00480632 Eh      3.02 kcal/mol
Rotational entropy                ...      0.01171601 Eh      7.35 kcal/mol
Translational entropy             ...      0.01884507 Eh     11.83 kcal/mol
-----------------------------------------------------------------------
Final entropy term                ...      0.03536740 Eh     22.19 kcal/mol

CAUTION: The rotational entropy is not quite correctly treated here
         because it includes a symmetry number that is not yet correctly
         implemented in ORCA!
For a nonlinear molecule the correct rotational entropy is:
    S(rot) = R*(ln(qrot/sn)+1.5)
    R    = 8.31441 J/mol/K = 1.987191683e-3 kcal/mol/K
    qrot = 163941.4170817
    sn is the rotational symmetry number. We have assumed 3 here
       if it is different for your molecule then you should correct
       the printed rotational entropy by manually evaluating the equation
       as given above

For convenience we print out the resulting values for sn=1 - 12:
 sn= 1  qrot/sn=  163941.4171 T*S(rot)=     8.00 kcal/mol T*S(tot)=    22.84 kcal/mol
 sn= 2  qrot/sn=   81970.7085 T*S(rot)=     7.59 kcal/mol T*S(tot)=    22.43 kcal/mol
 sn= 3  qrot/sn=   54647.1390 T*S(rot)=     7.35 kcal/mol T*S(tot)=    22.19 kcal/mol
 sn= 4  qrot/sn=   40985.3543 T*S(rot)=     7.18 kcal/mol T*S(tot)=    22.02 kcal/mol
 sn= 5  qrot/sn=   32788.2834 T*S(rot)=     7.05 kcal/mol T*S(tot)=    21.89 kcal/mol
 sn= 6  qrot/sn=   27323.5695 T*S(rot)=     6.94 kcal/mol T*S(tot)=    21.78 kcal/mol
 sn= 7  qrot/sn=   23420.2024 T*S(rot)=     6.85 kcal/mol T*S(tot)=    21.69 kcal/mol
 sn= 8  qrot/sn=   20492.6771 T*S(rot)=     6.77 kcal/mol T*S(tot)=    21.61 kcal/mol
 sn= 9  qrot/sn=   18215.7130 T*S(rot)=     6.70 kcal/mol T*S(tot)=    21.54 kcal/mol
 sn=10  qrot/sn=   16394.1417 T*S(rot)=     6.64 kcal/mol T*S(tot)=    21.48 kcal/mol
 sn=11  qrot/sn=   14903.7652 T*S(rot)=     6.58 kcal/mol T*S(tot)=    21.42 kcal/mol
 sn=12  qrot/sn=   13661.7848 T*S(rot)=     6.53 kcal/mol T*S(tot)=    21.37 kcal/mol

-------------------
GIBBS FREE ENTHALPY
-------------------

The Gibbs free enthalpy is G = H - T*S

Total enthalpy                    ...   -289.90808569 Eh
Total entropy correction          ...     -0.03536740 Eh    -22.19 kcal/mol
-----------------------------------------------------------------------
Final Gibbs free enthalpy         ...   -289.94345309 Eh

For completeness - the Gibbs free enthalpy minus the electronic energy
G-E(el)                           ...      0.15071984 Eh     94.58 kcal/mol

                             ****ORCA TERMINATED NORMALLY****
TOTAL RUN TIME: 0 days 1 hours 5 minutes 52 seconds 668 msec
