                         Program Version 3.0.3 - RELEASE   -
|  1> ! NORI PBE0 def2-TZVP UseSym TightOPT Freq TightSCF Grid3 FinalGrid5 XYZFile
|  2> % pal
|  3>     nprocs 8
|  4> end
|  5> %method
|  6>     SymThresh 5.0e-2
|  7> end
|  8> % geom
|  9>     MaxIter 10
| 10> end
| 11> % maxcore 2000
| 12> % output
| 13>     printlevel mini
| 14>     print[ P_Basis ] 0
| 15>     print[ P_SCFInfo ] 1
| 16>     print[ P_SCFIterInfo ] 1
| 17>     print[ P_OrbEn ] 0
| 18>     print[ P_Cartesian ] 0
| 19> end
| 20> % elprop
| 21>     Dipole false
| 22> end
| 23> *xyz 1 1
| 24>  C        1.0006952005    -0.0782479342     0.0662529320
| 25>  C        2.3187922944    -0.0363467741     0.0607097327
| 26>  C        3.2996407599    -1.1954005564     0.0959331952
| 27>  N        4.5686237637    -0.3892997849     0.0660279676
| 28>  C        4.2918785333     0.6482766429    -1.0058112150
| 29>  C        3.2488105148     1.1468057825     0.0197911623
| 30>  C        4.2973308718     0.7153820652     1.0699385002
| 31>  H        0.4111796491     0.8301804187     0.0384497928
| 32>  H        0.4606736842    -1.0176231086     0.0988447745
| 33>  H        3.2710162100    -1.7901735203     1.0094257679
| 34>  H        3.2662031887    -1.8494494802    -0.7761374950
| 35>  H        5.4425948007    -0.9123495605     0.0804346579
| 36>  H        5.1598520489     1.2946667409    -1.1224122486
| 37>  H        3.9584513916     0.2262218116    -1.9518900013
| 38>  H        2.8361255137     2.1483883752    -0.0115597091
| 39>  H        3.9688561997     0.3555292201     2.0431441589
| 40>  H        5.1660653748     1.3675996622     1.1403380270
| 41> *
| 42>
| 43>                          ****END OF INPUT****
 Total Charge           Charge          ....    1
 Multiplicity           Mult            ....    1
 Number of Electrons    NEL             ....   52
FINAL SINGLE POINT ENERGY      -288.858325055658

CARTESIAN COORDINATES (ANGSTROEM)
---------------------------------
  C     -2.098968    1.019421    0.000000
  C     -0.888020    0.496945    0.000000
  C      0.450087    1.215956    0.000000
  N      1.334909   -0.000170   -0.000000
  C      0.686849   -0.896427    1.038459
  C     -0.456758   -0.945546   -0.000000
  C      0.686849   -0.896427   -1.038459
  H     -2.980648    0.390205    0.000000
  H     -2.256714    2.091656    0.000000
  H      0.650515    1.808419   -0.893186
  H      0.650515    1.808419    0.893186
  H      2.339781    0.166019    0.000000
  H      1.256022   -1.819517    1.132096
  H      0.522628   -0.410909    1.998636
  H     -1.208058   -1.726632   -0.000000
  H      0.522628   -0.410909   -1.998636
  H      1.256022   -1.819517   -1.132096

FINAL SINGLE POINT ENERGY      -288.858325442423
                    ***********************HURRAY********************
 Multiplicity           Mult            ....    1
 Number of Electrons    NEL             ....   52
 Basis Dimension        Dim             ....  277
FINAL SINGLE POINT ENERGY      -288.858325521641

VIBRATIONAL FREQUENCIES
-----------------------

   0:         0.00 cm**-1
   1:         0.00 cm**-1
   2:         0.00 cm**-1
   3:         0.00 cm**-1
   4:         0.00 cm**-1
   5:         0.00 cm**-1
   6:       159.05 cm**-1
   7:       346.35 cm**-1
   8:       410.27 cm**-1
   9:       517.83 cm**-1
  10:       566.19 cm**-1
  11:       607.62 cm**-1
  12:       730.95 cm**-1
  13:       806.24 cm**-1
  14:       842.96 cm**-1
  15:       860.22 cm**-1
  16:       860.93 cm**-1
  17:       866.84 cm**-1
  18:       938.55 cm**-1
  19:       966.72 cm**-1
  20:       977.72 cm**-1
  21:      1013.69 cm**-1
  22:      1021.15 cm**-1
  23:      1040.75 cm**-1
  24:      1082.02 cm**-1
  25:      1105.29 cm**-1
  26:      1148.85 cm**-1
  27:      1163.99 cm**-1
  28:      1228.40 cm**-1
  29:      1242.98 cm**-1
  30:      1245.69 cm**-1
  31:      1270.36 cm**-1
  32:      1276.09 cm**-1
  33:      1319.25 cm**-1
  34:      1342.11 cm**-1
  35:      1378.15 cm**-1
  36:      1457.45 cm**-1
  37:      1488.77 cm**-1
  38:      1490.02 cm**-1
  39:      1531.57 cm**-1
  40:      1783.01 cm**-1
  41:      3101.21 cm**-1
  42:      3115.78 cm**-1
  43:      3119.42 cm**-1
  44:      3161.52 cm**-1
  45:      3172.13 cm**-1
  46:      3197.51 cm**-1
  47:      3200.01 cm**-1
  48:      3214.60 cm**-1
  49:      3261.93 cm**-1
  50:      3510.54 cm**-1

IR SPECTRUM
-----------

 Mode    freq (cm**-1)   T**2         TX         TY         TZ
-------------------------------------------------------------------
   6:       159.05    1.713035  ( -0.000000  -0.000000   1.308830)
   7:       346.35    0.081589  (  0.184750   0.217845  -0.000001)
   8:       410.27    1.637539  ( -0.000000  -0.000000   1.279664)
   9:       517.83    0.029941  (  0.053897  -0.164427   0.000009)
  10:       566.19    8.926481  ( -0.000003  -0.000003  -2.987722)
  11:       607.62    1.145461  (  1.030331   0.289620  -0.000011)
  12:       730.95    0.075774  (  0.000000   0.000000   0.275271)
  13:       806.24    2.397574  (  1.420451  -0.616355   0.000005)
  14:       842.96    4.719303  ( -0.000011  -0.000003   2.172396)
  15:       860.22    5.329052  (  0.873509  -2.136828  -0.000425)
  16:       860.93    2.484814  (  0.000205  -0.000602   1.576329)
  17:       866.84    4.996881  ( -1.997617  -1.003198  -0.000031)
  18:       938.55    4.157758  (  0.419891   1.995357  -0.000001)
  19:       966.72    1.574455  (  0.391868   1.192013  -0.000005)
  20:       977.72   36.295156  (  0.000002   0.000003   6.024546)
  21:      1013.69    0.122513  (  0.000001  -0.000001   0.350018)
  22:      1021.15    4.982139  ( -0.000004  -0.000001   2.232071)
  23:      1040.75    0.109850  ( -0.118791   0.309417  -0.000004)
  24:      1082.02    7.274808  ( -1.043115   2.487311  -0.000005)
  25:      1105.29    3.143042  (  0.000001   0.000010   1.772863)
  26:      1148.85    3.304590  ( -0.000001   0.000001  -1.817853)
  27:      1163.99    0.712118  (  0.104625  -0.837360  -0.000008)
  28:      1228.40    8.044106  (  0.000006   0.000007   2.836213)
  29:      1242.98    1.072890  ( -0.937024   0.441449  -0.000033)
  30:      1245.69    9.192614  (  0.000016   0.000006  -3.031932)
  31:      1270.36   11.334250  ( -1.404140   3.059843   0.000017)
  32:      1276.09    0.696985  (  0.701202  -0.453102  -0.000008)
  33:      1319.25   32.556635  ( -0.000007   0.000010  -5.705842)
  34:      1342.11    7.078454  (  1.745904   2.007554  -0.000007)
  35:      1378.15   24.882371  (  0.973341  -4.892339  -0.000005)
  36:      1457.45    7.595086  (  2.613074  -0.875746   0.000001)
  37:      1488.77    9.495830  (  0.624807   3.017523   0.000000)
  38:      1490.02   13.283674  (  0.000000   0.000000  -3.644678)
  39:      1531.57    7.289716  (  2.699788  -0.029329   0.000000)
  40:      1783.01    6.741085  (  2.476244  -0.780577   0.000000)
  41:      3101.21    0.596397  (  0.635163   0.439277  -0.000000)
  42:      3115.78    1.739927  (  0.000000  -0.000000  -1.319063)
  43:      3119.42    0.413974  (  0.543797  -0.343888   0.000001)
  44:      3161.52    0.235718  (  0.000000  -0.000000   0.485508)
  45:      3172.13    1.111445  ( -1.016045   0.281244  -0.000000)
  46:      3197.51    0.474595  (  0.000000  -0.000000  -0.688909)
  47:      3200.01    0.001725  (  0.020902  -0.035887   0.000001)
  48:      3214.60    0.416479  ( -0.477254  -0.434404  -0.000000)
  49:      3261.93    0.165620  ( -0.244022  -0.325688  -0.000000)
  50:      3510.54   75.670553  (  8.616443   1.194765  -0.000000)

--------------------------
THERMOCHEMISTRY AT 298.15K
--------------------------

Temperature         ... 298.15 K
Pressure            ... 1.00 atm
Total Mass          ... 96.15 AMU

Throughout the following assumptions are being made:
  (1) The electronic state is orbitally nondegenerate
  (2) There are no thermally accessible electronically excited states
  (3) Hindered rotations indicated by low frequency modes) are not
      treated as such but are treated as vibrations and this may
      case some error
  (4) All equations used are the standard statistical mechanics
      equations for an ideal gas
  (5) All vibrations are strinctly harmonic

------------
INNER ENERGY
------------

The inner energy is: U= E(el) + E(ZPE) + E(vib) + E(rot) + E(trans)
    E(el)   - is the total energy from the electronic structure calculation
              = E(kin-el) + E(nuc-el) + E(el-el) + E(nuc-nuc)
    E(ZPE)  - the the zero temperature vibrational energy from the frequency calculation
    E(vib)  - the the finite temperature correction to E(ZPE) due to population
              of excietd vibrational states
    E(rot)  - is the rotational thermal energy
    E(trans)- is the translational thermal energy

Summary of contributions to the inner energy U:
Electronic energy                ...   -288.85832552 Eh
Zero point energy                ...      0.15524044 Eh      97.41 kcal/mol
Thermal vibrational correction   ...      0.00270805 Eh       1.70 kcal/mol
Thermal rotational correction    ...      0.00141627 Eh       0.89 kcal/mol
Thermal translational correction ...      0.00141627 Eh       0.89 kcal/mol
-----------------------------------------------------------------------
Total thermal energy                   -288.69754449 Eh

Summary of corrections to the electronic energy:
(perhaps to be used in another calculation)
Total thermal correction                  0.00554059 Eh       3.48 kcal/mol
Non-thermal (ZPE) correction              0.15524044 Eh      97.41 kcal/mol
-----------------------------------------------------------------------
Total correction                          0.16078103 Eh     100.89 kcal/mol

--------
ENTHALPY
--------

The enthalpy is H = U + kB*T
                kB is Boltzmann's constant
Total free energy                 ...   -288.69754449 Eh
Thermal Enthalpy correction       ...      0.00094421 Eh       0.59 kcal/mol
-----------------------------------------------------------------------
Total Enthalpy                    ...   -288.69660028 Eh

-------
ENTROPY
-------

The entropy contributions are T*S = T*(S(el)+S(vib)+S(rot)+S(trans)
     S(el)   - electronic entropy
     S(vib)  - vibrational entropy
     S(rot)  - rotational entropy
     S(trans)- translational entropy
The entropies will be listed as mutliplied by the temperature to get
units of energy

Electronic entropy                ...      0.00000000 Eh      0.00 kcal/mol
Vibrational entropy               ...      0.00402186 Eh      2.52 kcal/mol
Rotational entropy                ...      0.01165461 Eh      7.31 kcal/mol
Translational entropy             ...      0.01881568 Eh     11.81 kcal/mol
-----------------------------------------------------------------------
Final entropy term                ...      0.03449216 Eh     21.64 kcal/mol

CAUTION: The rotational entropy is not quite correctly treated here
         because it includes a symmetry number that is not yet correctly
         implemented in ORCA!
For a nonlinear molecule the correct rotational entropy is:
    S(rot) = R*(ln(qrot/sn)+1.5)
    R    = 8.31441 J/mol/K = 1.987191683e-3 kcal/mol/K
    qrot = 153619.2738573
    sn is the rotational symmetry number. We have assumed 3 here
       if it is different for your molecule then you should correct
       the printed rotational entropy by manually evaluating the equation
       as given above

For convenience we print out the resulting values for sn=1 - 12:
 sn= 1  qrot/sn=  153619.2739 T*S(rot)=     7.96 kcal/mol T*S(tot)=    22.30 kcal/mol
 sn= 2  qrot/sn=   76809.6369 T*S(rot)=     7.55 kcal/mol T*S(tot)=    21.88 kcal/mol
 sn= 3  qrot/sn=   51206.4246 T*S(rot)=     7.31 kcal/mol T*S(tot)=    21.64 kcal/mol
 sn= 4  qrot/sn=   38404.8185 T*S(rot)=     7.14 kcal/mol T*S(tot)=    21.47 kcal/mol
 sn= 5  qrot/sn=   30723.8548 T*S(rot)=     7.01 kcal/mol T*S(tot)=    21.34 kcal/mol
 sn= 6  qrot/sn=   25603.2123 T*S(rot)=     6.90 kcal/mol T*S(tot)=    21.23 kcal/mol
 sn= 7  qrot/sn=   21945.6106 T*S(rot)=     6.81 kcal/mol T*S(tot)=    21.14 kcal/mol
 sn= 8  qrot/sn=   19202.4092 T*S(rot)=     6.73 kcal/mol T*S(tot)=    21.06 kcal/mol
 sn= 9  qrot/sn=   17068.8082 T*S(rot)=     6.66 kcal/mol T*S(tot)=    20.99 kcal/mol
 sn=10  qrot/sn=   15361.9274 T*S(rot)=     6.60 kcal/mol T*S(tot)=    20.93 kcal/mol
 sn=11  qrot/sn=   13965.3885 T*S(rot)=     6.54 kcal/mol T*S(tot)=    20.87 kcal/mol
 sn=12  qrot/sn=   12801.6062 T*S(rot)=     6.49 kcal/mol T*S(tot)=    20.82 kcal/mol

-------------------
GIBBS FREE ENTHALPY
-------------------

The Gibbs free enthalpy is G = H - T*S

Total enthalpy                    ...   -288.69660028 Eh
Total entropy correction          ...     -0.03449216 Eh    -21.64 kcal/mol
-----------------------------------------------------------------------
Final Gibbs free enthalpy         ...   -288.73109244 Eh

For completeness - the Gibbs free enthalpy minus the electronic energy
G-E(el)                           ...      0.12723308 Eh     79.84 kcal/mol

                             ****ORCA TERMINATED NORMALLY****
TOTAL RUN TIME: 0 days 0 hours 50 minutes 42 seconds 381 msec
