                         Program Version 3.0.3 - RELEASE   -
|  1> ! NORI PBE0 def2-TZVP UseSym TightOPT Freq TightSCF Grid3 FinalGrid5 XYZFile
|  2> % pal
|  3>     nprocs 8
|  4> end
|  5> %method
|  6>     SymThresh 5.0e-2
|  7> end
|  8> % geom
|  9>     MaxIter 10
| 10> end
| 11> % maxcore 2000
| 12> % output
| 13>     printlevel mini
| 14>     print[ P_Basis ] 0
| 15>     print[ P_SCFInfo ] 1
| 16>     print[ P_SCFIterInfo ] 1
| 17>     print[ P_OrbEn ] 0
| 18>     print[ P_Cartesian ] 0
| 19> end
| 20> % elprop
| 21>     Dipole false
| 22> end
| 23> *xyz 1 1
| 24>  C        0.8023465149    -0.1816105742     0.2653262410
| 25>  C        2.2993717949    -0.0401346518     0.0845393073
| 26>  C        3.0123448430     1.0090983230     0.9619116087
| 27>  N        4.1312759701     0.0200514114     1.2008274961
| 28>  C        3.1827529319    -1.0906525363     0.8077193663
| 29>  C        2.6819099827     0.0274526881    -1.3685085401
| 30>  C        3.2381497829     1.0456695612    -2.0080701472
| 31>  H        0.4316294209    -1.0539503331    -0.2771034257
| 32>  H        0.2877143372     0.6942308103    -0.1340186450
| 33>  H        0.5328022261    -0.2942746158     1.3181398222
| 34>  H        2.5026806928     1.1829322591     1.9083375211
| 35>  H        3.3513319789     1.9491885492     0.5351675406
| 36>  H        4.8735010416     0.1318902399     0.5098296658
| 37>  H        4.5450328836    -0.0157692393     2.1309990096
| 38>  H        3.6586092254    -1.8785413404     0.2266397934
| 39>  H        2.7284620952    -1.4914965241     1.7132065231
| 40>  H        2.4386139396    -0.8757227793    -1.9256399219
| 41>  H        3.4793815087     1.9916693706    -1.5343349196
| 42>  H        3.4526688296     0.9809193816    -3.0677682958
| 43> *
| 44>
| 45>                          ****END OF INPUT****
 Total Charge           Charge          ....    1
 Multiplicity           Mult            ....    1
 Number of Electrons    NEL             ....   54
FINAL SINGLE POINT ENERGY      -290.077549289813

CARTESIAN COORDINATES (ANGSTROEM)
---------------------------------
  C      1.516938   -0.000032   -1.326804
  C      0.385606    0.077994   -0.322808
  C      0.314136   -1.041335    0.735800
  N      0.000232    0.000082    1.786967
  C      0.589699    1.048579    0.870076
  C     -0.932605    0.365253   -0.987874
  C     -1.997399   -0.421537   -1.038083
  H      1.569067    0.917013   -1.917366
  H      1.351964   -0.826538   -2.020359
  H      2.481781   -0.144897   -0.835019
  H      1.289535   -1.470489    0.960918
  H     -0.437312   -1.823032    0.664732
  H     -1.007051    0.125487    1.889570
  H      0.417435   -0.112867    2.709387
  H      0.047645    1.992058    0.889343
  H      1.635747    1.192152    1.139501
  H     -0.966047    1.330390   -1.490291
  H     -2.033020   -1.411351   -0.594337
  H     -2.889960   -0.109301   -1.566295

FINAL SINGLE POINT ENERGY      -290.077549933123
                    ***********************HURRAY********************
 Multiplicity           Mult            ....    1
 Number of Electrons    NEL             ....   54
 Basis Dimension        Dim             ....  289
FINAL SINGLE POINT ENERGY      -290.077550153142

VIBRATIONAL FREQUENCIES
-----------------------

   0:         0.00 cm**-1
   1:         0.00 cm**-1
   2:         0.00 cm**-1
   3:         0.00 cm**-1
   4:         0.00 cm**-1
   5:         0.00 cm**-1
   6:        80.51 cm**-1
   7:       144.39 cm**-1
   8:       221.38 cm**-1
   9:       290.20 cm**-1
  10:       306.59 cm**-1
  11:       324.68 cm**-1
  12:       385.37 cm**-1
  13:       516.33 cm**-1
  14:       605.67 cm**-1
  15:       705.17 cm**-1
  16:       728.24 cm**-1
  17:       838.12 cm**-1
  18:       880.30 cm**-1
  19:       904.90 cm**-1
  20:       915.72 cm**-1
  21:       937.03 cm**-1
  22:       978.80 cm**-1
  23:       988.72 cm**-1
  24:      1004.47 cm**-1
  25:      1039.92 cm**-1
  26:      1043.27 cm**-1
  27:      1090.33 cm**-1
  28:      1172.79 cm**-1
  29:      1225.45 cm**-1
  30:      1236.63 cm**-1
  31:      1261.06 cm**-1
  32:      1316.91 cm**-1
  33:      1322.43 cm**-1
  34:      1326.09 cm**-1
  35:      1328.36 cm**-1
  36:      1363.25 cm**-1
  37:      1416.02 cm**-1
  38:      1452.93 cm**-1
  39:      1479.72 cm**-1
  40:      1482.44 cm**-1
  41:      1488.74 cm**-1
  42:      1506.52 cm**-1
  43:      1632.79 cm**-1
  44:      1721.70 cm**-1
  45:      3057.01 cm**-1
  46:      3111.15 cm**-1
  47:      3123.80 cm**-1
  48:      3136.70 cm**-1
  49:      3144.64 cm**-1
  50:      3155.16 cm**-1
  51:      3162.93 cm**-1
  52:      3188.09 cm**-1
  53:      3198.39 cm**-1
  54:      3250.27 cm**-1
  55:      3463.29 cm**-1
  56:      3536.16 cm**-1

IR SPECTRUM
-----------

 Mode    freq (cm**-1)   T**2         TX         TY         TZ
-------------------------------------------------------------------
   6:        80.51    2.198401  (  1.060702   0.034096   1.035447)
   7:       144.39    8.483450  (  1.941825  -0.162373   2.164810)
   8:       221.38    0.408595  ( -0.166913  -0.614344   0.057598)
   9:       290.20    0.199383  ( -0.156282   0.239356  -0.343027)
  10:       306.59    0.593496  (  0.414138  -0.009313   0.649538)
  11:       324.68    0.262781  ( -0.006952  -0.510702   0.043777)
  12:       385.37    1.059974  (  0.282343  -0.481660  -0.865021)
  13:       516.33    0.362913  ( -0.451696  -0.110687  -0.382926)
  14:       605.67    9.567819  (  0.654046   0.300139   3.008315)
  15:       705.17    9.617712  (  1.699051  -1.477096  -2.132868)
  16:       728.24    4.917574  ( -1.857288  -0.078782  -1.209069)
  17:       838.12    2.269397  ( -0.013459   1.430991   0.470618)
  18:       880.30    1.876466  (  1.048775  -0.154078   0.867638)
  19:       904.90    9.113012  (  0.906205  -0.282407   2.865668)
  20:       915.72    1.403768  (  0.060221   1.070752   0.503619)
  21:       937.03    1.099582  (  0.730067   0.267602  -0.703544)
  22:       978.80    2.324308  ( -1.237777  -0.666324   0.590108)
  23:       988.72   46.490690  (  3.149075  -2.545799  -5.485701)
  24:      1004.47    3.532248  ( -0.288671  -0.024680  -1.856962)
  25:      1039.92   13.451656  (  0.854187  -1.612741  -3.181366)
  26:      1043.27    2.137545  (  1.389907  -0.226215   0.393102)
  27:      1090.33    0.468751  ( -0.202682   0.088940  -0.647889)
  28:      1172.79    9.595817  ( -0.916968  -2.734769  -1.129612)
  29:      1225.45    1.468421  (  0.927023   0.402402  -0.668672)
  30:      1236.63   30.924829  (  0.340889   5.550105   0.070412)
  31:      1261.06    1.824184  ( -0.814314  -0.486739  -0.961333)
  32:      1316.91   10.632254  (  1.432484  -2.905702   0.370318)
  33:      1322.43    1.739342  (  1.250733  -0.367533   0.199822)
  34:      1326.09    4.752529  (  0.011659   2.131976   0.455051)
  35:      1328.36   26.439961  (  1.654164   4.841951   0.509127)
  36:      1363.25    5.576319  (  0.156664   0.601036   2.278274)
  37:      1416.02    7.399866  ( -2.054847   0.092638   1.780137)
  38:      1452.93    9.131738  (  2.792893   0.912508   0.706268)
  39:      1479.72   33.534162  (  1.371108   5.604358   0.495371)
  40:      1482.44    0.675336  (  0.654494   0.489894  -0.083537)
  41:      1488.74    3.265722  ( -0.835163   0.405739  -1.550355)
  42:      1506.52   14.167384  ( -1.949281   1.821668  -2.655035)
  43:      1632.79   79.367308  ( -3.762913   0.170951   8.073325)
  44:      1721.70    4.770176  (  1.749964   1.082108   0.732695)
  45:      3057.01    4.529098  ( -2.127299  -0.027138   0.054402)
  46:      3111.15    1.380469  (  0.744585   0.791474   0.446801)
  47:      3123.80    0.871333  ( -0.424084   0.733328  -0.392068)
  48:      3136.70    7.237521  (  2.047915  -0.763981   1.568406)
  49:      3144.64    2.052659  ( -0.754975  -1.128900  -0.456353)
  50:      3155.16    2.397247  (  0.172751  -1.251900   0.894511)
  51:      3162.93    3.222318  ( -0.832297   1.156374  -1.091971)
  52:      3188.09    0.248044  ( -0.245070   0.291408  -0.321040)
  53:      3198.39    0.775513  (  0.048084   0.877410  -0.057894)
  54:      3250.27    0.954879  (  0.277672   0.821208  -0.450994)
  55:      3463.29   57.662320  (  4.013541  -0.280427  -6.440122)
  56:      3536.16   87.513870  ( -7.400488   1.364049  -5.557520)

--------------------------
THERMOCHEMISTRY AT 298.15K
--------------------------

Temperature         ... 298.15 K
Pressure            ... 1.00 atm
Total Mass          ... 98.17 AMU

Throughout the following assumptions are being made:
  (1) The electronic state is orbitally nondegenerate
  (2) There are no thermally accessible electronically excited states
  (3) Hindered rotations indicated by low frequency modes) are not
      treated as such but are treated as vibrations and this may
      case some error
  (4) All equations used are the standard statistical mechanics
      equations for an ideal gas
  (5) All vibrations are strinctly harmonic

------------
INNER ENERGY
------------

The inner energy is: U= E(el) + E(ZPE) + E(vib) + E(rot) + E(trans)
    E(el)   - is the total energy from the electronic structure calculation
              = E(kin-el) + E(nuc-el) + E(el-el) + E(nuc-nuc)
    E(ZPE)  - the the zero temperature vibrational energy from the frequency calculation
    E(vib)  - the the finite temperature correction to E(ZPE) due to population
              of excietd vibrational states
    E(rot)  - is the rotational thermal energy
    E(trans)- is the translational thermal energy

Summary of contributions to the inner energy U:
Electronic energy                ...   -290.07755015 Eh
Zero point energy                ...      0.17585523 Eh     110.35 kcal/mol
Thermal vibrational correction   ...      0.00472348 Eh       2.96 kcal/mol
Thermal rotational correction    ...      0.00141627 Eh       0.89 kcal/mol
Thermal translational correction ...      0.00141627 Eh       0.89 kcal/mol
-----------------------------------------------------------------------
Total thermal energy                   -289.89413890 Eh

Summary of corrections to the electronic energy:
(perhaps to be used in another calculation)
Total thermal correction                  0.00755603 Eh       4.74 kcal/mol
Non-thermal (ZPE) correction              0.17585523 Eh     110.35 kcal/mol
-----------------------------------------------------------------------
Total correction                          0.18341126 Eh     115.09 kcal/mol

--------
ENTHALPY
--------

The enthalpy is H = U + kB*T
                kB is Boltzmann's constant
Total free energy                 ...   -289.89413890 Eh
Thermal Enthalpy correction       ...      0.00094421 Eh       0.59 kcal/mol
-----------------------------------------------------------------------
Total Enthalpy                    ...   -289.89319469 Eh

-------
ENTROPY
-------

The entropy contributions are T*S = T*(S(el)+S(vib)+S(rot)+S(trans)
     S(el)   - electronic entropy
     S(vib)  - vibrational entropy
     S(rot)  - rotational entropy
     S(trans)- translational entropy
The entropies will be listed as mutliplied by the temperature to get
units of energy

Electronic entropy                ...      0.00000000 Eh      0.00 kcal/mol
Vibrational entropy               ...      0.00805721 Eh      5.06 kcal/mol
Rotational entropy                ...      0.01196600 Eh      7.51 kcal/mol
Translational entropy             ...      0.01884507 Eh     11.83 kcal/mol
-----------------------------------------------------------------------
Final entropy term                ...      0.03886828 Eh     24.39 kcal/mol

CAUTION: The rotational entropy is not quite correctly treated here
         because it includes a symmetry number that is not yet correctly
         implemented in ORCA!
For a nonlinear molecule the correct rotational entropy is:
    S(rot) = R*(ln(qrot/sn)+1.5)
    R    = 8.31441 J/mol/K = 1.987191683e-3 kcal/mol/K
    qrot = 213636.2164833
    sn is the rotational symmetry number. We have assumed 3 here
       if it is different for your molecule then you should correct
       the printed rotational entropy by manually evaluating the equation
       as given above

For convenience we print out the resulting values for sn=1 - 12:
 sn= 1  qrot/sn=  213636.2165 T*S(rot)=     8.16 kcal/mol T*S(tot)=    25.04 kcal/mol
 sn= 2  qrot/sn=  106818.1082 T*S(rot)=     7.75 kcal/mol T*S(tot)=    24.63 kcal/mol
 sn= 3  qrot/sn=   71212.0722 T*S(rot)=     7.51 kcal/mol T*S(tot)=    24.39 kcal/mol
 sn= 4  qrot/sn=   53409.0541 T*S(rot)=     7.34 kcal/mol T*S(tot)=    24.22 kcal/mol
 sn= 5  qrot/sn=   42727.2433 T*S(rot)=     7.21 kcal/mol T*S(tot)=    24.09 kcal/mol
 sn= 6  qrot/sn=   35606.0361 T*S(rot)=     7.10 kcal/mol T*S(tot)=    23.98 kcal/mol
 sn= 7  qrot/sn=   30519.4595 T*S(rot)=     7.01 kcal/mol T*S(tot)=    23.89 kcal/mol
 sn= 8  qrot/sn=   26704.5271 T*S(rot)=     6.93 kcal/mol T*S(tot)=    23.81 kcal/mol
 sn= 9  qrot/sn=   23737.3574 T*S(rot)=     6.86 kcal/mol T*S(tot)=    23.74 kcal/mol
 sn=10  qrot/sn=   21363.6216 T*S(rot)=     6.80 kcal/mol T*S(tot)=    23.68 kcal/mol
 sn=11  qrot/sn=   19421.4742 T*S(rot)=     6.74 kcal/mol T*S(tot)=    23.62 kcal/mol
 sn=12  qrot/sn=   17803.0180 T*S(rot)=     6.69 kcal/mol T*S(tot)=    23.57 kcal/mol

-------------------
GIBBS FREE ENTHALPY
-------------------

The Gibbs free enthalpy is G = H - T*S

Total enthalpy                    ...   -289.89319469 Eh
Total entropy correction          ...     -0.03886828 Eh    -24.39 kcal/mol
-----------------------------------------------------------------------
Final Gibbs free enthalpy         ...   -289.93206296 Eh

For completeness - the Gibbs free enthalpy minus the electronic energy
G-E(el)                           ...      0.14548719 Eh     91.29 kcal/mol

                             ****ORCA TERMINATED NORMALLY****
TOTAL RUN TIME: 0 days 1 hours 0 minutes 22 seconds 309 msec
