                         Program Version 3.0.3 - RELEASE   -
|  1> ! NORI PBE0 def2-TZVP UseSym TightOPT Freq TightSCF Grid3 FinalGrid5 XYZFile
|  2> % pal
|  3>     nprocs 8
|  4> end
|  5> %method
|  6>     SymThresh 5.0e-2
|  7> end
|  8> % geom
|  9>     MaxIter 10
| 10> end
| 11> % maxcore 2000
| 12> % output
| 13>     printlevel mini
| 14>     print[ P_Basis ] 0
| 15>     print[ P_SCFInfo ] 1
| 16>     print[ P_SCFIterInfo ] 1
| 17>     print[ P_OrbEn ] 0
| 18>     print[ P_Cartesian ] 0
| 19> end
| 20> % elprop
| 21>     Dipole false
| 22> end
| 23> *xyz 1 1
| 24>  C        0.7670814547    -0.0389226785     0.2302552305
| 25>  C        2.2755091239    -0.0223546353     0.0880031712
| 26>  C        3.0568698676     1.0235829824     0.9283972995
| 27>  N        4.0944096038    -0.0337756245     1.2370156376
| 28>  C        3.0745842130    -1.0928874982     0.8792845384
| 29>  C        2.7196986595     0.0143516391    -1.2978850016
| 30>  C        3.1043950092     0.0452902326    -2.4335799794
| 31>  H        0.3488236638    -0.9112624022    -0.2738243306
| 32>  H        0.3332177915     0.8496934850    -0.2303531154
| 33>  H        0.4754966983    -0.0674428555     1.2824177231
| 34>  H        2.5466005296     1.2865853452     1.8541481513
| 35>  H        3.4636523114     1.9020568020     0.4342758275
| 36>  H        4.8581480114    -0.0116447353     0.5602745737
| 37>  H        4.4870558134    -0.0523944444     2.1770437934
| 38>  H        3.4957522286    -1.9410076528     0.3456243028
| 39>  H        2.5681704746    -1.4056700806     1.7915239080
| 40>  H        3.4275945457     0.0732421209    -3.4504317298
| 41> *
| 42>
| 43>                          ****END OF INPUT****
 Total Charge           Charge          ....    1
 Multiplicity           Mult            ....    1
 Number of Electrons    NEL             ....   52
FINAL SINGLE POINT ENERGY      -288.822716152826

CARTESIAN COORDINATES (ANGSTROEM)
---------------------------------
  C     -1.335925   -1.470080   -0.000003
  C     -0.306862   -0.357627   -0.000008
  C      0.826020   -0.437716    1.058608
  N      1.814743   -0.000224   -0.000002
  C      0.826028   -0.437732   -1.058613
  C     -0.900771    0.971602   -0.000019
  C     -1.371958    2.074640    0.000012
  H     -1.974970   -1.394329   -0.880783
  H     -1.974977   -1.394316    0.880771
  H     -0.851795   -2.449089    0.000006
  H      1.060460   -1.461623    1.347101
  H      0.791539    0.221898    1.921679
  H      1.932186    1.013544   -0.000009
  H      2.734299   -0.439070    0.000005
  H      0.791554    0.221869   -1.921695
  H      1.060471   -1.461644   -1.347089
  H     -1.809903    3.047979    0.000040

FINAL SINGLE POINT ENERGY      -288.822716838906
                    ***********************HURRAY********************
 Multiplicity           Mult            ....    1
 Number of Electrons    NEL             ....   52
 Basis Dimension        Dim             ....  277
FINAL SINGLE POINT ENERGY      -288.822717000520

VIBRATIONAL FREQUENCIES
-----------------------

   0:         0.00 cm**-1
   1:         0.00 cm**-1
   2:         0.00 cm**-1
   3:         0.00 cm**-1
   4:         0.00 cm**-1
   5:         0.00 cm**-1
   6:       108.53 cm**-1
   7:       181.29 cm**-1
   8:       199.65 cm**-1
   9:       232.18 cm**-1
  10:       306.06 cm**-1
  11:       371.46 cm**-1
  12:       501.70 cm**-1
  13:       545.84 cm**-1
  14:       633.68 cm**-1
  15:       721.30 cm**-1
  16:       732.70 cm**-1
  17:       741.73 cm**-1
  18:       833.95 cm**-1
  19:       888.52 cm**-1
  20:       908.51 cm**-1
  21:       913.18 cm**-1
  22:       945.93 cm**-1
  23:       979.69 cm**-1
  24:      1005.83 cm**-1
  25:      1081.55 cm**-1
  26:      1154.02 cm**-1
  27:      1208.87 cm**-1
  28:      1239.64 cm**-1
  29:      1266.50 cm**-1
  30:      1316.65 cm**-1
  31:      1318.30 cm**-1
  32:      1326.14 cm**-1
  33:      1351.13 cm**-1
  34:      1416.72 cm**-1
  35:      1475.41 cm**-1
  36:      1478.07 cm**-1
  37:      1487.72 cm**-1
  38:      1499.98 cm**-1
  39:      1637.34 cm**-1
  40:      2242.12 cm**-1
  41:      3063.79 cm**-1
  42:      3118.49 cm**-1
  43:      3121.81 cm**-1
  44:      3147.23 cm**-1
  45:      3155.62 cm**-1
  46:      3203.57 cm**-1
  47:      3203.87 cm**-1
  48:      3457.07 cm**-1
  49:      3462.28 cm**-1
  50:      3533.68 cm**-1

IR SPECTRUM
-----------

 Mode    freq (cm**-1)   T**2         TX         TY         TZ
-------------------------------------------------------------------
   6:       108.53    7.771383  ( -1.662280   2.237903  -0.000636)
   7:       181.29    1.522537  (  0.003088  -0.001684  -1.233906)
   8:       199.65    3.386170  ( -1.793005   0.413889  -0.000484)
   9:       232.18    1.542528  (  0.001429   0.000225   1.241985)
  10:       306.06    2.574772  (  0.000445  -0.000878  -1.604609)
  11:       371.46    2.494840  (  1.479911   0.551998   0.001148)
  12:       501.70   18.620661  ( -4.281953  -0.534361   0.000336)
  13:       545.84    8.702729  ( -0.000227  -0.000081  -2.950039)
  14:       633.68    4.025743  ( -0.442701   1.956977   0.000478)
  15:       721.30    4.442927  ( -0.477187   2.053098   0.002703)
  16:       732.70   37.841210  (  0.009854   0.005244  -6.151511)
  17:       741.73   37.617407  ( -5.363062  -2.975712  -0.010616)
  18:       833.95    2.699275  ( -0.000164   0.001724  -1.642946)
  19:       888.52    1.605502  (  1.264041   0.087758  -0.000763)
  20:       908.51    8.037204  ( -2.544377   1.250337  -0.002844)
  21:       913.18    2.462259  ( -0.004791   0.001246   1.569151)
  22:       945.93    0.020127  (  0.000576  -0.000833   0.141866)
  23:       979.69    2.959437  ( -1.358985  -1.054797  -0.000617)
  24:      1005.83    2.686840  ( -1.635747   0.105701   0.000539)
  25:      1081.55    0.090636  ( -0.000657   0.001659   0.301052)
  26:      1154.02   10.391765  (  0.000735  -0.000413   3.223626)
  27:      1208.87    3.604377  ( -1.861020   0.375475   0.001243)
  28:      1239.64   30.774059  (  0.000165  -0.001535  -5.547437)
  29:      1266.50    0.320914  (  0.399515   0.401624  -0.000512)
  30:      1316.65   20.887086  (  2.096298  -4.061098  -0.010413)
  31:      1318.30    6.910833  (  0.007119  -0.012907   2.628805)
  32:      1326.14   34.727333  ( -0.000160   0.001570  -5.892990)
  33:      1351.13    4.501982  (  1.613756   1.377597   0.000086)
  34:      1416.72    6.626714  ( -1.758441  -1.880052  -0.000232)
  35:      1475.41   26.310913  ( -0.000901   0.001528  -5.129416)
  36:      1478.07    1.500548  ( -0.001958   0.000050  -1.224967)
  37:      1487.72    1.630799  ( -1.245388   0.282500   0.001019)
  38:      1499.98   14.208713  ( -2.714083   2.615810   0.002258)
  39:      1637.34   75.624891  (  7.957929   3.506602  -0.000096)
  40:      2242.12    5.547633  ( -1.105011   2.080043   0.002008)
  41:      3063.79    4.044810  (  0.542776  -1.936544   0.000047)
  42:      3118.49    0.121687  ( -0.000645   0.000848   0.348835)
  43:      3121.81    0.967251  ( -0.395191   0.900597  -0.000416)
  44:      3147.23    4.969718  (  1.225452  -1.862252   0.001605)
  45:      3155.62    0.641863  (  0.001173  -0.002158  -0.801160)
  46:      3203.57    0.259848  ( -0.279711  -0.426156  -0.001077)
  47:      3203.87    0.000882  (  0.004083   0.005354   0.028923)
  48:      3457.07   99.120482  ( -5.253803   8.456833  -0.001263)
  49:      3462.28   70.628788  (  6.541144   5.276573  -0.000074)
  50:      3533.68   90.368958  (  5.358856  -7.851854  -0.000831)

--------------------------
THERMOCHEMISTRY AT 298.15K
--------------------------

Temperature         ... 298.15 K
Pressure            ... 1.00 atm
Total Mass          ... 96.15 AMU

Throughout the following assumptions are being made:
  (1) The electronic state is orbitally nondegenerate
  (2) There are no thermally accessible electronically excited states
  (3) Hindered rotations indicated by low frequency modes) are not
      treated as such but are treated as vibrations and this may
      case some error
  (4) All equations used are the standard statistical mechanics
      equations for an ideal gas
  (5) All vibrations are strinctly harmonic

------------
INNER ENERGY
------------

The inner energy is: U= E(el) + E(ZPE) + E(vib) + E(rot) + E(trans)
    E(el)   - is the total energy from the electronic structure calculation
              = E(kin-el) + E(nuc-el) + E(el-el) + E(nuc-nuc)
    E(ZPE)  - the the zero temperature vibrational energy from the frequency calculation
    E(vib)  - the the finite temperature correction to E(ZPE) due to population
              of excietd vibrational states
    E(rot)  - is the rotational thermal energy
    E(trans)- is the translational thermal energy

Summary of contributions to the inner energy U:
Electronic energy                ...   -288.82271700 Eh
Zero point energy                ...      0.15199777 Eh      95.38 kcal/mol
Thermal vibrational correction   ...      0.00450397 Eh       2.83 kcal/mol
Thermal rotational correction    ...      0.00141627 Eh       0.89 kcal/mol
Thermal translational correction ...      0.00141627 Eh       0.89 kcal/mol
-----------------------------------------------------------------------
Total thermal energy                   -288.66338272 Eh

Summary of corrections to the electronic energy:
(perhaps to be used in another calculation)
Total thermal correction                  0.00733651 Eh       4.60 kcal/mol
Non-thermal (ZPE) correction              0.15199777 Eh      95.38 kcal/mol
-----------------------------------------------------------------------
Total correction                          0.15933428 Eh      99.98 kcal/mol

--------
ENTHALPY
--------

The enthalpy is H = U + kB*T
                kB is Boltzmann's constant
Total free energy                 ...   -288.66338272 Eh
Thermal Enthalpy correction       ...      0.00094421 Eh       0.59 kcal/mol
-----------------------------------------------------------------------
Total Enthalpy                    ...   -288.66243851 Eh

-------
ENTROPY
-------

The entropy contributions are T*S = T*(S(el)+S(vib)+S(rot)+S(trans)
     S(el)   - electronic entropy
     S(vib)  - vibrational entropy
     S(rot)  - rotational entropy
     S(trans)- translational entropy
The entropies will be listed as mutliplied by the temperature to get
units of energy

Electronic entropy                ...      0.00000000 Eh      0.00 kcal/mol
Vibrational entropy               ...      0.00749710 Eh      4.70 kcal/mol
Rotational entropy                ...      0.01194881 Eh      7.50 kcal/mol
Translational entropy             ...      0.01881568 Eh     11.81 kcal/mol
-----------------------------------------------------------------------
Final entropy term                ...      0.03826160 Eh     24.01 kcal/mol

CAUTION: The rotational entropy is not quite correctly treated here
         because it includes a symmetry number that is not yet correctly
         implemented in ORCA!
For a nonlinear molecule the correct rotational entropy is:
    S(rot) = R*(ln(qrot/sn)+1.5)
    R    = 8.31441 J/mol/K = 1.987191683e-3 kcal/mol/K
    qrot = 209782.4347019
    sn is the rotational symmetry number. We have assumed 3 here
       if it is different for your molecule then you should correct
       the printed rotational entropy by manually evaluating the equation
       as given above

For convenience we print out the resulting values for sn=1 - 12:
 sn= 1  qrot/sn=  209782.4347 T*S(rot)=     8.15 kcal/mol T*S(tot)=    24.66 kcal/mol
 sn= 2  qrot/sn=  104891.2174 T*S(rot)=     7.74 kcal/mol T*S(tot)=    24.25 kcal/mol
 sn= 3  qrot/sn=   69927.4782 T*S(rot)=     7.50 kcal/mol T*S(tot)=    24.01 kcal/mol
 sn= 4  qrot/sn=   52445.6087 T*S(rot)=     7.33 kcal/mol T*S(tot)=    23.84 kcal/mol
 sn= 5  qrot/sn=   41956.4869 T*S(rot)=     7.20 kcal/mol T*S(tot)=    23.71 kcal/mol
 sn= 6  qrot/sn=   34963.7391 T*S(rot)=     7.09 kcal/mol T*S(tot)=    23.60 kcal/mol
 sn= 7  qrot/sn=   29968.9192 T*S(rot)=     7.00 kcal/mol T*S(tot)=    23.51 kcal/mol
 sn= 8  qrot/sn=   26222.8043 T*S(rot)=     6.92 kcal/mol T*S(tot)=    23.43 kcal/mol
 sn= 9  qrot/sn=   23309.1594 T*S(rot)=     6.85 kcal/mol T*S(tot)=    23.36 kcal/mol
 sn=10  qrot/sn=   20978.2435 T*S(rot)=     6.78 kcal/mol T*S(tot)=    23.30 kcal/mol
 sn=11  qrot/sn=   19071.1304 T*S(rot)=     6.73 kcal/mol T*S(tot)=    23.24 kcal/mol
 sn=12  qrot/sn=   17481.8696 T*S(rot)=     6.68 kcal/mol T*S(tot)=    23.19 kcal/mol

-------------------
GIBBS FREE ENTHALPY
-------------------

The Gibbs free enthalpy is G = H - T*S

Total enthalpy                    ...   -288.66243851 Eh
Total entropy correction          ...     -0.03826160 Eh    -24.01 kcal/mol
-----------------------------------------------------------------------
Final Gibbs free enthalpy         ...   -288.70070011 Eh

For completeness - the Gibbs free enthalpy minus the electronic energy
G-E(el)                           ...      0.12201689 Eh     76.57 kcal/mol

                             ****ORCA TERMINATED NORMALLY****
TOTAL RUN TIME: 0 days 0 hours 47 minutes 56 seconds 999 msec
