                         Program Version 3.0.3 - RELEASE   -
|  1> ! NORI PBE0 def2-TZVP UseSym TightOPT Freq TightSCF Grid3 FinalGrid5 XYZFile
|  2> % pal
|  3>     nprocs 8
|  4> end
|  5> %method
|  6>     SymThresh 5.0e-2
|  7> end
|  8> % geom
|  9>     MaxIter 10
| 10> end
| 11> % maxcore 2000
| 12> % output
| 13>     printlevel mini
| 14>     print[ P_Basis ] 0
| 15>     print[ P_SCFInfo ] 1
| 16>     print[ P_SCFIterInfo ] 1
| 17>     print[ P_OrbEn ] 0
| 18>     print[ P_Cartesian ] 0
| 19> end
| 20> % elprop
| 21>     Dipole false
| 22> end
| 23> *xyz 1 1
| 24>  C        0.9545741378     0.0426730524     0.0466638745
| 25>  C        2.4597227223     0.0614650388     0.0312252080
| 26>  C        3.2828253927    -0.6735690092    -0.9858762910
| 27>  N        2.5821379631    -1.3743151897    -2.0881576424
| 28>  C        3.2926408738     0.8306014890    -0.9650272619
| 29>  C        2.6296351290     1.6090857227    -2.0759455583
| 30>  C        4.5678123021     1.4635024442    -0.4637556821
| 31>  H        0.5778046502    -0.8599996609     0.5336502114
| 32>  H        0.4887326154     0.1144044662    -0.9394761060
| 33>  H        0.5826704581     0.8957113417     0.6171150030
| 34>  H        2.8923459921     0.0050881894     1.0257828267
| 35>  H        4.1614417082    -1.2324652479    -0.6877644314
| 36>  H        1.7888568793    -0.8208417441    -2.4176890743
| 37>  H        2.2236886831    -2.2841123566    -1.7888566076
| 38>  H        3.2024338499    -1.5245904695    -2.8868305482
| 39>  H        3.2967658061     1.7058231146    -2.9364808595
| 40>  H        2.4058789704     2.6187698833    -1.7261972427
| 41>  H        1.6766300016     1.2002936058    -2.4231896632
| 42>  H        5.2848654934     1.6028436557    -1.2764609441
| 43>  H        5.0418093958     0.8566485774     0.3103396794
| 44>  H        4.3542769758     2.4441030966    -0.0330588905
| 45> *
| 46>
| 47>                          ****END OF INPUT****
 Total Charge           Charge          ....    1
 Multiplicity           Mult            ....    1
 Number of Electrons    NEL             ....   56
FINAL SINGLE POINT ENERGY      -291.306920763399
FINAL SINGLE POINT ENERGY      -291.306924942426
FINAL SINGLE POINT ENERGY      -291.306927143621

CARTESIAN COORDINATES (ANGSTROEM)
---------------------------------
  C      2.109743    0.000194   -0.186348
  C      0.767486   -0.657698   -0.366227
  C     -0.270580   -0.710961    0.716546
  N      0.002687   -0.000093    1.987878
  C     -0.532337    0.091576   -0.528753
  C     -0.557268    1.599991   -0.469846
  C     -1.558422   -0.489807   -1.469686
  H      2.810709   -0.669491    0.317269
  H      2.080258    0.940944    0.369384
  H      2.536065    0.239421   -1.161972
  H      0.822424   -1.584944   -0.928533
  H     -0.824350   -1.621483    0.909144
  H      0.465557    0.892564    1.805868
  H      0.611276   -0.546486    2.602168
  H     -0.861904    0.200963    2.495135
  H     -1.532659    1.962145   -0.134671
  H     -0.389998    2.003506   -1.470536
  H      0.212948    2.051667    0.161657
  H     -2.566939   -0.166320   -1.201242
  H     -1.538739   -1.581504   -1.466335
  H     -1.360063   -0.157517   -2.491022

FINAL SINGLE POINT ENERGY      -291.306927649014
                    ***********************HURRAY********************
 Multiplicity           Mult            ....    1
 Number of Electrons    NEL             ....   56
 Basis Dimension        Dim             ....  301
FINAL SINGLE POINT ENERGY      -291.306928256547

VIBRATIONAL FREQUENCIES
-----------------------

   0:         0.00 cm**-1
   1:         0.00 cm**-1
   2:         0.00 cm**-1
   3:         0.00 cm**-1
   4:         0.00 cm**-1
   5:         0.00 cm**-1
   6:        53.30 cm**-1
   7:       153.54 cm**-1
   8:       161.19 cm**-1
   9:       203.58 cm**-1
  10:       209.21 cm**-1
  11:       227.04 cm**-1
  12:       280.48 cm**-1
  13:       283.17 cm**-1
  14:       357.76 cm**-1
  15:       460.99 cm**-1
  16:       473.55 cm**-1
  17:       535.18 cm**-1
  18:       697.99 cm**-1
  19:       772.71 cm**-1
  20:       805.62 cm**-1
  21:       933.65 cm**-1
  22:       968.17 cm**-1
  23:       971.30 cm**-1
  24:       989.43 cm**-1
  25:      1021.47 cm**-1
  26:      1046.92 cm**-1
  27:      1055.22 cm**-1
  28:      1123.16 cm**-1
  29:      1128.21 cm**-1
  30:      1149.70 cm**-1
  31:      1169.68 cm**-1
  32:      1209.06 cm**-1
  33:      1281.55 cm**-1
  34:      1339.06 cm**-1
  35:      1379.05 cm**-1
  36:      1414.64 cm**-1
  37:      1420.07 cm**-1
  38:      1427.83 cm**-1
  39:      1463.86 cm**-1
  40:      1467.12 cm**-1
  41:      1479.59 cm**-1
  42:      1483.12 cm**-1
  43:      1491.34 cm**-1
  44:      1496.28 cm**-1
  45:      1507.99 cm**-1
  46:      1525.14 cm**-1
  47:      1643.52 cm**-1
  48:      1657.54 cm**-1
  49:      3046.84 cm**-1
  50:      3054.71 cm**-1
  51:      3057.05 cm**-1
  52:      3113.43 cm**-1
  53:      3123.03 cm**-1
  54:      3131.28 cm**-1
  55:      3132.71 cm**-1
  56:      3136.80 cm**-1
  57:      3138.05 cm**-1
  58:      3167.89 cm**-1
  59:      3201.35 cm**-1
  60:      3416.52 cm**-1
  61:      3492.65 cm**-1
  62:      3498.02 cm**-1

IR SPECTRUM
-----------

 Mode    freq (cm**-1)   T**2         TX         TY         TZ
-------------------------------------------------------------------
   6:        53.30    2.148569  ( -1.067069   0.869216  -0.504375)
   7:       153.54    2.336848  (  1.421168  -0.400720  -0.395670)
   8:       161.19    2.463812  ( -0.117800   1.185018  -1.022579)
   9:       203.58    8.259280  ( -2.602724   1.148754   0.406781)
  10:       209.21    0.890997  (  0.890350  -0.120552   0.289380)
  11:       227.04    4.008675  ( -1.147479  -1.070657   1.243246)
  12:       280.48   10.600690  (  0.533573   1.399913  -2.890715)
  13:       283.17    3.003960  (  1.484000  -0.498523   0.743759)
  14:       357.76    2.706095  ( -0.113594   0.537477  -1.550584)
  15:       460.99    1.922591  ( -0.827339   0.735047  -0.835348)
  16:       473.55    6.260650  (  0.508580  -1.226017   2.121056)
  17:       535.18    8.281517  ( -1.542783   0.472783   2.382816)
  18:       697.99    0.427874  (  0.652144  -0.023574  -0.045013)
  19:       772.71    8.114271  (  1.381003   0.637803  -2.408383)
  20:       805.62   13.016710  ( -0.111017   2.658176  -2.436901)
  21:       933.65    9.316387  (  2.769331  -0.988817   0.818189)
  22:       968.17    1.616608  (  0.628330  -0.886697   0.659983)
  23:       971.30    2.890835  ( -1.165905  -1.127592  -0.509939)
  24:       989.43    1.273422  (  0.904061   0.537070  -0.409453)
  25:      1021.47    7.429799  ( -1.885240   1.895585   0.531437)
  26:      1046.92    2.226694  ( -0.181231   1.296503  -0.716191)
  27:      1055.22   12.554070  ( -0.367731  -2.249028   2.713065)
  28:      1123.16    8.172931  ( -2.034123   1.210693  -1.602964)
  29:      1128.21    3.517722  ( -1.564396  -0.857026   0.579564)
  30:      1149.70    4.322620  ( -1.784986   0.045504   1.065070)
  31:      1169.68    2.688833  ( -0.987810  -1.091072   0.722930)
  32:      1209.06    3.702806  ( -1.807065   0.249844   0.612292)
  33:      1281.55    4.735486  ( -0.644901   1.275688  -1.640795)
  34:      1339.06    1.029356  ( -0.887864   0.008402   0.490900)
  35:      1379.05    4.911974  (  0.039484   1.116292  -1.914238)
  36:      1414.64    6.263523  ( -0.788830  -2.171700  -0.961764)
  37:      1420.07    4.356744  (  1.817077   1.019048   0.128510)
  38:      1427.83    3.216035  ( -0.367418   1.011727  -1.434381)
  39:      1463.86    1.214004  ( -0.717194  -0.034456   0.835733)
  40:      1467.12    6.369749  (  0.204108  -1.040034  -2.290506)
  41:      1479.59    2.175253  ( -0.336277   0.309988  -1.402169)
  42:      1483.12    0.811003  ( -0.147317  -0.038627   0.887586)
  43:      1491.34   48.246975  ( -0.706927   0.259165   6.905075)
  44:      1496.28   20.688157  ( -3.112895   3.013658   1.384163)
  45:      1507.99   93.981303  ( -2.849046  -6.242066  -6.848420)
  46:      1525.14   23.777312  ( -0.947233  -1.098792  -4.655397)
  47:      1643.52   43.258562  (  6.001349  -2.685505  -0.174443)
  48:      1657.54   42.778151  (  2.348849   5.379296  -2.885175)
  49:      3046.84    5.730531  ( -0.449197  -1.636845  -1.688044)
  50:      3054.71    8.979628  ( -2.365621  -1.080525  -1.488600)
  51:      3057.05   17.679147  (  1.496073   2.628546   2.920900)
  52:      3113.43   22.830062  (  4.274290  -1.130783   1.811584)
  53:      3123.03   14.095151  ( -0.052826  -2.858345  -2.433562)
  54:      3131.28    1.784736  (  1.268433  -0.399956  -0.125889)
  55:      3132.71    9.226335  ( -2.237155   1.491300   1.413328)
  56:      3136.80    6.328763  (  0.153876  -2.220114   1.173107)
  57:      3138.05    3.769426  ( -0.522085   0.690284  -1.737919)
  58:      3167.89    1.718700  ( -0.035065   1.249267   0.395981)
  59:      3201.35    0.164965  ( -0.039496  -0.031256   0.403024)
  60:      3416.52   24.327225  (  0.380557   1.039636   4.806408)
  61:      3492.65   90.521366  (  5.875659  -6.866773   2.974125)
  62:      3498.02   95.973868  ( -6.844620  -4.057400   5.715116)

--------------------------
THERMOCHEMISTRY AT 298.15K
--------------------------

Temperature         ... 298.15 K
Pressure            ... 1.00 atm
Total Mass          ... 100.18 AMU

Throughout the following assumptions are being made:
  (1) The electronic state is orbitally nondegenerate
  (2) There are no thermally accessible electronically excited states
  (3) Hindered rotations indicated by low frequency modes) are not
      treated as such but are treated as vibrations and this may
      case some error
  (4) All equations used are the standard statistical mechanics
      equations for an ideal gas
  (5) All vibrations are strinctly harmonic

------------
INNER ENERGY
------------

The inner energy is: U= E(el) + E(ZPE) + E(vib) + E(rot) + E(trans)
    E(el)   - is the total energy from the electronic structure calculation
              = E(kin-el) + E(nuc-el) + E(el-el) + E(nuc-nuc)
    E(ZPE)  - the the zero temperature vibrational energy from the frequency calculation
    E(vib)  - the the finite temperature correction to E(ZPE) due to population
              of excietd vibrational states
    E(rot)  - is the rotational thermal energy
    E(trans)- is the translational thermal energy

Summary of contributions to the inner energy U:
Electronic energy                ...   -291.30692826 Eh
Zero point energy                ...      0.19735611 Eh     123.84 kcal/mol
Thermal vibrational correction   ...      0.00638589 Eh       4.01 kcal/mol
Thermal rotational correction    ...      0.00141627 Eh       0.89 kcal/mol
Thermal translational correction ...      0.00141627 Eh       0.89 kcal/mol
-----------------------------------------------------------------------
Total thermal energy                   -291.10035371 Eh

Summary of corrections to the electronic energy:
(perhaps to be used in another calculation)
Total thermal correction                  0.00921843 Eh       5.78 kcal/mol
Non-thermal (ZPE) correction              0.19735611 Eh     123.84 kcal/mol
-----------------------------------------------------------------------
Total correction                          0.20657454 Eh     129.63 kcal/mol

--------
ENTHALPY
--------

The enthalpy is H = U + kB*T
                kB is Boltzmann's constant
Total free energy                 ...   -291.10035371 Eh
Thermal Enthalpy correction       ...      0.00094421 Eh       0.59 kcal/mol
-----------------------------------------------------------------------
Total Enthalpy                    ...   -291.09940950 Eh

-------
ENTROPY
-------

The entropy contributions are T*S = T*(S(el)+S(vib)+S(rot)+S(trans)
     S(el)   - electronic entropy
     S(vib)  - vibrational entropy
     S(rot)  - rotational entropy
     S(trans)- translational entropy
The entropies will be listed as mutliplied by the temperature to get
units of energy

Electronic entropy                ...      0.00000000 Eh      0.00 kcal/mol
Vibrational entropy               ...      0.01142505 Eh      7.17 kcal/mol
Rotational entropy                ...      0.01207636 Eh      7.58 kcal/mol
Translational entropy             ...      0.01887386 Eh     11.84 kcal/mol
-----------------------------------------------------------------------
Final entropy term                ...      0.04237527 Eh     26.59 kcal/mol

CAUTION: The rotational entropy is not quite correctly treated here
         because it includes a symmetry number that is not yet correctly
         implemented in ORCA!
For a nonlinear molecule the correct rotational entropy is:
    S(rot) = R*(ln(qrot/sn)+1.5)
    R    = 8.31441 J/mol/K = 1.987191683e-3 kcal/mol/K
    qrot = 240123.8238897
    sn is the rotational symmetry number. We have assumed 3 here
       if it is different for your molecule then you should correct
       the printed rotational entropy by manually evaluating the equation
       as given above

For convenience we print out the resulting values for sn=1 - 12:
 sn= 1  qrot/sn=  240123.8239 T*S(rot)=     8.23 kcal/mol T*S(tot)=    27.24 kcal/mol
 sn= 2  qrot/sn=  120061.9119 T*S(rot)=     7.82 kcal/mol T*S(tot)=    26.83 kcal/mol
 sn= 3  qrot/sn=   80041.2746 T*S(rot)=     7.58 kcal/mol T*S(tot)=    26.59 kcal/mol
 sn= 4  qrot/sn=   60030.9560 T*S(rot)=     7.41 kcal/mol T*S(tot)=    26.42 kcal/mol
 sn= 5  qrot/sn=   48024.7648 T*S(rot)=     7.28 kcal/mol T*S(tot)=    26.29 kcal/mol
 sn= 6  qrot/sn=   40020.6373 T*S(rot)=     7.17 kcal/mol T*S(tot)=    26.18 kcal/mol
 sn= 7  qrot/sn=   34303.4034 T*S(rot)=     7.08 kcal/mol T*S(tot)=    26.09 kcal/mol
 sn= 8  qrot/sn=   30015.4780 T*S(rot)=     7.00 kcal/mol T*S(tot)=    26.01 kcal/mol
 sn= 9  qrot/sn=   26680.4249 T*S(rot)=     6.93 kcal/mol T*S(tot)=    25.94 kcal/mol
 sn=10  qrot/sn=   24012.3824 T*S(rot)=     6.86 kcal/mol T*S(tot)=    25.88 kcal/mol
 sn=11  qrot/sn=   21829.4385 T*S(rot)=     6.81 kcal/mol T*S(tot)=    25.82 kcal/mol
 sn=12  qrot/sn=   20010.3187 T*S(rot)=     6.76 kcal/mol T*S(tot)=    25.77 kcal/mol

-------------------
GIBBS FREE ENTHALPY
-------------------

The Gibbs free enthalpy is G = H - T*S

Total enthalpy                    ...   -291.09940950 Eh
Total entropy correction          ...     -0.04237527 Eh    -26.59 kcal/mol
-----------------------------------------------------------------------
Final Gibbs free enthalpy         ...   -291.14178477 Eh

For completeness - the Gibbs free enthalpy minus the electronic energy
G-E(el)                           ...      0.16514349 Eh    103.63 kcal/mol

                             ****ORCA TERMINATED NORMALLY****
TOTAL RUN TIME: 0 days 1 hours 2 minutes 58 seconds 456 msec
