                         Program Version 3.0.3 - RELEASE   -
|  1> ! NORI PBE0 def2-TZVP UseSym TightOPT Freq TightSCF Grid3 FinalGrid5 XYZFile
|  2> % pal
|  3>     nprocs 8
|  4> end
|  5> %method
|  6>     SymThresh 5.0e-2
|  7> end
|  8> % geom
|  9>     MaxIter 10
| 10> end
| 11> % maxcore 2000
| 12> % output
| 13>     printlevel mini
| 14>     print[ P_Basis ] 0
| 15>     print[ P_SCFInfo ] 1
| 16>     print[ P_SCFIterInfo ] 1
| 17>     print[ P_OrbEn ] 0
| 18>     print[ P_Cartesian ] 0
| 19> end
| 20> % elprop
| 21>     Dipole false
| 22> end
| 23> *xyz 1 1
| 24>  C        0.9309335526    -0.0855161641     0.0670554893
| 25>  C        2.4234791692     0.0097641321    -0.0876884112
| 26>  C        3.1597126112    -0.6281062016    -1.2241988872
| 27>  N        2.3821784737    -1.3617513810    -2.2521548077
| 28>  C        3.0419814800     0.8567044715    -1.1754465243
| 29>  C        4.2279689002     1.7129061052    -0.9402820564
| 30>  C        5.4878972884     1.3674292336    -1.1551111114
| 31>  H        0.6266836757    -1.0375088282     0.5093406551
| 32>  H        0.3874747494     0.0537609747    -0.8744815183
| 33>  H        0.5787225715     0.7075525990     0.7288447507
| 34>  H        2.9810158018    -0.0287657506     0.8426044624
| 35>  H        4.1145071990    -1.1066817181    -1.0533548443
| 36>  H        1.4214643255    -1.0126237287    -2.2882746268
| 37>  H        2.3331897168    -2.3613872747    -2.0390693447
| 38>  H        2.7920265841    -1.2553840276    -3.1834141445
| 39>  H        2.3004435147     1.2898335957    -1.8475722624
| 40>  H        3.9992039880     2.7036826223    -0.5571636501
| 41>  H        5.7715115661     0.3971536583    -1.5502221633
| 42>  H        6.2976148319     2.0550576820    -0.9458710048
| 43> *
| 44>
| 45>                          ****END OF INPUT****
 Total Charge           Charge          ....    1
 Multiplicity           Mult            ....    1
 Number of Electrons    NEL             ....   54
FINAL SINGLE POINT ENERGY      -290.070357387106
FINAL SINGLE POINT ENERGY      -290.070358748434

CARTESIAN COORDINATES (ANGSTROEM)
---------------------------------
  C      2.371278   -0.000215    0.241896
  C      1.006328   -0.447368   -0.202074
  C     -0.176144   -0.465605    0.715852
  N     -0.000682   -0.000352    2.113308
  C     -0.118578    0.545492   -0.377641
  C     -1.056075    0.490715   -1.523423
  C     -2.230900   -0.119943   -1.535141
  H      2.902060   -0.786437    0.784308
  H      2.349322    0.903094    0.862502
  H      2.974597    0.258159   -0.629654
  H      1.003751   -1.278943   -0.899367
  H     -0.886606   -1.280075    0.670895
  H      0.788041    0.647819    2.177522
  H      0.197194   -0.781105    2.744103
  H     -0.834112    0.482469    2.457515
  H      0.155604    1.554096   -0.067129
  H     -0.709736    1.008266   -2.413965
  H     -2.631373   -0.639622   -0.670299
  H     -2.850305   -0.119496   -2.423186

FINAL SINGLE POINT ENERGY      -290.070359412063
                    ***********************HURRAY********************
 Multiplicity           Mult            ....    1
 Number of Electrons    NEL             ....   54
 Basis Dimension        Dim             ....  289
FINAL SINGLE POINT ENERGY      -290.070359565225

VIBRATIONAL FREQUENCIES
-----------------------

   0:         0.00 cm**-1
   1:         0.00 cm**-1
   2:         0.00 cm**-1
   3:         0.00 cm**-1
   4:         0.00 cm**-1
   5:         0.00 cm**-1
   6:        77.01 cm**-1
   7:       158.56 cm**-1
   8:       179.89 cm**-1
   9:       181.74 cm**-1
  10:       217.18 cm**-1
  11:       251.94 cm**-1
  12:       308.39 cm**-1
  13:       368.48 cm**-1
  14:       515.60 cm**-1
  15:       546.01 cm**-1
  16:       652.71 cm**-1
  17:       801.02 cm**-1
  18:       845.64 cm**-1
  19:       857.85 cm**-1
  20:       953.27 cm**-1
  21:       980.65 cm**-1
  22:       983.52 cm**-1
  23:      1016.00 cm**-1
  24:      1028.31 cm**-1
  25:      1038.53 cm**-1
  26:      1080.53 cm**-1
  27:      1104.33 cm**-1
  28:      1118.87 cm**-1
  29:      1153.07 cm**-1
  30:      1187.39 cm**-1
  31:      1193.10 cm**-1
  32:      1237.21 cm**-1
  33:      1327.03 cm**-1
  34:      1345.04 cm**-1
  35:      1374.82 cm**-1
  36:      1421.29 cm**-1
  37:      1452.51 cm**-1
  38:      1470.58 cm**-1
  39:      1483.80 cm**-1
  40:      1507.40 cm**-1
  41:      1512.73 cm**-1
  42:      1650.32 cm**-1
  43:      1658.97 cm**-1
  44:      1726.64 cm**-1
  45:      3034.44 cm**-1
  46:      3108.13 cm**-1
  47:      3115.13 cm**-1
  48:      3140.20 cm**-1
  49:      3159.49 cm**-1
  50:      3176.14 cm**-1
  51:      3180.01 cm**-1
  52:      3219.41 cm**-1
  53:      3253.07 cm**-1
  54:      3410.40 cm**-1
  55:      3487.46 cm**-1
  56:      3490.94 cm**-1

IR SPECTRUM
-----------

 Mode    freq (cm**-1)   T**2         TX         TY         TZ
-------------------------------------------------------------------
   6:        77.01    1.334879  (  0.973901   0.366934   0.501752)
   7:       158.56    2.521855  ( -1.058284   0.446909   1.096431)
   8:       179.89    9.821033  ( -3.021186   0.700001  -0.451074)
   9:       181.74    0.767945  ( -0.281491   0.347166   0.753779)
  10:       217.18    3.706096  (  1.396138  -1.302106  -0.247820)
  11:       251.94    7.617020  (  1.764528   1.107315  -1.810336)
  12:       308.39    1.303701  ( -0.988826   0.554252  -0.136853)
  13:       368.48    9.626538  (  0.421005   0.968330  -2.917470)
  14:       515.60    1.660575  (  1.016408  -0.052236  -0.790419)
  15:       546.01    4.051974  ( -0.732132   0.076470   1.873528)
  16:       652.71   15.004278  (  1.165018  -3.631739  -0.676378)
  17:       801.02    5.675676  ( -1.151536  -1.523374   1.424420)
  18:       845.64   11.224884  (  2.296494  -0.432208  -2.400874)
  19:       857.85   18.209187  (  2.426070  -3.081923   1.680810)
  20:       953.27    8.121200  (  0.468344   2.750664  -0.579397)
  21:       980.65   16.931385  ( -0.229829  -3.910842  -1.258523)
  22:       983.52   32.635863  ( -3.953919   3.739013   1.738439)
  23:      1016.00    1.939209  (  0.465523   1.282437  -0.279023)
  24:      1028.31   11.040391  ( -1.099574   2.902830   1.185287)
  25:      1038.53    7.275950  ( -2.226889   0.935022   1.201104)
  26:      1080.53    8.749876  ( -2.780980  -0.030438   1.007521)
  27:      1104.33    8.561246  ( -0.635069   2.751752  -0.765371)
  28:      1118.87    2.251244  ( -1.014707  -0.042104   1.104465)
  29:      1153.07    3.147018  ( -1.419475  -0.655173   0.838365)
  30:      1187.39    2.111460  ( -0.142365   1.421571   0.265192)
  31:      1193.10   12.885008  (  3.192624  -1.204444   1.114214)
  32:      1237.21    4.006873  (  1.731949  -0.735126   0.683240)
  33:      1327.03    0.486774  ( -0.665293  -0.063498  -0.200319)
  34:      1345.04    0.773659  (  0.278040   0.123977   0.825216)
  35:      1374.82    5.142987  (  1.188718   0.593813  -1.837749)
  36:      1421.29    3.104474  (  1.253781   1.149311  -0.459993)
  37:      1452.51    8.662664  (  2.305513   1.805664  -0.294706)
  38:      1470.58    4.155254  ( -1.415469   0.427059   1.403326)
  39:      1483.80   41.065760  (  0.156538   0.477795  -6.388503)
  40:      1507.40    5.824994  (  2.342069  -0.103692   0.573544)
  41:      1512.73  121.035702  (  0.239950   5.667790   9.426255)
  42:      1650.32   32.247310  ( -2.089894   5.146286  -1.181268)
  43:      1658.97   41.064389  (  5.840548   2.436501  -1.007893)
  44:      1726.64    8.131718  (  2.519678   0.415551   1.268959)
  45:      3034.44   19.091433  ( -0.687254  -2.189576  -3.718181)
  46:      3108.13   12.244977  ( -2.374474   2.474289   0.696236)
  47:      3115.13    8.322695  ( -1.412850  -1.282671  -2.163632)
  48:      3140.20    1.215525  (  0.471216  -0.604953   0.792157)
  49:      3159.49    6.853806  (  0.309104   1.118841  -2.346584)
  50:      3176.14    0.317491  ( -0.337276   0.338942  -0.298085)
  51:      3180.01    0.135612  (  0.280393   0.162174  -0.175189)
  52:      3219.41    0.656171  (  0.436828   0.540164   0.416625)
  53:      3253.07    1.771600  (  0.438864   0.671787  -1.061932)
  54:      3410.40   28.526938  ( -0.852770  -0.772502  -5.215646)
  55:      3487.46  100.726177  ( -6.303332  -6.572214   4.219026)
  56:      3490.94   98.422366  ( -8.004836   5.855160  -0.249146)

--------------------------
THERMOCHEMISTRY AT 298.15K
--------------------------

Temperature         ... 298.15 K
Pressure            ... 1.00 atm
Total Mass          ... 98.17 AMU

Throughout the following assumptions are being made:
  (1) The electronic state is orbitally nondegenerate
  (2) There are no thermally accessible electronically excited states
  (3) Hindered rotations indicated by low frequency modes) are not
      treated as such but are treated as vibrations and this may
      case some error
  (4) All equations used are the standard statistical mechanics
      equations for an ideal gas
  (5) All vibrations are strinctly harmonic

------------
INNER ENERGY
------------

The inner energy is: U= E(el) + E(ZPE) + E(vib) + E(rot) + E(trans)
    E(el)   - is the total energy from the electronic structure calculation
              = E(kin-el) + E(nuc-el) + E(el-el) + E(nuc-nuc)
    E(ZPE)  - the the zero temperature vibrational energy from the frequency calculation
    E(vib)  - the the finite temperature correction to E(ZPE) due to population
              of excietd vibrational states
    E(rot)  - is the rotational thermal energy
    E(trans)- is the translational thermal energy

Summary of contributions to the inner energy U:
Electronic energy                ...   -290.07035957 Eh
Zero point energy                ...      0.17483284 Eh     109.71 kcal/mol
Thermal vibrational correction   ...      0.00554041 Eh       3.48 kcal/mol
Thermal rotational correction    ...      0.00141627 Eh       0.89 kcal/mol
Thermal translational correction ...      0.00141627 Eh       0.89 kcal/mol
-----------------------------------------------------------------------
Total thermal energy                   -289.88715377 Eh

Summary of corrections to the electronic energy:
(perhaps to be used in another calculation)
Total thermal correction                  0.00837295 Eh       5.25 kcal/mol
Non-thermal (ZPE) correction              0.17483284 Eh     109.71 kcal/mol
-----------------------------------------------------------------------
Total correction                          0.18320579 Eh     114.96 kcal/mol

--------
ENTHALPY
--------

The enthalpy is H = U + kB*T
                kB is Boltzmann's constant
Total free energy                 ...   -289.88715377 Eh
Thermal Enthalpy correction       ...      0.00094421 Eh       0.59 kcal/mol
-----------------------------------------------------------------------
Total Enthalpy                    ...   -289.88620956 Eh

-------
ENTROPY
-------

The entropy contributions are T*S = T*(S(el)+S(vib)+S(rot)+S(trans)
     S(el)   - electronic entropy
     S(vib)  - vibrational entropy
     S(rot)  - rotational entropy
     S(trans)- translational entropy
The entropies will be listed as mutliplied by the temperature to get
units of energy

Electronic entropy                ...      0.00000000 Eh      0.00 kcal/mol
Vibrational entropy               ...      0.00974055 Eh      6.11 kcal/mol
Rotational entropy                ...      0.01217148 Eh      7.64 kcal/mol
Translational entropy             ...      0.01884507 Eh     11.83 kcal/mol
-----------------------------------------------------------------------
Final entropy term                ...      0.04075709 Eh     25.58 kcal/mol

CAUTION: The rotational entropy is not quite correctly treated here
         because it includes a symmetry number that is not yet correctly
         implemented in ORCA!
For a nonlinear molecule the correct rotational entropy is:
    S(rot) = R*(ln(qrot/sn)+1.5)
    R    = 8.31441 J/mol/K = 1.987191683e-3 kcal/mol/K
    qrot = 265575.9642804
    sn is the rotational symmetry number. We have assumed 3 here
       if it is different for your molecule then you should correct
       the printed rotational entropy by manually evaluating the equation
       as given above

For convenience we print out the resulting values for sn=1 - 12:
 sn= 1  qrot/sn=  265575.9643 T*S(rot)=     8.29 kcal/mol T*S(tot)=    26.23 kcal/mol
 sn= 2  qrot/sn=  132787.9821 T*S(rot)=     7.88 kcal/mol T*S(tot)=    25.82 kcal/mol
 sn= 3  qrot/sn=   88525.3214 T*S(rot)=     7.64 kcal/mol T*S(tot)=    25.58 kcal/mol
 sn= 4  qrot/sn=   66393.9911 T*S(rot)=     7.47 kcal/mol T*S(tot)=    25.40 kcal/mol
 sn= 5  qrot/sn=   53115.1929 T*S(rot)=     7.34 kcal/mol T*S(tot)=    25.27 kcal/mol
 sn= 6  qrot/sn=   44262.6607 T*S(rot)=     7.23 kcal/mol T*S(tot)=    25.16 kcal/mol
 sn= 7  qrot/sn=   37939.4235 T*S(rot)=     7.14 kcal/mol T*S(tot)=    25.07 kcal/mol
 sn= 8  qrot/sn=   33196.9955 T*S(rot)=     7.06 kcal/mol T*S(tot)=    24.99 kcal/mol
 sn= 9  qrot/sn=   29508.4405 T*S(rot)=     6.99 kcal/mol T*S(tot)=    24.92 kcal/mol
 sn=10  qrot/sn=   26557.5964 T*S(rot)=     6.92 kcal/mol T*S(tot)=    24.86 kcal/mol
 sn=11  qrot/sn=   24143.2695 T*S(rot)=     6.87 kcal/mol T*S(tot)=    24.81 kcal/mol
 sn=12  qrot/sn=   22131.3304 T*S(rot)=     6.82 kcal/mol T*S(tot)=    24.75 kcal/mol

-------------------
GIBBS FREE ENTHALPY
-------------------

The Gibbs free enthalpy is G = H - T*S

Total enthalpy                    ...   -289.88620956 Eh
Total entropy correction          ...     -0.04075709 Eh    -25.58 kcal/mol
-----------------------------------------------------------------------
Final Gibbs free enthalpy         ...   -289.92696666 Eh

For completeness - the Gibbs free enthalpy minus the electronic energy
G-E(el)                           ...      0.14339291 Eh     89.98 kcal/mol

                             ****ORCA TERMINATED NORMALLY****
TOTAL RUN TIME: 0 days 0 hours 53 minutes 57 seconds 223 msec
