                         Program Version 3.0.3 - RELEASE   -
|  1> ! NORI PBE0 def2-TZVP UseSym TightOPT Freq TightSCF Grid3 FinalGrid5 XYZFile
|  2> % pal
|  3>     nprocs 8
|  4> end
|  5> %method
|  6>     SymThresh 5.0e-2
|  7> end
|  8> % geom
|  9>     MaxIter 10
| 10> end
| 11> % maxcore 2000
| 12> % output
| 13>     printlevel mini
| 14>     print[ P_Basis ] 0
| 15>     print[ P_SCFInfo ] 1
| 16>     print[ P_SCFIterInfo ] 1
| 17>     print[ P_OrbEn ] 0
| 18>     print[ P_Cartesian ] 0
| 19> end
| 20> % elprop
| 21>     Dipole false
| 22> end
| 23> *xyz 1 1
| 24>  C        1.0346976388     0.0365130912    -0.1347401890
| 25>  C        2.5352933409    -0.0303580998    -0.0859165461
| 26>  C        3.3424412062    -0.7807566669    -1.0911876476
| 27>  N        2.6509383898    -1.4842125540    -2.1972165549
| 28>  C        3.3605997520     0.7213056362    -1.1094413621
| 29>  C        4.5697077454     1.4016596556    -0.7613614949
| 30>  C        5.5821727926     1.9689952146    -0.4604477578
| 31>  H        0.6875074954     0.8943908836     0.4430181147
| 32>  H        0.5767636021    -0.8566965391     0.2968530666
| 33>  H        0.6387520287     0.1813946813    -1.1464836356
| 34>  H        2.9613079014    -0.0684021139     0.9107190450
| 35>  H        4.2364696415    -1.3113618452    -0.7915865909
| 36>  H        1.7471632452    -1.0476948681    -2.3949148667
| 37>  H        2.4687945644    -2.4625701058    -1.9576689484
| 38>  H        3.2055487725    -1.4665721045    -3.0571557184
| 39>  H        2.7707645689     1.1934345852    -1.8941950471
| 40>  H        6.4789073141     2.4806311497    -0.1931638667
| 41> *
| 42>
| 43>                          ****END OF INPUT****
 Total Charge           Charge          ....    1
 Multiplicity           Mult            ....    1
 Number of Electrons    NEL             ....   52
FINAL SINGLE POINT ENERGY      -288.815550062614
FINAL SINGLE POINT ENERGY      -288.815551546398
FINAL SINGLE POINT ENERGY      -288.815552282966

CARTESIAN COORDINATES (ANGSTROEM)
---------------------------------
  C      2.290172    0.001504    0.205824
  C      0.919015   -0.499607   -0.151885
  C     -0.215178   -0.510633    0.817439
  N      0.001365   -0.001489    2.192158
  C     -0.225517    0.478710   -0.313271
  C     -1.204712    0.338275   -1.346472
  C     -2.019968    0.214418   -2.216561
  H      2.836989    0.250094   -0.704762
  H      2.869658   -0.754396    0.741003
  H      2.273145    0.920748    0.802124
  H      0.901641   -1.344484   -0.831414
  H     -0.934083   -1.319192    0.811263
  H      0.770861    0.672267    2.211975
  H      0.247063   -0.760456    2.833496
  H     -0.835198    0.461973    2.556435
  H      0.026354    1.505005   -0.049813
  H     -2.741407    0.110498   -2.995159

FINAL SINGLE POINT ENERGY      -288.815552591040
                    ***********************HURRAY********************
 Multiplicity           Mult            ....    1
 Number of Electrons    NEL             ....   52
 Basis Dimension        Dim             ....  277
FINAL SINGLE POINT ENERGY      -288.815552857669

VIBRATIONAL FREQUENCIES
-----------------------

   0:         0.00 cm**-1
   1:         0.00 cm**-1
   2:         0.00 cm**-1
   3:         0.00 cm**-1
   4:         0.00 cm**-1
   5:         0.00 cm**-1
   6:       134.71 cm**-1
   7:       150.83 cm**-1
   8:       165.51 cm**-1
   9:       183.35 cm**-1
  10:       243.73 cm**-1
  11:       295.94 cm**-1
  12:       357.70 cm**-1
  13:       442.46 cm**-1
  14:       491.51 cm**-1
  15:       546.92 cm**-1
  16:       712.74 cm**-1
  17:       743.57 cm**-1
  18:       797.78 cm**-1
  19:       830.70 cm**-1
  20:       864.41 cm**-1
  21:       959.90 cm**-1
  22:       982.58 cm**-1
  23:      1026.49 cm**-1
  24:      1068.45 cm**-1
  25:      1084.64 cm**-1
  26:      1112.08 cm**-1
  27:      1156.79 cm**-1
  28:      1181.18 cm**-1
  29:      1185.22 cm**-1
  30:      1236.23 cm**-1
  31:      1335.13 cm**-1
  32:      1379.58 cm**-1
  33:      1422.25 cm**-1
  34:      1467.59 cm**-1
  35:      1481.31 cm**-1
  36:      1504.05 cm**-1
  37:      1513.48 cm**-1
  38:      1648.58 cm**-1
  39:      1658.97 cm**-1
  40:      2255.74 cm**-1
  41:      3037.33 cm**-1
  42:      3111.74 cm**-1
  43:      3129.50 cm**-1
  44:      3143.95 cm**-1
  45:      3191.34 cm**-1
  46:      3220.11 cm**-1
  47:      3406.94 cm**-1
  48:      3464.84 cm**-1
  49:      3483.71 cm**-1
  50:      3486.99 cm**-1

IR SPECTRUM
-----------

 Mode    freq (cm**-1)   T**2         TX         TY         TZ
-------------------------------------------------------------------
   6:       134.71    3.315558  (  1.805228   0.011338   0.237867)
   7:       150.83    6.887592  (  1.270349  -2.290057  -0.171595)
   8:       165.51    4.341533  (  1.752279   0.620654  -0.941191)
   9:       183.35    4.978081  ( -2.096529   0.535464   0.543992)
  10:       243.73    8.598489  (  2.318579   0.744876  -1.633352)
  11:       295.94    3.467501  (  0.247146  -1.061092   1.510134)
  12:       357.70    6.554929  ( -0.223913   0.523954   2.496050)
  13:       442.46    1.878032  (  1.038364  -0.186495  -0.874672)
  14:       491.51   14.937089  ( -0.524018   3.486277  -1.583782)
  15:       546.92   11.671978  (  2.296797  -0.657247  -2.442279)
  16:       712.74   39.307938  ( -4.743405   0.970392   3.983263)
  17:       743.57   36.570863  (  0.394443   5.953955  -0.982700)
  18:       797.78    9.081880  ( -1.048481  -1.582429   2.340617)
  19:       830.70   11.097594  ( -2.336405   0.663807   2.279948)
  20:       864.41   15.987139  (  0.298753  -3.367591   2.134763)
  21:       959.90    2.017771  ( -0.536962  -1.240342   0.437030)
  22:       982.58    9.534685  (  2.964962   0.436743  -0.743601)
  23:      1026.49    6.491927  ( -1.843666   0.984611   1.457177)
  24:      1068.45    0.837012  ( -0.831123   0.118341  -0.363651)
  25:      1084.64   12.491590  ( -2.936105   0.216919   1.955459)
  26:      1112.08    7.842556  ( -0.826458   2.481720  -1.000294)
  27:      1156.79    2.621980  (  0.072027  -1.484923   0.641715)
  28:      1181.18   12.748850  ( -2.867359   1.821549  -1.099573)
  29:      1185.22    4.764150  (  1.933584   0.670767   0.758601)
  30:      1236.23    1.388191  ( -0.886359   0.410518  -0.658812)
  31:      1335.13    5.236163  ( -0.832521   0.004606  -2.131443)
  32:      1379.58    7.216583  ( -0.925116  -0.718459   2.417553)
  33:      1422.25    3.776711  (  1.249141   1.298208  -0.728707)
  34:      1467.59    2.089816  ( -0.938453   0.394308   1.026471)
  35:      1481.31   28.671712  ( -0.698382  -0.339772   5.297974)
  36:      1504.05   13.040424  ( -2.870165  -0.021688  -2.191371)
  37:      1513.48  127.631439  (  0.412559   5.882890   9.636018)
  38:      1648.58   33.008625  (  2.142795  -5.188500   1.223325)
  39:      1658.97   40.953755  (  5.664241   2.621563  -1.413342)
  40:      2255.74    1.469940  ( -0.593547  -0.481885  -0.940972)
  41:      3037.33   17.939573  ( -0.480049  -2.217127  -3.576797)
  42:      3111.74   11.141786  ( -2.015625   2.538915   0.795584)
  43:      3129.50    9.406323  ( -1.578543   0.069120  -2.628640)
  44:      3143.95    0.818287  (  0.594036  -0.422593   0.535559)
  45:      3191.34    0.711679  (  0.498729  -0.388207  -0.558788)
  46:      3220.11    2.051044  ( -0.660465  -1.263061  -0.139661)
  47:      3406.94   37.548335  ( -0.788495  -0.753127  -6.029877)
  48:      3464.84  104.382383  ( -6.966543  -0.388327  -7.463167)
  49:      3483.71   92.684069  (  2.452895  -8.819504   2.980559)
  50:      3486.99  116.015215  (-10.140567  -1.505774   3.304051)

--------------------------
THERMOCHEMISTRY AT 298.15K
--------------------------

Temperature         ... 298.15 K
Pressure            ... 1.00 atm
Total Mass          ... 96.15 AMU

Throughout the following assumptions are being made:
  (1) The electronic state is orbitally nondegenerate
  (2) There are no thermally accessible electronically excited states
  (3) Hindered rotations indicated by low frequency modes) are not
      treated as such but are treated as vibrations and this may
      case some error
  (4) All equations used are the standard statistical mechanics
      equations for an ideal gas
  (5) All vibrations are strinctly harmonic

------------
INNER ENERGY
------------

The inner energy is: U= E(el) + E(ZPE) + E(vib) + E(rot) + E(trans)
    E(el)   - is the total energy from the electronic structure calculation
              = E(kin-el) + E(nuc-el) + E(el-el) + E(nuc-nuc)
    E(ZPE)  - the the zero temperature vibrational energy from the frequency calculation
    E(vib)  - the the finite temperature correction to E(ZPE) due to population
              of excietd vibrational states
    E(rot)  - is the rotational thermal energy
    E(trans)- is the translational thermal energy

Summary of contributions to the inner energy U:
Electronic energy                ...   -288.81555286 Eh
Zero point energy                ...      0.15103923 Eh      94.78 kcal/mol
Thermal vibrational correction   ...      0.00521190 Eh       3.27 kcal/mol
Thermal rotational correction    ...      0.00141627 Eh       0.89 kcal/mol
Thermal translational correction ...      0.00141627 Eh       0.89 kcal/mol
-----------------------------------------------------------------------
Total thermal energy                   -288.65646919 Eh

Summary of corrections to the electronic energy:
(perhaps to be used in another calculation)
Total thermal correction                  0.00804445 Eh       5.05 kcal/mol
Non-thermal (ZPE) correction              0.15103923 Eh      94.78 kcal/mol
-----------------------------------------------------------------------
Total correction                          0.15908367 Eh      99.83 kcal/mol

--------
ENTHALPY
--------

The enthalpy is H = U + kB*T
                kB is Boltzmann's constant
Total free energy                 ...   -288.65646919 Eh
Thermal Enthalpy correction       ...      0.00094421 Eh       0.59 kcal/mol
-----------------------------------------------------------------------
Total Enthalpy                    ...   -288.65552498 Eh

-------
ENTROPY
-------

The entropy contributions are T*S = T*(S(el)+S(vib)+S(rot)+S(trans)
     S(el)   - electronic entropy
     S(vib)  - vibrational entropy
     S(rot)  - rotational entropy
     S(trans)- translational entropy
The entropies will be listed as mutliplied by the temperature to get
units of energy

Electronic entropy                ...      0.00000000 Eh      0.00 kcal/mol
Vibrational entropy               ...      0.00884015 Eh      5.55 kcal/mol
Rotational entropy                ...      0.01216160 Eh      7.63 kcal/mol
Translational entropy             ...      0.01881568 Eh     11.81 kcal/mol
-----------------------------------------------------------------------
Final entropy term                ...      0.03981743 Eh     24.99 kcal/mol

CAUTION: The rotational entropy is not quite correctly treated here
         because it includes a symmetry number that is not yet correctly
         implemented in ORCA!
For a nonlinear molecule the correct rotational entropy is:
    S(rot) = R*(ln(qrot/sn)+1.5)
    R    = 8.31441 J/mol/K = 1.987191683e-3 kcal/mol/K
    qrot = 262813.1661035
    sn is the rotational symmetry number. We have assumed 3 here
       if it is different for your molecule then you should correct
       the printed rotational entropy by manually evaluating the equation
       as given above

For convenience we print out the resulting values for sn=1 - 12:
 sn= 1  qrot/sn=  262813.1661 T*S(rot)=     8.28 kcal/mol T*S(tot)=    25.64 kcal/mol
 sn= 2  qrot/sn=  131406.5831 T*S(rot)=     7.87 kcal/mol T*S(tot)=    25.23 kcal/mol
 sn= 3  qrot/sn=   87604.3887 T*S(rot)=     7.63 kcal/mol T*S(tot)=    24.99 kcal/mol
 sn= 4  qrot/sn=   65703.2915 T*S(rot)=     7.46 kcal/mol T*S(tot)=    24.82 kcal/mol
 sn= 5  qrot/sn=   52562.6332 T*S(rot)=     7.33 kcal/mol T*S(tot)=    24.68 kcal/mol
 sn= 6  qrot/sn=   43802.1944 T*S(rot)=     7.22 kcal/mol T*S(tot)=    24.58 kcal/mol
 sn= 7  qrot/sn=   37544.7380 T*S(rot)=     7.13 kcal/mol T*S(tot)=    24.48 kcal/mol
 sn= 8  qrot/sn=   32851.6458 T*S(rot)=     7.05 kcal/mol T*S(tot)=    24.40 kcal/mol
 sn= 9  qrot/sn=   29201.4629 T*S(rot)=     6.98 kcal/mol T*S(tot)=    24.33 kcal/mol
 sn=10  qrot/sn=   26281.3166 T*S(rot)=     6.92 kcal/mol T*S(tot)=    24.27 kcal/mol
 sn=11  qrot/sn=   23892.1060 T*S(rot)=     6.86 kcal/mol T*S(tot)=    24.22 kcal/mol
 sn=12  qrot/sn=   21901.0972 T*S(rot)=     6.81 kcal/mol T*S(tot)=    24.16 kcal/mol

-------------------
GIBBS FREE ENTHALPY
-------------------

The Gibbs free enthalpy is G = H - T*S

Total enthalpy                    ...   -288.65552498 Eh
Total entropy correction          ...     -0.03981743 Eh    -24.99 kcal/mol
-----------------------------------------------------------------------
Final Gibbs free enthalpy         ...   -288.69534241 Eh

For completeness - the Gibbs free enthalpy minus the electronic energy
G-E(el)                           ...      0.12021045 Eh     75.43 kcal/mol

                             ****ORCA TERMINATED NORMALLY****
TOTAL RUN TIME: 0 days 0 hours 45 minutes 26 seconds 590 msec
