                         Program Version 3.0.3 - RELEASE   -
|  1> ! NORI PBE0 def2-TZVP UseSym TightOPT Freq TightSCF Grid3 FinalGrid5 XYZFile
|  2> % pal
|  3>     nprocs 8
|  4> end
|  5> %method
|  6>     SymThresh 5.0e-2
|  7> end
|  8> % geom
|  9>     MaxIter 10
| 10> end
| 11> % maxcore 2000
| 12> % output
| 13>     printlevel mini
| 14>     print[ P_Basis ] 0
| 15>     print[ P_SCFInfo ] 1
| 16>     print[ P_SCFIterInfo ] 1
| 17>     print[ P_OrbEn ] 0
| 18>     print[ P_Cartesian ] 0
| 19> end
| 20> % elprop
| 21>     Dipole false
| 22> end
| 23> *xyz 1 1
| 24>  C        0.8029211747    -0.0682031479     0.0148617413
| 25>  C        2.3096574057    -0.1125663084     0.0285556406
| 26>  C        3.0647853319     0.9372663535     0.8502217568
| 27>  N        4.0411192582    -0.1175492729     1.3136591517
| 28>  C        3.0545801578    -1.2186498855     0.8339118584
| 29>  C        2.3160458669    -1.7579546945     2.0359180678
| 30>  C        3.7486165587    -2.2910923770     0.0380561277
| 31>  H        0.3901118489    -0.9373394382    -0.5010424264
| 32>  H        0.4578119355     0.8177779665    -0.5221936645
| 33>  H        0.3790322946    -0.0334489997     1.0201514973
| 34>  H        2.6889944671    -0.1181063069    -0.9974491365
| 35>  H        2.5082112694     1.3048889861     1.7108477984
| 36>  H        3.5501196865     1.7659775004     0.3390800290
| 37>  H        4.9063349998    -0.1174271963     0.7758827781
| 38>  H        4.2767579072    -0.1226215091     2.3050784780
| 39>  H        1.5019311345    -2.4006176287     1.6977637861
| 40>  H        1.8766345087    -0.9706733385     2.6525651290
| 41>  H        2.9784729093    -2.3650901130     2.6579264969
| 42>  H        4.3290354657    -1.8761334087    -0.7898939978
| 43>  H        2.9942380365    -2.9527262109    -0.3935337250
| 44>  H        4.4025677823    -2.9031009700     0.6641726133
| 45> *
| 46>
| 47>                          ****END OF INPUT****
 Total Charge           Charge          ....    1
 Multiplicity           Mult            ....    1
 Number of Electrons    NEL             ....   56
FINAL SINGLE POINT ENERGY      -291.324421382378
FINAL SINGLE POINT ENERGY      -291.324422785990

CARTESIAN COORDINATES (ANGSTROEM)
---------------------------------
  C      1.334895    0.000539   -1.730671
  C      0.727631   -0.543546   -0.462617
  C      1.368356   -0.165574    0.876771
  N     -0.000296   -0.001052    1.493062
  C     -0.620692    0.028550    0.068735
  C     -0.906966    1.464710   -0.299278
  C     -1.830329   -0.860753   -0.039163
  H      0.715465   -0.241672   -2.596228
  H      2.315346   -0.448910   -1.900993
  H      1.466355    1.083569   -1.695296
  H      0.638419   -1.631475   -0.532484
  H      1.869065    0.801569    0.867470
  H      1.981232   -0.896583    1.399451
  H     -0.295683   -0.819883    2.022704
  H     -0.149099    0.827217    2.067634
  H     -1.176304    1.517281   -1.355097
  H     -0.046619    2.120483   -0.148320
  H     -1.751624    1.851760    0.275756
  H     -1.620836   -1.879828    0.295952
  H     -2.132798   -0.918294   -1.086979
  H     -2.676982   -0.463756    0.525961

FINAL SINGLE POINT ENERGY      -291.324423384729
                    ***********************HURRAY********************
 Multiplicity           Mult            ....    1
 Number of Electrons    NEL             ....   56
 Basis Dimension        Dim             ....  301
FINAL SINGLE POINT ENERGY      -291.324423467229

VIBRATIONAL FREQUENCIES
-----------------------

   0:         0.00 cm**-1
   1:         0.00 cm**-1
   2:         0.00 cm**-1
   3:         0.00 cm**-1
   4:         0.00 cm**-1
   5:         0.00 cm**-1
   6:       111.19 cm**-1
   7:       207.93 cm**-1
   8:       224.65 cm**-1
   9:       245.92 cm**-1
  10:       261.49 cm**-1
  11:       289.85 cm**-1
  12:       349.95 cm**-1
  13:       363.92 cm**-1
  14:       413.72 cm**-1
  15:       492.60 cm**-1
  16:       615.82 cm**-1
  17:       708.51 cm**-1
  18:       769.37 cm**-1
  19:       842.32 cm**-1
  20:       900.91 cm**-1
  21:       914.72 cm**-1
  22:       941.48 cm**-1
  23:       951.48 cm**-1
  24:       973.70 cm**-1
  25:      1000.34 cm**-1
  26:      1032.41 cm**-1
  27:      1088.59 cm**-1
  28:      1138.59 cm**-1
  29:      1172.47 cm**-1
  30:      1188.11 cm**-1
  31:      1227.89 cm**-1
  32:      1253.10 cm**-1
  33:      1292.07 cm**-1
  34:      1299.82 cm**-1
  35:      1328.17 cm**-1
  36:      1356.97 cm**-1
  37:      1396.33 cm**-1
  38:      1415.00 cm**-1
  39:      1423.39 cm**-1
  40:      1426.30 cm**-1
  41:      1467.25 cm**-1
  42:      1473.33 cm**-1
  43:      1484.91 cm**-1
  44:      1490.64 cm**-1
  45:      1495.27 cm**-1
  46:      1499.91 cm**-1
  47:      1501.50 cm**-1
  48:      1636.73 cm**-1
  49:      3052.67 cm**-1
  50:      3059.32 cm**-1
  51:      3063.67 cm**-1
  52:      3077.04 cm**-1
  53:      3118.68 cm**-1
  54:      3132.16 cm**-1
  55:      3135.48 cm**-1
  56:      3139.47 cm**-1
  57:      3140.81 cm**-1
  58:      3144.95 cm**-1
  59:      3151.53 cm**-1
  60:      3187.75 cm**-1
  61:      3465.00 cm**-1
  62:      3540.27 cm**-1

IR SPECTRUM
-----------

 Mode    freq (cm**-1)   T**2         TX         TY         TZ
-------------------------------------------------------------------
   6:       111.19    0.584271  ( -0.072388  -0.760908  -0.007092)
   7:       207.93    0.084089  (  0.152116   0.195199   0.151153)
   8:       224.65    0.104855  (  0.191518   0.251808  -0.069057)
   9:       245.92    0.196527  ( -0.305061   0.202343  -0.250045)
  10:       261.49    0.882854  ( -0.218869  -0.857362  -0.316038)
  11:       289.85    0.727831  (  0.481585  -0.490684  -0.505110)
  12:       349.95    1.066696  ( -0.880673   0.205603  -0.498837)
  13:       363.92    2.226313  (  0.454613   1.414347  -0.138784)
  14:       413.72    0.622632  (  0.694251  -0.353411   0.125489)
  15:       492.60    1.310434  (  0.884565  -0.405688   0.602823)
  16:       615.82    1.533001  ( -0.101343   1.223194   0.162873)
  17:       708.51    5.369387  (  1.631191  -1.382487   0.892935)
  18:       769.37    5.950731  (  1.636307  -0.412978   1.761442)
  19:       842.32    3.680723  ( -0.877106  -1.625910  -0.517518)
  20:       900.91    2.916810  ( -1.604214  -0.386818  -0.440090)
  21:       914.72    2.004233  ( -0.234450  -1.155806  -0.783185)
  22:       941.48    4.646189  ( -1.616374   1.221311   0.736155)
  23:       951.48    1.045013  (  1.003914   0.192675  -0.006855)
  24:       973.70    2.092950  ( -0.689799  -0.642065   1.097670)
  25:      1000.34    0.044073  ( -0.133321  -0.150037   0.061538)
  26:      1032.41    2.967448  ( -1.165475   0.880923   0.912738)
  27:      1088.59    4.859530  ( -1.863804   1.151801   0.243145)
  28:      1138.59   21.514007  (  1.947215  -0.056585   4.209413)
  29:      1172.47   14.377649  (  1.536765   0.258029   3.456794)
  30:      1188.11    3.270284  ( -1.449772  -0.416914  -0.997310)
  31:      1227.89   19.791916  ( -3.788825   0.022341  -2.331571)
  32:      1253.10    6.699885  (  1.974100   1.593593   0.513105)
  33:      1292.07   17.311857  (  3.224533  -1.270906   2.301966)
  34:      1299.82   46.177584  (  6.067201  -1.078899   2.864024)
  35:      1328.17    0.075461  ( -0.051396  -0.180276  -0.200799)
  36:      1356.97    7.428631  ( -2.603144  -0.072709  -0.804354)
  37:      1396.33    1.698866  (  0.749506  -1.062023  -0.095991)
  38:      1415.00   23.919678  ( -3.305647  -3.479680   0.940320)
  39:      1423.39    8.237869  ( -0.148802  -2.610277  -1.184136)
  40:      1426.30   11.684550  ( -1.585118   1.740726  -2.478271)
  41:      1467.25    0.368187  (  0.317358  -0.289737   0.428396)
  42:      1473.33    2.284231  (  1.227190   0.683526  -0.557698)
  43:      1484.91   18.868156  ( -3.876852   1.794248   0.786667)
  44:      1490.64    5.956627  ( -0.455785   2.374333  -0.333808)
  45:      1495.27    3.475050  ( -1.246871  -1.133633   0.797019)
  46:      1499.91   31.129771  ( -1.413660  -3.016832  -4.475496)
  47:      1501.50    4.918288  (  2.010669   0.935385   0.023547)
  48:      1636.73   58.538602  ( -1.666849  -0.325950   7.460159)
  49:      3052.67    1.882733  (  0.258760   0.994565  -0.909184)
  50:      3059.32    2.314603  ( -0.177549  -0.549084  -1.407688)
  51:      3063.67    2.543881  ( -0.629983  -1.232739   0.792059)
  52:      3077.04    4.814575  (  0.566080   1.947207  -0.838161)
  53:      3118.68    1.493420  (  0.887632   0.555837   0.629742)
  54:      3132.16    3.581418  (  0.234481  -1.850772   0.317931)
  55:      3135.48    8.153091  ( -2.618695   1.072268   0.381800)
  56:      3139.47    3.465361  (  1.423715  -1.127647   0.408422)
  57:      3140.81    2.720004  ( -1.338389  -0.598250   0.755524)
  58:      3144.95    8.699678  ( -1.186806  -2.601409  -0.723770)
  59:      3151.53    1.735368  ( -0.138916  -1.142733  -0.640493)
  60:      3187.75    0.575460  ( -0.518502   0.450573  -0.321869)
  61:      3465.00   49.762638  (  2.028894  -0.383809  -6.745288)
  62:      3540.27   64.509083  ( -1.102863  -7.953494   0.186300)

--------------------------
THERMOCHEMISTRY AT 298.15K
--------------------------

Temperature         ... 298.15 K
Pressure            ... 1.00 atm
Total Mass          ... 100.18 AMU

Throughout the following assumptions are being made:
  (1) The electronic state is orbitally nondegenerate
  (2) There are no thermally accessible electronically excited states
  (3) Hindered rotations indicated by low frequency modes) are not
      treated as such but are treated as vibrations and this may
      case some error
  (4) All equations used are the standard statistical mechanics
      equations for an ideal gas
  (5) All vibrations are strinctly harmonic

------------
INNER ENERGY
------------

The inner energy is: U= E(el) + E(ZPE) + E(vib) + E(rot) + E(trans)
    E(el)   - is the total energy from the electronic structure calculation
              = E(kin-el) + E(nuc-el) + E(el-el) + E(nuc-nuc)
    E(ZPE)  - the the zero temperature vibrational energy from the frequency calculation
    E(vib)  - the the finite temperature correction to E(ZPE) due to population
              of excietd vibrational states
    E(rot)  - is the rotational thermal energy
    E(trans)- is the translational thermal energy

Summary of contributions to the inner energy U:
Electronic energy                ...   -291.32442347 Eh
Zero point energy                ...      0.19837700 Eh     124.48 kcal/mol
Thermal vibrational correction   ...      0.00535626 Eh       3.36 kcal/mol
Thermal rotational correction    ...      0.00141627 Eh       0.89 kcal/mol
Thermal translational correction ...      0.00141627 Eh       0.89 kcal/mol
-----------------------------------------------------------------------
Total thermal energy                   -291.11785766 Eh

Summary of corrections to the electronic energy:
(perhaps to be used in another calculation)
Total thermal correction                  0.00818881 Eh       5.14 kcal/mol
Non-thermal (ZPE) correction              0.19837700 Eh     124.48 kcal/mol
-----------------------------------------------------------------------
Total correction                          0.20656580 Eh     129.62 kcal/mol

--------
ENTHALPY
--------

The enthalpy is H = U + kB*T
                kB is Boltzmann's constant
Total free energy                 ...   -291.11785766 Eh
Thermal Enthalpy correction       ...      0.00094421 Eh       0.59 kcal/mol
-----------------------------------------------------------------------
Total Enthalpy                    ...   -291.11691346 Eh

-------
ENTROPY
-------

The entropy contributions are T*S = T*(S(el)+S(vib)+S(rot)+S(trans)
     S(el)   - electronic entropy
     S(vib)  - vibrational entropy
     S(rot)  - rotational entropy
     S(trans)- translational entropy
The entropies will be listed as mutliplied by the temperature to get
units of energy

Electronic entropy                ...      0.00000000 Eh      0.00 kcal/mol
Vibrational entropy               ...      0.00875752 Eh      5.50 kcal/mol
Rotational entropy                ...      0.01199560 Eh      7.53 kcal/mol
Translational entropy             ...      0.01887386 Eh     11.84 kcal/mol
-----------------------------------------------------------------------
Final entropy term                ...      0.03962698 Eh     24.87 kcal/mol

CAUTION: The rotational entropy is not quite correctly treated here
         because it includes a symmetry number that is not yet correctly
         implemented in ORCA!
For a nonlinear molecule the correct rotational entropy is:
    S(rot) = R*(ln(qrot/sn)+1.5)
    R    = 8.31441 J/mol/K = 1.987191683e-3 kcal/mol/K
    qrot = 220439.4514818
    sn is the rotational symmetry number. We have assumed 3 here
       if it is different for your molecule then you should correct
       the printed rotational entropy by manually evaluating the equation
       as given above

For convenience we print out the resulting values for sn=1 - 12:
 sn= 1  qrot/sn=  220439.4515 T*S(rot)=     8.18 kcal/mol T*S(tot)=    25.52 kcal/mol
 sn= 2  qrot/sn=  110219.7257 T*S(rot)=     7.77 kcal/mol T*S(tot)=    25.11 kcal/mol
 sn= 3  qrot/sn=   73479.8172 T*S(rot)=     7.53 kcal/mol T*S(tot)=    24.87 kcal/mol
 sn= 4  qrot/sn=   55109.8629 T*S(rot)=     7.36 kcal/mol T*S(tot)=    24.70 kcal/mol
 sn= 5  qrot/sn=   44087.8903 T*S(rot)=     7.22 kcal/mol T*S(tot)=    24.56 kcal/mol
 sn= 6  qrot/sn=   36739.9086 T*S(rot)=     7.12 kcal/mol T*S(tot)=    24.46 kcal/mol
 sn= 7  qrot/sn=   31491.3502 T*S(rot)=     7.03 kcal/mol T*S(tot)=    24.36 kcal/mol
 sn= 8  qrot/sn=   27554.9314 T*S(rot)=     6.95 kcal/mol T*S(tot)=    24.29 kcal/mol
 sn= 9  qrot/sn=   24493.2724 T*S(rot)=     6.88 kcal/mol T*S(tot)=    24.22 kcal/mol
 sn=10  qrot/sn=   22043.9451 T*S(rot)=     6.81 kcal/mol T*S(tot)=    24.15 kcal/mol
 sn=11  qrot/sn=   20039.9501 T*S(rot)=     6.76 kcal/mol T*S(tot)=    24.10 kcal/mol
 sn=12  qrot/sn=   18369.9543 T*S(rot)=     6.71 kcal/mol T*S(tot)=    24.04 kcal/mol

-------------------
GIBBS FREE ENTHALPY
-------------------

The Gibbs free enthalpy is G = H - T*S

Total enthalpy                    ...   -291.11691346 Eh
Total entropy correction          ...     -0.03962698 Eh    -24.87 kcal/mol
-----------------------------------------------------------------------
Final Gibbs free enthalpy         ...   -291.15654043 Eh

For completeness - the Gibbs free enthalpy minus the electronic energy
G-E(el)                           ...      0.16788303 Eh    105.35 kcal/mol

                             ****ORCA TERMINATED NORMALLY****
TOTAL RUN TIME: 0 days 1 hours 1 minutes 53 seconds 919 msec
