                         Program Version 3.0.3 - RELEASE   -
|  1> ! NORI PBE0 def2-TZVP UseSym TightOPT Freq TightSCF Grid3 FinalGrid5 XYZFile
|  2> % pal
|  3>     nprocs 8
|  4> end
|  5> %method
|  6>     SymThresh 5.0e-2
|  7> end
|  8> % geom
|  9>     MaxIter 10
| 10> end
| 11> % maxcore 2000
| 12> % output
| 13>     printlevel mini
| 14>     print[ P_Basis ] 0
| 15>     print[ P_SCFInfo ] 1
| 16>     print[ P_SCFIterInfo ] 1
| 17>     print[ P_OrbEn ] 0
| 18>     print[ P_Cartesian ] 0
| 19> end
| 20> % elprop
| 21>     Dipole false
| 22> end
| 23> *xyz 1 1
| 24>  C        1.0111436330    -0.1445124188     0.1037315314
| 25>  C        2.5080933644     0.0065602291     0.0326852720
| 26>  C        3.1763340004     1.1425149490     0.8196821519
| 27>  N        4.2836938307     0.1983026580     1.2292781211
| 28>  C        3.3794044478    -0.9901506193     0.8328554752
| 29>  C        4.0706769258    -2.1108098154     0.1643507021
| 30>  C        4.0729494452    -3.3472343490     0.6448543730
| 31>  H        0.5126108164     0.6794604986    -0.4100734471
| 32>  H        0.6618228898    -0.1612411553     1.1391902717
| 33>  H        0.6936029813    -1.0709937947    -0.3782904179
| 34>  H        2.8466030871     0.0248624212    -1.0079288608
| 35>  H        2.6229324598     1.4365588240     1.7109566011
| 36>  H        3.5394140146     2.0227430193     0.2938052649
| 37>  H        4.6034319020     0.2331110560     2.1960826893
| 38>  H        5.0996198911     0.2619800702     0.6212477540
| 39>  H        2.8784408004    -1.3085707561     1.7493162847
| 40>  H        4.5519661553    -1.8910733367    -0.7871167889
| 41>  H        3.5809195669    -3.6004549480     1.5784810540
| 42>  H        4.5571297880    -4.1568325320     0.1124419683
| 43> *
| 44>
| 45>                          ****END OF INPUT****
 Total Charge           Charge          ....    1
 Multiplicity           Mult            ....    1
 Number of Electrons    NEL             ....   54
FINAL SINGLE POINT ENERGY      -290.084576856904
FINAL SINGLE POINT ENERGY      -290.084577892010

CARTESIAN COORDINATES (ANGSTROEM)
---------------------------------
  C      1.865570    0.000075   -1.377472
  C      0.968893   -0.525662   -0.286944
  C      1.412656   -0.378606    1.175293
  N     -0.000729   -0.002765    1.558860
  C     -0.297695    0.287298    0.070312
  C     -1.634984   -0.129625   -0.397155
  C     -2.513185    0.718387   -0.916536
  H      2.772288   -0.602168   -1.458075
  H      2.160676    1.035121   -1.187562
  H      1.359360   -0.039143   -2.343738
  H      0.685383   -1.563568   -0.486904
  H      2.059130    0.481614    1.346981
  H      1.785409   -1.245385    1.716279
  H     -0.125847    0.767907    2.213582
  H     -0.541540   -0.798754    1.896266
  H     -0.134066    1.358174   -0.067700
  H     -1.864066   -1.192337   -0.341662
  H     -2.301421    1.779340   -1.005522
  H     -3.473069    0.378486   -1.286208

FINAL SINGLE POINT ENERGY      -290.084578777466
                    ***********************HURRAY********************
 Multiplicity           Mult            ....    1
 Number of Electrons    NEL             ....   54
 Basis Dimension        Dim             ....  289
FINAL SINGLE POINT ENERGY      -290.084578916112

VIBRATIONAL FREQUENCIES
-----------------------

   0:         0.00 cm**-1
   1:         0.00 cm**-1
   2:         0.00 cm**-1
   3:         0.00 cm**-1
   4:         0.00 cm**-1
   5:         0.00 cm**-1
   6:        88.83 cm**-1
   7:       110.94 cm**-1
   8:       208.98 cm**-1
   9:       237.03 cm**-1
  10:       252.19 cm**-1
  11:       349.61 cm**-1
  12:       409.36 cm**-1
  13:       467.72 cm**-1
  14:       634.60 cm**-1
  15:       656.19 cm**-1
  16:       790.44 cm**-1
  17:       847.70 cm**-1
  18:       867.38 cm**-1
  19:       911.38 cm**-1
  20:       935.27 cm**-1
  21:       952.65 cm**-1
  22:       995.38 cm**-1
  23:      1018.10 cm**-1
  24:      1031.57 cm**-1
  25:      1055.72 cm**-1
  26:      1126.01 cm**-1
  27:      1149.27 cm**-1
  28:      1168.50 cm**-1
  29:      1220.32 cm**-1
  30:      1250.31 cm**-1
  31:      1268.36 cm**-1
  32:      1289.09 cm**-1
  33:      1311.99 cm**-1
  34:      1323.82 cm**-1
  35:      1330.79 cm**-1
  36:      1364.19 cm**-1
  37:      1400.28 cm**-1
  38:      1420.51 cm**-1
  39:      1466.13 cm**-1
  40:      1484.82 cm**-1
  41:      1490.30 cm**-1
  42:      1497.54 cm**-1
  43:      1641.75 cm**-1
  44:      1717.40 cm**-1
  45:      3057.84 cm**-1
  46:      3074.55 cm**-1
  47:      3111.12 cm**-1
  48:      3116.98 cm**-1
  49:      3137.03 cm**-1
  50:      3144.67 cm**-1
  51:      3155.24 cm**-1
  52:      3163.43 cm**-1
  53:      3189.07 cm**-1
  54:      3257.93 cm**-1
  55:      3463.38 cm**-1
  56:      3536.67 cm**-1

IR SPECTRUM
-----------

 Mode    freq (cm**-1)   T**2         TX         TY         TZ
-------------------------------------------------------------------
   6:        88.83    1.989463  ( -1.144435   0.765471  -0.306247)
   7:       110.94    1.542014  ( -0.342176  -1.189880   0.095471)
   8:       208.98    0.338894  ( -0.505897   0.190547   0.215997)
   9:       237.03    1.909333  ( -0.325700   1.302377   0.327210)
  10:       252.19    0.240895  ( -0.125188  -0.104306  -0.462972)
  11:       349.61    1.316357  (  1.068888   0.410614  -0.072331)
  12:       409.36    0.431957  (  0.636476  -0.147366  -0.071678)
  13:       467.72    0.540788  (  0.219394  -0.001055   0.701893)
  14:       634.60    3.490652  (  1.310823   1.263485  -0.419524)
  15:       656.19   10.005376  (  1.681640  -1.300447  -2.342285)
  16:       790.44   17.076643  (  2.885139  -0.663862   2.883038)
  17:       847.70    5.548719  (  0.711234  -1.485617   1.683985)
  18:       867.38   21.664284  (  1.872208   0.752868   4.194319)
  19:       911.38    3.849103  (  1.642010  -1.073647   0.013745)
  20:       935.27    2.789169  (  0.597935   1.391499   0.703827)
  21:       952.65   11.520486  ( -1.999228   0.262265   2.730346)
  22:       995.38   10.639731  (  1.788337  -0.314901   2.709690)
  23:      1018.10   45.831147  (  2.221516  -0.665135  -6.360315)
  24:      1031.57   10.090756  ( -1.424219   0.723514   2.745703)
  25:      1055.72    5.374927  (  1.341431  -0.427094   1.842032)
  26:      1126.01    2.569999  ( -0.959832   1.142511  -0.585997)
  27:      1149.27    0.787425  ( -0.659816   0.359818  -0.471804)
  28:      1168.50    0.508470  ( -0.675073   0.181498  -0.140731)
  29:      1220.32    2.610150  ( -1.487695  -0.204825  -0.595784)
  30:      1250.31   60.970508  ( -6.257647   1.594146  -4.389881)
  31:      1268.36    1.023810  ( -0.552870  -0.273366  -0.802132)
  32:      1289.09   20.468991  (  3.036007  -2.217505   2.516808)
  33:      1311.99    7.444496  (  1.866070  -1.535147   1.267124)
  34:      1323.82    0.819542  (  0.237133  -0.226566   0.843788)
  35:      1330.79   10.702443  (  1.489725  -2.698735   1.095442)
  36:      1364.19   10.997089  ( -2.797474   0.491572  -1.711604)
  37:      1400.28    0.335035  (  0.050913   0.408294   0.407111)
  38:      1420.51    6.830971  ( -1.213108  -1.123458   2.024150)
  39:      1466.13   21.795554  ( -3.117140   2.718055  -2.165911)
  40:      1484.82   12.530611  ( -2.854884   1.189615  -1.721936)
  41:      1490.30   10.323849  ( -0.673248   2.822367   1.380156)
  42:      1497.54   17.957998  (  2.574460   1.710585   2.898974)
  43:      1641.75   53.578015  ( -3.539517  -0.897883   6.343788)
  44:      1717.40    6.334748  ( -1.933035  -0.290716  -1.585436)
  45:      3057.84    2.800740  (  1.001409   1.244859  -0.498243)
  46:      3074.55    3.751422  (  1.038633   1.457728  -0.740063)
  47:      3111.12    0.867610  (  0.506076   0.780815  -0.042723)
  48:      3116.98    2.458662  ( -1.217975  -0.632868  -0.758074)
  49:      3137.03    7.654542  ( -0.412983  -2.520277  -1.064043)
  50:      3144.67    2.317808  ( -1.274056   0.407360  -0.727082)
  51:      3155.24    1.687600  ( -0.308736  -1.238149   0.243452)
  52:      3163.43    0.663123  ( -0.677536  -0.287841  -0.348159)
  53:      3189.07    0.461697  ( -0.449097   0.348086  -0.372620)
  54:      3257.93    0.245620  (  0.387615  -0.191737   0.242097)
  55:      3463.38   56.142616  (  3.266838   0.274934  -6.737566)
  56:      3536.67   73.290425  ( -2.357223  -8.013222  -1.876751)

--------------------------
THERMOCHEMISTRY AT 298.15K
--------------------------

Temperature         ... 298.15 K
Pressure            ... 1.00 atm
Total Mass          ... 98.17 AMU

Throughout the following assumptions are being made:
  (1) The electronic state is orbitally nondegenerate
  (2) There are no thermally accessible electronically excited states
  (3) Hindered rotations indicated by low frequency modes) are not
      treated as such but are treated as vibrations and this may
      case some error
  (4) All equations used are the standard statistical mechanics
      equations for an ideal gas
  (5) All vibrations are strinctly harmonic

------------
INNER ENERGY
------------

The inner energy is: U= E(el) + E(ZPE) + E(vib) + E(rot) + E(trans)
    E(el)   - is the total energy from the electronic structure calculation
              = E(kin-el) + E(nuc-el) + E(el-el) + E(nuc-nuc)
    E(ZPE)  - the the zero temperature vibrational energy from the frequency calculation
    E(vib)  - the the finite temperature correction to E(ZPE) due to population
              of excietd vibrational states
    E(rot)  - is the rotational thermal energy
    E(trans)- is the translational thermal energy

Summary of contributions to the inner energy U:
Electronic energy                ...   -290.08457892 Eh
Zero point energy                ...      0.17576139 Eh     110.29 kcal/mol
Thermal vibrational correction   ...      0.00487023 Eh       3.06 kcal/mol
Thermal rotational correction    ...      0.00141627 Eh       0.89 kcal/mol
Thermal translational correction ...      0.00141627 Eh       0.89 kcal/mol
-----------------------------------------------------------------------
Total thermal energy                   -289.90111475 Eh

Summary of corrections to the electronic energy:
(perhaps to be used in another calculation)
Total thermal correction                  0.00770277 Eh       4.83 kcal/mol
Non-thermal (ZPE) correction              0.17576139 Eh     110.29 kcal/mol
-----------------------------------------------------------------------
Total correction                          0.18346417 Eh     115.13 kcal/mol

--------
ENTHALPY
--------

The enthalpy is H = U + kB*T
                kB is Boltzmann's constant
Total free energy                 ...   -289.90111475 Eh
Thermal Enthalpy correction       ...      0.00094421 Eh       0.59 kcal/mol
-----------------------------------------------------------------------
Total Enthalpy                    ...   -289.90017054 Eh

-------
ENTROPY
-------

The entropy contributions are T*S = T*(S(el)+S(vib)+S(rot)+S(trans)
     S(el)   - electronic entropy
     S(vib)  - vibrational entropy
     S(rot)  - rotational entropy
     S(trans)- translational entropy
The entropies will be listed as mutliplied by the temperature to get
units of energy

Electronic entropy                ...      0.00000000 Eh      0.00 kcal/mol
Vibrational entropy               ...      0.00848516 Eh      5.32 kcal/mol
Rotational entropy                ...      0.01214661 Eh      7.62 kcal/mol
Translational entropy             ...      0.01884507 Eh     11.83 kcal/mol
-----------------------------------------------------------------------
Final entropy term                ...      0.03947684 Eh     24.77 kcal/mol

CAUTION: The rotational entropy is not quite correctly treated here
         because it includes a symmetry number that is not yet correctly
         implemented in ORCA!
For a nonlinear molecule the correct rotational entropy is:
    S(rot) = R*(ln(qrot/sn)+1.5)
    R    = 8.31441 J/mol/K = 1.987191683e-3 kcal/mol/K
    qrot = 258673.2638619
    sn is the rotational symmetry number. We have assumed 3 here
       if it is different for your molecule then you should correct
       the printed rotational entropy by manually evaluating the equation
       as given above

For convenience we print out the resulting values for sn=1 - 12:
 sn= 1  qrot/sn=  258673.2639 T*S(rot)=     8.27 kcal/mol T*S(tot)=    25.42 kcal/mol
 sn= 2  qrot/sn=  129336.6319 T*S(rot)=     7.86 kcal/mol T*S(tot)=    25.01 kcal/mol
 sn= 3  qrot/sn=   86224.4213 T*S(rot)=     7.62 kcal/mol T*S(tot)=    24.77 kcal/mol
 sn= 4  qrot/sn=   64668.3160 T*S(rot)=     7.45 kcal/mol T*S(tot)=    24.60 kcal/mol
 sn= 5  qrot/sn=   51734.6528 T*S(rot)=     7.32 kcal/mol T*S(tot)=    24.47 kcal/mol
 sn= 6  qrot/sn=   43112.2106 T*S(rot)=     7.21 kcal/mol T*S(tot)=    24.36 kcal/mol
 sn= 7  qrot/sn=   36953.3234 T*S(rot)=     7.12 kcal/mol T*S(tot)=    24.27 kcal/mol
 sn= 8  qrot/sn=   32334.1580 T*S(rot)=     7.04 kcal/mol T*S(tot)=    24.19 kcal/mol
 sn= 9  qrot/sn=   28741.4738 T*S(rot)=     6.97 kcal/mol T*S(tot)=    24.12 kcal/mol
 sn=10  qrot/sn=   25867.3264 T*S(rot)=     6.91 kcal/mol T*S(tot)=    24.06 kcal/mol
 sn=11  qrot/sn=   23515.7513 T*S(rot)=     6.85 kcal/mol T*S(tot)=    24.00 kcal/mol
 sn=12  qrot/sn=   21556.1053 T*S(rot)=     6.80 kcal/mol T*S(tot)=    23.95 kcal/mol

-------------------
GIBBS FREE ENTHALPY
-------------------

The Gibbs free enthalpy is G = H - T*S

Total enthalpy                    ...   -289.90017054 Eh
Total entropy correction          ...     -0.03947684 Eh    -24.77 kcal/mol
-----------------------------------------------------------------------
Final Gibbs free enthalpy         ...   -289.93964738 Eh

For completeness - the Gibbs free enthalpy minus the electronic energy
G-E(el)                           ...      0.14493153 Eh     90.95 kcal/mol

                             ****ORCA TERMINATED NORMALLY****
TOTAL RUN TIME: 0 days 0 hours 48 minutes 47 seconds 496 msec
