                         Program Version 3.0.3 - RELEASE   -
|  1> ! NORI PBE0 def2-TZVP UseSym TightOPT Freq TightSCF Grid3 FinalGrid5 XYZFile
|  2> % pal
|  3>     nprocs 8
|  4> end
|  5> %method
|  6>     SymThresh 5.0e-2
|  7> end
|  8> % geom
|  9>     MaxIter 10
| 10> end
| 11> % maxcore 2000
| 12> % output
| 13>     printlevel mini
| 14>     print[ P_Basis ] 0
| 15>     print[ P_SCFInfo ] 1
| 16>     print[ P_SCFIterInfo ] 1
| 17>     print[ P_OrbEn ] 0
| 18>     print[ P_Cartesian ] 0
| 19> end
| 20> % elprop
| 21>     Dipole false
| 22> end
| 23> *xyz 1 1
| 24>  C        0.8604266549     0.0969891038     0.0940055623
| 25>  C        2.3648552515     0.1015081687     0.0469182593
| 26>  C        3.1302243914     1.1385923070     0.8840323613
| 27>  N        4.1245131774     0.0725071663     1.2931285303
| 28>  C        3.1185027519    -0.9979559590     0.8415369413
| 29>  C        3.7049051104    -2.1224295638     0.1720696710
| 30>  C        4.1874066445    -3.0537098651    -0.4092108504
| 31>  H        0.4611504973    -0.7777144673    -0.4225946188
| 32>  H        0.4574858968     0.9820460371    -0.4019440772
| 33>  H        0.4924365787     0.0861576331     1.1230859631
| 34>  H        2.7274983858     0.1065042135    -0.9836924149
| 35>  H        2.5885330182     1.4667551749     1.7705660530
| 36>  H        3.5982357839     1.9864677106     0.3895014983
| 37>  H        4.9553337186     0.0586104338     0.7012612195
| 38>  H        4.4201253824     0.0462719770     2.2683579874
| 39>  H        2.5576308537    -1.2968317289     1.7313546475
| 40>  H        4.6127059028    -3.8869983419    -0.9242167330
| 41> *
| 42>
| 43>                          ****END OF INPUT****
 Total Charge           Charge          ....    1
 Multiplicity           Mult            ....    1
 Number of Electrons    NEL             ....   52
FINAL SINGLE POINT ENERGY      -288.825358829218
FINAL SINGLE POINT ENERGY      -288.825359660754

CARTESIAN COORDINATES (ANGSTROEM)
---------------------------------
  C      1.842986   -0.000355   -1.424563
  C      0.863548   -0.485145   -0.389009
  C      1.319365   -0.589672    1.074860
  N     -0.000608   -0.001254    1.526069
  C     -0.233791    0.501048    0.092516
  C     -1.586638    0.383160   -0.368106
  C     -2.711491    0.264668   -0.766173
  H      1.342036    0.163496   -2.380292
  H      2.626495   -0.742335   -1.588691
  H      2.318590    0.935639   -1.120765
  H      0.388988   -1.418000   -0.702934
  H      2.116128    0.107445    1.332675
  H      1.516317   -1.568022    1.506406
  H     -0.687187   -0.714018    1.774390
  H      0.018879    0.701828    2.263963
  H      0.122424    1.534304    0.060807
  H     -3.712740    0.165414   -1.124516

FINAL SINGLE POINT ENERGY      -288.825360405461
                    ***********************HURRAY********************
 Multiplicity           Mult            ....    1
 Number of Electrons    NEL             ....   52
 Basis Dimension        Dim             ....  277
FINAL SINGLE POINT ENERGY      -288.825360570430

VIBRATIONAL FREQUENCIES
-----------------------

   0:         0.00 cm**-1
   1:         0.00 cm**-1
   2:         0.00 cm**-1
   3:         0.00 cm**-1
   4:         0.00 cm**-1
   5:         0.00 cm**-1
   6:       100.83 cm**-1
   7:       142.32 cm**-1
   8:       200.13 cm**-1
   9:       228.86 cm**-1
  10:       289.42 cm**-1
  11:       387.73 cm**-1
  12:       487.97 cm**-1
  13:       518.64 cm**-1
  14:       620.84 cm**-1
  15:       726.61 cm**-1
  16:       777.35 cm**-1
  17:       783.71 cm**-1
  18:       844.06 cm**-1
  19:       873.39 cm**-1
  20:       909.13 cm**-1
  21:       940.01 cm**-1
  22:       948.54 cm**-1
  23:      1053.86 cm**-1
  24:      1094.66 cm**-1
  25:      1131.35 cm**-1
  26:      1167.57 cm**-1
  27:      1168.48 cm**-1
  28:      1253.62 cm**-1
  29:      1268.77 cm**-1
  30:      1287.28 cm**-1
  31:      1307.75 cm**-1
  32:      1324.37 cm**-1
  33:      1378.16 cm**-1
  34:      1403.05 cm**-1
  35:      1421.24 cm**-1
  36:      1483.18 cm**-1
  37:      1489.55 cm**-1
  38:      1496.51 cm**-1
  39:      1641.16 cm**-1
  40:      2250.21 cm**-1
  41:      3058.31 cm**-1
  42:      3088.87 cm**-1
  43:      3101.54 cm**-1
  44:      3118.73 cm**-1
  45:      3138.60 cm**-1
  46:      3146.17 cm**-1
  47:      3193.31 cm**-1
  48:      3452.29 cm**-1
  49:      3458.78 cm**-1
  50:      3532.58 cm**-1

IR SPECTRUM
-----------

 Mode    freq (cm**-1)   T**2         TX         TY         TZ
-------------------------------------------------------------------
   6:       100.83    0.751652  ( -0.180912   0.847607   0.022004)
   7:       142.32    0.974501  (  0.972862  -0.018230  -0.166458)
   8:       200.13    7.347474  ( -1.093703  -2.475538   0.151659)
   9:       228.86    1.246984  ( -0.503001   0.974687   0.209664)
  10:       289.42    3.069473  ( -1.172889  -0.155581   1.292130)
  11:       387.73    4.981284  (  0.884425  -1.948744  -0.633619)
  12:       487.97   11.739386  ( -1.061898   0.898470   3.131215)
  13:       518.64   10.501506  ( -0.724487   2.556079  -1.855555)
  14:       620.84    3.791118  (  0.500564   1.059616   1.554917)
  15:       726.61   37.482926  (  1.005662  -5.851275  -1.494708)
  16:       777.35   20.893467  ( -2.468186  -0.620584   3.796893)
  17:       783.71   17.691826  (  0.819344  -2.654659   3.158051)
  18:       844.06    6.639340  ( -0.876502   1.687620  -1.738684)
  19:       873.39   22.386792  (  2.713558   0.837454   3.784451)
  20:       909.13    3.655908  (  1.558720  -0.947915  -0.572499)
  21:       940.01    4.708771  (  0.031307   1.821658   1.178708)
  22:       948.54    9.412594  (  1.733367   0.197124  -2.523722)
  23:      1053.86   15.891177  ( -3.011679   1.052414  -2.390270)
  24:      1094.66    2.182142  ( -1.249337  -0.743209  -0.262565)
  25:      1131.35    3.220166  ( -1.723165   0.393622  -0.309726)
  26:      1167.57    0.596349  ( -0.757334   0.041680  -0.145110)
  27:      1168.48    0.185599  (  0.103883   0.355307  -0.220373)
  28:      1253.62   46.826250  ( -5.134831   2.784845  -3.564323)
  29:      1268.77    5.857084  ( -1.772834   0.091311  -1.644933)
  30:      1287.28   15.295325  ( -2.524271   2.228074  -1.989741)
  31:      1307.75   18.224562  (  1.924747  -3.255747   1.979905)
  32:      1324.37    0.741199  ( -0.197764   0.086356   0.833445)
  33:      1378.16   29.700424  ( -4.922424   0.622894  -2.254367)
  34:      1403.05    7.613375  ( -2.206374  -0.227479  -1.641201)
  35:      1421.24    6.827928  ( -0.995502  -0.998424   2.200012)
  36:      1483.18   11.116002  ( -2.434667   1.647571  -1.572867)
  37:      1489.55    9.644469  ( -0.219058   2.648593   1.606685)
  38:      1496.51   17.293393  ( -2.582538  -1.514049  -2.886442)
  39:      1641.16   56.224441  (  3.474876   0.707875  -6.606708)
  40:      2250.21   41.633086  (  5.732001   0.034139   2.962446)
  41:      3058.31    2.985679  (  1.125824   1.306356  -0.107863)
  42:      3088.87    1.532552  ( -0.244335   0.726803  -0.971910)
  43:      3101.54    2.098193  ( -1.429893   0.114446   0.201249)
  44:      3118.73    0.774572  ( -0.764494  -0.132467  -0.415419)
  45:      3138.60    5.945309  (  0.799545   2.078382   0.993159)
  46:      3146.17    1.449891  ( -0.935055   0.470831  -0.594880)
  47:      3193.31    0.149584  ( -0.325463  -0.011793  -0.208612)
  48:      3452.29   96.215695  ( -8.931392  -0.515846  -4.022416)
  49:      3458.78   67.897876  (  4.751576   0.341965  -6.723352)
  50:      3532.58   85.738072  (  4.005629   7.844460   2.856125)

--------------------------
THERMOCHEMISTRY AT 298.15K
--------------------------

Temperature         ... 298.15 K
Pressure            ... 1.00 atm
Total Mass          ... 96.15 AMU

Throughout the following assumptions are being made:
  (1) The electronic state is orbitally nondegenerate
  (2) There are no thermally accessible electronically excited states
  (3) Hindered rotations indicated by low frequency modes) are not
      treated as such but are treated as vibrations and this may
      case some error
  (4) All equations used are the standard statistical mechanics
      equations for an ideal gas
  (5) All vibrations are strinctly harmonic

------------
INNER ENERGY
------------

The inner energy is: U= E(el) + E(ZPE) + E(vib) + E(rot) + E(trans)
    E(el)   - is the total energy from the electronic structure calculation
              = E(kin-el) + E(nuc-el) + E(el-el) + E(nuc-nuc)
    E(ZPE)  - the the zero temperature vibrational energy from the frequency calculation
    E(vib)  - the the finite temperature correction to E(ZPE) due to population
              of excietd vibrational states
    E(rot)  - is the rotational thermal energy
    E(trans)- is the translational thermal energy

Summary of contributions to the inner energy U:
Electronic energy                ...   -288.82536057 Eh
Zero point energy                ...      0.15192985 Eh      95.34 kcal/mol
Thermal vibrational correction   ...      0.00457083 Eh       2.87 kcal/mol
Thermal rotational correction    ...      0.00141627 Eh       0.89 kcal/mol
Thermal translational correction ...      0.00141627 Eh       0.89 kcal/mol
-----------------------------------------------------------------------
Total thermal energy                   -288.66602735 Eh

Summary of corrections to the electronic energy:
(perhaps to be used in another calculation)
Total thermal correction                  0.00740337 Eh       4.65 kcal/mol
Non-thermal (ZPE) correction              0.15192985 Eh      95.34 kcal/mol
-----------------------------------------------------------------------
Total correction                          0.15933322 Eh      99.98 kcal/mol

--------
ENTHALPY
--------

The enthalpy is H = U + kB*T
                kB is Boltzmann's constant
Total free energy                 ...   -288.66602735 Eh
Thermal Enthalpy correction       ...      0.00094421 Eh       0.59 kcal/mol
-----------------------------------------------------------------------
Total Enthalpy                    ...   -288.66508314 Eh

-------
ENTROPY
-------

The entropy contributions are T*S = T*(S(el)+S(vib)+S(rot)+S(trans)
     S(el)   - electronic entropy
     S(vib)  - vibrational entropy
     S(rot)  - rotational entropy
     S(trans)- translational entropy
The entropies will be listed as mutliplied by the temperature to get
units of energy

Electronic entropy                ...      0.00000000 Eh      0.00 kcal/mol
Vibrational entropy               ...      0.00778557 Eh      4.89 kcal/mol
Rotational entropy                ...      0.01208488 Eh      7.58 kcal/mol
Translational entropy             ...      0.01881568 Eh     11.81 kcal/mol
-----------------------------------------------------------------------
Final entropy term                ...      0.03868613 Eh     24.28 kcal/mol

CAUTION: The rotational entropy is not quite correctly treated here
         because it includes a symmetry number that is not yet correctly
         implemented in ORCA!
For a nonlinear molecule the correct rotational entropy is:
    S(rot) = R*(ln(qrot/sn)+1.5)
    R    = 8.31441 J/mol/K = 1.987191683e-3 kcal/mol/K
    qrot = 242300.9554702
    sn is the rotational symmetry number. We have assumed 3 here
       if it is different for your molecule then you should correct
       the printed rotational entropy by manually evaluating the equation
       as given above

For convenience we print out the resulting values for sn=1 - 12:
 sn= 1  qrot/sn=  242300.9555 T*S(rot)=     8.23 kcal/mol T*S(tot)=    24.93 kcal/mol
 sn= 2  qrot/sn=  121150.4777 T*S(rot)=     7.82 kcal/mol T*S(tot)=    24.52 kcal/mol
 sn= 3  qrot/sn=   80766.9852 T*S(rot)=     7.58 kcal/mol T*S(tot)=    24.28 kcal/mol
 sn= 4  qrot/sn=   60575.2389 T*S(rot)=     7.41 kcal/mol T*S(tot)=    24.11 kcal/mol
 sn= 5  qrot/sn=   48460.1911 T*S(rot)=     7.28 kcal/mol T*S(tot)=    23.97 kcal/mol
 sn= 6  qrot/sn=   40383.4926 T*S(rot)=     7.17 kcal/mol T*S(tot)=    23.87 kcal/mol
 sn= 7  qrot/sn=   34614.4222 T*S(rot)=     7.08 kcal/mol T*S(tot)=    23.77 kcal/mol
 sn= 8  qrot/sn=   30287.6194 T*S(rot)=     7.00 kcal/mol T*S(tot)=    23.69 kcal/mol
 sn= 9  qrot/sn=   26922.3284 T*S(rot)=     6.93 kcal/mol T*S(tot)=    23.62 kcal/mol
 sn=10  qrot/sn=   24230.0955 T*S(rot)=     6.87 kcal/mol T*S(tot)=    23.56 kcal/mol
 sn=11  qrot/sn=   22027.3596 T*S(rot)=     6.81 kcal/mol T*S(tot)=    23.51 kcal/mol
 sn=12  qrot/sn=   20191.7463 T*S(rot)=     6.76 kcal/mol T*S(tot)=    23.45 kcal/mol

-------------------
GIBBS FREE ENTHALPY
-------------------

The Gibbs free enthalpy is G = H - T*S

Total enthalpy                    ...   -288.66508314 Eh
Total entropy correction          ...     -0.03868613 Eh    -24.28 kcal/mol
-----------------------------------------------------------------------
Final Gibbs free enthalpy         ...   -288.70376928 Eh

For completeness - the Gibbs free enthalpy minus the electronic energy
G-E(el)                           ...      0.12159130 Eh     76.30 kcal/mol

                             ****ORCA TERMINATED NORMALLY****
TOTAL RUN TIME: 0 days 0 hours 42 minutes 52 seconds 485 msec
