                         Program Version 3.0.3 - RELEASE   -
|  1> ! NORI PBE0 def2-TZVP UseSym TightOPT Freq TightSCF Grid3 FinalGrid5 XYZFile
|  2> % pal
|  3>     nprocs 8
|  4> end
|  5> %method
|  6>     SymThresh 5.0e-2
|  7> end
|  8> % geom
|  9>     MaxIter 10
| 10> end
| 11> % maxcore 2000
| 12> % output
| 13>     printlevel mini
| 14>     print[ P_Basis ] 0
| 15>     print[ P_SCFInfo ] 1
| 16>     print[ P_SCFIterInfo ] 1
| 17>     print[ P_OrbEn ] 0
| 18>     print[ P_Cartesian ] 0
| 19> end
| 20> % elprop
| 21>     Dipole false
| 22> end
| 23> *xyz 1 1
| 24>  C        0.9118977417    -0.1072623284     0.1222443618
| 25>  C        2.4246412333    -0.0854132740     0.0393807735
| 26>  C        3.1845448750     0.9573425925     0.9011601525
| 27>  N        4.1974385595    -0.1058845259     1.2709032534
| 28>  C        3.2096130343    -1.1655182174     0.8298513241
| 29>  C        2.9099983161    -0.0328780954    -1.3365285496
| 30>  N        3.3464363633     0.0079681458    -2.3988314769
| 31>  H        0.5137618348    -0.9765716545    -0.4031212488
| 32>  H        0.4907915788     0.7853857784    -0.3425098804
| 33>  H        0.5886964635    -0.1475803136     1.1641002297
| 34>  H        2.6299915114     1.2399661070     1.7945745387
| 35>  H        3.6242152703     1.8265173798     0.4180287682
| 36>  H        5.0203064256    -0.0761188963     0.6668135784
| 37>  H        4.5102209489    -0.1343685640     2.2408627571
| 38>  H        3.6692420648    -1.9895603391     0.2894491162
| 39>  H        2.6617537787    -1.5196737949     1.7015523020
| 40> *
| 41>
| 42>                          ****END OF INPUT****
 Total Charge           Charge          ....    1
 Multiplicity           Mult            ....    1
 Number of Electrons    NEL             ....   52
FINAL SINGLE POINT ENERGY      -304.899994263300

CARTESIAN COORDINATES (ANGSTROEM)
---------------------------------
  C     -1.313929   -1.494904    0.000001
  C     -0.296474   -0.371938    0.000002
  C      0.833853   -0.415756    1.061994
  N      1.829551    0.000619    0.000001
  C      0.833852   -0.415753   -1.061992
  C     -0.919517    0.948493    0.000004
  N     -1.356653    2.011296   -0.000013
  H     -1.953235   -1.430105   -0.881574
  H     -1.953234   -1.430107    0.881577
  H     -0.811602   -2.464080   -0.000001
  H      1.063806   -1.431445    1.380085
  H      0.792974    0.264268    1.909272
  H      1.988272    1.009506    0.000002
  H      2.734811   -0.468425   -0.000001
  H      0.792971    0.264273   -1.909268
  H      1.063804   -1.431441   -1.380087

FINAL SINGLE POINT ENERGY      -304.899995145651
                    ***********************HURRAY********************
 Multiplicity           Mult            ....    1
 Number of Electrons    NEL             ....   52
 Basis Dimension        Dim             ....  271
FINAL SINGLE POINT ENERGY      -304.899995741088

VIBRATIONAL FREQUENCIES
-----------------------

   0:         0.00 cm**-1
   1:         0.00 cm**-1
   2:         0.00 cm**-1
   3:         0.00 cm**-1
   4:         0.00 cm**-1
   5:         0.00 cm**-1
   6:       101.22 cm**-1
   7:       185.24 cm**-1
   8:       199.47 cm**-1
   9:       233.05 cm**-1
  10:       306.86 cm**-1
  11:       363.76 cm**-1
  12:       534.73 cm**-1
  13:       576.28 cm**-1
  14:       633.90 cm**-1
  15:       728.35 cm**-1
  16:       838.40 cm**-1
  17:       885.20 cm**-1
  18:       906.81 cm**-1
  19:       919.27 cm**-1
  20:       945.82 cm**-1
  21:       975.90 cm**-1
  22:      1009.55 cm**-1
  23:      1087.33 cm**-1
  24:      1159.40 cm**-1
  25:      1212.32 cm**-1
  26:      1248.75 cm**-1
  27:      1263.62 cm**-1
  28:      1320.04 cm**-1
  29:      1322.01 cm**-1
  30:      1328.17 cm**-1
  31:      1355.02 cm**-1
  32:      1420.24 cm**-1
  33:      1475.44 cm**-1
  34:      1478.33 cm**-1
  35:      1486.93 cm**-1
  36:      1499.03 cm**-1
  37:      1646.21 cm**-1
  38:      2382.33 cm**-1
  39:      3066.82 cm**-1
  40:      3122.21 cm**-1
  41:      3125.18 cm**-1
  42:      3152.60 cm**-1
  43:      3156.79 cm**-1
  44:      3203.91 cm**-1
  45:      3204.29 cm**-1
  46:      3455.84 cm**-1
  47:      3524.73 cm**-1

IR SPECTRUM
-----------

 Mode    freq (cm**-1)   T**2         TX         TY         TZ
-------------------------------------------------------------------
   6:       101.22   14.154587  ( -3.447773   1.505806  -0.000009)
   7:       185.24    3.710656  ( -0.000651   0.000012   1.926306)
   8:       199.47    2.476429  ( -0.994842  -1.219310  -0.000509)
   9:       233.05    0.009800  (  0.000597  -0.000444   0.098992)
  10:       306.86    0.031147  (  0.000392  -0.000451   0.176485)
  11:       363.76    1.042729  ( -0.466315  -0.908448   0.000676)
  12:       534.73    2.236391  ( -1.388680   0.554940  -0.000255)
  13:       576.28    0.001853  ( -0.000442   0.000971   0.043031)
  14:       633.90    4.590094  (  1.049861  -1.867588   0.000133)
  15:       728.35    3.372413  ( -0.464886   1.776596  -0.000250)
  16:       838.40    3.649774  (  0.000275  -0.001297  -1.910438)
  17:       885.20    1.458492  (  1.115032   0.463893   0.000293)
  18:       906.81    8.691011  (  2.488028  -1.581369  -0.000146)
  19:       919.27    1.630791  ( -0.000954  -0.000391  -1.277024)
  20:       945.82    0.081417  (  0.000761  -0.000855   0.285334)
  21:       975.90    3.942164  (  1.696295   1.031866  -0.000358)
  22:      1009.55    3.086456  (  1.740330  -0.240225   0.000198)
  23:      1087.33    0.119211  (  0.000410  -0.001506   0.345266)
  24:      1159.40    8.049943  ( -0.000636   0.000372   2.837242)
  25:      1212.32    1.674589  ( -1.291917   0.074430  -0.000317)
  26:      1248.75   30.219941  ( -0.000411   0.001414  -5.497266)
  27:      1263.62    0.131656  (  0.175589   0.317525   0.001728)
  28:      1320.04   13.006876  ( -1.521553   3.269823  -0.003296)
  29:      1322.01    0.408957  ( -0.002769   0.005267   0.639470)
  30:      1328.17   45.891998  (  0.000274  -0.000982  -6.774363)
  31:      1355.02    3.063761  ( -1.420985  -1.022039  -0.000214)
  32:      1420.24    6.015744  ( -1.635748  -1.827586   0.000405)
  33:      1475.44   29.834939  ( -0.000593   0.001090   5.462137)
  34:      1478.33    1.234996  ( -0.000856  -0.000397   1.111303)
  35:      1486.93    2.846055  ( -1.599820   0.535378   0.000538)
  36:      1499.03   14.809057  ( -2.778511   2.662505  -0.001755)
  37:      1646.21   71.680195  ( -7.661241  -3.603552  -0.000070)
  38:      2382.33    0.103312  ( -0.151128  -0.283676  -0.000432)
  39:      3066.82    2.127437  (  0.988725  -1.072315  -0.000043)
  40:      3122.21    0.426154  ( -0.000339   0.000564   0.652804)
  41:      3125.18    0.183314  ( -0.006431  -0.428104   0.000210)
  42:      3152.60    2.089292  ( -0.679037   1.276010   0.000930)
  43:      3156.79    0.025862  (  0.001082  -0.002449   0.160795)
  44:      3203.91    2.333705  (  0.045774  -1.526950  -0.005694)
  45:      3204.29    0.231025  (  0.000444  -0.021708   0.480160)
  46:      3455.84   85.151963  (  7.973779   4.644439  -0.000018)
  47:      3524.73   98.873693  (  5.386692  -8.358065   0.000558)

--------------------------
THERMOCHEMISTRY AT 298.15K
--------------------------

Temperature         ... 298.15 K
Pressure            ... 1.00 atm
Total Mass          ... 97.14 AMU

Throughout the following assumptions are being made:
  (1) The electronic state is orbitally nondegenerate
  (2) There are no thermally accessible electronically excited states
  (3) Hindered rotations indicated by low frequency modes) are not
      treated as such but are treated as vibrations and this may
      case some error
  (4) All equations used are the standard statistical mechanics
      equations for an ideal gas
  (5) All vibrations are strinctly harmonic

------------
INNER ENERGY
------------

The inner energy is: U= E(el) + E(ZPE) + E(vib) + E(rot) + E(trans)
    E(el)   - is the total energy from the electronic structure calculation
              = E(kin-el) + E(nuc-el) + E(el-el) + E(nuc-nuc)
    E(ZPE)  - the the zero temperature vibrational energy from the frequency calculation
    E(vib)  - the the finite temperature correction to E(ZPE) due to population
              of excietd vibrational states
    E(rot)  - is the rotational thermal energy
    E(trans)- is the translational thermal energy

Summary of contributions to the inner energy U:
Electronic energy                ...   -304.89999574 Eh
Zero point energy                ...      0.14134059 Eh      88.69 kcal/mol
Thermal vibrational correction   ...      0.00427209 Eh       2.68 kcal/mol
Thermal rotational correction    ...      0.00141627 Eh       0.89 kcal/mol
Thermal translational correction ...      0.00141627 Eh       0.89 kcal/mol
-----------------------------------------------------------------------
Total thermal energy                   -304.75155052 Eh

Summary of corrections to the electronic energy:
(perhaps to be used in another calculation)
Total thermal correction                  0.00710464 Eh       4.46 kcal/mol
Non-thermal (ZPE) correction              0.14134059 Eh      88.69 kcal/mol
-----------------------------------------------------------------------
Total correction                          0.14844522 Eh      93.15 kcal/mol

--------
ENTHALPY
--------

The enthalpy is H = U + kB*T
                kB is Boltzmann's constant
Total free energy                 ...   -304.75155052 Eh
Thermal Enthalpy correction       ...      0.00094421 Eh       0.59 kcal/mol
-----------------------------------------------------------------------
Total Enthalpy                    ...   -304.75060631 Eh

-------
ENTROPY
-------

The entropy contributions are T*S = T*(S(el)+S(vib)+S(rot)+S(trans)
     S(el)   - electronic entropy
     S(vib)  - vibrational entropy
     S(rot)  - rotational entropy
     S(trans)- translational entropy
The entropies will be listed as mutliplied by the temperature to get
units of energy

Electronic entropy                ...      0.00000000 Eh      0.00 kcal/mol
Vibrational entropy               ...      0.00722794 Eh      4.54 kcal/mol
Rotational entropy                ...      0.01193393 Eh      7.49 kcal/mol
Translational entropy             ...      0.01883016 Eh     11.82 kcal/mol
-----------------------------------------------------------------------
Final entropy term                ...      0.03799203 Eh     23.84 kcal/mol

CAUTION: The rotational entropy is not quite correctly treated here
         because it includes a symmetry number that is not yet correctly
         implemented in ORCA!
For a nonlinear molecule the correct rotational entropy is:
    S(rot) = R*(ln(qrot/sn)+1.5)
    R    = 8.31441 J/mol/K = 1.987191683e-3 kcal/mol/K
    qrot = 206501.3478877
    sn is the rotational symmetry number. We have assumed 3 here
       if it is different for your molecule then you should correct
       the printed rotational entropy by manually evaluating the equation
       as given above

For convenience we print out the resulting values for sn=1 - 12:
 sn= 1  qrot/sn=  206501.3479 T*S(rot)=     8.14 kcal/mol T*S(tot)=    24.49 kcal/mol
 sn= 2  qrot/sn=  103250.6739 T*S(rot)=     7.73 kcal/mol T*S(tot)=    24.08 kcal/mol
 sn= 3  qrot/sn=   68833.7826 T*S(rot)=     7.49 kcal/mol T*S(tot)=    23.84 kcal/mol
 sn= 4  qrot/sn=   51625.3370 T*S(rot)=     7.32 kcal/mol T*S(tot)=    23.67 kcal/mol
 sn= 5  qrot/sn=   41300.2696 T*S(rot)=     7.19 kcal/mol T*S(tot)=    23.54 kcal/mol
 sn= 6  qrot/sn=   34416.8913 T*S(rot)=     7.08 kcal/mol T*S(tot)=    23.43 kcal/mol
 sn= 7  qrot/sn=   29500.1926 T*S(rot)=     6.99 kcal/mol T*S(tot)=    23.34 kcal/mol
 sn= 8  qrot/sn=   25812.6685 T*S(rot)=     6.91 kcal/mol T*S(tot)=    23.26 kcal/mol
 sn= 9  qrot/sn=   22944.5942 T*S(rot)=     6.84 kcal/mol T*S(tot)=    23.19 kcal/mol
 sn=10  qrot/sn=   20650.1348 T*S(rot)=     6.78 kcal/mol T*S(tot)=    23.13 kcal/mol
 sn=11  qrot/sn=   18772.8498 T*S(rot)=     6.72 kcal/mol T*S(tot)=    23.07 kcal/mol
 sn=12  qrot/sn=   17208.4457 T*S(rot)=     6.67 kcal/mol T*S(tot)=    23.02 kcal/mol

-------------------
GIBBS FREE ENTHALPY
-------------------

The Gibbs free enthalpy is G = H - T*S

Total enthalpy                    ...   -304.75060631 Eh
Total entropy correction          ...     -0.03799203 Eh    -23.84 kcal/mol
-----------------------------------------------------------------------
Final Gibbs free enthalpy         ...   -304.78859834 Eh

For completeness - the Gibbs free enthalpy minus the electronic energy
G-E(el)                           ...      0.11139740 Eh     69.90 kcal/mol

                             ****ORCA TERMINATED NORMALLY****
TOTAL RUN TIME: 0 days 0 hours 37 minutes 47 seconds 351 msec
