                         Program Version 3.0.3 - RELEASE   -
|  1> ! NORI PBE0 def2-TZVP UseSym TightOPT Freq TightSCF Grid3 FinalGrid5 XYZFile
|  2> % pal
|  3>     nprocs 8
|  4> end
|  5> %method
|  6>     SymThresh 5.0e-2
|  7> end
|  8> % geom
|  9>     MaxIter 10
| 10> end
| 11> % maxcore 2000
| 12> % output
| 13>     printlevel mini
| 14>     print[ P_Basis ] 0
| 15>     print[ P_SCFInfo ] 1
| 16>     print[ P_SCFIterInfo ] 1
| 17>     print[ P_OrbEn ] 0
| 18>     print[ P_Cartesian ] 0
| 19> end
| 20> % elprop
| 21>     Dipole false
| 22> end
| 23> *xyz 1 1
| 24>  C        0.9553916996    -0.0061672552     0.1499006967
| 25>  C        2.4595073152     0.0164734511     0.1024214540
| 26>  C        3.2164374916     1.0541230684     0.9498369482
| 27>  N        4.2171736584    -0.0138294705     1.3584370459
| 28>  C        3.2257780399    -1.0748333668     0.8959367828
| 29>  C        3.8365222686    -2.1825822878     0.1998743337
| 30>  N        4.3434400519    -3.0335677273    -0.3822946092
| 31>  H        0.5650905642    -0.8776290334    -0.3789149768
| 32>  H        0.5469966862     0.8810290849    -0.3375340162
| 33>  H        0.5860600322    -0.0312946069     1.1781204516
| 34>  H        2.8223961151     0.0333716898    -0.9280803969
| 35>  H        2.6717141320     1.3759442381     1.8368343838
| 36>  H        3.6855499044     1.9039505974     0.4598860038
| 37>  H        5.0587056072    -0.0068126093     0.7797497850
| 38>  H        4.5013454678    -0.0482512911     2.3378872479
| 39>  H        2.6661709658    -1.4174444815     1.7693888658
| 40> *
| 41>
| 42>                          ****END OF INPUT****
 Total Charge           Charge          ....    1
 Multiplicity           Mult            ....    1
 Number of Electrons    NEL             ....   52
FINAL SINGLE POINT ENERGY      -304.896360575164

CARTESIAN COORDINATES (ANGSTROEM)
---------------------------------
  C     -1.854361   -0.175092   -1.419133
  C     -0.914462    0.403836   -0.395859
  C     -1.368448    0.485963    1.072133
  N      0.000186    0.000521    1.519379
  C      0.257231   -0.485685    0.098067
  C      1.600722   -0.240364   -0.370388
  N      2.664794   -0.000473   -0.731248
  H     -1.349399   -0.303748   -2.378180
  H     -2.698068    0.497795   -1.582464
  H     -2.247060   -1.144357   -1.101964
  H     -0.519943    1.368818   -0.723226
  H     -2.108529   -0.266093    1.343977
  H     -1.630847    1.451883    1.496769
  H      0.625783    0.766736    1.774392
  H      0.036458   -0.702975    2.257684
  H      0.012434   -1.549527    0.055887

FINAL SINGLE POINT ENERGY      -304.896361293227
                    ***********************HURRAY********************
 Multiplicity           Mult            ....    1
 Number of Electrons    NEL             ....   52
 Basis Dimension        Dim             ....  271
FINAL SINGLE POINT ENERGY      -304.896361908140

VIBRATIONAL FREQUENCIES
-----------------------

   0:         0.00 cm**-1
   1:         0.00 cm**-1
   2:         0.00 cm**-1
   3:         0.00 cm**-1
   4:         0.00 cm**-1
   5:         0.00 cm**-1
   6:        99.11 cm**-1
   7:       144.47 cm**-1
   8:       203.24 cm**-1
   9:       231.85 cm**-1
  10:       293.95 cm**-1
  11:       395.66 cm**-1
  12:       517.65 cm**-1
  13:       538.90 cm**-1
  14:       625.58 cm**-1
  15:       789.63 cm**-1
  16:       844.14 cm**-1
  17:       899.26 cm**-1
  18:       905.27 cm**-1
  19:       940.53 cm**-1
  20:       947.40 cm**-1
  21:      1059.63 cm**-1
  22:      1087.42 cm**-1
  23:      1129.76 cm**-1
  24:      1168.00 cm**-1
  25:      1170.55 cm**-1
  26:      1259.07 cm**-1
  27:      1271.54 cm**-1
  28:      1292.26 cm**-1
  29:      1313.49 cm**-1
  30:      1325.50 cm**-1
  31:      1382.54 cm**-1
  32:      1402.97 cm**-1
  33:      1422.34 cm**-1
  34:      1481.85 cm**-1
  35:      1488.79 cm**-1
  36:      1495.57 cm**-1
  37:      1643.15 cm**-1
  38:      2391.75 cm**-1
  39:      3059.69 cm**-1
  40:      3094.82 cm**-1
  41:      3113.52 cm**-1
  42:      3120.75 cm**-1
  43:      3141.39 cm**-1
  44:      3148.13 cm**-1
  45:      3196.65 cm**-1
  46:      3448.79 cm**-1
  47:      3518.88 cm**-1

IR SPECTRUM
-----------

 Mode    freq (cm**-1)   T**2         TX         TY         TZ
-------------------------------------------------------------------
   6:        99.11    7.306034  ( -0.048269  -2.123607  -1.671525)
   7:       144.47    8.215519  (  0.298731  -1.606397   2.354946)
   8:       203.24    3.350301  ( -1.336744   0.257322   1.223602)
   9:       231.85    0.199027  (  0.043424   0.103539  -0.431766)
  10:       293.95    1.842398  (  0.915675  -0.107865  -0.996143)
  11:       395.66    0.840692  ( -0.498530  -0.149918  -0.754774)
  12:       517.65    0.354718  ( -0.533177   0.118071  -0.237696)
  13:       538.90    2.444815  ( -1.139841   0.366125   1.005749)
  14:       625.58    3.325477  ( -0.473938  -1.090823   1.382376)
  15:       789.63    3.296119  (  0.687111  -1.541671  -0.668765)
  16:       844.14    4.323991  (  0.604943  -1.908327  -0.562425)
  17:       899.26   10.559113  (  1.823577   0.829854  -2.558324)
  18:       905.27    6.273141  (  2.300141  -0.686639   0.714855)
  19:       940.53    5.233797  ( -0.134081   1.546561  -1.680466)
  20:       947.40    5.865030  (  1.176454   0.604390   2.028719)
  21:      1059.63   14.251149  (  2.983425  -0.732682  -2.193969)
  22:      1087.42    1.452577  (  0.259993  -1.176826  -0.007825)
  23:      1129.76    3.998368  (  1.974675  -0.239924  -0.203629)
  24:      1168.00    0.122247  ( -0.015263  -0.140006  -0.320020)
  25:      1170.55    1.040421  ( -0.992736  -0.231370   0.036928)
  26:      1259.07   23.558608  (  4.102646  -1.549329  -2.080021)
  27:      1271.54    7.888078  ( -1.856415   0.192363   2.098761)
  28:      1292.26   20.709234  ( -3.545214   2.032201   2.002710)
  29:      1313.49   27.940397  ( -3.024013   3.401211   2.688403)
  30:      1325.50    1.608098  ( -0.889857   0.821140  -0.376805)
  31:      1382.54   15.606930  ( -3.686644   0.413048   1.358299)
  32:      1402.97    4.749120  ( -1.503986  -0.408505   1.523243)
  33:      1422.34    7.079166  (  1.190154   1.087313   2.116707)
  34:      1481.85   11.335067  ( -2.531575   1.493534   1.641814)
  35:      1488.79   10.038812  ( -0.444479   2.663470  -1.657462)
  36:      1495.57   17.670021  ( -2.359511  -1.759259   3.001289)
  37:      1643.15   61.721582  ( -3.732719  -0.996236  -6.840753)
  38:      2391.75    8.916264  (  2.500281   0.372048  -1.589477)
  39:      3059.69    2.222730  (  0.561244   1.331674  -0.366578)
  40:      3094.82    1.682120  (  0.551946   0.628007   0.991506)
  41:      3113.52    2.751226  ( -0.544111   1.565558   0.064774)
  42:      3120.75    0.134881  ( -0.256377   0.239002   0.109677)
  43:      3141.39    3.639439  ( -0.682729  -1.668026   0.625309)
  44:      3148.13    0.448398  ( -0.522188   0.262843   0.326544)
  45:      3196.65    0.514390  (  0.314155   0.638653  -0.088423)
  46:      3448.79   81.093566  (  4.227007   0.939617   7.895765)
  47:      3518.88   99.404490  ( -3.435175  -8.799448   3.189636)

--------------------------
THERMOCHEMISTRY AT 298.15K
--------------------------

Temperature         ... 298.15 K
Pressure            ... 1.00 atm
Total Mass          ... 97.14 AMU

Throughout the following assumptions are being made:
  (1) The electronic state is orbitally nondegenerate
  (2) There are no thermally accessible electronically excited states
  (3) Hindered rotations indicated by low frequency modes) are not
      treated as such but are treated as vibrations and this may
      case some error
  (4) All equations used are the standard statistical mechanics
      equations for an ideal gas
  (5) All vibrations are strinctly harmonic

------------
INNER ENERGY
------------

The inner energy is: U= E(el) + E(ZPE) + E(vib) + E(rot) + E(trans)
    E(el)   - is the total energy from the electronic structure calculation
              = E(kin-el) + E(nuc-el) + E(el-el) + E(nuc-nuc)
    E(ZPE)  - the the zero temperature vibrational energy from the frequency calculation
    E(vib)  - the the finite temperature correction to E(ZPE) due to population
              of excietd vibrational states
    E(rot)  - is the rotational thermal energy
    E(trans)- is the translational thermal energy

Summary of contributions to the inner energy U:
Electronic energy                ...   -304.89636191 Eh
Zero point energy                ...      0.14125876 Eh      88.64 kcal/mol
Thermal vibrational correction   ...      0.00431413 Eh       2.71 kcal/mol
Thermal rotational correction    ...      0.00141627 Eh       0.89 kcal/mol
Thermal translational correction ...      0.00141627 Eh       0.89 kcal/mol
-----------------------------------------------------------------------
Total thermal energy                   -304.74795648 Eh

Summary of corrections to the electronic energy:
(perhaps to be used in another calculation)
Total thermal correction                  0.00714667 Eh       4.48 kcal/mol
Non-thermal (ZPE) correction              0.14125876 Eh      88.64 kcal/mol
-----------------------------------------------------------------------
Total correction                          0.14840543 Eh      93.13 kcal/mol

--------
ENTHALPY
--------

The enthalpy is H = U + kB*T
                kB is Boltzmann's constant
Total free energy                 ...   -304.74795648 Eh
Thermal Enthalpy correction       ...      0.00094421 Eh       0.59 kcal/mol
-----------------------------------------------------------------------
Total Enthalpy                    ...   -304.74701227 Eh

-------
ENTROPY
-------

The entropy contributions are T*S = T*(S(el)+S(vib)+S(rot)+S(trans)
     S(el)   - electronic entropy
     S(vib)  - vibrational entropy
     S(rot)  - rotational entropy
     S(trans)- translational entropy
The entropies will be listed as mutliplied by the temperature to get
units of energy

Electronic entropy                ...      0.00000000 Eh      0.00 kcal/mol
Vibrational entropy               ...      0.00742773 Eh      4.66 kcal/mol
Rotational entropy                ...      0.01207121 Eh      7.57 kcal/mol
Translational entropy             ...      0.01883016 Eh     11.82 kcal/mol
-----------------------------------------------------------------------
Final entropy term                ...      0.03832909 Eh     24.05 kcal/mol

CAUTION: The rotational entropy is not quite correctly treated here
         because it includes a symmetry number that is not yet correctly
         implemented in ORCA!
For a nonlinear molecule the correct rotational entropy is:
    S(rot) = R*(ln(qrot/sn)+1.5)
    R    = 8.31441 J/mol/K = 1.987191683e-3 kcal/mol/K
    qrot = 238818.2697895
    sn is the rotational symmetry number. We have assumed 3 here
       if it is different for your molecule then you should correct
       the printed rotational entropy by manually evaluating the equation
       as given above

For convenience we print out the resulting values for sn=1 - 12:
 sn= 1  qrot/sn=  238818.2698 T*S(rot)=     8.23 kcal/mol T*S(tot)=    24.70 kcal/mol
 sn= 2  qrot/sn=  119409.1349 T*S(rot)=     7.82 kcal/mol T*S(tot)=    24.29 kcal/mol
 sn= 3  qrot/sn=   79606.0899 T*S(rot)=     7.57 kcal/mol T*S(tot)=    24.05 kcal/mol
 sn= 4  qrot/sn=   59704.5674 T*S(rot)=     7.40 kcal/mol T*S(tot)=    23.88 kcal/mol
 sn= 5  qrot/sn=   47763.6540 T*S(rot)=     7.27 kcal/mol T*S(tot)=    23.75 kcal/mol
 sn= 6  qrot/sn=   39803.0450 T*S(rot)=     7.16 kcal/mol T*S(tot)=    23.64 kcal/mol
 sn= 7  qrot/sn=   34116.8957 T*S(rot)=     7.07 kcal/mol T*S(tot)=    23.55 kcal/mol
 sn= 8  qrot/sn=   29852.2837 T*S(rot)=     6.99 kcal/mol T*S(tot)=    23.47 kcal/mol
 sn= 9  qrot/sn=   26535.3633 T*S(rot)=     6.92 kcal/mol T*S(tot)=    23.40 kcal/mol
 sn=10  qrot/sn=   23881.8270 T*S(rot)=     6.86 kcal/mol T*S(tot)=    23.34 kcal/mol
 sn=11  qrot/sn=   21710.7518 T*S(rot)=     6.80 kcal/mol T*S(tot)=    23.28 kcal/mol
 sn=12  qrot/sn=   19901.5225 T*S(rot)=     6.75 kcal/mol T*S(tot)=    23.23 kcal/mol

-------------------
GIBBS FREE ENTHALPY
-------------------

The Gibbs free enthalpy is G = H - T*S

Total enthalpy                    ...   -304.74701227 Eh
Total entropy correction          ...     -0.03832909 Eh    -24.05 kcal/mol
-----------------------------------------------------------------------
Final Gibbs free enthalpy         ...   -304.78534136 Eh

For completeness - the Gibbs free enthalpy minus the electronic energy
G-E(el)                           ...      0.11102054 Eh     69.67 kcal/mol

                             ****ORCA TERMINATED NORMALLY****
TOTAL RUN TIME: 0 days 0 hours 34 minutes 4 seconds 545 msec
