                         Program Version 3.0.3 - RELEASE   -
|  1> ! NORI PBE0 def2-TZVP UseSym TightOPT Freq TightSCF Grid3 FinalGrid5 XYZFile
|  2> % pal
|  3>     nprocs 8
|  4> end
|  5> %method
|  6>     SymThresh 5.0e-2
|  7> end
|  8> % geom
|  9>     MaxIter 10
| 10> end
| 11> % maxcore 2000
| 12> % output
| 13>     printlevel mini
| 14>     print[ P_Basis ] 0
| 15>     print[ P_SCFInfo ] 1
| 16>     print[ P_SCFIterInfo ] 1
| 17>     print[ P_OrbEn ] 0
| 18>     print[ P_Cartesian ] 0
| 19> end
| 20> % elprop
| 21>     Dipole false
| 22> end
| 23> *xyz 1 1
| 24>  C        0.9767871735     0.1918861558     0.3678547154
| 25>  C        2.4366851597    -0.0655601470     0.0249648495
| 26>  C        2.7538998353    -1.5405680016    -0.2632203874
| 27>  N        2.9544346845    -1.6476424883    -1.7618929337
| 28>  C        3.3229301325    -0.2944027359    -2.2654935928
| 29>  C        2.1667258507     0.6198932645    -2.4678671619
| 30>  C        2.9595962456     0.6842227864    -1.1984155271
| 31>  H        0.8037710905     1.2576364485     0.5217052088
| 32>  H        0.7016365759    -0.3253554062     1.2888040860
| 33>  H        0.2941390554    -0.1446493243    -0.4166409288
| 34>  H        3.0452676807     0.2360798326     0.8798881020
| 35>  H        3.6970380413    -1.8424118715     0.1901480834
| 36>  H        1.9747837340    -2.2402360351     0.0389867671
| 37>  H        3.6848496554    -2.3250078946    -1.9800536173
| 38>  H        2.1063795547    -1.9809781567    -2.2222660518
| 39>  H        4.2172396078    -0.2728669831    -2.8726856318
| 40>  H        1.1646585386     0.2054474689    -2.4441152780
| 41>  H        2.2999559646     1.4127622707    -3.1927911838
| 42>  H        3.5939114191     1.5458008166    -1.0366095178
| 43> *
| 44>
| 45>                          ****END OF INPUT****
 Total Charge           Charge          ....    1
 Multiplicity           Mult            ....    1
 Number of Electrons    NEL             ....   54
FINAL SINGLE POINT ENERGY      -290.100127907523
FINAL SINGLE POINT ENERGY      -290.100129363760

CARTESIAN COORDINATES (ANGSTROEM)
---------------------------------
  C      1.522044    0.000600   -1.529070
  C      0.462403   -0.739200   -0.726673
  C      0.844129   -0.963324    0.744238
  N     -0.000311   -0.000438    1.554959
  C     -1.198383    0.346678    0.739057
  C     -0.956687    1.393055   -0.290542
  C     -0.902159   -0.055720   -0.667528
  H      1.178712    0.168755   -2.550648
  H      2.442843   -0.583370   -1.580378
  H      1.770793    0.973694   -1.098120
  H      0.318051   -1.723019   -1.178147
  H      0.570246   -1.962417    1.080995
  H      1.895143   -0.787946    0.972357
  H     -0.277436   -0.423010    2.440589
  H      0.527504    0.840984    1.791051
  H     -2.140395    0.219166    1.253715
  H     -0.034630    1.963044   -0.247925
  H     -1.817966    1.969232   -0.602678
  H     -1.700178   -0.453498   -1.280513

FINAL SINGLE POINT ENERGY      -290.100130276254
                    ***********************HURRAY********************
 Multiplicity           Mult            ....    1
 Number of Electrons    NEL             ....   54
 Basis Dimension        Dim             ....  289
FINAL SINGLE POINT ENERGY      -290.100130741924

VIBRATIONAL FREQUENCIES
-----------------------

   0:         0.00 cm**-1
   1:         0.00 cm**-1
   2:         0.00 cm**-1
   3:         0.00 cm**-1
   4:         0.00 cm**-1
   5:         0.00 cm**-1
   6:       -38.33 cm**-1 ***imaginary mode***
   7:       219.92 cm**-1
   8:       253.62 cm**-1
   9:       327.00 cm**-1
  10:       389.08 cm**-1
  11:       461.94 cm**-1
  12:       657.10 cm**-1
  13:       671.67 cm**-1
  14:       756.85 cm**-1
  15:       800.00 cm**-1
  16:       819.90 cm**-1
  17:       863.20 cm**-1
  18:       920.89 cm**-1
  19:       934.74 cm**-1
  20:       945.15 cm**-1
  21:       980.02 cm**-1
  22:      1011.83 cm**-1
  23:      1048.19 cm**-1
  24:      1075.79 cm**-1
  25:      1082.58 cm**-1
  26:      1104.30 cm**-1
  27:      1121.11 cm**-1
  28:      1141.93 cm**-1
  29:      1187.40 cm**-1
  30:      1218.99 cm**-1
  31:      1257.36 cm**-1
  32:      1270.86 cm**-1
  33:      1320.64 cm**-1
  34:      1343.80 cm**-1
  35:      1364.91 cm**-1
  36:      1372.01 cm**-1
  37:      1397.60 cm**-1
  38:      1412.92 cm**-1
  39:      1426.87 cm**-1
  40:      1482.39 cm**-1
  41:      1486.60 cm**-1
  42:      1495.95 cm**-1
  43:      1501.91 cm**-1
  44:      1653.54 cm**-1
  45:      3058.86 cm**-1
  46:      3094.37 cm**-1
  47:      3109.34 cm**-1
  48:      3133.29 cm**-1
  49:      3149.17 cm**-1
  50:      3153.37 cm**-1
  51:      3169.87 cm**-1
  52:      3214.98 cm**-1
  53:      3229.37 cm**-1
  54:      3246.60 cm**-1
  55:      3455.96 cm**-1
  56:      3513.97 cm**-1

IR SPECTRUM
-----------

 Mode    freq (cm**-1)   T**2         TX         TY         TZ
-------------------------------------------------------------------
   7:       219.92    0.398137  (  0.048745   0.527138  -0.343346)
   8:       253.62    0.684718  ( -0.012292   0.694556  -0.449620)
   9:       327.00    0.877847  ( -0.626400   0.651256  -0.247662)
  10:       389.08    3.843294  (  0.153608   1.593744  -1.131229)
  11:       461.94    0.385805  (  0.195633   0.545616  -0.223240)
  12:       657.10    0.582542  ( -0.118992   0.154333  -0.737946)
  13:       671.67    4.965675  ( -1.015167   0.124214   1.979819)
  14:       756.85    6.336657  (  0.117766   0.976531   2.317148)
  15:       800.00    6.459640  (  1.423126   0.603547  -2.017445)
  16:       819.90   14.079957  (  0.742955   3.637911  -0.541829)
  17:       863.20    0.713122  ( -0.173202   0.682806  -0.465725)
  18:       920.89    1.443429  ( -0.401411   1.132220  -0.019386)
  19:       934.74    1.247453  ( -0.576564   0.113452   0.949819)
  20:       945.15    0.897769  (  0.606450   0.607388  -0.401332)
  21:       980.02    1.741723  (  0.936429  -0.734777  -0.570024)
  22:      1011.83    2.979214  ( -0.212254  -1.014825  -1.379961)
  23:      1048.19    2.575598  ( -0.875889   0.657592   1.173026)
  24:      1075.79    5.914253  ( -1.444761   0.832981   1.770046)
  25:      1082.58    7.241342  ( -0.075678   1.095700   2.456635)
  26:      1104.30    2.754385  (  0.450391   1.008163  -1.239008)
  27:      1121.11    5.243482  (  2.166368  -0.423510  -0.609073)
  28:      1141.93    3.994373  ( -1.733719   0.940024  -0.323956)
  29:      1187.40    2.152467  ( -0.586627   1.341325  -0.095834)
  30:      1218.99    0.121722  ( -0.039873   0.346553   0.005714)
  31:      1257.36    2.146504  (  0.259121   1.439135  -0.090831)
  32:      1270.86   17.923152  (  3.133002  -2.707738   0.880687)
  33:      1320.64    5.200343  (  1.776738  -0.842565   1.154829)
  34:      1343.80    1.769303  ( -1.149271   0.304646  -0.596382)
  35:      1364.91   12.700008  ( -3.253726   1.433778   0.239904)
  36:      1372.01   15.099536  (  3.527714  -1.485071  -0.670322)
  37:      1397.60    2.221434  ( -0.932876   0.509070   1.045000)
  38:      1412.92    9.220421  (  2.677830  -0.778671  -1.201382)
  39:      1426.87    8.755305  (  0.103092  -2.950157   0.203102)
  40:      1482.39    8.037920  (  0.198729   1.479762  -2.410131)
  41:      1486.60    9.752018  ( -2.753742   1.419339  -0.392935)
  42:      1495.95    8.451557  (  1.418966   0.764614   2.419392)
  43:      1501.91   13.230987  ( -0.404123  -3.608350  -0.217898)
  44:      1653.54   70.229599  ( -2.304696  -3.076676  -7.446612)
  45:      3058.86    5.978560  ( -1.574495  -1.870686  -0.007648)
  46:      3094.37    0.853407  (  0.693785   0.606991   0.060259)
  47:      3109.34    2.323398  ( -0.558798   0.817251  -1.158984)
  48:      3133.29   12.658558  (  0.918976  -3.044191  -1.595915)
  49:      3149.17    2.636329  (  1.143811  -0.324488   1.105773)
  50:      3153.37    3.609591  ( -1.263266  -0.305593  -1.385772)
  51:      3169.87    0.543086  ( -0.693120  -0.194676   0.157390)
  52:      3214.98    0.291462  (  0.199741   0.131879   0.483915)
  53:      3229.37    0.776080  (  0.859729   0.169305  -0.091005)
  54:      3246.60    1.355533  (  0.957802  -0.636007   0.183425)
  55:      3455.96   50.436538  ( -1.367628  -3.089199  -6.246838)
  56:      3513.97   82.911679  ( -3.736900  -5.949675   5.792118)

--------------------------
THERMOCHEMISTRY AT 298.15K
--------------------------

Temperature         ... 298.15 K
Pressure            ... 1.00 atm
Total Mass          ... 98.17 AMU

Throughout the following assumptions are being made:
  (1) The electronic state is orbitally nondegenerate
  (2) There are no thermally accessible electronically excited states
  (3) Hindered rotations indicated by low frequency modes) are not
      treated as such but are treated as vibrations and this may
      case some error
  (4) All equations used are the standard statistical mechanics
      equations for an ideal gas
  (5) All vibrations are strinctly harmonic

------------
INNER ENERGY
------------

The inner energy is: U= E(el) + E(ZPE) + E(vib) + E(rot) + E(trans)
    E(el)   - is the total energy from the electronic structure calculation
              = E(kin-el) + E(nuc-el) + E(el-el) + E(nuc-nuc)
    E(ZPE)  - the the zero temperature vibrational energy from the frequency calculation
    E(vib)  - the the finite temperature correction to E(ZPE) due to population
              of excietd vibrational states
    E(rot)  - is the rotational thermal energy
    E(trans)- is the translational thermal energy

Summary of contributions to the inner energy U:
Electronic energy                ...   -290.10013074 Eh
Zero point energy                ...      0.17840272 Eh     111.95 kcal/mol
Thermal vibrational correction   ...      0.00304476 Eh       1.91 kcal/mol
Thermal rotational correction    ...      0.00141627 Eh       0.89 kcal/mol
Thermal translational correction ...      0.00141627 Eh       0.89 kcal/mol
-----------------------------------------------------------------------
Total thermal energy                   -289.91585072 Eh

Summary of corrections to the electronic energy:
(perhaps to be used in another calculation)
Total thermal correction                  0.00587731 Eh       3.69 kcal/mol
Non-thermal (ZPE) correction              0.17840272 Eh     111.95 kcal/mol
-----------------------------------------------------------------------
Total correction                          0.18428002 Eh     115.64 kcal/mol

--------
ENTHALPY
--------

The enthalpy is H = U + kB*T
                kB is Boltzmann's constant
Total free energy                 ...   -289.91585072 Eh
Thermal Enthalpy correction       ...      0.00094421 Eh       0.59 kcal/mol
-----------------------------------------------------------------------
Total Enthalpy                    ...   -289.91490651 Eh

-------
ENTROPY
-------

The entropy contributions are T*S = T*(S(el)+S(vib)+S(rot)+S(trans)
     S(el)   - electronic entropy
     S(vib)  - vibrational entropy
     S(rot)  - rotational entropy
     S(trans)- translational entropy
The entropies will be listed as mutliplied by the temperature to get
units of energy

Electronic entropy                ...      0.00000000 Eh      0.00 kcal/mol
Vibrational entropy               ...      0.00451103 Eh      2.83 kcal/mol
Rotational entropy                ...      0.01182074 Eh      7.42 kcal/mol
Translational entropy             ...      0.01884507 Eh     11.83 kcal/mol
-----------------------------------------------------------------------
Final entropy term                ...      0.03517684 Eh     22.07 kcal/mol

CAUTION: The rotational entropy is not quite correctly treated here
         because it includes a symmetry number that is not yet correctly
         implemented in ORCA!
For a nonlinear molecule the correct rotational entropy is:
    S(rot) = R*(ln(qrot/sn)+1.5)
    R    = 8.31441 J/mol/K = 1.987191683e-3 kcal/mol/K
    qrot = 183171.9355327
    sn is the rotational symmetry number. We have assumed 3 here
       if it is different for your molecule then you should correct
       the printed rotational entropy by manually evaluating the equation
       as given above

For convenience we print out the resulting values for sn=1 - 12:
 sn= 1  qrot/sn=  183171.9355 T*S(rot)=     8.07 kcal/mol T*S(tot)=    22.72 kcal/mol
 sn= 2  qrot/sn=   91585.9678 T*S(rot)=     7.66 kcal/mol T*S(tot)=    22.31 kcal/mol
 sn= 3  qrot/sn=   61057.3118 T*S(rot)=     7.42 kcal/mol T*S(tot)=    22.07 kcal/mol
 sn= 4  qrot/sn=   45792.9839 T*S(rot)=     7.25 kcal/mol T*S(tot)=    21.90 kcal/mol
 sn= 5  qrot/sn=   36634.3871 T*S(rot)=     7.11 kcal/mol T*S(tot)=    21.77 kcal/mol
 sn= 6  qrot/sn=   30528.6559 T*S(rot)=     7.01 kcal/mol T*S(tot)=    21.66 kcal/mol
 sn= 7  qrot/sn=   26167.4194 T*S(rot)=     6.92 kcal/mol T*S(tot)=    21.57 kcal/mol
 sn= 8  qrot/sn=   22896.4919 T*S(rot)=     6.84 kcal/mol T*S(tot)=    21.49 kcal/mol
 sn= 9  qrot/sn=   20352.4373 T*S(rot)=     6.77 kcal/mol T*S(tot)=    21.42 kcal/mol
 sn=10  qrot/sn=   18317.1936 T*S(rot)=     6.70 kcal/mol T*S(tot)=    21.36 kcal/mol
 sn=11  qrot/sn=   16651.9941 T*S(rot)=     6.65 kcal/mol T*S(tot)=    21.30 kcal/mol
 sn=12  qrot/sn=   15264.3280 T*S(rot)=     6.60 kcal/mol T*S(tot)=    21.25 kcal/mol

-------------------
GIBBS FREE ENTHALPY
-------------------

The Gibbs free enthalpy is G = H - T*S

Total enthalpy                    ...   -289.91490651 Eh
Total entropy correction          ...     -0.03517684 Eh    -22.07 kcal/mol
-----------------------------------------------------------------------
Final Gibbs free enthalpy         ...   -289.95008335 Eh

For completeness - the Gibbs free enthalpy minus the electronic energy
G-E(el)                           ...      0.15004740 Eh     94.16 kcal/mol

                             ****ORCA TERMINATED NORMALLY****
TOTAL RUN TIME: 0 days 0 hours 55 minutes 56 seconds 625 msec
