                         Program Version 3.0.3 - RELEASE   -
|  1> ! NORI PBE0 def2-TZVP UseSym TightOPT Freq TightSCF Grid3 FinalGrid5 XYZFile
|  2> % pal
|  3>     nprocs 8
|  4> end
|  5> %method
|  6>     SymThresh 5.0e-2
|  7> end
|  8> % geom
|  9>     MaxIter 10
| 10> end
| 11> % maxcore 2000
| 12> % output
| 13>     printlevel mini
| 14>     print[ P_Basis ] 0
| 15>     print[ P_SCFInfo ] 1
| 16>     print[ P_SCFIterInfo ] 1
| 17>     print[ P_OrbEn ] 0
| 18>     print[ P_Cartesian ] 0
| 19> end
| 20> % elprop
| 21>     Dipole false
| 22> end
| 23> *xyz 1 1
| 24>  C        1.2237548101     0.1069467532     0.5501275564
| 25>  C        2.3445683960    -0.0560419641    -0.1347558589
| 26>  C        2.8619061041    -1.3763880481    -0.6312629651
| 27>  N        4.3658255855    -1.1892945964    -0.6237197213
| 28>  C        4.6280805840     0.2651831344    -0.7877503734
| 29>  C        3.8936403083     0.9303050646    -1.8924737383
| 30>  C        3.3414856523     0.9795306520    -0.4907590912
| 31>  H        0.5885938825    -0.7313408839     0.8109580582
| 32>  H        0.8965846423     1.0905874577     0.8633668323
| 33>  H        2.5997311790    -2.2307962872    -0.0101687579
| 34>  H        2.5704152875    -1.5868448675    -1.6612104841
| 35>  H        4.7426638881    -1.4919006795     0.2760264084
| 36>  H        4.8205116665    -1.7489621372    -1.3468072611
| 37>  H        5.6086713552     0.5754762735    -0.4551822735
| 38>  H        3.3838419334     0.3407327568    -2.6448600296
| 39>  H        4.3499049809     1.8352982168    -2.2713846787
| 40>  H        3.3460397443     1.9169791549     0.0484263777
| 41> *
| 42>
| 43>                          ****END OF INPUT****
 Total Charge           Charge          ....    1
 Multiplicity           Mult            ....    1
 Number of Electrons    NEL             ....   52
FINAL SINGLE POINT ENERGY      -288.873416030886

CARTESIAN COORDINATES (ANGSTROEM)
---------------------------------
  C      1.699863    0.000148   -1.612092
  C      0.757013    0.073657   -0.686078
  C      0.898724    0.790212    0.626809
  N      0.000009    0.000037    1.556793
  C     -1.052795   -0.631807    0.717949
  C     -1.738127    0.269289   -0.241309
  C     -0.575862   -0.571525   -0.704326
  H      2.669791    0.463338   -1.475313
  H      1.527177   -0.517108   -2.547793
  H      1.909999    0.808881    1.028833
  H      0.512232    1.810046    0.598176
  H      0.542987   -0.735628    2.011974
  H     -0.392433    0.587773    2.293991
  H     -1.534138   -1.481249    1.182451
  H     -1.620654    1.343539   -0.164701
  H     -2.725946   -0.048536   -0.548629
  H     -0.754444   -1.397969   -1.378737

FINAL SINGLE POINT ENERGY      -288.873416554144
                    ***********************HURRAY********************
 Multiplicity           Mult            ....    1
 Number of Electrons    NEL             ....   52
 Basis Dimension        Dim             ....  277
FINAL SINGLE POINT ENERGY      -288.873416846124

VIBRATIONAL FREQUENCIES
-----------------------

   0:         0.00 cm**-1
   1:         0.00 cm**-1
   2:         0.00 cm**-1
   3:         0.00 cm**-1
   4:         0.00 cm**-1
   5:         0.00 cm**-1
   6:       144.23 cm**-1
   7:       256.16 cm**-1
   8:       353.77 cm**-1
   9:       379.93 cm**-1
  10:       504.27 cm**-1
  11:       614.44 cm**-1
  12:       642.83 cm**-1
  13:       753.39 cm**-1
  14:       769.04 cm**-1
  15:       823.07 cm**-1
  16:       853.04 cm**-1
  17:       864.33 cm**-1
  18:       909.89 cm**-1
  19:       938.54 cm**-1
  20:       975.47 cm**-1
  21:       981.52 cm**-1
  22:       987.29 cm**-1
  23:      1046.91 cm**-1
  24:      1068.48 cm**-1
  25:      1086.39 cm**-1
  26:      1106.80 cm**-1
  27:      1123.84 cm**-1
  28:      1201.49 cm**-1
  29:      1229.38 cm**-1
  30:      1270.64 cm**-1
  31:      1282.06 cm**-1
  32:      1341.04 cm**-1
  33:      1350.23 cm**-1
  34:      1375.56 cm**-1
  35:      1419.24 cm**-1
  36:      1462.08 cm**-1
  37:      1482.45 cm**-1
  38:      1496.24 cm**-1
  39:      1649.59 cm**-1
  40:      1759.12 cm**-1
  41:      3102.68 cm**-1
  42:      3163.85 cm**-1
  43:      3170.04 cm**-1
  44:      3174.05 cm**-1
  45:      3224.24 cm**-1
  46:      3230.60 cm**-1
  47:      3253.81 cm**-1
  48:      3264.90 cm**-1
  49:      3446.47 cm**-1
  50:      3501.42 cm**-1

IR SPECTRUM
-----------

 Mode    freq (cm**-1)   T**2         TX         TY         TZ
-------------------------------------------------------------------
   6:       144.23    3.585538  ( -1.085016   1.354901   0.756652)
   7:       256.16    1.549923  ( -0.676375   0.695359   0.780331)
   8:       353.77    1.139322  ( -0.745495   0.763593  -0.022015)
   9:       379.93    7.379565  (  1.977483  -1.849389   0.221104)
  10:       504.27    4.937973  ( -0.729858   1.475446  -1.492763)
  11:       614.44    3.906676  (  1.191855  -1.432348  -0.659195)
  12:       642.83    5.284473  (  0.200069  -1.263388   1.910051)
  13:       753.39    2.998672  (  1.145626  -1.295445  -0.089635)
  14:       769.04    6.193420  ( -0.088271   0.479400  -2.440451)
  15:       823.07    9.526882  (  2.368003  -0.883363  -1.771754)
  16:       853.04    5.014083  ( -0.430580   1.875208  -1.145547)
  17:       864.33    3.366135  (  0.864903  -1.614997   0.099314)
  18:       909.89    3.009222  ( -0.402203  -1.146980   1.237696)
  19:       938.54    1.197120  (  0.355705   1.000010  -0.265658)
  20:       975.47   17.935947  (  0.573172  -3.325346   2.559197)
  21:       981.52   22.651874  ( -0.455848   4.209098  -2.174298)
  22:       987.29   16.120867  (  3.634285  -0.959417  -1.411510)
  23:      1046.91    2.679183  (  1.401225   0.832139   0.152632)
  24:      1068.48    6.182267  (  0.335691  -0.236799  -2.452245)
  25:      1086.39    3.281877  ( -1.194072   0.443368  -1.288213)
  26:      1106.80    0.288677  (  0.027887   0.458697  -0.278381)
  27:      1123.84    3.053407  (  0.947436   1.290234  -0.700763)
  28:      1201.49    0.488489  ( -0.455280  -0.110583  -0.518633)
  29:      1229.38   10.197157  (  0.107124  -2.792141  -1.545842)
  30:      1270.64   29.100046  (  4.744771   2.286502  -1.165803)
  31:      1282.06    0.135475  ( -0.059485  -0.165072   0.323556)
  32:      1341.04    9.421203  (  2.643402  -0.087719  -1.557541)
  33:      1350.23   12.524565  ( -2.998954  -1.866223   0.219201)
  34:      1375.56    3.970602  (  0.954536   1.622505   0.653407)
  35:      1419.24   22.223437  ( -4.205564  -1.827823   1.093495)
  36:      1462.08    6.335508  (  0.887759  -0.115701  -2.352447)
  37:      1482.45    5.615844  (  1.484275  -0.454842   1.790501)
  38:      1496.24   23.635391  (  0.051109   4.854292   0.261961)
  39:      1649.59   61.646317  ( -0.945232   0.677003  -7.764955)
  40:      1759.12    9.516140  (  2.428239  -0.011893  -1.902539)
  41:      3102.68    0.833027  (  0.581527  -0.400453  -0.578352)
  42:      3163.85    1.668346  ( -0.890684  -0.497214  -0.792343)
  43:      3170.04    0.741369  ( -0.620154   0.156407  -0.576467)
  44:      3174.05    1.301927  ( -0.699999   0.183753   0.882136)
  45:      3224.24    1.452750  ( -0.306811   0.343352   1.113879)
  46:      3230.60    2.184079  ( -0.680006  -1.305126  -0.135342)
  47:      3253.81    2.690951  (  1.485160   0.636749   0.282494)
  48:      3264.90    0.139839  (  0.001239   0.169224   0.333468)
  49:      3446.47   67.529156  ( -0.179696   1.336819  -8.106157)
  50:      3501.42   79.207564  ( -5.246012   7.036815   1.473147)

--------------------------
THERMOCHEMISTRY AT 298.15K
--------------------------

Temperature         ... 298.15 K
Pressure            ... 1.00 atm
Total Mass          ... 96.15 AMU

Throughout the following assumptions are being made:
  (1) The electronic state is orbitally nondegenerate
  (2) There are no thermally accessible electronically excited states
  (3) Hindered rotations indicated by low frequency modes) are not
      treated as such but are treated as vibrations and this may
      case some error
  (4) All equations used are the standard statistical mechanics
      equations for an ideal gas
  (5) All vibrations are strinctly harmonic

------------
INNER ENERGY
------------

The inner energy is: U= E(el) + E(ZPE) + E(vib) + E(rot) + E(trans)
    E(el)   - is the total energy from the electronic structure calculation
              = E(kin-el) + E(nuc-el) + E(el-el) + E(nuc-nuc)
    E(ZPE)  - the the zero temperature vibrational energy from the frequency calculation
    E(vib)  - the the finite temperature correction to E(ZPE) due to population
              of excietd vibrational states
    E(rot)  - is the rotational thermal energy
    E(trans)- is the translational thermal energy

Summary of contributions to the inner energy U:
Electronic energy                ...   -288.87341685 Eh
Zero point energy                ...      0.15499469 Eh      97.26 kcal/mol
Thermal vibrational correction   ...      0.00316784 Eh       1.99 kcal/mol
Thermal rotational correction    ...      0.00141627 Eh       0.89 kcal/mol
Thermal translational correction ...      0.00141627 Eh       0.89 kcal/mol
-----------------------------------------------------------------------
Total thermal energy                   -288.71242177 Eh

Summary of corrections to the electronic energy:
(perhaps to be used in another calculation)
Total thermal correction                  0.00600038 Eh       3.77 kcal/mol
Non-thermal (ZPE) correction              0.15499469 Eh      97.26 kcal/mol
-----------------------------------------------------------------------
Total correction                          0.16099508 Eh     101.03 kcal/mol

--------
ENTHALPY
--------

The enthalpy is H = U + kB*T
                kB is Boltzmann's constant
Total free energy                 ...   -288.71242177 Eh
Thermal Enthalpy correction       ...      0.00094421 Eh       0.59 kcal/mol
-----------------------------------------------------------------------
Total Enthalpy                    ...   -288.71147756 Eh

-------
ENTROPY
-------

The entropy contributions are T*S = T*(S(el)+S(vib)+S(rot)+S(trans)
     S(el)   - electronic entropy
     S(vib)  - vibrational entropy
     S(rot)  - rotational entropy
     S(trans)- translational entropy
The entropies will be listed as mutliplied by the temperature to get
units of energy

Electronic entropy                ...      0.00000000 Eh      0.00 kcal/mol
Vibrational entropy               ...      0.00486341 Eh      3.05 kcal/mol
Rotational entropy                ...      0.01176417 Eh      7.38 kcal/mol
Translational entropy             ...      0.01881568 Eh     11.81 kcal/mol
-----------------------------------------------------------------------
Final entropy term                ...      0.03544326 Eh     22.24 kcal/mol

CAUTION: The rotational entropy is not quite correctly treated here
         because it includes a symmetry number that is not yet correctly
         implemented in ORCA!
For a nonlinear molecule the correct rotational entropy is:
    S(rot) = R*(ln(qrot/sn)+1.5)
    R    = 8.31441 J/mol/K = 1.987191683e-3 kcal/mol/K
    qrot = 172520.1887249
    sn is the rotational symmetry number. We have assumed 3 here
       if it is different for your molecule then you should correct
       the printed rotational entropy by manually evaluating the equation
       as given above

For convenience we print out the resulting values for sn=1 - 12:
 sn= 1  qrot/sn=  172520.1887 T*S(rot)=     8.03 kcal/mol T*S(tot)=    22.89 kcal/mol
 sn= 2  qrot/sn=   86260.0944 T*S(rot)=     7.62 kcal/mol T*S(tot)=    22.48 kcal/mol
 sn= 3  qrot/sn=   57506.7296 T*S(rot)=     7.38 kcal/mol T*S(tot)=    22.24 kcal/mol
 sn= 4  qrot/sn=   43130.0472 T*S(rot)=     7.21 kcal/mol T*S(tot)=    22.07 kcal/mol
 sn= 5  qrot/sn=   34504.0377 T*S(rot)=     7.08 kcal/mol T*S(tot)=    21.94 kcal/mol
 sn= 6  qrot/sn=   28753.3648 T*S(rot)=     6.97 kcal/mol T*S(tot)=    21.83 kcal/mol
 sn= 7  qrot/sn=   24645.7412 T*S(rot)=     6.88 kcal/mol T*S(tot)=    21.74 kcal/mol
 sn= 8  qrot/sn=   21565.0236 T*S(rot)=     6.80 kcal/mol T*S(tot)=    21.66 kcal/mol
 sn= 9  qrot/sn=   19168.9099 T*S(rot)=     6.73 kcal/mol T*S(tot)=    21.59 kcal/mol
 sn=10  qrot/sn=   17252.0189 T*S(rot)=     6.67 kcal/mol T*S(tot)=    21.53 kcal/mol
 sn=11  qrot/sn=   15683.6535 T*S(rot)=     6.61 kcal/mol T*S(tot)=    21.47 kcal/mol
 sn=12  qrot/sn=   14376.6824 T*S(rot)=     6.56 kcal/mol T*S(tot)=    21.42 kcal/mol

-------------------
GIBBS FREE ENTHALPY
-------------------

The Gibbs free enthalpy is G = H - T*S

Total enthalpy                    ...   -288.71147756 Eh
Total entropy correction          ...     -0.03544326 Eh    -22.24 kcal/mol
-----------------------------------------------------------------------
Final Gibbs free enthalpy         ...   -288.74692082 Eh

For completeness - the Gibbs free enthalpy minus the electronic energy
G-E(el)                           ...      0.12649602 Eh     79.38 kcal/mol

                             ****ORCA TERMINATED NORMALLY****
TOTAL RUN TIME: 0 days 0 hours 42 minutes 24 seconds 112 msec
