                         Program Version 3.0.3 - RELEASE   -
|  1> ! NORI PBE0 def2-TZVP UseSym TightOPT Freq TightSCF Grid3 FinalGrid5 XYZFile
|  2> % pal
|  3>     nprocs 8
|  4> end
|  5> %method
|  6>     SymThresh 5.0e-2
|  7> end
|  8> % geom
|  9>     MaxIter 10
| 10> end
| 11> % maxcore 2000
| 12> % output
| 13>     printlevel mini
| 14>     print[ P_Basis ] 0
| 15>     print[ P_SCFInfo ] 1
| 16>     print[ P_SCFIterInfo ] 1
| 17>     print[ P_OrbEn ] 0
| 18>     print[ P_Cartesian ] 0
| 19> end
| 20> % elprop
| 21>     Dipole false
| 22> end
| 23> *xyz 1 1
| 24>  C        1.0695396660     0.0966552926    -0.2473427211
| 25>  C        2.5640607012     0.1287533293     0.0053527899
| 26>  C        2.9673578220     1.2344944350     0.9659304194
| 27>  N        4.3136445808     0.7960035903     1.5140898556
| 28>  C        4.5134047749    -0.6585087640     1.1282433364
| 29>  C        3.1425326164    -1.1254825240     0.6695617867
| 30>  C        3.2128457761    -2.3529846212    -0.2175453512
| 31>  H        0.8149630152    -0.6930387961    -0.9549767330
| 32>  H        0.7171592933     1.0384038306    -0.6727266804
| 33>  H        0.5165293322    -0.0849934200     0.6782771876
| 34>  H        3.0872066276     0.2820126260    -0.9480405956
| 35>  H        2.2804223518     1.2968297091     1.8109319904
| 36>  H        3.0695173537     2.2223968215     0.5198961242
| 37>  H        4.3413331351     0.9116821793     2.5255500132
| 38>  H        5.0660088390     1.3712426594     1.1398487616
| 39>  H        5.2333508788    -0.6784336745     0.3086514007
| 40>  H        4.9287737513    -1.1984747100     1.9777772176
| 41>  H        2.5338256088    -1.3542193591     1.5547413738
| 42>  H        3.7980499233    -2.1539361603    -1.1193907665
| 43>  H        2.2140482130    -2.6635830488    -0.5249091214
| 44>  H        3.6688157396    -3.1964793949     0.3039897121
| 45> *
| 46>
| 47>                          ****END OF INPUT****
 Total Charge           Charge          ....    1
 Multiplicity           Mult            ....    1
 Number of Electrons    NEL             ....   56
FINAL SINGLE POINT ENERGY      -291.344248948889

CARTESIAN COORDINATES (ANGSTROEM)
---------------------------------
  C      1.628048    0.000159    1.528900
  C      0.665423    0.380125    0.420931
  C      1.222056    0.081172   -0.960794
  N     -0.000000   -0.000000   -1.858039
  C     -1.222056   -0.081172   -0.960794
  C     -0.665423   -0.380125    0.420931
  C     -1.628048   -0.000159    1.528900
  H      1.205009    0.237808    2.505368
  H      2.570043    0.544942    1.442423
  H      1.851134   -1.070003    1.507332
  H      0.444466    1.453670    0.487493
  H      1.708299   -0.894896   -0.989551
  H      1.906418    0.829149   -1.358112
  H      0.059085   -0.812789   -2.468803
  H     -0.059085    0.812789   -2.468803
  H     -1.708299    0.894896   -0.989551
  H     -1.906418   -0.829149   -1.358112
  H     -0.444466   -1.453670    0.487493
  H     -1.851134    1.070003    1.507332
  H     -1.205009   -0.237808    2.505368
  H     -2.570043   -0.544942    1.442423

FINAL SINGLE POINT ENERGY      -291.344249740268
                    ***********************HURRAY********************
 Multiplicity           Mult            ....    1
 Number of Electrons    NEL             ....   56
 Basis Dimension        Dim             ....  301
FINAL SINGLE POINT ENERGY      -291.344250128239

VIBRATIONAL FREQUENCIES
-----------------------

   0:         0.00 cm**-1
   1:         0.00 cm**-1
   2:         0.00 cm**-1
   3:         0.00 cm**-1
   4:         0.00 cm**-1
   5:         0.00 cm**-1
   6:        74.14 cm**-1
   7:       138.63 cm**-1
   8:       220.21 cm**-1
   9:       230.39 cm**-1
  10:       242.64 cm**-1
  11:       320.42 cm**-1
  12:       353.71 cm**-1
  13:       490.45 cm**-1
  14:       531.22 cm**-1
  15:       637.10 cm**-1
  16:       790.75 cm**-1
  17:       804.29 cm**-1
  18:       875.99 cm**-1
  19:       911.91 cm**-1
  20:       913.66 cm**-1
  21:       944.43 cm**-1
  22:       964.34 cm**-1
  23:       972.91 cm**-1
  24:       999.95 cm**-1
  25:      1086.06 cm**-1
  26:      1123.05 cm**-1
  27:      1123.19 cm**-1
  28:      1182.29 cm**-1
  29:      1187.35 cm**-1
  30:      1244.89 cm**-1
  31:      1251.62 cm**-1
  32:      1304.07 cm**-1
  33:      1323.08 cm**-1
  34:      1342.59 cm**-1
  35:      1355.09 cm**-1
  36:      1360.77 cm**-1
  37:      1369.30 cm**-1
  38:      1401.43 cm**-1
  39:      1403.77 cm**-1
  40:      1415.20 cm**-1
  41:      1422.90 cm**-1
  42:      1485.75 cm**-1
  43:      1486.45 cm**-1
  44:      1491.21 cm**-1
  45:      1498.09 cm**-1
  46:      1498.43 cm**-1
  47:      1502.59 cm**-1
  48:      1656.83 cm**-1
  49:      3024.60 cm**-1
  50:      3040.69 cm**-1
  51:      3058.35 cm**-1
  52:      3058.53 cm**-1
  53:      3102.55 cm**-1
  54:      3103.00 cm**-1
  55:      3133.28 cm**-1
  56:      3133.72 cm**-1
  57:      3147.86 cm**-1
  58:      3151.22 cm**-1
  59:      3168.26 cm**-1
  60:      3168.45 cm**-1
  61:      3483.53 cm**-1
  62:      3537.12 cm**-1

IR SPECTRUM
-----------

 Mode    freq (cm**-1)   T**2         TX         TY         TZ
-------------------------------------------------------------------
   6:        74.14    4.346210  ( -0.039414  -2.084384  -0.000015)
   7:       138.63    0.006885  (  0.000012  -0.000010   0.082978)
   8:       220.21    0.071476  (  0.265847   0.028301  -0.000008)
   9:       230.39    0.000174  ( -0.000027   0.000019  -0.013173)
  10:       242.64    0.259322  ( -0.000007   0.000016  -0.509236)
  11:       320.42    0.783544  (  0.049887   0.883773   0.000020)
  12:       353.71    1.745421  (  1.320833   0.028666   0.000009)
  13:       490.45    0.919642  ( -0.000004   0.000004   0.958980)
  14:       531.22    0.818038  ( -0.372639   0.824123   0.000001)
  15:       637.10    0.323872  (  0.000003  -0.000000   0.569097)
  16:       790.75    0.368315  (  0.000004   0.000067   0.606890)
  17:       804.29    6.520898  (  0.647586   2.470128  -0.000004)
  18:       875.99    2.968321  (  0.000003   0.000007   1.722882)
  19:       911.91    4.973777  ( -0.000234   0.000352  -2.230197)
  20:       913.66    2.125671  ( -0.761166   1.243502   0.000669)
  21:       944.43    8.463986  ( -2.880139   0.410836  -0.000036)
  22:       964.34    4.841793  ( -1.752655  -1.330411   0.000182)
  23:       972.91    4.605012  (  0.000085   0.000102   2.145929)
  24:       999.95    3.432293  (  1.431536   1.176009  -0.000001)
  25:      1086.06    0.494071  ( -0.000006   0.000001  -0.702902)
  26:      1123.05    0.046709  (  0.039770   0.212428  -0.001087)
  27:      1123.19    1.674405  ( -0.000032  -0.000169  -1.293988)
  28:      1182.29    0.024054  (  0.000044   0.000012  -0.155094)
  29:      1187.35    4.234464  (  2.015065   0.417108  -0.000002)
  30:      1244.89    0.017802  ( -0.000026   0.000024   0.133424)
  31:      1251.62   11.605421  (  2.941807  -1.717904   0.000007)
  32:      1304.07    4.456119  (  2.076010   0.382496   0.000007)
  33:      1323.08    0.000211  (  0.000018   0.000012   0.014539)
  34:      1342.59    0.279635  (  0.528040  -0.028437  -0.000007)
  35:      1355.09    0.003757  ( -0.000021   0.000001   0.061296)
  36:      1360.77   41.609893  (  6.353669   1.113905  -0.000008)
  37:      1369.30    0.492271  (  0.000006   0.000003   0.701621)
  38:      1401.43    2.239654  ( -1.395017  -0.541832   0.000010)
  39:      1403.77    0.031315  (  0.000005  -0.000019  -0.176960)
  40:      1415.20    4.070216  ( -1.570260   1.266688  -0.000031)
  41:      1422.90    4.340761  ( -0.000025   0.000014   2.083449)
  42:      1485.75    4.213923  (  0.000216   0.000368  -2.052784)
  43:      1486.45    3.860139  (  1.312094  -1.462377   0.000078)
  44:      1491.21   21.888623  (  3.423612   3.188652   0.000179)
  45:      1498.09    0.248183  (  0.000634  -0.001575  -0.498176)
  46:      1498.43   22.424529  ( -2.525099   4.006046   0.000129)
  47:      1502.59   11.407751  (  0.000136  -0.000304   3.377536)
  48:      1656.83   63.557881  ( -0.000001  -0.000001   7.972320)
  49:      3024.60    0.639655  ( -0.000002  -0.000001   0.799784)
  50:      3040.69    9.926151  ( -0.961980   3.000124  -0.000000)
  51:      3058.35    2.601364  ( -0.000105   0.000089  -1.612875)
  52:      3058.53   13.778683  ( -2.679642   2.568697   0.000058)
  53:      3102.55    5.600526  (  1.845391  -1.481573  -0.000002)
  54:      3103.00    0.852312  ( -0.000001   0.000005  -0.923208)
  55:      3133.28    0.562206  ( -0.000031   0.000002   0.749804)
  56:      3133.72   17.176343  (  1.227977   3.958335   0.000014)
  57:      3147.86    5.991183  ( -2.366659   0.624585   0.000107)
  58:      3151.22    4.453042  ( -0.000091   0.000056  -2.110223)
  59:      3168.26    0.167363  (  0.000003   0.000000   0.409100)
  60:      3168.45    1.706676  ( -0.415192  -1.238665  -0.000000)
  61:      3483.53   71.913572  (  0.000000   0.000000   8.480187)
  62:      3537.12   80.429609  ( -0.670639   8.943146   0.000017)

--------------------------
THERMOCHEMISTRY AT 298.15K
--------------------------

Temperature         ... 298.15 K
Pressure            ... 1.00 atm
Total Mass          ... 100.18 AMU

Throughout the following assumptions are being made:
  (1) The electronic state is orbitally nondegenerate
  (2) There are no thermally accessible electronically excited states
  (3) Hindered rotations indicated by low frequency modes) are not
      treated as such but are treated as vibrations and this may
      case some error
  (4) All equations used are the standard statistical mechanics
      equations for an ideal gas
  (5) All vibrations are strinctly harmonic

------------
INNER ENERGY
------------

The inner energy is: U= E(el) + E(ZPE) + E(vib) + E(rot) + E(trans)
    E(el)   - is the total energy from the electronic structure calculation
              = E(kin-el) + E(nuc-el) + E(el-el) + E(nuc-nuc)
    E(ZPE)  - the the zero temperature vibrational energy from the frequency calculation
    E(vib)  - the the finite temperature correction to E(ZPE) due to population
              of excietd vibrational states
    E(rot)  - is the rotational thermal energy
    E(trans)- is the translational thermal energy

Summary of contributions to the inner energy U:
Electronic energy                ...   -291.34425013 Eh
Zero point energy                ...      0.20103533 Eh     126.15 kcal/mol
Thermal vibrational correction   ...      0.00505559 Eh       3.17 kcal/mol
Thermal rotational correction    ...      0.00141627 Eh       0.89 kcal/mol
Thermal translational correction ...      0.00141627 Eh       0.89 kcal/mol
-----------------------------------------------------------------------
Total thermal energy                   -291.13532666 Eh

Summary of corrections to the electronic energy:
(perhaps to be used in another calculation)
Total thermal correction                  0.00788814 Eh       4.95 kcal/mol
Non-thermal (ZPE) correction              0.20103533 Eh     126.15 kcal/mol
-----------------------------------------------------------------------
Total correction                          0.20892347 Eh     131.10 kcal/mol

--------
ENTHALPY
--------

The enthalpy is H = U + kB*T
                kB is Boltzmann's constant
Total free energy                 ...   -291.13532666 Eh
Thermal Enthalpy correction       ...      0.00094421 Eh       0.59 kcal/mol
-----------------------------------------------------------------------
Total Enthalpy                    ...   -291.13438245 Eh

-------
ENTROPY
-------

The entropy contributions are T*S = T*(S(el)+S(vib)+S(rot)+S(trans)
     S(el)   - electronic entropy
     S(vib)  - vibrational entropy
     S(rot)  - rotational entropy
     S(trans)- translational entropy
The entropies will be listed as mutliplied by the temperature to get
units of energy

Electronic entropy                ...      0.00000000 Eh      0.00 kcal/mol
Vibrational entropy               ...      0.00877848 Eh      5.51 kcal/mol
Rotational entropy                ...      0.01206169 Eh      7.57 kcal/mol
Translational entropy             ...      0.01887386 Eh     11.84 kcal/mol
-----------------------------------------------------------------------
Final entropy term                ...      0.03971403 Eh     24.92 kcal/mol

CAUTION: The rotational entropy is not quite correctly treated here
         because it includes a symmetry number that is not yet correctly
         implemented in ORCA!
For a nonlinear molecule the correct rotational entropy is:
    S(rot) = R*(ln(qrot/sn)+1.5)
    R    = 8.31441 J/mol/K = 1.987191683e-3 kcal/mol/K
    qrot = 236422.0426885
    sn is the rotational symmetry number. We have assumed 3 here
       if it is different for your molecule then you should correct
       the printed rotational entropy by manually evaluating the equation
       as given above

For convenience we print out the resulting values for sn=1 - 12:
 sn= 1  qrot/sn=  236422.0427 T*S(rot)=     8.22 kcal/mol T*S(tot)=    25.57 kcal/mol
 sn= 2  qrot/sn=  118211.0213 T*S(rot)=     7.81 kcal/mol T*S(tot)=    25.16 kcal/mol
 sn= 3  qrot/sn=   78807.3476 T*S(rot)=     7.57 kcal/mol T*S(tot)=    24.92 kcal/mol
 sn= 4  qrot/sn=   59105.5107 T*S(rot)=     7.40 kcal/mol T*S(tot)=    24.75 kcal/mol
 sn= 5  qrot/sn=   47284.4085 T*S(rot)=     7.27 kcal/mol T*S(tot)=    24.62 kcal/mol
 sn= 6  qrot/sn=   39403.6738 T*S(rot)=     7.16 kcal/mol T*S(tot)=    24.51 kcal/mol
 sn= 7  qrot/sn=   33774.5775 T*S(rot)=     7.07 kcal/mol T*S(tot)=    24.42 kcal/mol
 sn= 8  qrot/sn=   29552.7553 T*S(rot)=     6.99 kcal/mol T*S(tot)=    24.34 kcal/mol
 sn= 9  qrot/sn=   26269.1159 T*S(rot)=     6.92 kcal/mol T*S(tot)=    24.27 kcal/mol
 sn=10  qrot/sn=   23642.2043 T*S(rot)=     6.86 kcal/mol T*S(tot)=    24.21 kcal/mol
 sn=11  qrot/sn=   21492.9130 T*S(rot)=     6.80 kcal/mol T*S(tot)=    24.15 kcal/mol
 sn=12  qrot/sn=   19701.8369 T*S(rot)=     6.75 kcal/mol T*S(tot)=    24.10 kcal/mol

-------------------
GIBBS FREE ENTHALPY
-------------------

The Gibbs free enthalpy is G = H - T*S

Total enthalpy                    ...   -291.13438245 Eh
Total entropy correction          ...     -0.03971403 Eh    -24.92 kcal/mol
-----------------------------------------------------------------------
Final Gibbs free enthalpy         ...   -291.17409648 Eh

For completeness - the Gibbs free enthalpy minus the electronic energy
G-E(el)                           ...      0.17015365 Eh    106.77 kcal/mol

                             ****ORCA TERMINATED NORMALLY****
TOTAL RUN TIME: 0 days 0 hours 54 minutes 33 seconds 811 msec
