                         Program Version 3.0.3 - RELEASE   -
|  1> ! NORI PBE0 def2-TZVP UseSym TightOPT Freq TightSCF Grid3 FinalGrid5 XYZFile
|  2> % pal
|  3>     nprocs 8
|  4> end
|  5> %method
|  6>     SymThresh 5.0e-2
|  7> end
|  8> % geom
|  9>     MaxIter 10
| 10> end
| 11> % maxcore 2000
| 12> % output
| 13>     printlevel mini
| 14>     print[ P_Basis ] 0
| 15>     print[ P_SCFInfo ] 1
| 16>     print[ P_SCFIterInfo ] 1
| 17>     print[ P_OrbEn ] 0
| 18>     print[ P_Cartesian ] 0
| 19> end
| 20> % elprop
| 21>     Dipole false
| 22> end
| 23> *xyz 1 1
| 24>  C        1.0189010514     0.0796376263     0.3479552809
| 25>  C        2.3237014860     0.0502302213     0.1041807023
| 26>  C        3.1731271526     1.2835194401    -0.0443410820
| 27>  N        4.3505793049     0.7816821286    -0.8353385023
| 28>  C        4.5919874886    -0.6176876554    -0.3366737993
| 29>  C        3.1981238946    -1.1224296497    -0.0800846682
| 30>  C        2.8730243369    -2.4094567948    -0.0513516125
| 31>  H        0.4462123649    -0.8308342402     0.4741018346
| 32>  H        0.4783646399     1.0141247871     0.4394126260
| 33>  H        2.6999074693     2.1126421147    -0.5677030280
| 34>  H        3.5662410942     1.6358788345     0.9126661749
| 35>  H        4.1057768009     0.7507800671    -1.8266616848
| 36>  H        5.1716945898     1.3788938775    -0.7393643555
| 37>  H        5.1771234495    -0.5252086002     0.5821833891
| 38>  H        5.1624138198    -1.1814028767    -1.0734530713
| 39>  H        3.6072354542    -3.1863334903    -0.2276840900
| 40>  H        1.8610056024    -2.7323457900     0.1588358860
| 41> *
| 42>
| 43>                          ****END OF INPUT****
 Total Charge           Charge          ....    1
 Multiplicity           Mult            ....    1
 Number of Electrons    NEL             ....   52
FINAL SINGLE POINT ENERGY      -288.879476133868

CARTESIAN COORDINATES (ANGSTROEM)
---------------------------------
  C     -1.486536    0.315868    1.564647
  C     -0.487203    0.033931    0.737120
  C      0.896163   -0.341080    1.195055
  N      1.744622   -0.000168    0.000000
  C      0.896163   -0.341080   -1.195055
  C     -0.487203    0.033931   -0.737120
  C     -1.486536    0.315868   -1.564647
  H     -2.475219    0.558845    1.195458
  H     -1.355290    0.305287    2.639920
  H      1.256470    0.194967    2.071533
  H      1.003310   -1.416671    1.358323
  H      1.943966    1.001619    0.000000
  H      2.637946   -0.491819   -0.000000
  H      1.003310   -1.416671   -1.358323
  H      1.256470    0.194967   -2.071533
  H     -1.355290    0.305287   -2.639920
  H     -2.475219    0.558845   -1.195458

FINAL SINGLE POINT ENERGY      -288.879476435994
                    ***********************HURRAY********************
 Multiplicity           Mult            ....    1
 Number of Electrons    NEL             ....   52
 Basis Dimension        Dim             ....  277
FINAL SINGLE POINT ENERGY      -288.879476561778

VIBRATIONAL FREQUENCIES
-----------------------

   0:         0.00 cm**-1
   1:         0.00 cm**-1
   2:         0.00 cm**-1
   3:         0.00 cm**-1
   4:         0.00 cm**-1
   5:         0.00 cm**-1
   6:        58.55 cm**-1
   7:       201.83 cm**-1
   8:       299.86 cm**-1
   9:       345.11 cm**-1
  10:       416.95 cm**-1
  11:       503.60 cm**-1
  12:       589.98 cm**-1
  13:       611.30 cm**-1
  14:       701.29 cm**-1
  15:       752.16 cm**-1
  16:       753.09 cm**-1
  17:       884.60 cm**-1
  18:       896.48 cm**-1
  19:       899.33 cm**-1
  20:       943.57 cm**-1
  21:       970.44 cm**-1
  22:       976.36 cm**-1
  23:       980.76 cm**-1
  24:      1001.73 cm**-1
  25:      1072.67 cm**-1
  26:      1161.83 cm**-1
  27:      1188.62 cm**-1
  28:      1244.37 cm**-1
  29:      1298.52 cm**-1
  30:      1308.20 cm**-1
  31:      1369.04 cm**-1
  32:      1381.02 cm**-1
  33:      1389.35 cm**-1
  34:      1445.11 cm**-1
  35:      1467.62 cm**-1
  36:      1479.98 cm**-1
  37:      1496.09 cm**-1
  38:      1648.37 cm**-1
  39:      1720.08 cm**-1
  40:      1741.67 cm**-1
  41:      3083.62 cm**-1
  42:      3084.77 cm**-1
  43:      3163.68 cm**-1
  44:      3164.10 cm**-1
  45:      3175.78 cm**-1
  46:      3176.21 cm**-1
  47:      3264.65 cm**-1
  48:      3266.06 cm**-1
  49:      3454.80 cm**-1
  50:      3520.06 cm**-1

IR SPECTRUM
-----------

 Mode    freq (cm**-1)   T**2         TX         TY         TZ
-------------------------------------------------------------------
   6:        58.55    0.393972  (  0.000002  -0.000034   0.627672)
   7:       201.83   11.767811  (  1.611850  -3.028160  -0.000003)
   8:       299.86    2.802591  ( -0.881661  -1.423118   0.000002)
   9:       345.11   12.285503  (  0.978299   3.365774   0.000007)
  10:       416.95    0.036072  ( -0.000002   0.000007   0.189926)
  11:       503.60    1.562682  (  0.000012   0.000022  -1.250073)
  12:       589.98    4.640930  (  2.100878  -0.476699   0.000008)
  13:       611.30    1.932678  ( -0.000005   0.000011   1.390208)
  14:       701.29    1.704822  (  1.131433   0.651675   0.000001)
  15:       752.16    0.706041  (  0.469828  -0.696637  -0.000017)
  16:       753.09    0.200086  ( -0.000017   0.000031  -0.447310)
  17:       884.60    3.700296  (  1.056212  -1.607704   0.000002)
  18:       896.48    1.024291  ( -0.000049  -0.000025   1.012073)
  19:       899.33    8.145079  ( -2.635659  -1.094707  -0.000021)
  20:       943.57    5.220944  (  0.000004   0.000000   2.284939)
  21:       970.44   20.071199  (  2.466185   3.740205  -0.000003)
  22:       976.36    0.781286  ( -0.000034  -0.000127   0.883904)
  23:       980.76   57.685643  (  0.891974   7.542548   0.000019)
  24:      1001.73    0.557914  ( -0.000003  -0.000004   0.746936)
  25:      1072.67    0.624830  ( -0.550177  -0.567569   0.000003)
  26:      1161.83    0.612998  (  0.000000  -0.000000  -0.782942)
  27:      1188.62   16.551544  (  0.000001  -0.000001   4.068359)
  28:      1244.37   11.955614  (  0.000002   0.000000   3.457689)
  29:      1298.52    0.468575  ( -0.602050   0.325748   0.000001)
  30:      1308.20    5.371714  ( -1.162307   2.005183  -0.000000)
  31:      1369.04    2.620285  ( -1.382148   0.842586  -0.000005)
  32:      1381.02    8.014009  ( -0.000001  -0.000000   2.830903)
  33:      1389.35   39.075160  ( -0.000001   0.000001  -6.251013)
  34:      1445.11   12.982271  ( -0.000003   0.000001   3.603092)
  35:      1467.62   25.717891  (  4.919358  -1.231992   0.000004)
  36:      1479.98   10.729705  (  0.000007  -0.000002  -3.275623)
  37:      1496.09   14.520571  ( -2.711730   2.677142  -0.000001)
  38:      1648.37   75.485599  (  7.953744   3.496220   0.000000)
  39:      1720.08    1.983442  ( -1.358818   0.370211   0.000004)
  40:      1741.67    0.887717  (  0.000001  -0.000001   0.942187)
  41:      3083.62    0.001981  ( -0.000000  -0.000000   0.044508)
  42:      3084.77    2.002954  (  1.240253  -0.681708   0.000000)
  43:      3163.68    0.002796  (  0.000000   0.000001  -0.052876)
  44:      3164.10    0.492124  (  0.142642   0.686860  -0.000000)
  45:      3175.78    1.348732  ( -0.000000   0.000003  -1.161349)
  46:      3176.21    0.511958  ( -0.680532   0.220983   0.000000)
  47:      3264.65    0.334912  ( -0.000000   0.000003   0.578716)
  48:      3266.06    0.100856  ( -0.291010   0.127156  -0.000000)
  49:      3454.80   68.006381  (  7.168621   4.076426  -0.000000)
  50:      3520.06   83.258506  ( -5.250872   7.462362  -0.000000)

--------------------------
THERMOCHEMISTRY AT 298.15K
--------------------------

Temperature         ... 298.15 K
Pressure            ... 1.00 atm
Total Mass          ... 96.15 AMU

Throughout the following assumptions are being made:
  (1) The electronic state is orbitally nondegenerate
  (2) There are no thermally accessible electronically excited states
  (3) Hindered rotations indicated by low frequency modes) are not
      treated as such but are treated as vibrations and this may
      case some error
  (4) All equations used are the standard statistical mechanics
      equations for an ideal gas
  (5) All vibrations are strinctly harmonic

------------
INNER ENERGY
------------

The inner energy is: U= E(el) + E(ZPE) + E(vib) + E(rot) + E(trans)
    E(el)   - is the total energy from the electronic structure calculation
              = E(kin-el) + E(nuc-el) + E(el-el) + E(nuc-nuc)
    E(ZPE)  - the the zero temperature vibrational energy from the frequency calculation
    E(vib)  - the the finite temperature correction to E(ZPE) due to population
              of excietd vibrational states
    E(rot)  - is the rotational thermal energy
    E(trans)- is the translational thermal energy

Summary of contributions to the inner energy U:
Electronic energy                ...   -288.87947656 Eh
Zero point energy                ...      0.15389773 Eh      96.57 kcal/mol
Thermal vibrational correction   ...      0.00381833 Eh       2.40 kcal/mol
Thermal rotational correction    ...      0.00141627 Eh       0.89 kcal/mol
Thermal translational correction ...      0.00141627 Eh       0.89 kcal/mol
-----------------------------------------------------------------------
Total thermal energy                   -288.71892795 Eh

Summary of corrections to the electronic energy:
(perhaps to be used in another calculation)
Total thermal correction                  0.00665088 Eh       4.17 kcal/mol
Non-thermal (ZPE) correction              0.15389773 Eh      96.57 kcal/mol
-----------------------------------------------------------------------
Total correction                          0.16054861 Eh     100.75 kcal/mol

--------
ENTHALPY
--------

The enthalpy is H = U + kB*T
                kB is Boltzmann's constant
Total free energy                 ...   -288.71892795 Eh
Thermal Enthalpy correction       ...      0.00094421 Eh       0.59 kcal/mol
-----------------------------------------------------------------------
Total Enthalpy                    ...   -288.71798375 Eh

-------
ENTROPY
-------

The entropy contributions are T*S = T*(S(el)+S(vib)+S(rot)+S(trans)
     S(el)   - electronic entropy
     S(vib)  - vibrational entropy
     S(rot)  - rotational entropy
     S(trans)- translational entropy
The entropies will be listed as mutliplied by the temperature to get
units of energy

Electronic entropy                ...      0.00000000 Eh      0.00 kcal/mol
Vibrational entropy               ...      0.00656046 Eh      4.12 kcal/mol
Rotational entropy                ...      0.01190385 Eh      7.47 kcal/mol
Translational entropy             ...      0.01881568 Eh     11.81 kcal/mol
-----------------------------------------------------------------------
Final entropy term                ...      0.03727999 Eh     23.39 kcal/mol

CAUTION: The rotational entropy is not quite correctly treated here
         because it includes a symmetry number that is not yet correctly
         implemented in ORCA!
For a nonlinear molecule the correct rotational entropy is:
    S(rot) = R*(ln(qrot/sn)+1.5)
    R    = 8.31441 J/mol/K = 1.987191683e-3 kcal/mol/K
    qrot = 200025.7446541
    sn is the rotational symmetry number. We have assumed 3 here
       if it is different for your molecule then you should correct
       the printed rotational entropy by manually evaluating the equation
       as given above

For convenience we print out the resulting values for sn=1 - 12:
 sn= 1  qrot/sn=  200025.7447 T*S(rot)=     8.12 kcal/mol T*S(tot)=    24.04 kcal/mol
 sn= 2  qrot/sn=  100012.8723 T*S(rot)=     7.71 kcal/mol T*S(tot)=    23.63 kcal/mol
 sn= 3  qrot/sn=   66675.2482 T*S(rot)=     7.47 kcal/mol T*S(tot)=    23.39 kcal/mol
 sn= 4  qrot/sn=   50006.4362 T*S(rot)=     7.30 kcal/mol T*S(tot)=    23.22 kcal/mol
 sn= 5  qrot/sn=   40005.1489 T*S(rot)=     7.17 kcal/mol T*S(tot)=    23.09 kcal/mol
 sn= 6  qrot/sn=   33337.6241 T*S(rot)=     7.06 kcal/mol T*S(tot)=    22.98 kcal/mol
 sn= 7  qrot/sn=   28575.1064 T*S(rot)=     6.97 kcal/mol T*S(tot)=    22.89 kcal/mol
 sn= 8  qrot/sn=   25003.2181 T*S(rot)=     6.89 kcal/mol T*S(tot)=    22.81 kcal/mol
 sn= 9  qrot/sn=   22225.0827 T*S(rot)=     6.82 kcal/mol T*S(tot)=    22.74 kcal/mol
 sn=10  qrot/sn=   20002.5745 T*S(rot)=     6.76 kcal/mol T*S(tot)=    22.68 kcal/mol
 sn=11  qrot/sn=   18184.1586 T*S(rot)=     6.70 kcal/mol T*S(tot)=    22.62 kcal/mol
 sn=12  qrot/sn=   16668.8121 T*S(rot)=     6.65 kcal/mol T*S(tot)=    22.57 kcal/mol

-------------------
GIBBS FREE ENTHALPY
-------------------

The Gibbs free enthalpy is G = H - T*S

Total enthalpy                    ...   -288.71798375 Eh
Total entropy correction          ...     -0.03727999 Eh    -23.39 kcal/mol
-----------------------------------------------------------------------
Final Gibbs free enthalpy         ...   -288.75526373 Eh

For completeness - the Gibbs free enthalpy minus the electronic energy
G-E(el)                           ...      0.12421283 Eh     77.94 kcal/mol

                             ****ORCA TERMINATED NORMALLY****
TOTAL RUN TIME: 0 days 0 hours 44 minutes 6 seconds 889 msec
