                         Program Version 3.0.3 - RELEASE   -
|  1> ! NORI PBE0 def2-TZVP UseSym TightOPT Freq TightSCF Grid3 FinalGrid5 XYZFile
|  2> % pal
|  3>     nprocs 8
|  4> end
|  5> %method
|  6>     SymThresh 5.0e-2
|  7> end
|  8> % geom
|  9>     MaxIter 10
| 10> end
| 11> % maxcore 2000
| 12> % output
| 13>     printlevel mini
| 14>     print[ P_Basis ] 0
| 15>     print[ P_SCFInfo ] 1
| 16>     print[ P_SCFIterInfo ] 1
| 17>     print[ P_OrbEn ] 0
| 18>     print[ P_Cartesian ] 0
| 19> end
| 20> % elprop
| 21>     Dipole false
| 22> end
| 23> *xyz 1 1
| 24>  C        0.8157317604     0.0420591478     0.5058977305
| 25>  C        2.1319921190    -0.1754770622    -0.2085055126
| 26>  C        3.1957235877     0.9063679329     0.0353809418
| 27>  N        3.9044322032     0.0038849852     1.0162444237
| 28>  C        5.3757619134    -0.0125009731     1.0506325093
| 29>  C        3.0893606120    -1.1863443606     0.4617334416
| 30>  C        3.8674800098    -2.0788090983    -0.4622360183
| 31>  H        0.2690385129     0.8763072354     0.0625477850
| 32>  H        0.9529067602     0.2626252294     1.5695452376
| 33>  H        0.1849596477    -0.8459005045     0.4306727594
| 34>  H        1.9660391628    -0.3885024174    -1.2646042305
| 35>  H        2.8866822333     1.8517812238     0.4793452875
| 36>  H        3.8570627746     1.0886610198    -0.8098471105
| 37>  H        3.5629914773     0.2060135805     1.9541192835
| 38>  H        5.7574159514    -0.2420168277     0.0590496309
| 39>  H        5.7137008398    -0.7650360378     1.7621993856
| 40>  H        5.7282306358     0.9712036047     1.3607834262
| 41>  H        2.6682260880    -1.7490389486     1.2963752970
| 42>  H        4.2817756788    -1.5391028316    -1.3161762523
| 43>  H        3.1764014828    -2.8273022256    -0.8563313429
| 44>  H        4.6684665491    -2.6148226719     0.0498733276
| 45> *
| 46>
| 47>                          ****END OF INPUT****
 Total Charge           Charge          ....    1
 Multiplicity           Mult            ....    1
 Number of Electrons    NEL             ....   56
FINAL SINGLE POINT ENERGY      -291.314901013146
FINAL SINGLE POINT ENERGY      -291.314903453889
FINAL SINGLE POINT ENERGY      -291.314905455025

CARTESIAN COORDINATES (ANGSTROEM)
---------------------------------
  C      2.014713   -0.001661   -1.382846
  C      0.585043   -0.354677   -1.032668
  C      0.414379   -1.216424    0.227978
  N     -0.001990    0.000097    1.018713
  C     -1.072124   -0.122145    2.022428
  C     -0.213798    0.755416   -0.313117
  C     -1.655046    0.903624   -0.708374
  H      2.552404   -0.879888   -1.744300
  H      2.564725    0.393816   -0.522933
  H      2.043839    0.752923   -2.170977
  H      0.062076   -0.752635   -1.902368
  H      1.291357   -1.710103    0.644490
  H     -0.423167   -1.911678    0.191097
  H      0.819543    0.394694    1.473056
  H     -1.963529   -0.531300    1.553488
  H     -1.289747    0.859221    2.442346
  H     -0.733063   -0.792909    2.811944
  H      0.282438    1.725547   -0.254014
  H     -2.169523   -0.056120   -0.792503
  H     -1.678645    1.371101   -1.695113
  H     -2.209890    1.552270   -0.028142

FINAL SINGLE POINT ENERGY      -291.314906292960
                    ***********************HURRAY********************
 Multiplicity           Mult            ....    1
 Number of Electrons    NEL             ....   56
 Basis Dimension        Dim             ....  301
FINAL SINGLE POINT ENERGY      -291.314907244923

VIBRATIONAL FREQUENCIES
-----------------------

   0:         0.00 cm**-1
   1:         0.00 cm**-1
   2:         0.00 cm**-1
   3:         0.00 cm**-1
   4:         0.00 cm**-1
   5:         0.00 cm**-1
   6:        70.05 cm**-1
   7:       221.86 cm**-1
   8:       232.22 cm**-1
   9:       245.31 cm**-1
  10:       261.28 cm**-1
  11:       270.63 cm**-1
  12:       285.22 cm**-1
  13:       387.10 cm**-1
  14:       403.99 cm**-1
  15:       530.17 cm**-1
  16:       660.82 cm**-1
  17:       773.83 cm**-1
  18:       823.59 cm**-1
  19:       879.41 cm**-1
  20:       900.12 cm**-1
  21:       934.16 cm**-1
  22:       999.70 cm**-1
  23:      1035.22 cm**-1
  24:      1062.64 cm**-1
  25:      1068.03 cm**-1
  26:      1080.68 cm**-1
  27:      1141.11 cm**-1
  28:      1143.00 cm**-1
  29:      1186.02 cm**-1
  30:      1202.48 cm**-1
  31:      1229.71 cm**-1
  32:      1276.94 cm**-1
  33:      1303.92 cm**-1
  34:      1328.24 cm**-1
  35:      1328.90 cm**-1
  36:      1367.10 cm**-1
  37:      1399.24 cm**-1
  38:      1417.93 cm**-1
  39:      1419.71 cm**-1
  40:      1441.86 cm**-1
  41:      1452.73 cm**-1
  42:      1478.81 cm**-1
  43:      1481.18 cm**-1
  44:      1482.07 cm**-1
  45:      1493.77 cm**-1
  46:      1495.32 cm**-1
  47:      1497.45 cm**-1
  48:      1500.06 cm**-1
  49:      3047.25 cm**-1
  50:      3061.45 cm**-1
  51:      3085.75 cm**-1
  52:      3109.17 cm**-1
  53:      3111.70 cm**-1
  54:      3113.89 cm**-1
  55:      3130.81 cm**-1
  56:      3141.78 cm**-1
  57:      3145.40 cm**-1
  58:      3147.31 cm**-1
  59:      3175.05 cm**-1
  60:      3179.56 cm**-1
  61:      3196.70 cm**-1
  62:      3496.33 cm**-1

IR SPECTRUM
-----------

 Mode    freq (cm**-1)   T**2         TX         TY         TZ
-------------------------------------------------------------------
   6:        70.05    1.047768  (  0.316181  -0.167267  -0.959072)
   7:       221.86    0.039764  (  0.105505  -0.168977  -0.008942)
   8:       232.22    0.195246  ( -0.174311  -0.017823   0.405640)
   9:       245.31    0.126455  ( -0.182368   0.221818   0.209747)
  10:       261.28    0.100680  (  0.002353   0.299531   0.104667)
  11:       270.63    0.679460  ( -0.161575  -0.504843   0.631258)
  12:       285.22    0.163070  (  0.085893   0.383425   0.093156)
  13:       387.10    0.171153  (  0.233890   0.199098  -0.277143)
  14:       403.99    0.706960  ( -0.783289   0.248339   0.178177)
  15:       530.17    1.613227  (  0.100695   0.467700  -1.176582)
  16:       660.82    2.383928  ( -1.276289   0.777906  -0.387140)
  17:       773.83    4.948633  ( -0.801113   0.571975  -1.994917)
  18:       823.59    1.309216  ( -0.775860   0.075684  -0.837574)
  19:       879.41    4.238773  (  1.343326  -1.173255  -1.028455)
  20:       900.12    7.159783  ( -0.642268   2.521679  -0.623225)
  21:       934.16    6.862135  (  0.653284  -2.170098   1.313785)
  22:       999.70    2.665794  ( -0.742050   0.990717   1.064724)
  23:      1035.22    3.480142  ( -0.593897   1.168781  -1.327170)
  24:      1062.64   13.910139  ( -1.363826   2.905262   1.899887)
  25:      1068.03    4.036011  (  0.766324  -0.852398   1.649902)
  26:      1080.68    5.047821  ( -0.428842  -1.000373   1.965495)
  27:      1141.11    6.310088  ( -0.015090  -1.212491   2.199938)
  28:      1143.00   16.843574  ( -0.952416  -0.439814   3.967750)
  29:      1186.02    0.651030  (  0.738730  -0.075517  -0.315602)
  30:      1202.48    1.753314  ( -0.124552   1.057427  -0.787179)
  31:      1229.71    7.535675  ( -0.494749  -1.539275   2.218452)
  32:      1276.94    2.805703  (  1.054278  -1.301558  -0.012154)
  33:      1303.92    2.593234  ( -0.039898   1.555961   0.413072)
  34:      1328.24   12.484621  (  1.535922  -2.796772   1.517772)
  35:      1328.90    0.660796  (  0.434950  -0.178032   0.663264)
  36:      1367.10    1.970011  ( -0.029424   1.338034   0.422858)
  37:      1399.24    2.680421  ( -1.497853   0.571462   0.332097)
  38:      1417.93   14.308005  (  1.692889  -0.373895   3.361894)
  39:      1419.71   10.207175  (  3.072845   0.728369  -0.484025)
  40:      1441.86    9.796047  (  2.499734  -0.926989  -1.639533)
  41:      1452.73    7.148148  (  2.401421   0.010403  -1.175252)
  42:      1478.81   19.236230  ( -0.685926   4.214004  -1.003944)
  43:      1481.18    0.691009  ( -0.131568   0.696602  -0.434101)
  44:      1482.07   18.949012  ( -0.300980   3.367637  -2.741796)
  45:      1493.77   26.628596  (  0.377328  -0.834311  -5.078400)
  46:      1495.32    1.264551  (  0.077406   0.164806  -1.109684)
  47:      1497.45   11.414220  (  0.069060   3.377763  -0.013025)
  48:      1500.06   28.632218  (  2.440374   3.105085   3.610435)
  49:      3047.25    7.659901  (  2.107781   1.064433   1.443656)
  50:      3061.45    2.117876  (  0.794554   0.688305  -1.006378)
  51:      3085.75    0.316042  ( -0.412005   0.000941   0.382483)
  52:      3109.17    2.443318  (  0.324067   1.504392  -0.274048)
  53:      3111.70    0.643294  ( -0.785180   0.145823  -0.074305)
  54:      3113.89    2.902010  ( -0.756201  -0.315431   1.493544)
  55:      3130.81   10.095365  (  0.931299   0.837357   2.920082)
  56:      3141.78    2.304636  (  1.240500   0.864196  -0.137704)
  57:      3145.40    2.418323  ( -0.376570   1.431884  -0.475632)
  58:      3147.31    6.281735  ( -0.375159   2.318886   0.873933)
  59:      3175.05    0.113600  ( -0.326669   0.028147   0.078071)
  60:      3179.56    0.670631  ( -0.717079   0.381557  -0.104131)
  61:      3196.70    0.094903  (  0.126510   0.189315   0.207505)
  62:      3496.33   52.063246  (  5.304343   2.655156   4.108204)

--------------------------
THERMOCHEMISTRY AT 298.15K
--------------------------

Temperature         ... 298.15 K
Pressure            ... 1.00 atm
Total Mass          ... 100.18 AMU

Throughout the following assumptions are being made:
  (1) The electronic state is orbitally nondegenerate
  (2) There are no thermally accessible electronically excited states
  (3) Hindered rotations indicated by low frequency modes) are not
      treated as such but are treated as vibrations and this may
      case some error
  (4) All equations used are the standard statistical mechanics
      equations for an ideal gas
  (5) All vibrations are strinctly harmonic

------------
INNER ENERGY
------------

The inner energy is: U= E(el) + E(ZPE) + E(vib) + E(rot) + E(trans)
    E(el)   - is the total energy from the electronic structure calculation
              = E(kin-el) + E(nuc-el) + E(el-el) + E(nuc-nuc)
    E(ZPE)  - the the zero temperature vibrational energy from the frequency calculation
    E(vib)  - the the finite temperature correction to E(ZPE) due to population
              of excietd vibrational states
    E(rot)  - is the rotational thermal energy
    E(trans)- is the translational thermal energy

Summary of contributions to the inner energy U:
Electronic energy                ...   -291.31490724 Eh
Zero point energy                ...      0.19896542 Eh     124.85 kcal/mol
Thermal vibrational correction   ...      0.00533748 Eh       3.35 kcal/mol
Thermal rotational correction    ...      0.00141627 Eh       0.89 kcal/mol
Thermal translational correction ...      0.00141627 Eh       0.89 kcal/mol
-----------------------------------------------------------------------
Total thermal energy                   -291.10777180 Eh

Summary of corrections to the electronic energy:
(perhaps to be used in another calculation)
Total thermal correction                  0.00817002 Eh       5.13 kcal/mol
Non-thermal (ZPE) correction              0.19896542 Eh     124.85 kcal/mol
-----------------------------------------------------------------------
Total correction                          0.20713544 Eh     129.98 kcal/mol

--------
ENTHALPY
--------

The enthalpy is H = U + kB*T
                kB is Boltzmann's constant
Total free energy                 ...   -291.10777180 Eh
Thermal Enthalpy correction       ...      0.00094421 Eh       0.59 kcal/mol
-----------------------------------------------------------------------
Total Enthalpy                    ...   -291.10682759 Eh

-------
ENTROPY
-------

The entropy contributions are T*S = T*(S(el)+S(vib)+S(rot)+S(trans)
     S(el)   - electronic entropy
     S(vib)  - vibrational entropy
     S(rot)  - rotational entropy
     S(trans)- translational entropy
The entropies will be listed as mutliplied by the temperature to get
units of energy

Electronic entropy                ...      0.00000000 Eh      0.00 kcal/mol
Vibrational entropy               ...      0.00907910 Eh      5.70 kcal/mol
Rotational entropy                ...      0.01205592 Eh      7.57 kcal/mol
Translational entropy             ...      0.01887386 Eh     11.84 kcal/mol
-----------------------------------------------------------------------
Final entropy term                ...      0.04000887 Eh     25.11 kcal/mol

CAUTION: The rotational entropy is not quite correctly treated here
         because it includes a symmetry number that is not yet correctly
         implemented in ORCA!
For a nonlinear molecule the correct rotational entropy is:
    S(rot) = R*(ln(qrot/sn)+1.5)
    R    = 8.31441 J/mol/K = 1.987191683e-3 kcal/mol/K
    qrot = 234981.5600195
    sn is the rotational symmetry number. We have assumed 3 here
       if it is different for your molecule then you should correct
       the printed rotational entropy by manually evaluating the equation
       as given above

For convenience we print out the resulting values for sn=1 - 12:
 sn= 1  qrot/sn=  234981.5600 T*S(rot)=     8.22 kcal/mol T*S(tot)=    25.76 kcal/mol
 sn= 2  qrot/sn=  117490.7800 T*S(rot)=     7.81 kcal/mol T*S(tot)=    25.35 kcal/mol
 sn= 3  qrot/sn=   78327.1867 T*S(rot)=     7.57 kcal/mol T*S(tot)=    25.11 kcal/mol
 sn= 4  qrot/sn=   58745.3900 T*S(rot)=     7.39 kcal/mol T*S(tot)=    24.94 kcal/mol
 sn= 5  qrot/sn=   46996.3120 T*S(rot)=     7.26 kcal/mol T*S(tot)=    24.80 kcal/mol
 sn= 6  qrot/sn=   39163.5933 T*S(rot)=     7.15 kcal/mol T*S(tot)=    24.70 kcal/mol
 sn= 7  qrot/sn=   33568.7943 T*S(rot)=     7.06 kcal/mol T*S(tot)=    24.60 kcal/mol
 sn= 8  qrot/sn=   29372.6950 T*S(rot)=     6.98 kcal/mol T*S(tot)=    24.52 kcal/mol
 sn= 9  qrot/sn=   26109.0622 T*S(rot)=     6.91 kcal/mol T*S(tot)=    24.45 kcal/mol
 sn=10  qrot/sn=   23498.1560 T*S(rot)=     6.85 kcal/mol T*S(tot)=    24.39 kcal/mol
 sn=11  qrot/sn=   21361.9600 T*S(rot)=     6.80 kcal/mol T*S(tot)=    24.34 kcal/mol
 sn=12  qrot/sn=   19581.7967 T*S(rot)=     6.74 kcal/mol T*S(tot)=    24.28 kcal/mol

-------------------
GIBBS FREE ENTHALPY
-------------------

The Gibbs free enthalpy is G = H - T*S

Total enthalpy                    ...   -291.10682759 Eh
Total entropy correction          ...     -0.04000887 Eh    -25.11 kcal/mol
-----------------------------------------------------------------------
Final Gibbs free enthalpy         ...   -291.14683646 Eh

For completeness - the Gibbs free enthalpy minus the electronic energy
G-E(el)                           ...      0.16807078 Eh    105.47 kcal/mol

                             ****ORCA TERMINATED NORMALLY****
TOTAL RUN TIME: 0 days 0 hours 57 minutes 46 seconds 780 msec
