                         Program Version 3.0.3 - RELEASE   -
|  1> ! NORI PBE0 def2-TZVP UseSym TightOPT Freq TightSCF Grid3 FinalGrid5 XYZFile
|  2> % pal
|  3>     nprocs 8
|  4> end
|  5> %method
|  6>     SymThresh 5.0e-2
|  7> end
|  8> % geom
|  9>     MaxIter 10
| 10> end
| 11> % maxcore 2000
| 12> % output
| 13>     printlevel mini
| 14>     print[ P_Basis ] 0
| 15>     print[ P_SCFInfo ] 1
| 16>     print[ P_SCFIterInfo ] 1
| 17>     print[ P_OrbEn ] 0
| 18>     print[ P_Cartesian ] 0
| 19> end
| 20> % elprop
| 21>     Dipole false
| 22> end
| 23> *xyz 1 1
| 24>  C        0.8750017608     0.0914935912    -0.0261858348
| 25>  C        2.3888983414     0.0572976614     0.0527661770
| 26>  C        2.9713462034     1.1731807649     0.9058948811
| 27>  N        4.3635986190     0.6830309320     1.1931057862
| 28>  C        4.2407981436    -0.8012539195     1.4291637273
| 29>  C        2.9915466369    -1.1848312658     0.6749258271
| 30>  C        2.5163003863    -2.4171591839     0.6248702042
| 31>  H        0.5067431752    -0.7022009568    -0.6763641251
| 32>  H        0.5264190557     1.0382770812    -0.4429771185
| 33>  H        0.4270865538    -0.0419144519     0.9607358454
| 34>  H        2.7958409669     0.1662321434    -0.9634309869
| 35>  H        2.4573631290     1.2561691498     1.8652732162
| 36>  H        3.0200975012     2.1517091872     0.4301898056
| 37>  H        4.7935413300     1.1645335731     1.9822582978
| 38>  H        4.9568593784     0.8554556247     0.3807789555
| 39>  H        5.1522882331    -1.2907855137     1.0857451124
| 40>  H        4.1427941041    -0.9544253893     2.5051995506
| 41>  H        1.5984193497    -2.6473840132     0.0985416830
| 42>  H        3.0225071316    -3.2470150145     1.1044089957
| 43> *
| 44>
| 45>                          ****END OF INPUT****
 Total Charge           Charge          ....    1
 Multiplicity           Mult            ....    1
 Number of Electrons    NEL             ....   54
FINAL SINGLE POINT ENERGY      -290.109323771019

CARTESIAN COORDINATES (ANGSTROEM)
---------------------------------
  C      1.511063   -0.000122   -1.609866
  C      0.699657   -0.429966   -0.403057
  C      1.173677    0.201754    0.896562
  N     -0.000074   -0.000161    1.814522
  C     -1.229694    0.235598    0.974038
  C     -0.770166   -0.067061   -0.431002
  C     -1.553313    0.020766   -1.492131
  H      1.158237   -0.505373   -2.509055
  H      2.564086   -0.259562   -1.485697
  H      1.432716    1.076982   -1.772110
  H      0.783523   -1.521496   -0.294743
  H      1.316142    1.279162    0.791799
  H      2.063453   -0.244295    1.338872
  H      0.031376    0.609740    2.630874
  H      0.002995   -0.960180    2.160516
  H     -2.035815   -0.400629    1.339847
  H     -1.519134    1.279833    1.103179
  H     -1.177547   -0.175047   -2.488668
  H     -2.600543    0.289061   -1.411510

FINAL SINGLE POINT ENERGY      -290.109324330587
                    ***********************HURRAY********************
 Multiplicity           Mult            ....    1
 Number of Electrons    NEL             ....   54
 Basis Dimension        Dim             ....  289
FINAL SINGLE POINT ENERGY      -290.109324480106

VIBRATIONAL FREQUENCIES
-----------------------

   0:         0.00 cm**-1
   1:         0.00 cm**-1
   2:         0.00 cm**-1
   3:         0.00 cm**-1
   4:         0.00 cm**-1
   5:         0.00 cm**-1
   6:        27.78 cm**-1
   7:       193.96 cm**-1
   8:       226.05 cm**-1
   9:       268.43 cm**-1
  10:       336.63 cm**-1
  11:       385.43 cm**-1
  12:       526.73 cm**-1
  13:       557.64 cm**-1
  14:       608.12 cm**-1
  15:       702.96 cm**-1
  16:       773.61 cm**-1
  17:       869.19 cm**-1
  18:       891.80 cm**-1
  19:       898.37 cm**-1
  20:       930.88 cm**-1
  21:       970.86 cm**-1
  22:       976.42 cm**-1
  23:       983.92 cm**-1
  24:      1012.69 cm**-1
  25:      1069.99 cm**-1
  26:      1115.10 cm**-1
  27:      1154.34 cm**-1
  28:      1196.51 cm**-1
  29:      1240.93 cm**-1
  30:      1261.32 cm**-1
  31:      1296.89 cm**-1
  32:      1337.41 cm**-1
  33:      1347.66 cm**-1
  34:      1366.77 cm**-1
  35:      1389.59 cm**-1
  36:      1402.17 cm**-1
  37:      1416.95 cm**-1
  38:      1452.66 cm**-1
  39:      1482.72 cm**-1
  40:      1486.45 cm**-1
  41:      1497.55 cm**-1
  42:      1502.09 cm**-1
  43:      1653.23 cm**-1
  44:      1754.07 cm**-1
  45:      3007.30 cm**-1
  46:      3064.59 cm**-1
  47:      3095.03 cm**-1
  48:      3097.26 cm**-1
  49:      3142.29 cm**-1
  50:      3150.95 cm**-1
  51:      3152.84 cm**-1
  52:      3168.30 cm**-1
  53:      3171.96 cm**-1
  54:      3259.73 cm**-1
  55:      3463.89 cm**-1
  56:      3522.45 cm**-1

IR SPECTRUM
-----------

 Mode    freq (cm**-1)   T**2         TX         TY         TZ
-------------------------------------------------------------------
   7:       193.96    3.908365  (  0.143742  -1.853745  -0.671813)
   8:       226.05    0.293067  (  0.087567   0.532490  -0.043057)
   9:       268.43    0.452921  ( -0.440824   0.418536   0.288829)
  10:       336.63    5.773684  (  0.439701   2.120363  -1.041348)
  11:       385.43    1.099756  ( -0.639442   0.827434  -0.078882)
  12:       526.73    6.863575  ( -1.150962  -2.276385  -0.597439)
  13:       557.64    2.856555  ( -1.256034  -1.012439  -0.503885)
  14:       608.12    4.868019  ( -0.022471   0.776450   2.065100)
  15:       702.96    0.090257  ( -0.235150   0.056915  -0.178105)
  16:       773.61    1.886964  ( -0.896538  -0.262977  -1.006989)
  17:       869.19    4.247557  (  0.687255  -1.934353  -0.183075)
  18:       891.80    2.797072  (  0.810361   0.424778   1.399982)
  19:       898.37    3.533709  ( -0.564582  -0.341855   1.760139)
  20:       930.88    1.710714  ( -0.787809   0.590454  -0.861066)
  21:       970.86    8.515538  (  1.203110   2.014263  -1.735169)
  22:       976.42   28.399442  (  0.178961   5.231210   1.000930)
  23:       983.92   11.032382  (  1.988055   2.656553   0.150816)
  24:      1012.69    1.185442  ( -0.512055   0.008678  -0.960815)
  25:      1069.99    0.745436  (  0.440482  -0.664221  -0.331997)
  26:      1115.10    0.653513  ( -0.386860  -0.186389  -0.684917)
  27:      1154.34    1.031112  ( -0.665564   0.263695   0.720140)
  28:      1196.51    7.915739  (  2.798243   0.247642   0.155725)
  29:      1240.93   17.280644  ( -4.030466  -0.577691  -0.838010)
  30:      1261.32    0.274520  (  0.500880   0.121102  -0.094730)
  31:      1296.89    2.504983  ( -0.435017   1.509922   0.189417)
  32:      1337.41    2.516547  (  1.009231  -0.850090   0.880538)
  33:      1347.66    6.412018  ( -2.524243   0.145994   0.137486)
  34:      1366.77    5.187639  (  2.149410  -0.104298  -0.746189)
  35:      1389.59   20.538272  ( -4.527130  -0.181397   0.102296)
  36:      1402.17   10.454738  (  3.226882   0.008527  -0.204685)
  37:      1416.95    2.594747  (  0.674065   0.950290  -1.112355)
  38:      1452.66   21.913809  (  2.911015  -1.064508   3.508080)
  39:      1482.72    5.403594  ( -0.212593  -1.396203  -1.846352)
  40:      1486.45   11.452443  (  3.306191   0.297280  -0.658156)
  41:      1497.55    5.076661  (  1.282027  -1.700367  -0.736084)
  42:      1502.09   20.904434  ( -0.206548  -3.618015  -2.787784)
  43:      1653.23   70.843079  (  0.044974  -2.593649   8.007125)
  44:      1754.07    3.246679  ( -1.047281  -0.062731  -1.464905)
  45:      3007.30    5.689700  ( -0.006758  -1.961948   1.356618)
  46:      3064.59    4.914833  ( -1.613422  -0.998558   1.146554)
  47:      3095.03    0.722557  (  0.292913   0.077945  -0.794156)
  48:      3097.26    2.016570  ( -0.584265  -1.105015  -0.673903)
  49:      3142.29    6.432155  ( -1.752888   1.822476  -0.195250)
  50:      3150.95    0.286850  (  0.108742   0.507606   0.131763)
  51:      3152.84    4.120082  ( -1.056496  -1.344209  -1.094075)
  52:      3168.30    0.575875  (  0.547693  -0.417467   0.318793)
  53:      3171.96    0.351963  ( -0.111956   0.116235  -0.570892)
  54:      3259.73    0.035308  (  0.157728  -0.010568   0.101581)
  55:      3463.89   70.688126  ( -0.418465   2.667978  -7.962092)
  56:      3522.45   80.539697  ( -0.275038  -8.170066  -3.703251)

--------------------------
THERMOCHEMISTRY AT 298.15K
--------------------------

Temperature         ... 298.15 K
Pressure            ... 1.00 atm
Total Mass          ... 98.17 AMU

Throughout the following assumptions are being made:
  (1) The electronic state is orbitally nondegenerate
  (2) There are no thermally accessible electronically excited states
  (3) Hindered rotations indicated by low frequency modes) are not
      treated as such but are treated as vibrations and this may
      case some error
  (4) All equations used are the standard statistical mechanics
      equations for an ideal gas
  (5) All vibrations are strinctly harmonic

------------
INNER ENERGY
------------

The inner energy is: U= E(el) + E(ZPE) + E(vib) + E(rot) + E(trans)
    E(el)   - is the total energy from the electronic structure calculation
              = E(kin-el) + E(nuc-el) + E(el-el) + E(nuc-nuc)
    E(ZPE)  - the the zero temperature vibrational energy from the frequency calculation
    E(vib)  - the the finite temperature correction to E(ZPE) due to population
              of excietd vibrational states
    E(rot)  - is the rotational thermal energy
    E(trans)- is the translational thermal energy

Summary of contributions to the inner energy U:
Electronic energy                ...   -290.10932448 Eh
Zero point energy                ...      0.17732046 Eh     111.27 kcal/mol
Thermal vibrational correction   ...      0.00357788 Eh       2.25 kcal/mol
Thermal rotational correction    ...      0.00141627 Eh       0.89 kcal/mol
Thermal translational correction ...      0.00141627 Eh       0.89 kcal/mol
-----------------------------------------------------------------------
Total thermal energy                   -289.92559359 Eh

Summary of corrections to the electronic energy:
(perhaps to be used in another calculation)
Total thermal correction                  0.00641043 Eh       4.02 kcal/mol
Non-thermal (ZPE) correction              0.17732046 Eh     111.27 kcal/mol
-----------------------------------------------------------------------
Total correction                          0.18373089 Eh     115.29 kcal/mol

--------
ENTHALPY
--------

The enthalpy is H = U + kB*T
                kB is Boltzmann's constant
Total free energy                 ...   -289.92559359 Eh
Thermal Enthalpy correction       ...      0.00094421 Eh       0.59 kcal/mol
-----------------------------------------------------------------------
Total Enthalpy                    ...   -289.92464938 Eh

-------
ENTROPY
-------

The entropy contributions are T*S = T*(S(el)+S(vib)+S(rot)+S(trans)
     S(el)   - electronic entropy
     S(vib)  - vibrational entropy
     S(rot)  - rotational entropy
     S(trans)- translational entropy
The entropies will be listed as mutliplied by the temperature to get
units of energy

Electronic entropy                ...      0.00000000 Eh      0.00 kcal/mol
Vibrational entropy               ...      0.00547118 Eh      3.43 kcal/mol
Rotational entropy                ...      0.01197328 Eh      7.51 kcal/mol
Translational entropy             ...      0.01884507 Eh     11.83 kcal/mol
-----------------------------------------------------------------------
Final entropy term                ...      0.03628953 Eh     22.77 kcal/mol

CAUTION: The rotational entropy is not quite correctly treated here
         because it includes a symmetry number that is not yet correctly
         implemented in ORCA!
For a nonlinear molecule the correct rotational entropy is:
    S(rot) = R*(ln(qrot/sn)+1.5)
    R    = 8.31441 J/mol/K = 1.987191683e-3 kcal/mol/K
    qrot = 215289.7036202
    sn is the rotational symmetry number. We have assumed 3 here
       if it is different for your molecule then you should correct
       the printed rotational entropy by manually evaluating the equation
       as given above

For convenience we print out the resulting values for sn=1 - 12:
 sn= 1  qrot/sn=  215289.7036 T*S(rot)=     8.16 kcal/mol T*S(tot)=    23.42 kcal/mol
 sn= 2  qrot/sn=  107644.8518 T*S(rot)=     7.75 kcal/mol T*S(tot)=    23.01 kcal/mol
 sn= 3  qrot/sn=   71763.2345 T*S(rot)=     7.51 kcal/mol T*S(tot)=    22.77 kcal/mol
 sn= 4  qrot/sn=   53822.4259 T*S(rot)=     7.34 kcal/mol T*S(tot)=    22.60 kcal/mol
 sn= 5  qrot/sn=   43057.9407 T*S(rot)=     7.21 kcal/mol T*S(tot)=    22.47 kcal/mol
 sn= 6  qrot/sn=   35881.6173 T*S(rot)=     7.10 kcal/mol T*S(tot)=    22.36 kcal/mol
 sn= 7  qrot/sn=   30755.6719 T*S(rot)=     7.01 kcal/mol T*S(tot)=    22.27 kcal/mol
 sn= 8  qrot/sn=   26911.2130 T*S(rot)=     6.93 kcal/mol T*S(tot)=    22.19 kcal/mol
 sn= 9  qrot/sn=   23921.0782 T*S(rot)=     6.86 kcal/mol T*S(tot)=    22.12 kcal/mol
 sn=10  qrot/sn=   21528.9704 T*S(rot)=     6.80 kcal/mol T*S(tot)=    22.06 kcal/mol
 sn=11  qrot/sn=   19571.7912 T*S(rot)=     6.74 kcal/mol T*S(tot)=    22.00 kcal/mol
 sn=12  qrot/sn=   17940.8086 T*S(rot)=     6.69 kcal/mol T*S(tot)=    21.95 kcal/mol

-------------------
GIBBS FREE ENTHALPY
-------------------

The Gibbs free enthalpy is G = H - T*S

Total enthalpy                    ...   -289.92464938 Eh
Total entropy correction          ...     -0.03628953 Eh    -22.77 kcal/mol
-----------------------------------------------------------------------
Final Gibbs free enthalpy         ...   -289.96093891 Eh

For completeness - the Gibbs free enthalpy minus the electronic energy
G-E(el)                           ...      0.14838557 Eh     93.11 kcal/mol

                             ****ORCA TERMINATED NORMALLY****
TOTAL RUN TIME: 0 days 0 hours 51 minutes 36 seconds 802 msec
