                         Program Version 3.0.3 - RELEASE   -
|  1> ! NORI PBE0 def2-TZVP UseSym TightOPT Freq TightSCF Grid3 FinalGrid5 XYZFile
|  2> % pal
|  3>     nprocs 8
|  4> end
|  5> %method
|  6>     SymThresh 5.0e-2
|  7> end
|  8> % geom
|  9>     MaxIter 10
| 10> end
| 11> % maxcore 2000
| 12> % output
| 13>     printlevel mini
| 14>     print[ P_Basis ] 0
| 15>     print[ P_SCFInfo ] 1
| 16>     print[ P_SCFIterInfo ] 1
| 17>     print[ P_OrbEn ] 0
| 18>     print[ P_Cartesian ] 0
| 19> end
| 20> % elprop
| 21>     Dipole false
| 22> end
| 23> *xyz 1 1
| 24>  C        0.8483597384    -0.0400501374     0.1109773503
| 25>  C        2.1700714875    -0.0320264007    -0.0582045080
| 26>  C        2.9102343703     1.2437331640    -0.3189046475
| 27>  N        4.2390971385     1.1898794024     0.3820398462
| 28>  C        5.0977078235     0.0714757641    -0.1226559118
| 29>  C        4.3205892769    -1.2005270934    -0.1232752880
| 30>  C        2.9881713688    -1.2347068359    -0.0612838021
| 31>  H        0.2632724397     0.8723182664     0.1135269703
| 32>  H        0.3095997132    -0.9716635100     0.2363746596
| 33>  H        2.3737473864     2.1215356101     0.0401814149
| 34>  H        3.1356747251     1.3719061731    -1.3808756551
| 35>  H        4.0719912060     1.0486370721     1.3811419459
| 36>  H        4.7287517053     2.0797316082     0.2805892042
| 37>  H        5.4474830180     0.3570463366    -1.1192627215
| 38>  H        5.9706848398     0.0109269299     0.5308007027
| 39>  H        4.9040625995    -2.1126573158    -0.1543985683
| 40>  H        2.4766111632    -2.1893290336    -0.0086009919
| 41> *
| 42>
| 43>                          ****END OF INPUT****
 Total Charge           Charge          ....    1
 Multiplicity           Mult            ....    1
 Number of Electrons    NEL             ....   52
FINAL SINGLE POINT ENERGY      -288.890087791220

CARTESIAN COORDINATES (ANGSTROEM)
---------------------------------
  C      1.852096   -0.000343   -1.553963
  C      0.785375   -0.075491   -0.758860
  C      0.859900   -0.751423    0.575544
  N     -0.000100    0.000066    1.552945
  C     -1.440672    0.010815    1.144143
  C     -1.558612    0.442345   -0.277678
  C     -0.528802    0.428181   -1.126017
  H      2.821671   -0.380180   -1.253205
  H      1.777898    0.433079   -2.544184
  H      1.873818   -0.785301    0.973115
  H      0.455987   -1.766590    0.538745
  H      0.333357    0.965761    1.601174
  H      0.095171   -0.399139    2.487374
  H     -1.833228   -0.995970    1.317194
  H     -1.964971    0.692043    1.817951
  H     -2.535076    0.795302   -0.586721
  H     -0.657502    0.805315   -2.134419

FINAL SINGLE POINT ENERGY      -288.890088107784
                    ***********************HURRAY********************
 Multiplicity           Mult            ....    1
 Number of Electrons    NEL             ....   52
 Basis Dimension        Dim             ....  277
FINAL SINGLE POINT ENERGY      -288.890088252234

VIBRATIONAL FREQUENCIES
-----------------------

   0:         0.00 cm**-1
   1:         0.00 cm**-1
   2:         0.00 cm**-1
   3:         0.00 cm**-1
   4:         0.00 cm**-1
   5:         0.00 cm**-1
   6:       116.71 cm**-1
   7:       262.59 cm**-1
   8:       306.34 cm**-1
   9:       364.99 cm**-1
  10:       456.59 cm**-1
  11:       478.68 cm**-1
  12:       577.77 cm**-1
  13:       691.41 cm**-1
  14:       730.69 cm**-1
  15:       796.63 cm**-1
  16:       804.11 cm**-1
  17:       869.31 cm**-1
  18:       928.18 cm**-1
  19:       947.04 cm**-1
  20:       989.82 cm**-1
  21:       994.82 cm**-1
  22:      1015.43 cm**-1
  23:      1021.19 cm**-1
  24:      1053.81 cm**-1
  25:      1081.66 cm**-1
  26:      1191.83 cm**-1
  27:      1197.37 cm**-1
  28:      1266.80 cm**-1
  29:      1329.77 cm**-1
  30:      1334.01 cm**-1
  31:      1393.20 cm**-1
  32:      1415.98 cm**-1
  33:      1427.69 cm**-1
  34:      1430.61 cm**-1
  35:      1471.07 cm**-1
  36:      1475.63 cm**-1
  37:      1493.23 cm**-1
  38:      1637.16 cm**-1
  39:      1688.74 cm**-1
  40:      1733.38 cm**-1
  41:      3068.77 cm**-1
  42:      3083.21 cm**-1
  43:      3122.05 cm**-1
  44:      3155.25 cm**-1
  45:      3170.45 cm**-1
  46:      3204.22 cm**-1
  47:      3222.25 cm**-1
  48:      3263.08 cm**-1
  49:      3438.57 cm**-1
  50:      3501.81 cm**-1

IR SPECTRUM
-----------

 Mode    freq (cm**-1)   T**2         TX         TY         TZ
-------------------------------------------------------------------
   6:       116.71    0.753593  ( -0.543482  -0.662841   0.137340)
   7:       262.59    8.789638  ( -0.619092  -1.984227   2.114050)
   8:       306.34    4.129105  (  1.324523   1.536537   0.117458)
   9:       364.99    1.140447  (  0.505248   0.598298  -0.726093)
  10:       456.59    3.652206  ( -0.337999  -1.678146   0.849582)
  11:       478.68    0.748725  ( -0.521635   0.271578  -0.634718)
  12:       577.77   26.543214  (  1.083611   4.284808   2.647532)
  13:       691.41    8.624879  ( -0.855101  -2.799484   0.237850)
  14:       730.69    2.202839  (  0.905282   0.675231   0.962999)
  15:       796.63    2.657235  ( -0.195907  -0.896372   1.347357)
  16:       804.11   14.309863  ( -1.248180  -3.559440  -0.286879)
  17:       869.31    4.437631  (  0.174739   0.909348   1.892138)
  18:       928.18    0.843946  ( -0.167237  -0.184489  -0.884275)
  19:       947.04    7.258473  ( -2.560672   0.687719   0.477991)
  20:       989.82   36.916883  ( -2.129037  -5.294322  -2.086683)
  21:       994.82    0.330945  (  0.324864  -0.272396  -0.388856)
  22:      1015.43    4.155657  (  0.133256   1.967809   0.515389)
  23:      1021.19    8.710859  ( -0.232097  -1.944889   2.207804)
  24:      1053.81   13.381369  (  3.569433  -0.143083  -0.787427)
  25:      1081.66    7.436754  (  1.291182  -2.210448  -0.939958)
  26:      1191.83    2.871283  ( -1.020637   1.297231  -0.383112)
  27:      1197.37    1.019982  (  0.640197  -0.597768  -0.502796)
  28:      1266.80    7.032417  (  2.383885  -0.974543  -0.632279)
  29:      1329.77    1.147459  ( -1.060160   0.023406  -0.151564)
  30:      1334.01    6.586729  (  1.454970   1.293620  -1.672226)
  31:      1393.20    0.589982  (  0.704009  -0.271437  -0.143787)
  32:      1415.98   11.196240  ( -3.040693   0.886625   1.079037)
  33:      1427.69   13.288219  (  3.328109  -1.482411  -0.119865)
  34:      1430.61   31.189163  ( -4.696013   1.042077   2.837376)
  35:      1471.07    5.365852  ( -0.829725  -1.215166   1.789072)
  36:      1475.63   13.170345  ( -3.083713   1.799790   0.649473)
  37:      1493.23   22.754938  ( -1.345436  -2.703704   3.692523)
  38:      1637.16   77.412904  (  2.575921   4.116330   7.337122)
  39:      1688.74    4.112613  (  1.887989   0.513243  -0.533565)
  40:      1733.38    0.774877  (  0.774619  -0.415756  -0.044588)
  41:      3068.77    1.874390  ( -0.433070  -0.433840   1.224183)
  42:      3083.21    1.139784  (  0.051149  -0.543390   0.917548)
  43:      3122.05    0.259427  ( -0.468785  -0.099447   0.172562)
  44:      3155.25    0.196847  (  0.109330  -0.418926   0.096925)
  45:      3170.45    1.397669  ( -0.726220  -0.221266   0.906264)
  46:      3204.22    2.259036  ( -1.316042   0.099333   0.719168)
  47:      3222.25    2.901682  ( -1.575094   0.562549  -0.322956)
  48:      3263.08    0.029601  ( -0.009488   0.119373  -0.123534)
  49:      3438.57   53.856614  ( -1.960927  -4.174774  -5.708121)
  50:      3501.81   78.440356  ( -0.762551  -6.373349   6.102400)

--------------------------
THERMOCHEMISTRY AT 298.15K
--------------------------

Temperature         ... 298.15 K
Pressure            ... 1.00 atm
Total Mass          ... 96.15 AMU

Throughout the following assumptions are being made:
  (1) The electronic state is orbitally nondegenerate
  (2) There are no thermally accessible electronically excited states
  (3) Hindered rotations indicated by low frequency modes) are not
      treated as such but are treated as vibrations and this may
      case some error
  (4) All equations used are the standard statistical mechanics
      equations for an ideal gas
  (5) All vibrations are strinctly harmonic

------------
INNER ENERGY
------------

The inner energy is: U= E(el) + E(ZPE) + E(vib) + E(rot) + E(trans)
    E(el)   - is the total energy from the electronic structure calculation
              = E(kin-el) + E(nuc-el) + E(el-el) + E(nuc-nuc)
    E(ZPE)  - the the zero temperature vibrational energy from the frequency calculation
    E(vib)  - the the finite temperature correction to E(ZPE) due to population
              of excietd vibrational states
    E(rot)  - is the rotational thermal energy
    E(trans)- is the translational thermal energy

Summary of contributions to the inner energy U:
Electronic energy                ...   -288.89008825 Eh
Zero point energy                ...      0.15537984 Eh      97.50 kcal/mol
Thermal vibrational correction   ...      0.00344754 Eh       2.16 kcal/mol
Thermal rotational correction    ...      0.00141627 Eh       0.89 kcal/mol
Thermal translational correction ...      0.00141627 Eh       0.89 kcal/mol
-----------------------------------------------------------------------
Total thermal energy                   -288.72842833 Eh

Summary of corrections to the electronic energy:
(perhaps to be used in another calculation)
Total thermal correction                  0.00628008 Eh       3.94 kcal/mol
Non-thermal (ZPE) correction              0.15537984 Eh      97.50 kcal/mol
-----------------------------------------------------------------------
Total correction                          0.16165993 Eh     101.44 kcal/mol

--------
ENTHALPY
--------

The enthalpy is H = U + kB*T
                kB is Boltzmann's constant
Total free energy                 ...   -288.72842833 Eh
Thermal Enthalpy correction       ...      0.00094421 Eh       0.59 kcal/mol
-----------------------------------------------------------------------
Total Enthalpy                    ...   -288.72748412 Eh

-------
ENTROPY
-------

The entropy contributions are T*S = T*(S(el)+S(vib)+S(rot)+S(trans)
     S(el)   - electronic entropy
     S(vib)  - vibrational entropy
     S(rot)  - rotational entropy
     S(trans)- translational entropy
The entropies will be listed as mutliplied by the temperature to get
units of energy

Electronic entropy                ...      0.00000000 Eh      0.00 kcal/mol
Vibrational entropy               ...      0.00544320 Eh      3.42 kcal/mol
Rotational entropy                ...      0.01185102 Eh      7.44 kcal/mol
Translational entropy             ...      0.01881568 Eh     11.81 kcal/mol
-----------------------------------------------------------------------
Final entropy term                ...      0.03610990 Eh     22.66 kcal/mol

CAUTION: The rotational entropy is not quite correctly treated here
         because it includes a symmetry number that is not yet correctly
         implemented in ORCA!
For a nonlinear molecule the correct rotational entropy is:
    S(rot) = R*(ln(qrot/sn)+1.5)
    R    = 8.31441 J/mol/K = 1.987191683e-3 kcal/mol/K
    qrot = 189141.1351370
    sn is the rotational symmetry number. We have assumed 3 here
       if it is different for your molecule then you should correct
       the printed rotational entropy by manually evaluating the equation
       as given above

For convenience we print out the resulting values for sn=1 - 12:
 sn= 1  qrot/sn=  189141.1351 T*S(rot)=     8.09 kcal/mol T*S(tot)=    23.31 kcal/mol
 sn= 2  qrot/sn=   94570.5676 T*S(rot)=     7.68 kcal/mol T*S(tot)=    22.90 kcal/mol
 sn= 3  qrot/sn=   63047.0450 T*S(rot)=     7.44 kcal/mol T*S(tot)=    22.66 kcal/mol
 sn= 4  qrot/sn=   47285.2838 T*S(rot)=     7.27 kcal/mol T*S(tot)=    22.49 kcal/mol
 sn= 5  qrot/sn=   37828.2270 T*S(rot)=     7.13 kcal/mol T*S(tot)=    22.36 kcal/mol
 sn= 6  qrot/sn=   31523.5225 T*S(rot)=     7.03 kcal/mol T*S(tot)=    22.25 kcal/mol
 sn= 7  qrot/sn=   27020.1622 T*S(rot)=     6.93 kcal/mol T*S(tot)=    22.16 kcal/mol
 sn= 8  qrot/sn=   23642.6419 T*S(rot)=     6.86 kcal/mol T*S(tot)=    22.08 kcal/mol
 sn= 9  qrot/sn=   21015.6817 T*S(rot)=     6.79 kcal/mol T*S(tot)=    22.01 kcal/mol
 sn=10  qrot/sn=   18914.1135 T*S(rot)=     6.72 kcal/mol T*S(tot)=    21.95 kcal/mol
 sn=11  qrot/sn=   17194.6486 T*S(rot)=     6.67 kcal/mol T*S(tot)=    21.89 kcal/mol
 sn=12  qrot/sn=   15761.7613 T*S(rot)=     6.62 kcal/mol T*S(tot)=    21.84 kcal/mol

-------------------
GIBBS FREE ENTHALPY
-------------------

The Gibbs free enthalpy is G = H - T*S

Total enthalpy                    ...   -288.72748412 Eh
Total entropy correction          ...     -0.03610990 Eh    -22.66 kcal/mol
-----------------------------------------------------------------------
Final Gibbs free enthalpy         ...   -288.76359402 Eh

For completeness - the Gibbs free enthalpy minus the electronic energy
G-E(el)                           ...      0.12649424 Eh     79.38 kcal/mol

                             ****ORCA TERMINATED NORMALLY****
TOTAL RUN TIME: 0 days 0 hours 43 minutes 23 seconds 475 msec
