                         Program Version 3.0.3 - RELEASE   -
|  1> ! NORI PBE0 def2-TZVP UseSym TightOPT Freq TightSCF Grid3 FinalGrid5 XYZFile
|  2> % pal
|  3>     nprocs 8
|  4> end
|  5> %method
|  6>     SymThresh 5.0e-2
|  7> end
|  8> % geom
|  9>     MaxIter 10
| 10> end
| 11> % maxcore 2000
| 12> % output
| 13>     printlevel mini
| 14>     print[ P_Basis ] 0
| 15>     print[ P_SCFInfo ] 1
| 16>     print[ P_SCFIterInfo ] 1
| 17>     print[ P_OrbEn ] 0
| 18>     print[ P_Cartesian ] 0
| 19> end
| 20> % elprop
| 21>     Dipole false
| 22> end
| 23> *xyz 1 1
| 24>  C        0.8580815548     0.0154483889    -0.2793395746
| 25>  C        2.3482520821     0.0068687547     0.0040204324
| 26>  C        3.1778416083     0.0374460097    -1.2708314499
| 27>  N        2.6972185208    -1.2771064152     0.7868200607
| 28>  C        3.6868440378    -0.9320940283     1.8674606819
| 29>  C        3.5178607570     0.5461032640     1.9865708480
| 30>  C        2.7970879069     1.0429080993     0.9951823764
| 31>  H        0.5683781078    -0.8159816180    -0.9271007740
| 32>  H        0.5968998672     0.9381421516    -0.7996705292
| 33>  H        0.2711885070    -0.0185719284     0.6417559386
| 34>  H        2.8694098810    -0.7466405333    -1.9675748055
| 35>  H        4.2458140095    -0.0583341575    -1.0605837706
| 36>  H        3.0302643719     0.9962248697    -1.7702857159
| 37>  H        3.0454263765    -2.0024406871     0.1607174066
| 38>  H        1.8415345874    -1.6323712657     1.2130286958
| 39>  H        4.6889034415    -1.2226665669     1.5419291967
| 40>  H        3.4463340399    -1.4949450883     2.7704603993
| 41>  H        3.9764090848     1.1061981851     2.7899688980
| 42>  H        2.5613112578     2.0887025658     0.8460216851
| 43> *
| 44>
| 45>                          ****END OF INPUT****
 Total Charge           Charge          ....    1
 Multiplicity           Mult            ....    1
 Number of Electrons    NEL             ....   54
FINAL SINGLE POINT ENERGY      -290.117762525128
FINAL SINGLE POINT ENERGY      -290.117764130855
FINAL SINGLE POINT ENERGY      -290.117765198749

CARTESIAN COORDINATES (ANGSTROEM)
---------------------------------
  C      2.013837    0.001726   -0.284023
  C      0.532888    0.328326   -0.234208
  C      0.257484    1.795414   -0.527479
  N      0.000904   -0.001497    1.176405
  C     -1.350915   -0.650262    1.044990
  C     -1.342258   -1.104271   -0.377074
  C     -0.331559   -0.586591   -1.054964
  H      2.584855    0.625960    0.408031
  H      2.391622    0.199681   -1.287879
  H      2.203404   -1.052188   -0.064269
  H      0.859899    2.449776    0.108360
  H     -0.800091    2.040919   -0.408667
  H      0.526202    2.007881   -1.562825
  H     -0.025438    0.833138    1.761327
  H      0.648463   -0.656794    1.614190
  H     -2.126370    0.091342    1.252789
  H     -1.439663   -1.450841    1.780645
  H     -2.111157   -1.755754   -0.769188
  H     -0.128450   -0.742721   -2.106340

FINAL SINGLE POINT ENERGY      -290.117765579510
                    ***********************HURRAY********************
 Multiplicity           Mult            ....    1
 Number of Electrons    NEL             ....   54
 Basis Dimension        Dim             ....  289
FINAL SINGLE POINT ENERGY      -290.117765931762

VIBRATIONAL FREQUENCIES
-----------------------

   0:         0.00 cm**-1
   1:         0.00 cm**-1
   2:         0.00 cm**-1
   3:         0.00 cm**-1
   4:         0.00 cm**-1
   5:         0.00 cm**-1
   6:        94.56 cm**-1
   7:       234.23 cm**-1
   8:       242.71 cm**-1
   9:       267.70 cm**-1
  10:       329.37 cm**-1
  11:       347.09 cm**-1
  12:       385.72 cm**-1
  13:       504.33 cm**-1
  14:       598.49 cm**-1
  15:       731.65 cm**-1
  16:       750.67 cm**-1
  17:       763.45 cm**-1
  18:       868.07 cm**-1
  19:       891.63 cm**-1
  20:       946.32 cm**-1
  21:       950.92 cm**-1
  22:       974.59 cm**-1
  23:       984.83 cm**-1
  24:       998.76 cm**-1
  25:      1026.62 cm**-1
  26:      1048.12 cm**-1
  27:      1119.06 cm**-1
  28:      1160.02 cm**-1
  29:      1195.87 cm**-1
  30:      1235.51 cm**-1
  31:      1274.87 cm**-1
  32:      1305.35 cm**-1
  33:      1357.48 cm**-1
  34:      1374.91 cm**-1
  35:      1399.88 cm**-1
  36:      1406.32 cm**-1
  37:      1429.73 cm**-1
  38:      1466.44 cm**-1
  39:      1478.29 cm**-1
  40:      1492.33 cm**-1
  41:      1498.11 cm**-1
  42:      1502.72 cm**-1
  43:      1637.63 cm**-1
  44:      1716.56 cm**-1
  45:      3052.75 cm**-1
  46:      3055.63 cm**-1
  47:      3083.81 cm**-1
  48:      3131.65 cm**-1
  49:      3135.25 cm**-1
  50:      3137.33 cm**-1
  51:      3149.41 cm**-1
  52:      3153.60 cm**-1
  53:      3233.46 cm**-1
  54:      3254.04 cm**-1
  55:      3462.66 cm**-1
  56:      3525.48 cm**-1

IR SPECTRUM
-----------

 Mode    freq (cm**-1)   T**2         TX         TY         TZ
-------------------------------------------------------------------
   6:        94.56    1.106797  (  0.459322  -0.906128  -0.273408)
   7:       234.23    0.018356  ( -0.117651  -0.008060  -0.066701)
   8:       242.71    0.233948  (  0.280996  -0.327370   0.218674)
   9:       267.70    0.410586  (  0.606936   0.202550  -0.034477)
  10:       329.37    0.882770  (  0.073603  -0.927983  -0.127277)
  11:       347.09    2.272232  (  1.155633  -0.457547  -0.852874)
  12:       385.72    1.500772  ( -0.186278  -0.867902   0.844285)
  13:       504.33    6.048651  (  0.954807  -2.260973   0.158106)
  14:       598.49    1.025703  (  0.131178  -0.663465  -0.753864)
  15:       731.65   17.286657  ( -2.160170   3.550354  -0.123730)
  16:       750.67    7.180985  ( -2.375060   1.217208   0.241827)
  17:       763.45   35.173705  ( -2.778384   4.824569  -2.043971)
  18:       868.07    1.286320  ( -0.286294  -1.076576   0.212932)
  19:       891.63    1.672898  (  0.623891   0.228848  -1.109633)
  20:       946.32    0.674544  ( -0.790654   0.088451   0.203930)
  21:       950.92    0.398498  ( -0.283062   0.539785   0.164336)
  22:       974.59    5.327644  (  2.022435   1.023713   0.435214)
  23:       984.83    4.652138  (  2.149349  -0.115053   0.138564)
  24:       998.76    6.109292  ( -2.465959  -0.065313   0.155152)
  25:      1026.62    6.003486  (  1.580475   1.810480  -0.477227)
  26:      1048.12    4.933599  (  0.864220   1.947373  -0.628060)
  27:      1119.06   11.067202  (  1.238380   0.050590  -3.087241)
  28:      1160.02    6.968319  ( -0.975968   2.195312  -1.093805)
  29:      1195.87   22.175356  (  2.284339   1.747573  -3.728692)
  30:      1235.51   13.268829  ( -1.127769   0.189337   3.458485)
  31:      1274.87    8.370017  (  2.103566  -1.977957   0.180866)
  32:      1305.35   15.868231  (  2.411126   2.351820  -2.126886)
  33:      1357.48    5.805067  ( -1.212512   0.177966   2.074418)
  34:      1374.91   17.731009  (  3.329304   1.542879  -2.065494)
  35:      1399.88   49.525929  (  4.715229   3.968176  -3.397958)
  36:      1406.32   25.049022  ( -4.376208   2.421745   0.181581)
  37:      1429.73    0.318039  (  0.432531  -0.275771  -0.234322)
  38:      1466.44    0.400941  (  0.423328  -0.171992  -0.438352)
  39:      1478.29    4.357236  (  0.729195  -1.812658   0.734699)
  40:      1492.33   12.387523  (  1.181086   0.360458  -3.295850)
  41:      1498.11   11.668487  ( -1.962460   0.839117   2.667044)
  42:      1502.72   11.955061  (  1.662235   1.634346   2.553615)
  43:      1637.63   58.529283  ( -3.215619  -0.139093  -6.940442)
  44:      1716.56    0.176079  (  0.309870   0.274132  -0.070077)
  45:      3052.75    1.901959  ( -0.772233   1.021492  -0.512025)
  46:      3055.63    3.103857  (  0.225804   0.638554   1.626382)
  47:      3083.81    2.612103  (  0.859993  -0.234320  -1.348187)
  48:      3131.65    3.402231  ( -0.125018   1.837423   0.102370)
  49:      3135.25    7.304023  ( -2.292714  -1.361495  -0.440244)
  50:      3137.33    0.103695  (  0.162370   0.110784   0.255065)
  51:      3149.41    1.766369  ( -1.038830   0.776959  -0.289023)
  52:      3153.60    0.631531  ( -0.070180   0.427541   0.666194)
  53:      3233.46    4.024916  ( -1.257253  -0.496166   1.482582)
  54:      3254.04    6.121128  ( -1.263046  -1.402705  -1.599456)
  55:      3462.66   46.216276  ( -3.321297  -0.386560  -5.919108)
  56:      3525.48   64.549574  (  3.417521  -7.157629  -1.280027)

--------------------------
THERMOCHEMISTRY AT 298.15K
--------------------------

Temperature         ... 298.15 K
Pressure            ... 1.00 atm
Total Mass          ... 98.17 AMU

Throughout the following assumptions are being made:
  (1) The electronic state is orbitally nondegenerate
  (2) There are no thermally accessible electronically excited states
  (3) Hindered rotations indicated by low frequency modes) are not
      treated as such but are treated as vibrations and this may
      case some error
  (4) All equations used are the standard statistical mechanics
      equations for an ideal gas
  (5) All vibrations are strinctly harmonic

------------
INNER ENERGY
------------

The inner energy is: U= E(el) + E(ZPE) + E(vib) + E(rot) + E(trans)
    E(el)   - is the total energy from the electronic structure calculation
              = E(kin-el) + E(nuc-el) + E(el-el) + E(nuc-nuc)
    E(ZPE)  - the the zero temperature vibrational energy from the frequency calculation
    E(vib)  - the the finite temperature correction to E(ZPE) due to population
              of excietd vibrational states
    E(rot)  - is the rotational thermal energy
    E(trans)- is the translational thermal energy

Summary of contributions to the inner energy U:
Electronic energy                ...   -290.11776593 Eh
Zero point energy                ...      0.17625273 Eh     110.60 kcal/mol
Thermal vibrational correction   ...      0.00450545 Eh       2.83 kcal/mol
Thermal rotational correction    ...      0.00141627 Eh       0.89 kcal/mol
Thermal translational correction ...      0.00141627 Eh       0.89 kcal/mol
-----------------------------------------------------------------------
Total thermal energy                   -289.93417521 Eh

Summary of corrections to the electronic energy:
(perhaps to be used in another calculation)
Total thermal correction                  0.00733799 Eh       4.60 kcal/mol
Non-thermal (ZPE) correction              0.17625273 Eh     110.60 kcal/mol
-----------------------------------------------------------------------
Total correction                          0.18359072 Eh     115.20 kcal/mol

--------
ENTHALPY
--------

The enthalpy is H = U + kB*T
                kB is Boltzmann's constant
Total free energy                 ...   -289.93417521 Eh
Thermal Enthalpy correction       ...      0.00094421 Eh       0.59 kcal/mol
-----------------------------------------------------------------------
Total Enthalpy                    ...   -289.93323100 Eh

-------
ENTROPY
-------

The entropy contributions are T*S = T*(S(el)+S(vib)+S(rot)+S(trans)
     S(el)   - electronic entropy
     S(vib)  - vibrational entropy
     S(rot)  - rotational entropy
     S(trans)- translational entropy
The entropies will be listed as mutliplied by the temperature to get
units of energy

Electronic entropy                ...      0.00000000 Eh      0.00 kcal/mol
Vibrational entropy               ...      0.00737533 Eh      4.63 kcal/mol
Rotational entropy                ...      0.01186530 Eh      7.45 kcal/mol
Translational entropy             ...      0.01884507 Eh     11.83 kcal/mol
-----------------------------------------------------------------------
Final entropy term                ...      0.03808571 Eh     23.90 kcal/mol

CAUTION: The rotational entropy is not quite correctly treated here
         because it includes a symmetry number that is not yet correctly
         implemented in ORCA!
For a nonlinear molecule the correct rotational entropy is:
    S(rot) = R*(ln(qrot/sn)+1.5)
    R    = 8.31441 J/mol/K = 1.987191683e-3 kcal/mol/K
    qrot = 192025.2767284
    sn is the rotational symmetry number. We have assumed 3 here
       if it is different for your molecule then you should correct
       the printed rotational entropy by manually evaluating the equation
       as given above

For convenience we print out the resulting values for sn=1 - 12:
 sn= 1  qrot/sn=  192025.2767 T*S(rot)=     8.10 kcal/mol T*S(tot)=    24.55 kcal/mol
 sn= 2  qrot/sn=   96012.6384 T*S(rot)=     7.69 kcal/mol T*S(tot)=    24.14 kcal/mol
 sn= 3  qrot/sn=   64008.4256 T*S(rot)=     7.45 kcal/mol T*S(tot)=    23.90 kcal/mol
 sn= 4  qrot/sn=   48006.3192 T*S(rot)=     7.28 kcal/mol T*S(tot)=    23.73 kcal/mol
 sn= 5  qrot/sn=   38405.0553 T*S(rot)=     7.14 kcal/mol T*S(tot)=    23.60 kcal/mol
 sn= 6  qrot/sn=   32004.2128 T*S(rot)=     7.03 kcal/mol T*S(tot)=    23.49 kcal/mol
 sn= 7  qrot/sn=   27432.1824 T*S(rot)=     6.94 kcal/mol T*S(tot)=    23.40 kcal/mol
 sn= 8  qrot/sn=   24003.1596 T*S(rot)=     6.86 kcal/mol T*S(tot)=    23.32 kcal/mol
 sn= 9  qrot/sn=   21336.1419 T*S(rot)=     6.79 kcal/mol T*S(tot)=    23.25 kcal/mol
 sn=10  qrot/sn=   19202.5277 T*S(rot)=     6.73 kcal/mol T*S(tot)=    23.19 kcal/mol
 sn=11  qrot/sn=   17456.8433 T*S(rot)=     6.68 kcal/mol T*S(tot)=    23.13 kcal/mol
 sn=12  qrot/sn=   16002.1064 T*S(rot)=     6.62 kcal/mol T*S(tot)=    23.08 kcal/mol

-------------------
GIBBS FREE ENTHALPY
-------------------

The Gibbs free enthalpy is G = H - T*S

Total enthalpy                    ...   -289.93323100 Eh
Total entropy correction          ...     -0.03808571 Eh    -23.90 kcal/mol
-----------------------------------------------------------------------
Final Gibbs free enthalpy         ...   -289.97131671 Eh

For completeness - the Gibbs free enthalpy minus the electronic energy
G-E(el)                           ...      0.14644922 Eh     91.90 kcal/mol

                             ****ORCA TERMINATED NORMALLY****
TOTAL RUN TIME: 0 days 0 hours 58 minutes 47 seconds 185 msec
