                         Program Version 3.0.3 - RELEASE   -
|  1> ! NORI PBE0 def2-TZVP UseSym TightOPT Freq TightSCF Grid3 FinalGrid5 XYZFile
|  2> % pal
|  3>     nprocs 8
|  4> end
|  5> %method
|  6>     SymThresh 5.0e-2
|  7> end
|  8> % geom
|  9>     MaxIter 10
| 10> end
| 11> % maxcore 2000
| 12> % output
| 13>     printlevel mini
| 14>     print[ P_Basis ] 0
| 15>     print[ P_SCFInfo ] 1
| 16>     print[ P_SCFIterInfo ] 1
| 17>     print[ P_OrbEn ] 0
| 18>     print[ P_Cartesian ] 0
| 19> end
| 20> % elprop
| 21>     Dipole false
| 22> end
| 23> *xyz 1 1
| 24>  C        1.0201863952    -0.0647800529     0.0976444920
| 25>  C        2.5315360708    -0.0541852325    -0.0286688517
| 26>  C        2.8664394779    -0.0225803741    -1.5060344238
| 27>  N        4.3528669167    -0.0086137212    -1.7499296283
| 28>  C        3.2840813415     1.0174982218     0.8088049072
| 29>  C        4.2152333805    -0.0741091349     1.3765492767
| 30>  C        3.2948524111    -1.1511995250     0.7653253948
| 31>  H        0.5813411245    -0.9427542730    -0.3847884080
| 32>  H        0.5719255647     0.8282128493    -0.3471691765
| 33>  H        0.7353008495    -0.0887424035     1.1503784307
| 34>  H        2.4800315052    -0.9035757009    -2.0228803486
| 35>  H        2.4695670603     0.8736744330    -1.9875514952
| 36>  H        4.7881100390    -0.8409478675    -1.3462011845
| 37>  H        4.7785094462     0.8071292629    -1.3042189042
| 38>  H        4.5748034332     0.0180837242    -2.7458912728
| 39>  H        2.6354952835     1.4558219683     1.5670840676
| 40>  H        3.7427872505     1.8576630207     0.2738174022
| 41>  H        5.2291603700    -0.0606746998     0.9660941682
| 42>  H        4.3190090218    -0.0956842875     2.4600352780
| 43>  H        3.7609725412    -1.9654768385     0.1979803642
| 44>  H        2.6498205168    -1.6241993689     1.5056699120
| 45> *
| 46>
| 47>                          ****END OF INPUT****
 Total Charge           Charge          ....    1
 Multiplicity           Mult            ....    1
 Number of Electrons    NEL             ....   56
FINAL SINGLE POINT ENERGY      -291.307373757865
FINAL SINGLE POINT ENERGY      -291.307379982369
FINAL SINGLE POINT ENERGY      -291.307381599698
FINAL SINGLE POINT ENERGY      -291.307382380889
FINAL SINGLE POINT ENERGY      -291.307381906733
FINAL SINGLE POINT ENERGY      -291.307217010174
FINAL SINGLE POINT ENERGY      -291.307383035327
FINAL SINGLE POINT ENERGY      -291.307379147864

CARTESIAN COORDINATES (ANGSTROEM)
---------------------------------
  C     -1.394679    1.569478   -0.000005
  C     -0.393022    0.430811    0.000006
  C      0.993579    1.042302    0.000023
  N      2.075433   -0.006817   -0.000012
  C     -0.591642   -0.665217    1.083981
  C     -0.495500   -1.758610    0.000000
  C     -0.591612   -0.665214   -1.083979
  H     -1.285252    2.201420   -0.885881
  H     -1.285151    2.201529    0.885781
  H     -2.410836    1.172962    0.000077
  H      1.162207    1.653816   -0.888770
  H      1.162211    1.653765    0.888850
  H      1.990053   -0.606269   -0.823809
  H      1.990112   -0.606272    0.823788
  H      3.007854    0.408677   -0.000045
  H     -1.583080   -0.602698    1.532107
  H      0.121331   -0.699579    1.916290
  H      0.449681   -2.310509    0.000012
  H     -1.289408   -2.503120   -0.000014
  H      0.121389   -0.699571   -1.916265
  H     -1.583034   -0.602693   -1.532136

FINAL SINGLE POINT ENERGY      -291.307383169693
                    ***********************HURRAY********************
 Multiplicity           Mult            ....    1
 Number of Electrons    NEL             ....   56
 Basis Dimension        Dim             ....  301
FINAL SINGLE POINT ENERGY      -291.307382134083

VIBRATIONAL FREQUENCIES
-----------------------

   0:         0.00 cm**-1
   1:         0.00 cm**-1
   2:         0.00 cm**-1
   3:         0.00 cm**-1
   4:         0.00 cm**-1
   5:         0.00 cm**-1
   6:       135.29 cm**-1
   7:       141.82 cm**-1
   8:       206.87 cm**-1
   9:       227.28 cm**-1
  10:       230.59 cm**-1
  11:       314.10 cm**-1
  12:       356.40 cm**-1
  13:       381.96 cm**-1
  14:       462.85 cm**-1
  15:       603.54 cm**-1
  16:       718.18 cm**-1
  17:       768.37 cm**-1
  18:       829.98 cm**-1
  19:       851.88 cm**-1
  20:       886.45 cm**-1
  21:       914.80 cm**-1
  22:       954.56 cm**-1
  23:       966.94 cm**-1
  24:       985.64 cm**-1
  25:       999.40 cm**-1
  26:      1017.94 cm**-1
  27:      1052.32 cm**-1
  28:      1094.23 cm**-1
  29:      1196.07 cm**-1
  30:      1205.10 cm**-1
  31:      1221.00 cm**-1
  32:      1230.79 cm**-1
  33:      1256.97 cm**-1
  34:      1277.86 cm**-1
  35:      1296.08 cm**-1
  36:      1315.42 cm**-1
  37:      1354.13 cm**-1
  38:      1402.86 cm**-1
  39:      1419.71 cm**-1
  40:      1476.10 cm**-1
  41:      1477.60 cm**-1
  42:      1481.91 cm**-1
  43:      1490.10 cm**-1
  44:      1491.59 cm**-1
  45:      1497.41 cm**-1
  46:      1515.36 cm**-1
  47:      1648.56 cm**-1
  48:      1658.63 cm**-1
  49:      3037.81 cm**-1
  50:      3038.40 cm**-1
  51:      3048.22 cm**-1
  52:      3061.44 cm**-1
  53:      3084.81 cm**-1
  54:      3120.03 cm**-1
  55:      3131.03 cm**-1
  56:      3133.77 cm**-1
  57:      3142.09 cm**-1
  58:      3145.37 cm**-1
  59:      3151.76 cm**-1
  60:      3422.29 cm**-1
  61:      3497.10 cm**-1
  62:      3518.02 cm**-1

IR SPECTRUM
-----------

 Mode    freq (cm**-1)   T**2         TX         TY         TZ
-------------------------------------------------------------------
   6:       135.29    4.159855  (  1.443413   1.440976  -0.000886)
   7:       141.82    5.907253  (  0.000054   0.000320   2.430484)
   8:       206.87    0.321530  (  0.004019  -0.000632  -0.567022)
   9:       227.28   20.513101  ( -3.905623  -2.293297  -0.000220)
  10:       230.59    0.036949  (  0.014190   0.014111   0.191177)
  11:       314.10    0.116863  ( -0.000026  -0.001551   0.341849)
  12:       356.40   12.038429  ( -3.467495   0.122084   0.000063)
  13:       381.96    0.488855  ( -0.002730   0.000483   0.699176)
  14:       462.85    5.239177  (  2.286201   0.111632  -0.000506)
  15:       603.54    0.210951  ( -0.437427  -0.140028  -0.000286)
  16:       718.18    0.015294  ( -0.122950   0.013257   0.001334)
  17:       768.37    0.120642  (  0.000495   0.002014   0.347329)
  18:       829.98    7.355284  ( -0.001871   0.000636   2.712062)
  19:       851.88    3.903978  (  1.650214   1.086632  -0.001537)
  20:       886.45    2.305992  (  1.475545   0.358832   0.000372)
  21:       914.80    1.580281  (  0.003116   0.001407   1.257088)
  22:       954.56    9.214846  ( -2.421292   1.830898   0.001615)
  23:       966.94    0.712807  ( -0.000417   0.000677   0.844279)
  24:       985.64    1.565088  ( -1.087715   0.618033  -0.000429)
  25:       999.40    9.381881  ( -2.813360  -1.211134  -0.006559)
  26:      1017.94    3.854449  (  0.003377   0.002226  -1.963271)
  27:      1052.32   26.074118  ( -4.212526  -2.885955  -0.000717)
  28:      1094.23    0.872734  (  0.002595   0.004466  -0.934188)
  29:      1196.07    0.465389  (  0.539812   0.417124  -0.000478)
  30:      1205.10    0.369404  ( -0.000808  -0.001608  -0.607784)
  31:      1221.00    0.444543  (  0.003683   0.005109   0.666711)
  32:      1230.79    5.993197  ( -1.799751  -1.659544   0.003016)
  33:      1256.97    0.195461  ( -0.000124  -0.001375  -0.442108)
  34:      1277.86    2.339332  (  0.001900   0.002432   1.529484)
  35:      1296.08    1.672295  (  1.055441  -0.747212   0.003588)
  36:      1315.42    1.379078  (  0.640411  -0.984344  -0.004386)
  37:      1354.13    6.344133  ( -0.001066  -0.004040   2.518753)
  38:      1402.86    1.657854  (  0.107649   1.283069  -0.000785)
  39:      1419.71    5.808745  (  2.259016  -0.839993  -0.001703)
  40:      1476.10   57.760537  (  6.233093  -4.348451   0.007645)
  41:      1477.60   14.587474  (  0.019105  -0.013759  -3.819283)
  42:      1481.91   43.168768  ( -5.454020   3.663652  -0.009548)
  43:      1490.10    5.347228  ( -0.026568  -0.006473  -2.312246)
  44:      1491.59   27.198507  ( -4.532549  -2.579619   0.008696)
  45:      1497.41   34.724616  (  5.536730  -2.017233  -0.002192)
  46:      1515.36   28.579594  (  2.884331  -4.501136  -0.001018)
  47:      1648.56   56.794904  (  0.004021   0.003373  -7.536238)
  48:      1658.63   43.649261  (  5.837444   3.094104   0.005773)
  49:      3037.81   42.220546  (  0.133337   0.069089   6.495998)
  50:      3038.40    9.827264  ( -2.756479  -1.461164   0.306736)
  51:      3048.22    9.495311  ( -0.798940   2.976071  -0.002422)
  52:      3061.44   37.905816  (  5.384526  -2.985412  -0.002486)
  53:      3084.81    5.169148  ( -1.304421  -1.862158   0.000168)
  54:      3120.03    8.414726  (  0.004021   0.004386   2.900809)
  55:      3131.03    5.215982  ( -1.525871   1.699321  -0.002580)
  56:      3133.77    0.188414  (  0.001913  -0.004727  -0.434037)
  57:      3142.09    4.321966  (  1.510403   1.428498  -0.006691)
  58:      3145.37    1.531272  (  0.002126  -0.000374   1.237444)
  59:      3151.76   10.779246  (  3.017154   1.294615   0.000050)
  60:      3422.29   24.569279  ( -3.212515   3.774788   0.000525)
  61:      3497.10   74.741876  (  0.002812   0.000336  -8.645338)
  62:      3518.02  120.785107  (  9.029796   6.264814   0.001847)

--------------------------
THERMOCHEMISTRY AT 298.15K
--------------------------

Temperature         ... 298.15 K
Pressure            ... 1.00 atm
Total Mass          ... 100.18 AMU

Throughout the following assumptions are being made:
  (1) The electronic state is orbitally nondegenerate
  (2) There are no thermally accessible electronically excited states
  (3) Hindered rotations indicated by low frequency modes) are not
      treated as such but are treated as vibrations and this may
      case some error
  (4) All equations used are the standard statistical mechanics
      equations for an ideal gas
  (5) All vibrations are strinctly harmonic

------------
INNER ENERGY
------------

The inner energy is: U= E(el) + E(ZPE) + E(vib) + E(rot) + E(trans)
    E(el)   - is the total energy from the electronic structure calculation
              = E(kin-el) + E(nuc-el) + E(el-el) + E(nuc-nuc)
    E(ZPE)  - the the zero temperature vibrational energy from the frequency calculation
    E(vib)  - the the finite temperature correction to E(ZPE) due to population
              of excietd vibrational states
    E(rot)  - is the rotational thermal energy
    E(trans)- is the translational thermal energy

Summary of contributions to the inner energy U:
Electronic energy                ...   -291.30738213 Eh
Zero point energy                ...      0.19944626 Eh     125.15 kcal/mol
Thermal vibrational correction   ...      0.00526960 Eh       3.31 kcal/mol
Thermal rotational correction    ...      0.00141627 Eh       0.89 kcal/mol
Thermal translational correction ...      0.00141627 Eh       0.89 kcal/mol
-----------------------------------------------------------------------
Total thermal energy                   -291.09983373 Eh

Summary of corrections to the electronic energy:
(perhaps to be used in another calculation)
Total thermal correction                  0.00810214 Eh       5.08 kcal/mol
Non-thermal (ZPE) correction              0.19944626 Eh     125.15 kcal/mol
-----------------------------------------------------------------------
Total correction                          0.20754841 Eh     130.24 kcal/mol

--------
ENTHALPY
--------

The enthalpy is H = U + kB*T
                kB is Boltzmann's constant
Total free energy                 ...   -291.09983373 Eh
Thermal Enthalpy correction       ...      0.00094421 Eh       0.59 kcal/mol
-----------------------------------------------------------------------
Total Enthalpy                    ...   -291.09888952 Eh

-------
ENTROPY
-------

The entropy contributions are T*S = T*(S(el)+S(vib)+S(rot)+S(trans)
     S(el)   - electronic entropy
     S(vib)  - vibrational entropy
     S(rot)  - rotational entropy
     S(trans)- translational entropy
The entropies will be listed as mutliplied by the temperature to get
units of energy

Electronic entropy                ...      0.00000000 Eh      0.00 kcal/mol
Vibrational entropy               ...      0.00875398 Eh      5.49 kcal/mol
Rotational entropy                ...      0.01200957 Eh      7.54 kcal/mol
Translational entropy             ...      0.01887386 Eh     11.84 kcal/mol
-----------------------------------------------------------------------
Final entropy term                ...      0.03963742 Eh     24.87 kcal/mol

CAUTION: The rotational entropy is not quite correctly treated here
         because it includes a symmetry number that is not yet correctly
         implemented in ORCA!
For a nonlinear molecule the correct rotational entropy is:
    S(rot) = R*(ln(qrot/sn)+1.5)
    R    = 8.31441 J/mol/K = 1.987191683e-3 kcal/mol/K
    qrot = 223726.9237049
    sn is the rotational symmetry number. We have assumed 3 here
       if it is different for your molecule then you should correct
       the printed rotational entropy by manually evaluating the equation
       as given above

For convenience we print out the resulting values for sn=1 - 12:
 sn= 1  qrot/sn=  223726.9237 T*S(rot)=     8.19 kcal/mol T*S(tot)=    25.52 kcal/mol
 sn= 2  qrot/sn=  111863.4619 T*S(rot)=     7.78 kcal/mol T*S(tot)=    25.11 kcal/mol
 sn= 3  qrot/sn=   74575.6412 T*S(rot)=     7.54 kcal/mol T*S(tot)=    24.87 kcal/mol
 sn= 4  qrot/sn=   55931.7309 T*S(rot)=     7.37 kcal/mol T*S(tot)=    24.70 kcal/mol
 sn= 5  qrot/sn=   44745.3847 T*S(rot)=     7.23 kcal/mol T*S(tot)=    24.57 kcal/mol
 sn= 6  qrot/sn=   37287.8206 T*S(rot)=     7.13 kcal/mol T*S(tot)=    24.46 kcal/mol
 sn= 7  qrot/sn=   31960.9891 T*S(rot)=     7.03 kcal/mol T*S(tot)=    24.37 kcal/mol
 sn= 8  qrot/sn=   27965.8655 T*S(rot)=     6.95 kcal/mol T*S(tot)=    24.29 kcal/mol
 sn= 9  qrot/sn=   24858.5471 T*S(rot)=     6.89 kcal/mol T*S(tot)=    24.22 kcal/mol
 sn=10  qrot/sn=   22372.6924 T*S(rot)=     6.82 kcal/mol T*S(tot)=    24.16 kcal/mol
 sn=11  qrot/sn=   20338.8112 T*S(rot)=     6.77 kcal/mol T*S(tot)=    24.10 kcal/mol
 sn=12  qrot/sn=   18643.9103 T*S(rot)=     6.71 kcal/mol T*S(tot)=    24.05 kcal/mol

-------------------
GIBBS FREE ENTHALPY
-------------------

The Gibbs free enthalpy is G = H - T*S

Total enthalpy                    ...   -291.09888952 Eh
Total entropy correction          ...     -0.03963742 Eh    -24.87 kcal/mol
-----------------------------------------------------------------------
Final Gibbs free enthalpy         ...   -291.13852694 Eh

For completeness - the Gibbs free enthalpy minus the electronic energy
G-E(el)                           ...      0.16885520 Eh    105.96 kcal/mol

                             ****ORCA TERMINATED NORMALLY****
TOTAL RUN TIME: 0 days 1 hours 33 minutes 17 seconds 701 msec
