                         Program Version 3.0.3 - RELEASE   -
|  1> ! NORI PBE0 def2-TZVP UseSym TightOPT Freq TightSCF Grid3 FinalGrid5 XYZFile
|  2> % pal
|  3>     nprocs 8
|  4> end
|  5> %method
|  6>     SymThresh 5.0e-2
|  7> end
|  8> % geom
|  9>     MaxIter 10
| 10> end
| 11> % maxcore 2000
| 12> % output
| 13>     printlevel mini
| 14>     print[ P_Basis ] 0
| 15>     print[ P_SCFInfo ] 1
| 16>     print[ P_SCFIterInfo ] 1
| 17>     print[ P_OrbEn ] 0
| 18>     print[ P_Cartesian ] 0
| 19> end
| 20> % elprop
| 21>     Dipole false
| 22> end
| 23> *xyz 1 1
| 24>  C        0.9843462470    -0.1266698551     0.3761300234
| 25>  C        2.4743308819    -0.0480377434     0.0559354679
| 26>  C        2.7590653499     1.2017530720    -0.7549441412
| 27>  N        4.1446780890     1.1343187768    -1.3279574295
| 28>  C        4.2889207113     0.0236691818    -2.3206015977
| 29>  C        3.7333784463    -1.2365389646    -1.7485651005
| 30>  C        2.9522165657    -1.2667544249    -0.6764232871
| 31>  H        0.6457444135     0.7670630894     0.9048871648
| 32>  H        0.7816160248    -0.9866302273     1.0156244566
| 33>  H        0.3915012769    -0.2359755721    -0.5346660431
| 34>  H        3.0143622208     0.0178706443     1.0112717246
| 35>  H        2.0803818447     1.2845092787    -1.6061189171
| 36>  H        2.6891344607     2.1107380436    -0.1565549781
| 37>  H        4.3931748634     2.0240681931    -1.7616294196
| 38>  H        4.8073925016     0.9800805289    -0.5650474132
| 39>  H        3.7751977761     0.3370552051    -3.2338607082
| 40>  H        5.3517085729    -0.0714855701    -2.5530112237
| 41>  H        4.0217395756    -2.1493115914    -2.2566296082
| 42>  H        2.6169301780    -2.2246720648    -0.2920789701
| 43> *
| 44>
| 45>                          ****END OF INPUT****
 Total Charge           Charge          ....    1
 Multiplicity           Mult            ....    1
 Number of Electrons    NEL             ....   54
FINAL SINGLE POINT ENERGY      -290.116375055234

CARTESIAN COORDINATES (ANGSTROEM)
---------------------------------
  C      1.635506   -0.000254   -1.808149
  C      0.753941    0.505490   -0.669641
  C      1.056401   -0.271930    0.597066
  N     -0.000133   -0.000379    1.628155
  C     -1.342133   -0.511288    1.206587
  C     -1.631649   -0.070957   -0.188386
  C     -0.704123    0.407169   -1.008129
  H      2.694175    0.072365   -1.550436
  H      1.471200    0.597161   -2.705482
  H      1.407876   -1.041062   -2.049103
  H      1.002492    1.563860   -0.504505
  H      1.036223   -1.348367    0.415105
  H      2.021090   -0.003933    1.029166
  H      0.263913   -0.412006    2.523923
  H     -0.064832    1.009640    1.772930
  H     -1.321712   -1.599919    1.311770
  H     -2.077380   -0.122617    1.914741
  H     -2.667201   -0.147795   -0.499099
  H     -0.995164    0.746449   -1.997134

FINAL SINGLE POINT ENERGY      -290.116375931442
                    ***********************HURRAY********************
 Multiplicity           Mult            ....    1
 Number of Electrons    NEL             ....   54
 Basis Dimension        Dim             ....  289
FINAL SINGLE POINT ENERGY      -290.116376396705

VIBRATIONAL FREQUENCIES
-----------------------

   0:         0.00 cm**-1
   1:         0.00 cm**-1
   2:         0.00 cm**-1
   3:         0.00 cm**-1
   4:         0.00 cm**-1
   5:         0.00 cm**-1
   6:       110.67 cm**-1
   7:       230.29 cm**-1
   8:       266.31 cm**-1
   9:       282.84 cm**-1
  10:       331.32 cm**-1
  11:       450.46 cm**-1
  12:       471.51 cm**-1
  13:       540.78 cm**-1
  14:       699.16 cm**-1
  15:       742.92 cm**-1
  16:       803.88 cm**-1
  17:       868.60 cm**-1
  18:       919.89 cm**-1
  19:       924.16 cm**-1
  20:       984.10 cm**-1
  21:      1005.87 cm**-1
  22:      1012.95 cm**-1
  23:      1018.37 cm**-1
  24:      1058.59 cm**-1
  25:      1099.59 cm**-1
  26:      1130.69 cm**-1
  27:      1155.08 cm**-1
  28:      1196.25 cm**-1
  29:      1251.30 cm**-1
  30:      1271.96 cm**-1
  31:      1323.41 cm**-1
  32:      1335.93 cm**-1
  33:      1368.08 cm**-1
  34:      1403.99 cm**-1
  35:      1410.04 cm**-1
  36:      1419.45 cm**-1
  37:      1423.84 cm**-1
  38:      1448.61 cm**-1
  39:      1481.59 cm**-1
  40:      1489.97 cm**-1
  41:      1494.49 cm**-1
  42:      1499.90 cm**-1
  43:      1640.05 cm**-1
  44:      1740.90 cm**-1
  45:      3011.07 cm**-1
  46:      3060.56 cm**-1
  47:      3072.47 cm**-1
  48:      3091.97 cm**-1
  49:      3122.05 cm**-1
  50:      3138.26 cm**-1
  51:      3151.47 cm**-1
  52:      3153.79 cm**-1
  53:      3191.36 cm**-1
  54:      3213.71 cm**-1
  55:      3441.79 cm**-1
  56:      3501.11 cm**-1

IR SPECTRUM
-----------

 Mode    freq (cm**-1)   T**2         TX         TY         TZ
-------------------------------------------------------------------
   6:       110.67    0.185559  (  0.126343   0.080079   0.403961)
   7:       230.29    0.570616  (  0.172158  -0.569291   0.465710)
   8:       266.31    4.585072  (  0.697507  -1.561214   1.288862)
   9:       282.84    2.267497  (  0.428869   0.968269  -1.070525)
  10:       331.32    0.309104  ( -0.023613   0.399336   0.386106)
  11:       450.46    1.452417  ( -0.564253   0.757244  -0.748744)
  12:       471.51    2.260189  (  0.191397   1.037936  -1.070629)
  13:       540.78    6.739676  ( -0.396425  -1.865471  -1.761403)
  14:       699.16   18.828307  (  1.053107  -4.168151  -0.588040)
  15:       742.92   20.414335  (  0.739591  -4.253717  -1.331626)
  16:       803.88    4.043099  ( -1.151196   1.551505  -0.557386)
  17:       868.60    4.613674  (  0.770909  -0.376150  -1.969234)
  18:       919.89    2.577866  ( -1.393127  -0.151844  -0.783585)
  19:       924.16    0.959622  ( -0.455059   0.089460  -0.862867)
  20:       984.10    0.928014  ( -0.613586  -0.644853   0.368363)
  21:      1005.87    6.378864  ( -0.924803   0.020792  -2.350143)
  22:      1012.95   18.038243  ( -1.823216  -3.630333   1.238873)
  23:      1018.37    1.128760  ( -0.355518  -0.614431   0.790470)
  24:      1058.59   13.533534  (  3.596769   0.133041  -0.760976)
  25:      1099.59    0.946333  ( -0.529947   0.709188   0.403165)
  26:      1130.69    0.626123  (  0.779512  -0.069770   0.116687)
  27:      1155.08    2.318707  ( -0.804470   0.461472   1.207716)
  28:      1196.25    5.918297  ( -2.098248   0.724657   0.995250)
  29:      1251.30    0.733982  ( -0.154281   0.216383  -0.814468)
  30:      1271.96    5.675829  (  2.341640  -0.124434  -0.420793)
  31:      1323.41    1.892373  ( -1.313697  -0.407665   0.019566)
  32:      1335.93    1.127005  ( -0.029602  -1.028930   0.259676)
  33:      1368.08    4.589534  (  1.970706   0.476890  -0.691685)
  34:      1403.99    0.411935  (  0.266367   0.067176   0.580062)
  35:      1410.04    1.335092  (  0.859385   0.488468   0.598287)
  36:      1419.45   13.834508  ( -3.695830   0.006126   0.418699)
  37:      1423.84   19.036522  ( -3.760658   0.677647   2.105889)
  38:      1448.61   10.450543  ( -2.776521  -1.375424   0.921782)
  39:      1481.59    8.015420  (  2.393250   0.506455  -1.425228)
  40:      1489.97    3.866155  (  0.826514  -1.780511   0.113191)
  41:      1494.49    9.962236  ( -2.428943  -1.873570  -0.743108)
  42:      1499.90   27.724502  (  0.677106  -3.761413   3.621851)
  43:      1640.05   76.096200  ( -1.091572  -4.474433  -7.408382)
  44:      1740.90    3.661566  ( -1.765171  -0.601690   0.428610)
  45:      3011.07    5.143081  ( -0.431529  -2.061201  -0.841615)
  46:      3060.56    6.099815  (  1.752749  -1.216945  -1.243676)
  47:      3072.47    3.031045  (  0.453308   0.834694  -1.459055)
  48:      3091.97    2.204185  ( -0.810842   1.100879  -0.578607)
  49:      3122.05    0.083109  ( -0.288012  -0.012091   0.003397)
  50:      3138.26    7.304078  (  1.937422   1.817563   0.496927)
  51:      3151.47    4.211566  ( -1.191468   1.190777  -1.172186)
  52:      3153.79    1.107834  (  0.658006   0.818832   0.066153)
  53:      3191.36    0.596521  ( -0.759152  -0.084424   0.114377)
  54:      3213.71    0.881461  ( -0.898486  -0.120245  -0.244385)
  55:      3441.79   51.824177  (  0.786685   3.855429   6.028347)
  56:      3501.11   72.502616  (  1.918842  -6.516610   5.133659)

--------------------------
THERMOCHEMISTRY AT 298.15K
--------------------------

Temperature         ... 298.15 K
Pressure            ... 1.00 atm
Total Mass          ... 98.17 AMU

Throughout the following assumptions are being made:
  (1) The electronic state is orbitally nondegenerate
  (2) There are no thermally accessible electronically excited states
  (3) Hindered rotations indicated by low frequency modes) are not
      treated as such but are treated as vibrations and this may
      case some error
  (4) All equations used are the standard statistical mechanics
      equations for an ideal gas
  (5) All vibrations are strinctly harmonic

------------
INNER ENERGY
------------

The inner energy is: U= E(el) + E(ZPE) + E(vib) + E(rot) + E(trans)
    E(el)   - is the total energy from the electronic structure calculation
              = E(kin-el) + E(nuc-el) + E(el-el) + E(nuc-nuc)
    E(ZPE)  - the the zero temperature vibrational energy from the frequency calculation
    E(vib)  - the the finite temperature correction to E(ZPE) due to population
              of excietd vibrational states
    E(rot)  - is the rotational thermal energy
    E(trans)- is the translational thermal energy

Summary of contributions to the inner energy U:
Electronic energy                ...   -290.11637640 Eh
Zero point energy                ...      0.17873903 Eh     112.16 kcal/mol
Thermal vibrational correction   ...      0.00404151 Eh       2.54 kcal/mol
Thermal rotational correction    ...      0.00141627 Eh       0.89 kcal/mol
Thermal translational correction ...      0.00141627 Eh       0.89 kcal/mol
-----------------------------------------------------------------------
Total thermal energy                   -289.93076332 Eh

Summary of corrections to the electronic energy:
(perhaps to be used in another calculation)
Total thermal correction                  0.00687406 Eh       4.31 kcal/mol
Non-thermal (ZPE) correction              0.17873903 Eh     112.16 kcal/mol
-----------------------------------------------------------------------
Total correction                          0.18561308 Eh     116.47 kcal/mol

--------
ENTHALPY
--------

The enthalpy is H = U + kB*T
                kB is Boltzmann's constant
Total free energy                 ...   -289.93076332 Eh
Thermal Enthalpy correction       ...      0.00094421 Eh       0.59 kcal/mol
-----------------------------------------------------------------------
Total Enthalpy                    ...   -289.92981911 Eh

-------
ENTROPY
-------

The entropy contributions are T*S = T*(S(el)+S(vib)+S(rot)+S(trans)
     S(el)   - electronic entropy
     S(vib)  - vibrational entropy
     S(rot)  - rotational entropy
     S(trans)- translational entropy
The entropies will be listed as mutliplied by the temperature to get
units of energy

Electronic entropy                ...      0.00000000 Eh      0.00 kcal/mol
Vibrational entropy               ...      0.00652096 Eh      4.09 kcal/mol
Rotational entropy                ...      0.01193227 Eh      7.49 kcal/mol
Translational entropy             ...      0.01884507 Eh     11.83 kcal/mol
-----------------------------------------------------------------------
Final entropy term                ...      0.03729830 Eh     23.40 kcal/mol

CAUTION: The rotational entropy is not quite correctly treated here
         because it includes a symmetry number that is not yet correctly
         implemented in ORCA!
For a nonlinear molecule the correct rotational entropy is:
    S(rot) = R*(ln(qrot/sn)+1.5)
    R    = 8.31441 J/mol/K = 1.987191683e-3 kcal/mol/K
    qrot = 206139.3134998
    sn is the rotational symmetry number. We have assumed 3 here
       if it is different for your molecule then you should correct
       the printed rotational entropy by manually evaluating the equation
       as given above

For convenience we print out the resulting values for sn=1 - 12:
 sn= 1  qrot/sn=  206139.3135 T*S(rot)=     8.14 kcal/mol T*S(tot)=    24.06 kcal/mol
 sn= 2  qrot/sn=  103069.6567 T*S(rot)=     7.73 kcal/mol T*S(tot)=    23.65 kcal/mol
 sn= 3  qrot/sn=   68713.1045 T*S(rot)=     7.49 kcal/mol T*S(tot)=    23.40 kcal/mol
 sn= 4  qrot/sn=   51534.8284 T*S(rot)=     7.32 kcal/mol T*S(tot)=    23.23 kcal/mol
 sn= 5  qrot/sn=   41227.8627 T*S(rot)=     7.18 kcal/mol T*S(tot)=    23.10 kcal/mol
 sn= 6  qrot/sn=   34356.5522 T*S(rot)=     7.08 kcal/mol T*S(tot)=    22.99 kcal/mol
 sn= 7  qrot/sn=   29448.4734 T*S(rot)=     6.99 kcal/mol T*S(tot)=    22.90 kcal/mol
 sn= 8  qrot/sn=   25767.4142 T*S(rot)=     6.91 kcal/mol T*S(tot)=    22.82 kcal/mol
 sn= 9  qrot/sn=   22904.3682 T*S(rot)=     6.84 kcal/mol T*S(tot)=    22.75 kcal/mol
 sn=10  qrot/sn=   20613.9313 T*S(rot)=     6.77 kcal/mol T*S(tot)=    22.69 kcal/mol
 sn=11  qrot/sn=   18739.9376 T*S(rot)=     6.72 kcal/mol T*S(tot)=    22.64 kcal/mol
 sn=12  qrot/sn=   17178.2761 T*S(rot)=     6.67 kcal/mol T*S(tot)=    22.58 kcal/mol

-------------------
GIBBS FREE ENTHALPY
-------------------

The Gibbs free enthalpy is G = H - T*S

Total enthalpy                    ...   -289.92981911 Eh
Total entropy correction          ...     -0.03729830 Eh    -23.40 kcal/mol
-----------------------------------------------------------------------
Final Gibbs free enthalpy         ...   -289.96711741 Eh

For completeness - the Gibbs free enthalpy minus the electronic energy
G-E(el)                           ...      0.14925899 Eh     93.66 kcal/mol

                             ****ORCA TERMINATED NORMALLY****
TOTAL RUN TIME: 0 days 0 hours 51 minutes 44 seconds 337 msec
