                         Program Version 3.0.3 - RELEASE   -
|  1> ! NORI PBE0 def2-TZVP UseSym TightOPT Freq TightSCF Grid3 FinalGrid5 XYZFile
|  2> % pal
|  3>     nprocs 8
|  4> end
|  5> %method
|  6>     SymThresh 5.0e-2
|  7> end
|  8> % geom
|  9>     MaxIter 10
| 10> end
| 11> % maxcore 2000
| 12> % output
| 13>     printlevel mini
| 14>     print[ P_Basis ] 0
| 15>     print[ P_SCFInfo ] 1
| 16>     print[ P_SCFIterInfo ] 1
| 17>     print[ P_OrbEn ] 0
| 18>     print[ P_Cartesian ] 0
| 19> end
| 20> % elprop
| 21>     Dipole false
| 22> end
| 23> *xyz 1 1
| 24>  C        0.9984516187     0.1791713921    -0.2102522585
| 25>  C        2.4517143684     0.4199486349     0.0357079988
| 26>  N        3.3992452973    -0.6540989262    -0.3884181742
| 27>  C        3.4030745033     0.7018204342    -1.0525048920
| 28>  C        4.6267190625     1.5172419796    -0.9120141297
| 29>  C        4.5001558393     2.9589652324    -0.5029520221
| 30>  C        5.1410591046     1.9844210939     0.4231797001
| 31>  H        0.4683624630     1.1307540532    -0.1389631040
| 32>  H        0.5785084557    -0.4945084998     0.5383363093
| 33>  H        0.8146291028    -0.2291953711    -1.2063190461
| 34>  H        2.7137274293     0.7946625452     1.0190440771
| 35>  H        4.1888447954    -0.8593231248     0.2142313613
| 36>  H        3.0261948608    -1.4519226633    -0.8907787390
| 37>  H        2.9943517417     0.6279108742    -2.0562512710
| 38>  H        5.3734364932     1.3015292387    -1.6686634861
| 39>  H        3.5140561661     3.3248211317    -0.2449598044
| 40>  H        5.1228829290     3.6744685776    -1.0226060808
| 41>  H        6.2162258288     2.0145662520     0.5424889971
| 42>  H        4.6076199400     1.7255371455     1.3302745642
| 43> *
| 44>
| 45>                          ****END OF INPUT****
 Total Charge           Charge          ....    1
 Multiplicity           Mult            ....    1
 Number of Electrons    NEL             ....   54
FINAL SINGLE POINT ENERGY      -290.077740353649
FINAL SINGLE POINT ENERGY      -290.077742165999
FINAL SINGLE POINT ENERGY      -290.077743677720

CARTESIAN COORDINATES (ANGSTROEM)
---------------------------------
  C      2.443402    0.002234    0.910146
  C      1.024303   -0.337446    0.591409
  N     -0.000332   -0.004199    1.626362
  C      0.014132    0.689444    0.285575
  C     -1.158302    0.482963   -0.589133
  C     -0.938575    0.101248   -2.026850
  C     -1.562389   -0.876494   -1.092335
  H      3.022892   -0.005564   -0.015088
  H      2.881880   -0.733588    1.585943
  H      2.535408    0.996793    1.352258
  H      0.849371   -1.327481    0.183581
  H     -0.755403   -0.663824    1.780815
  H      0.299753    0.503329    2.451241
  H      0.348684    1.716935    0.398619
  H     -1.962111    1.186082   -0.400217
  H      0.078656   -0.087815   -2.347533
  H     -1.559788    0.586876   -2.767049
  H     -2.624795   -1.064466   -1.173496
  H     -0.982806   -1.750603   -0.817255

FINAL SINGLE POINT ENERGY      -290.077744285293
                    ***********************HURRAY********************
 Multiplicity           Mult            ....    1
 Number of Electrons    NEL             ....   54
 Basis Dimension        Dim             ....  289
FINAL SINGLE POINT ENERGY      -290.077744770882

VIBRATIONAL FREQUENCIES
-----------------------

   0:         0.00 cm**-1
   1:         0.00 cm**-1
   2:         0.00 cm**-1
   3:         0.00 cm**-1
   4:         0.00 cm**-1
   5:         0.00 cm**-1
   6:        82.51 cm**-1
   7:       145.84 cm**-1
   8:       198.84 cm**-1
   9:       224.49 cm**-1
  10:       321.60 cm**-1
  11:       358.52 cm**-1
  12:       459.19 cm**-1
  13:       519.78 cm**-1
  14:       724.77 cm**-1
  15:       774.34 cm**-1
  16:       791.16 cm**-1
  17:       845.89 cm**-1
  18:       872.73 cm**-1
  19:       901.59 cm**-1
  20:       928.25 cm**-1
  21:       951.62 cm**-1
  22:       980.83 cm**-1
  23:       990.70 cm**-1
  24:      1021.14 cm**-1
  25:      1065.14 cm**-1
  26:      1100.11 cm**-1
  27:      1102.32 cm**-1
  28:      1125.19 cm**-1
  29:      1142.41 cm**-1
  30:      1167.81 cm**-1
  31:      1196.20 cm**-1
  32:      1198.31 cm**-1
  33:      1230.48 cm**-1
  34:      1242.52 cm**-1
  35:      1288.83 cm**-1
  36:      1355.17 cm**-1
  37:      1417.02 cm**-1
  38:      1422.37 cm**-1
  39:      1466.48 cm**-1
  40:      1470.87 cm**-1
  41:      1477.64 cm**-1
  42:      1498.96 cm**-1
  43:      1513.83 cm**-1
  44:      1615.47 cm**-1
  45:      3063.85 cm**-1
  46:      3143.85 cm**-1
  47:      3151.85 cm**-1
  48:      3154.62 cm**-1
  49:      3165.29 cm**-1
  50:      3173.27 cm**-1
  51:      3183.30 cm**-1
  52:      3195.04 cm**-1
  53:      3241.20 cm**-1
  54:      3258.57 cm**-1
  55:      3508.22 cm**-1
  56:      3621.16 cm**-1

IR SPECTRUM
-----------

 Mode    freq (cm**-1)   T**2         TX         TY         TZ
-------------------------------------------------------------------
   6:        82.51    2.386151  (  0.312962   1.152877   0.979326)
   7:       145.84    0.251228  ( -0.329087   0.277153   0.257129)
   8:       198.84    1.347283  ( -0.828569   0.296038  -0.757045)
   9:       224.49    0.734730  ( -0.310044  -0.694664  -0.395025)
  10:       321.60    1.208677  ( -1.031664  -0.149372  -0.349336)
  11:       358.52    1.037631  ( -0.559443  -0.472641   0.708001)
  12:       459.19    1.416375  (  0.457400  -1.088902   0.146471)
  13:       519.78    2.123222  (  0.254576  -0.254213   1.412016)
  14:       724.77   14.167675  ( -1.781994  -1.202145  -3.089825)
  15:       774.34    3.284744  (  1.271046  -0.446520   1.212356)
  16:       791.16    1.483486  ( -0.678128   0.295390  -0.967663)
  17:       845.89   17.669360  (  1.024398   1.219862  -3.889975)
  18:       872.73   17.653753  (  1.078020  -0.994025  -3.937454)
  19:       901.59    1.869394  (  0.773048   1.107302  -0.213712)
  20:       928.25   11.506107  (  0.840024   2.570819  -2.047280)
  21:       951.62    1.197953  ( -0.263407  -0.778592  -0.722747)
  22:       980.83   21.631454  ( -3.286587   1.769653  -2.774550)
  23:       990.70   78.206722  ( -5.288950   7.077927  -0.369713)
  24:      1021.14   14.470514  ( -3.109827   0.459108  -2.142127)
  25:      1065.14    8.256229  (  0.258062  -1.887389  -2.151138)
  26:      1100.11   18.351173  ( -0.675998  -1.443967   3.976073)
  27:      1102.32    5.013923  ( -0.490397  -0.744140  -2.054188)
  28:      1125.19    3.781084  ( -1.502005   0.566829  -1.097165)
  29:      1142.41    1.876215  ( -1.339005  -0.284538   0.048150)
  30:      1167.81    4.635659  ( -1.998611   0.776842  -0.194243)
  31:      1196.20    0.073382  ( -0.250079  -0.063683   0.082385)
  32:      1198.31    0.786524  ( -0.327818  -0.591655   0.573588)
  33:      1230.48   11.018613  ( -2.396087   0.046112  -2.296792)
  34:      1242.52    1.413353  (  1.072835  -0.033700  -0.511118)
  35:      1288.83    0.383251  ( -0.391496  -0.311664  -0.364482)
  36:      1355.17   10.556730  (  2.303141   1.354414   1.848738)
  37:      1417.02    4.742143  (  0.610154   1.071078   1.795173)
  38:      1422.37   12.099507  (  3.046593   1.676801  -0.078192)
  39:      1466.48   12.020024  ( -1.151742  -3.251759   0.345801)
  40:      1470.87   10.557396  ( -0.962032   2.676716   1.570694)
  41:      1477.64   15.359964  (  0.682096  -0.398945  -3.838691)
  42:      1498.96    4.907939  (  0.792558  -2.029503   0.401133)
  43:      1513.83    2.712284  ( -0.500041   1.551093  -0.237387)
  44:      1615.47   85.498972  ( -3.075370  -0.943275   8.668985)
  45:      3063.85    1.322604  (  0.232101  -0.699709  -0.882689)
  46:      3143.85    1.510231  (  0.020686  -1.218067  -0.161602)
  47:      3151.85    1.210728  (  0.909883  -0.606322   0.123346)
  48:      3154.62    5.103155  (  0.988697  -1.558469   1.302615)
  49:      3165.29    2.135126  (  1.425630  -0.199257  -0.251003)
  50:      3173.27    1.226585  (  0.582711  -0.516956   0.787267)
  51:      3183.30    0.651592  (  0.320424   0.071610   0.737423)
  52:      3195.04    0.393187  (  0.598322  -0.181159  -0.048777)
  53:      3241.20    0.611920  (  0.330833  -0.565645   0.427217)
  54:      3258.57    0.111902  ( -0.279105   0.166181   0.079916)
  55:      3508.22   91.037715  (  3.875400   1.088865  -8.650628)
  56:      3621.16  108.557095  (  6.432010   6.756320   4.640958)

--------------------------
THERMOCHEMISTRY AT 298.15K
--------------------------

Temperature         ... 298.15 K
Pressure            ... 1.00 atm
Total Mass          ... 98.17 AMU

Throughout the following assumptions are being made:
  (1) The electronic state is orbitally nondegenerate
  (2) There are no thermally accessible electronically excited states
  (3) Hindered rotations indicated by low frequency modes) are not
      treated as such but are treated as vibrations and this may
      case some error
  (4) All equations used are the standard statistical mechanics
      equations for an ideal gas
  (5) All vibrations are strinctly harmonic

------------
INNER ENERGY
------------

The inner energy is: U= E(el) + E(ZPE) + E(vib) + E(rot) + E(trans)
    E(el)   - is the total energy from the electronic structure calculation
              = E(kin-el) + E(nuc-el) + E(el-el) + E(nuc-nuc)
    E(ZPE)  - the the zero temperature vibrational energy from the frequency calculation
    E(vib)  - the the finite temperature correction to E(ZPE) due to population
              of excietd vibrational states
    E(rot)  - is the rotational thermal energy
    E(trans)- is the translational thermal energy

Summary of contributions to the inner energy U:
Electronic energy                ...   -290.07774477 Eh
Zero point energy                ...      0.17553539 Eh     110.15 kcal/mol
Thermal vibrational correction   ...      0.00463912 Eh       2.91 kcal/mol
Thermal rotational correction    ...      0.00141627 Eh       0.89 kcal/mol
Thermal translational correction ...      0.00141627 Eh       0.89 kcal/mol
-----------------------------------------------------------------------
Total thermal energy                   -289.89473772 Eh

Summary of corrections to the electronic energy:
(perhaps to be used in another calculation)
Total thermal correction                  0.00747166 Eh       4.69 kcal/mol
Non-thermal (ZPE) correction              0.17553539 Eh     110.15 kcal/mol
-----------------------------------------------------------------------
Total correction                          0.18300705 Eh     114.84 kcal/mol

--------
ENTHALPY
--------

The enthalpy is H = U + kB*T
                kB is Boltzmann's constant
Total free energy                 ...   -289.89473772 Eh
Thermal Enthalpy correction       ...      0.00094421 Eh       0.59 kcal/mol
-----------------------------------------------------------------------
Total Enthalpy                    ...   -289.89379351 Eh

-------
ENTROPY
-------

The entropy contributions are T*S = T*(S(el)+S(vib)+S(rot)+S(trans)
     S(el)   - electronic entropy
     S(vib)  - vibrational entropy
     S(rot)  - rotational entropy
     S(trans)- translational entropy
The entropies will be listed as mutliplied by the temperature to get
units of energy

Electronic entropy                ...      0.00000000 Eh      0.00 kcal/mol
Vibrational entropy               ...      0.00798418 Eh      5.01 kcal/mol
Rotational entropy                ...      0.01204452 Eh      7.56 kcal/mol
Translational entropy             ...      0.01884507 Eh     11.83 kcal/mol
-----------------------------------------------------------------------
Final entropy term                ...      0.03887377 Eh     24.39 kcal/mol

CAUTION: The rotational entropy is not quite correctly treated here
         because it includes a symmetry number that is not yet correctly
         implemented in ORCA!
For a nonlinear molecule the correct rotational entropy is:
    S(rot) = R*(ln(qrot/sn)+1.5)
    R    = 8.31441 J/mol/K = 1.987191683e-3 kcal/mol/K
    qrot = 232163.5375180
    sn is the rotational symmetry number. We have assumed 3 here
       if it is different for your molecule then you should correct
       the printed rotational entropy by manually evaluating the equation
       as given above

For convenience we print out the resulting values for sn=1 - 12:
 sn= 1  qrot/sn=  232163.5375 T*S(rot)=     8.21 kcal/mol T*S(tot)=    25.04 kcal/mol
 sn= 2  qrot/sn=  116081.7688 T*S(rot)=     7.80 kcal/mol T*S(tot)=    24.63 kcal/mol
 sn= 3  qrot/sn=   77387.8458 T*S(rot)=     7.56 kcal/mol T*S(tot)=    24.39 kcal/mol
 sn= 4  qrot/sn=   58040.8844 T*S(rot)=     7.39 kcal/mol T*S(tot)=    24.22 kcal/mol
 sn= 5  qrot/sn=   46432.7075 T*S(rot)=     7.26 kcal/mol T*S(tot)=    24.09 kcal/mol
 sn= 6  qrot/sn=   38693.9229 T*S(rot)=     7.15 kcal/mol T*S(tot)=    23.98 kcal/mol
 sn= 7  qrot/sn=   33166.2196 T*S(rot)=     7.06 kcal/mol T*S(tot)=    23.89 kcal/mol
 sn= 8  qrot/sn=   29020.4422 T*S(rot)=     6.98 kcal/mol T*S(tot)=    23.81 kcal/mol
 sn= 9  qrot/sn=   25795.9486 T*S(rot)=     6.91 kcal/mol T*S(tot)=    23.74 kcal/mol
 sn=10  qrot/sn=   23216.3538 T*S(rot)=     6.84 kcal/mol T*S(tot)=    23.68 kcal/mol
 sn=11  qrot/sn=   21105.7761 T*S(rot)=     6.79 kcal/mol T*S(tot)=    23.62 kcal/mol
 sn=12  qrot/sn=   19346.9615 T*S(rot)=     6.74 kcal/mol T*S(tot)=    23.57 kcal/mol

-------------------
GIBBS FREE ENTHALPY
-------------------

The Gibbs free enthalpy is G = H - T*S

Total enthalpy                    ...   -289.89379351 Eh
Total entropy correction          ...     -0.03887377 Eh    -24.39 kcal/mol
-----------------------------------------------------------------------
Final Gibbs free enthalpy         ...   -289.93266728 Eh

For completeness - the Gibbs free enthalpy minus the electronic energy
G-E(el)                           ...      0.14507749 Eh     91.04 kcal/mol

                             ****ORCA TERMINATED NORMALLY****
TOTAL RUN TIME: 0 days 0 hours 52 minutes 46 seconds 250 msec
