                         Program Version 3.0.3 - RELEASE   -
|  1> ! NORI PBE0 def2-TZVP UseSym TightOPT Freq TightSCF Grid3 FinalGrid5 XYZFile
|  2> % pal
|  3>     nprocs 8
|  4> end
|  5> %method
|  6>     SymThresh 5.0e-2
|  7> end
|  8> % geom
|  9>     MaxIter 10
| 10> end
| 11> % maxcore 2000
| 12> % output
| 13>     printlevel mini
| 14>     print[ P_Basis ] 0
| 15>     print[ P_SCFInfo ] 1
| 16>     print[ P_SCFIterInfo ] 1
| 17>     print[ P_OrbEn ] 0
| 18>     print[ P_Cartesian ] 0
| 19> end
| 20> % elprop
| 21>     Dipole false
| 22> end
| 23> *xyz 1 1
| 24>  C        0.9604938034    -0.0536757584    -0.1211868799
| 25>  C        2.4335537773     0.0498899813     0.0985042521
| 26>  N        3.3138861794    -0.7914509365    -0.7717313026
| 27>  C        3.3345572719     0.7170805545    -0.8530711418
| 28>  C        4.6105277138     1.3817579765    -0.4871799230
| 29>  C        5.6341587113     1.4510208254    -1.5757294202
| 30>  C        4.7644857342     1.9122944466     0.7216533535
| 31>  H        0.5558170609    -0.9554643103     0.3407569203
| 32>  H        0.7036427581    -0.0460479934    -1.1828763272
| 33>  H        0.4757866397     0.8068776700     0.3439339494
| 34>  H        2.7733860365     0.0083997026     1.1280604289
| 35>  H        4.1171416022    -1.2377732819    -0.3419488605
| 36>  H        2.8821725353    -1.3204627550    -1.5217935517
| 37>  H        2.8796416311     1.0391272662    -1.7871540825
| 38>  H        5.9026699298     0.4570602446    -1.9473109217
| 39>  H        6.5442624665     1.9351742766    -1.2255323890
| 40>  H        5.2548798834     2.0187689670    -2.4310271431
| 41>  H        5.6797956356     2.4254446064     0.9910387998
| 42>  H        3.9864306297     1.8827185177     1.4760342392
| 43> *
| 44>
| 45>                          ****END OF INPUT****
 Total Charge           Charge          ....    1
 Multiplicity           Mult            ....    1
 Number of Electrons    NEL             ....   54
FINAL SINGLE POINT ENERGY      -290.082203090871

CARTESIAN COORDINATES (ANGSTROEM)
---------------------------------
  C      2.509058   -0.000243    1.017799
  C      1.142438   -0.453930    0.623314
  N      0.000107    0.000808    1.476780
  C      0.140933    0.452243    0.041786
  C     -0.936362    0.036546   -0.891343
  C     -2.157804    0.900094   -0.887826
  C     -0.757882   -1.006519   -1.695508
  H      2.895146   -0.590674    1.850069
  H      2.526631    1.057997    1.287830
  H      3.182001   -0.137753    0.169208
  H      1.033448   -1.505266    0.379309
  H     -0.737254   -0.666788    1.676282
  H      0.192228    0.660239    2.223135
  H      0.415567    1.504352    0.014643
  H     -2.617609    0.953099    0.104413
  H     -2.904841    0.522209   -1.584029
  H     -1.910256    1.925730   -1.178879
  H     -1.524612   -1.301206   -2.402039
  H      0.157407   -1.587038   -1.704952

FINAL SINGLE POINT ENERGY      -290.082203790940
                    ***********************HURRAY********************
 Multiplicity           Mult            ....    1
 Number of Electrons    NEL             ....   54
 Basis Dimension        Dim             ....  289
FINAL SINGLE POINT ENERGY      -290.082204127005

VIBRATIONAL FREQUENCIES
-----------------------

   0:         0.00 cm**-1
   1:         0.00 cm**-1
   2:         0.00 cm**-1
   3:         0.00 cm**-1
   4:         0.00 cm**-1
   5:         0.00 cm**-1
   6:        67.50 cm**-1
   7:       155.01 cm**-1
   8:       171.35 cm**-1
   9:       205.45 cm**-1
  10:       226.61 cm**-1
  11:       307.88 cm**-1
  12:       384.85 cm**-1
  13:       412.71 cm**-1
  14:       491.73 cm**-1
  15:       539.00 cm**-1
  16:       697.02 cm**-1
  17:       764.25 cm**-1
  18:       805.87 cm**-1
  19:       871.69 cm**-1
  20:       920.15 cm**-1
  21:       941.59 cm**-1
  22:       965.89 cm**-1
  23:       987.73 cm**-1
  24:       996.22 cm**-1
  25:      1008.33 cm**-1
  26:      1043.20 cm**-1
  27:      1067.42 cm**-1
  28:      1105.10 cm**-1
  29:      1146.65 cm**-1
  30:      1183.21 cm**-1
  31:      1234.93 cm**-1
  32:      1263.23 cm**-1
  33:      1282.36 cm**-1
  34:      1361.70 cm**-1
  35:      1414.61 cm**-1
  36:      1421.91 cm**-1
  37:      1444.89 cm**-1
  38:      1466.27 cm**-1
  39:      1472.51 cm**-1
  40:      1476.90 cm**-1
  41:      1483.52 cm**-1
  42:      1500.28 cm**-1
  43:      1616.93 cm**-1
  44:      1730.32 cm**-1
  45:      3043.76 cm**-1
  46:      3063.90 cm**-1
  47:      3100.02 cm**-1
  48:      3143.72 cm**-1
  49:      3152.26 cm**-1
  50:      3160.58 cm**-1
  51:      3162.26 cm**-1
  52:      3170.36 cm**-1
  53:      3196.90 cm**-1
  54:      3258.55 cm**-1
  55:      3504.87 cm**-1
  56:      3618.39 cm**-1

IR SPECTRUM
-----------

 Mode    freq (cm**-1)   T**2         TX         TY         TZ
-------------------------------------------------------------------
   6:        67.50    2.196182  ( -0.055127   1.480324  -0.042230)
   7:       155.01    0.601583  ( -0.153977  -0.074186  -0.756552)
   8:       171.35    0.157282  ( -0.060250   0.268379  -0.285701)
   9:       205.45    0.369989  (  0.504147   0.023311   0.339531)
  10:       226.61    0.804971  ( -0.001457  -0.883266   0.157513)
  11:       307.88    4.130755  ( -1.820062  -0.141220  -0.893412)
  12:       384.85    0.570964  ( -0.545336  -0.057785   0.519840)
  13:       412.71    2.407291  ( -0.523327  -1.094380   0.967343)
  14:       491.73    0.932250  ( -0.559851   0.778244  -0.114690)
  15:       539.00   10.522670  (  1.263327   1.882834  -2.319830)
  16:       697.02    5.591506  (  1.328968   0.372206   1.920107)
  17:       764.25    9.738842  ( -0.834035  -0.424549  -2.977077)
  18:       805.87    2.133133  (  0.655613   0.903674   0.941636)
  19:       871.69   23.890994  ( -2.031635   0.648510   4.398055)
  20:       920.15    6.951250  (  1.114226   0.773803  -2.260747)
  21:       941.59    5.192686  ( -0.411384   0.897306  -2.053848)
  22:       965.89   14.243294  (  1.735764  -1.828628   2.808298)
  23:       987.73   57.809146  ( -5.117845   5.059616  -2.452978)
  24:       996.22   35.983912  ( -1.835795  -4.009791   4.066368)
  25:      1008.33   17.684157  (  2.563367  -3.206948   0.910379)
  26:      1043.20   17.233674  ( -3.947062  -0.357449  -1.235560)
  27:      1067.42    2.014629  ( -0.889648  -0.152522   1.095396)
  28:      1105.10   12.513577  (  1.342416  -0.218261   3.265556)
  29:      1146.65    1.113156  ( -0.082123  -0.793686   0.690272)
  30:      1183.21    3.084043  (  1.408579  -0.855128  -0.607210)
  31:      1234.93    5.755939  (  2.157049   0.526710   0.908656)
  32:      1263.23    1.450875  (  1.027751   0.300889   0.551423)
  33:      1282.36    4.657318  (  1.225449  -0.328030   1.745849)
  34:      1361.70    8.631971  ( -1.492207  -1.935543  -1.630632)
  35:      1414.61    9.804832  ( -2.463950   1.913251   0.270657)
  36:      1421.91   11.738615  ( -2.455551  -2.374464  -0.266095)
  37:      1444.89    1.455302  ( -0.546467   0.161770   1.063253)
  38:      1466.27   14.528067  ( -0.877985   3.080999  -2.065104)
  39:      1472.51    5.605771  (  1.993869   0.256503  -1.250786)
  40:      1476.90   11.225820  ( -1.911347  -0.632109   2.678248)
  41:      1483.52   39.250928  ( -0.215733  -4.686883  -4.151809)
  42:      1500.28    3.257155  (  0.100089  -1.394711   1.141016)
  43:      1616.93   73.114327  ( -3.992561   0.126151   7.560282)
  44:      1730.32    6.058839  ( -1.704384   1.686932   0.555135)
  45:      3043.76    5.582128  (  1.080189  -1.368287  -1.594713)
  46:      3063.90    1.359890  (  0.432745  -0.823315  -0.703402)
  47:      3100.02    5.191620  (  1.031751   0.887369  -1.827481)
  48:      3143.72    1.581724  ( -0.010695  -1.248398   0.152022)
  49:      3152.26    1.238501  (  0.934718  -0.558121   0.230879)
  50:      3160.58    0.351017  ( -0.080140  -0.195288   0.553586)
  51:      3162.26    2.303534  ( -0.805994  -0.360274  -1.234548)
  52:      3170.36    1.510565  (  1.002857  -0.041034   0.709337)
  53:      3196.90    0.738896  ( -0.596197   0.614034   0.080048)
  54:      3258.55    0.868877  ( -0.676421   0.638502   0.060394)
  55:      3504.87   90.570782  (  4.489039  -0.108686  -8.390918)
  56:      3618.39  104.756627  (  5.743659   7.784672   3.341541)

--------------------------
THERMOCHEMISTRY AT 298.15K
--------------------------

Temperature         ... 298.15 K
Pressure            ... 1.00 atm
Total Mass          ... 98.17 AMU

Throughout the following assumptions are being made:
  (1) The electronic state is orbitally nondegenerate
  (2) There are no thermally accessible electronically excited states
  (3) Hindered rotations indicated by low frequency modes) are not
      treated as such but are treated as vibrations and this may
      case some error
  (4) All equations used are the standard statistical mechanics
      equations for an ideal gas
  (5) All vibrations are strinctly harmonic

------------
INNER ENERGY
------------

The inner energy is: U= E(el) + E(ZPE) + E(vib) + E(rot) + E(trans)
    E(el)   - is the total energy from the electronic structure calculation
              = E(kin-el) + E(nuc-el) + E(el-el) + E(nuc-nuc)
    E(ZPE)  - the the zero temperature vibrational energy from the frequency calculation
    E(vib)  - the the finite temperature correction to E(ZPE) due to population
              of excietd vibrational states
    E(rot)  - is the rotational thermal energy
    E(trans)- is the translational thermal energy

Summary of contributions to the inner energy U:
Electronic energy                ...   -290.08220413 Eh
Zero point energy                ...      0.17362449 Eh     108.95 kcal/mol
Thermal vibrational correction   ...      0.00538456 Eh       3.38 kcal/mol
Thermal rotational correction    ...      0.00141627 Eh       0.89 kcal/mol
Thermal translational correction ...      0.00141627 Eh       0.89 kcal/mol
-----------------------------------------------------------------------
Total thermal energy                   -289.90036253 Eh

Summary of corrections to the electronic energy:
(perhaps to be used in another calculation)
Total thermal correction                  0.00821711 Eh       5.16 kcal/mol
Non-thermal (ZPE) correction              0.17362449 Eh     108.95 kcal/mol
-----------------------------------------------------------------------
Total correction                          0.18184160 Eh     114.11 kcal/mol

--------
ENTHALPY
--------

The enthalpy is H = U + kB*T
                kB is Boltzmann's constant
Total free energy                 ...   -289.90036253 Eh
Thermal Enthalpy correction       ...      0.00094421 Eh       0.59 kcal/mol
-----------------------------------------------------------------------
Total Enthalpy                    ...   -289.89941832 Eh

-------
ENTROPY
-------

The entropy contributions are T*S = T*(S(el)+S(vib)+S(rot)+S(trans)
     S(el)   - electronic entropy
     S(vib)  - vibrational entropy
     S(rot)  - rotational entropy
     S(trans)- translational entropy
The entropies will be listed as mutliplied by the temperature to get
units of energy

Electronic entropy                ...      0.00000000 Eh      0.00 kcal/mol
Vibrational entropy               ...      0.00945334 Eh      5.93 kcal/mol
Rotational entropy                ...      0.01211927 Eh      7.60 kcal/mol
Translational entropy             ...      0.01884507 Eh     11.83 kcal/mol
-----------------------------------------------------------------------
Final entropy term                ...      0.04041768 Eh     25.36 kcal/mol

CAUTION: The rotational entropy is not quite correctly treated here
         because it includes a symmetry number that is not yet correctly
         implemented in ORCA!
For a nonlinear molecule the correct rotational entropy is:
    S(rot) = R*(ln(qrot/sn)+1.5)
    R    = 8.31441 J/mol/K = 1.987191683e-3 kcal/mol/K
    qrot = 251290.2181421
    sn is the rotational symmetry number. We have assumed 3 here
       if it is different for your molecule then you should correct
       the printed rotational entropy by manually evaluating the equation
       as given above

For convenience we print out the resulting values for sn=1 - 12:
 sn= 1  qrot/sn=  251290.2181 T*S(rot)=     8.26 kcal/mol T*S(tot)=    26.01 kcal/mol
 sn= 2  qrot/sn=  125645.1091 T*S(rot)=     7.85 kcal/mol T*S(tot)=    25.60 kcal/mol
 sn= 3  qrot/sn=   83763.4060 T*S(rot)=     7.60 kcal/mol T*S(tot)=    25.36 kcal/mol
 sn= 4  qrot/sn=   62822.5545 T*S(rot)=     7.43 kcal/mol T*S(tot)=    25.19 kcal/mol
 sn= 5  qrot/sn=   50258.0436 T*S(rot)=     7.30 kcal/mol T*S(tot)=    25.06 kcal/mol
 sn= 6  qrot/sn=   41881.7030 T*S(rot)=     7.19 kcal/mol T*S(tot)=    24.95 kcal/mol
 sn= 7  qrot/sn=   35898.6026 T*S(rot)=     7.10 kcal/mol T*S(tot)=    24.86 kcal/mol
 sn= 8  qrot/sn=   31411.2773 T*S(rot)=     7.02 kcal/mol T*S(tot)=    24.78 kcal/mol
 sn= 9  qrot/sn=   27921.1353 T*S(rot)=     6.95 kcal/mol T*S(tot)=    24.71 kcal/mol
 sn=10  qrot/sn=   25129.0218 T*S(rot)=     6.89 kcal/mol T*S(tot)=    24.65 kcal/mol
 sn=11  qrot/sn=   22844.5653 T*S(rot)=     6.84 kcal/mol T*S(tot)=    24.59 kcal/mol
 sn=12  qrot/sn=   20940.8515 T*S(rot)=     6.78 kcal/mol T*S(tot)=    24.54 kcal/mol

-------------------
GIBBS FREE ENTHALPY
-------------------

The Gibbs free enthalpy is G = H - T*S

Total enthalpy                    ...   -289.89941832 Eh
Total entropy correction          ...     -0.04041768 Eh    -25.36 kcal/mol
-----------------------------------------------------------------------
Final Gibbs free enthalpy         ...   -289.93983600 Eh

For completeness - the Gibbs free enthalpy minus the electronic energy
G-E(el)                           ...      0.14236813 Eh     89.34 kcal/mol

                             ****ORCA TERMINATED NORMALLY****
TOTAL RUN TIME: 0 days 0 hours 53 minutes 24 seconds 42 msec
