                         Program Version 3.0.3 - RELEASE   -
|  1> ! NORI PBE0 def2-TZVP UseSym TightOPT Freq TightSCF Grid3 FinalGrid5 XYZFile
|  2> % pal
|  3>     nprocs 8
|  4> end
|  5> %method
|  6>     SymThresh 5.0e-2
|  7> end
|  8> % geom
|  9>     MaxIter 10
| 10> end
| 11> % maxcore 2000
| 12> % output
| 13>     printlevel mini
| 14>     print[ P_Basis ] 0
| 15>     print[ P_SCFInfo ] 1
| 16>     print[ P_SCFIterInfo ] 1
| 17>     print[ P_OrbEn ] 0
| 18>     print[ P_Cartesian ] 0
| 19> end
| 20> % elprop
| 21>     Dipole false
| 22> end
| 23> *xyz 1 1
| 24>  C        0.8589601007     0.0619174943    -0.1823109827
| 25>  C        2.3272781340     0.2386023183     0.0155196974
| 26>  N        3.2312124099    -0.7482147043    -0.6655307236
| 27>  C        3.2348327703     0.7014603315    -1.0444748092
| 28>  C        4.4851259416     1.4835114103    -0.7546597181
| 29>  C        4.1925896419     2.9539926514    -0.8004289911
| 30>  C        4.2987140259     3.7591343544     0.2450875873
| 31>  H        0.3575184574     0.9911776606     0.0957015929
| 32>  H        0.4662663512    -0.7336460078     0.4526164620
| 33>  H        0.6100429942    -0.1516280944    -1.2240928447
| 34>  H        2.6609866084     0.4241138139     1.0319897061
| 35>  H        4.0336378334    -1.1046465169    -0.1581665140
| 36>  H        2.8083862402    -1.4179043080    -1.2988691945
| 37>  H        2.7906111663     0.8479345133    -2.0247830154
| 38>  H        5.2458845915     1.2238728984    -1.4994048958
| 39>  H        4.8746893342     1.2122440467     0.2320545305
| 40>  H        3.8915011702     3.3550559191    -1.7652110276
| 41>  H        4.6179724603     3.3986625736     1.2180746111
| 42>  H        4.0895497686     4.8186996455     0.1610585296
| 43> *
| 44>
| 45>                          ****END OF INPUT****
 Total Charge           Charge          ....    1
 Multiplicity           Mult            ....    1
 Number of Electrons    NEL             ....   54
FINAL SINGLE POINT ENERGY      -290.077014151501
FINAL SINGLE POINT ENERGY      -290.077015198258

CARTESIAN COORDINATES (ANGSTROEM)
---------------------------------
  C      2.394486    0.001765    1.025598
  C      0.973024   -0.413850    0.843115
  N     -0.000048   -0.002938    1.910394
  C     -0.106384    0.528298    0.513153
  C     -1.316853    0.127015   -0.282686
  C     -1.078830    0.375235   -1.742726
  C     -1.044003   -0.582061   -2.656556
  H      2.906607   -0.084711    0.065390
  H      2.907835   -0.644132    1.739474
  H      2.477158    1.040325    1.354427
  H      0.802964   -1.444825    0.547138
  H     -0.699279   -0.671344    2.214746
  H      0.334397    0.612868    2.643464
  H      0.170553    1.577815    0.474213
  H     -2.177817    0.708277    0.066306
  H     -1.539038   -0.932564   -0.117549
  H     -0.946560    1.412851   -2.039398
  H     -1.193925   -1.626564   -2.401114
  H     -0.884809   -0.353284   -3.703115

FINAL SINGLE POINT ENERGY      -290.077015785579
                    ***********************HURRAY********************
 Multiplicity           Mult            ....    1
 Number of Electrons    NEL             ....   54
 Basis Dimension        Dim             ....  289
FINAL SINGLE POINT ENERGY      -290.077015917669

VIBRATIONAL FREQUENCIES
-----------------------

   0:         0.00 cm**-1
   1:         0.00 cm**-1
   2:         0.00 cm**-1
   3:         0.00 cm**-1
   4:         0.00 cm**-1
   5:         0.00 cm**-1
   6:        68.39 cm**-1
   7:        81.42 cm**-1
   8:       160.22 cm**-1
   9:       218.55 cm**-1
  10:       271.54 cm**-1
  11:       332.05 cm**-1
  12:       393.35 cm**-1
  13:       437.16 cm**-1
  14:       448.52 cm**-1
  15:       642.79 cm**-1
  16:       764.64 cm**-1
  17:       815.99 cm**-1
  18:       869.64 cm**-1
  19:       893.54 cm**-1
  20:       931.99 cm**-1
  21:       962.88 cm**-1
  22:       988.62 cm**-1
  23:       996.87 cm**-1
  24:       998.47 cm**-1
  25:      1028.88 cm**-1
  26:      1052.23 cm**-1
  27:      1079.82 cm**-1
  28:      1144.77 cm**-1
  29:      1159.93 cm**-1
  30:      1204.28 cm**-1
  31:      1232.90 cm**-1
  32:      1255.37 cm**-1
  33:      1289.40 cm**-1
  34:      1320.85 cm**-1
  35:      1334.84 cm**-1
  36:      1366.93 cm**-1
  37:      1421.63 cm**-1
  38:      1454.47 cm**-1
  39:      1467.57 cm**-1
  40:      1473.47 cm**-1
  41:      1476.18 cm**-1
  42:      1498.55 cm**-1
  43:      1623.99 cm**-1
  44:      1726.82 cm**-1
  45:      3042.39 cm**-1
  46:      3063.12 cm**-1
  47:      3092.57 cm**-1
  48:      3142.66 cm**-1
  49:      3152.58 cm**-1
  50:      3157.84 cm**-1
  51:      3168.17 cm**-1
  52:      3178.49 cm**-1
  53:      3186.57 cm**-1
  54:      3253.39 cm**-1
  55:      3511.60 cm**-1
  56:      3619.91 cm**-1

IR SPECTRUM
-----------

 Mode    freq (cm**-1)   T**2         TX         TY         TZ
-------------------------------------------------------------------
   6:        68.39    0.457507  (  0.165547   0.388423   0.528422)
   7:        81.42    1.182505  (  0.320854   1.037303   0.059661)
   8:       160.22    0.528369  ( -0.338250   0.232650   0.599858)
   9:       218.55    0.785808  (  0.214806  -0.860027  -0.004429)
  10:       271.54    0.077938  ( -0.154776   0.200879   0.116749)
  11:       332.05    1.621655  (  1.137409   0.245883  -0.517201)
  12:       393.35    3.159543  ( -0.897950   0.383869  -1.485219)
  13:       437.16    0.180805  (  0.182488  -0.131996   0.360666)
  14:       448.52    0.285748  (  0.248008  -0.405284  -0.244917)
  15:       642.79   11.183456  ( -3.208058   0.861553  -0.386708)
  16:       764.64   12.692107  (  3.115040   0.693887   1.583400)
  17:       815.99    8.269742  (  2.410205   0.066530  -1.567236)
  18:       869.64   22.853514  ( -0.628595  -0.027601   4.738947)
  19:       893.54    6.784289  ( -0.576831  -2.065863  -1.477757)
  20:       931.99    7.453902  (  0.463117  -0.023881  -2.690512)
  21:       962.88    0.522757  (  0.493508  -0.521449  -0.085425)
  22:       988.62   12.986097  ( -2.399813   1.008146  -2.492114)
  23:       996.87  105.273777  (  7.638614  -6.557147   1.982217)
  24:       998.47   31.005311  ( -5.561301  -0.200546  -0.192407)
  25:      1028.88    9.490619  ( -2.849936   0.196608  -1.153183)
  26:      1052.23   16.145080  ( -1.186273  -0.088625  -3.837966)
  27:      1079.82   10.432297  (  3.134540  -0.744439  -0.229710)
  28:      1144.77    7.564243  (  0.918938  -0.727976   2.487941)
  29:      1159.93    0.770812  (  0.544767  -0.134466  -0.675249)
  30:      1204.28    0.383123  ( -0.575834  -0.193481  -0.118756)
  31:      1232.90    2.849404  (  1.621230  -0.050621   0.467392)
  32:      1255.37    0.640126  ( -0.537002  -0.164811  -0.569730)
  33:      1289.40    5.085694  (  1.272629  -0.339304   1.830569)
  34:      1320.85    3.041834  (  1.303358   1.115758   0.313329)
  35:      1334.84    1.757094  (  0.271750  -0.971551  -0.859846)
  36:      1366.93    2.952239  (  1.320299   0.426394   1.013528)
  37:      1421.63   11.788563  ( -2.884594  -1.842057   0.272963)
  38:      1454.47    7.654474  ( -0.697968   2.134531   1.615887)
  39:      1467.57    6.530163  ( -1.672704   1.931744   0.024308)
  40:      1473.47   13.629755  ( -1.853909  -3.069211   0.879047)
  41:      1476.18    9.014734  (  0.552200  -0.167158  -2.946501)
  42:      1498.55   10.276998  (  0.052776  -3.166464  -0.497710)
  43:      1623.99   75.429396  (  2.955461   0.431491  -8.155272)
  44:      1726.82    1.827806  (  0.185583  -1.076115  -0.797083)
  45:      3042.39    7.166776  (  0.963030   1.000035  -2.288948)
  46:      3063.12    1.747368  ( -0.354543   0.865751   0.933885)
  47:      3092.57    3.672614  (  0.487085  -1.790182   0.480219)
  48:      3142.66    1.660796  ( -0.076345   1.285951  -0.036011)
  49:      3152.58    1.260814  (  1.024000  -0.459987  -0.025471)
  50:      3157.84    3.236346  ( -0.224088  -1.589302   0.812558)
  51:      3168.17    1.485441  (  0.097949  -1.038486   0.630391)
  52:      3178.49    0.226999  (  0.251838   0.017612  -0.404062)
  53:      3186.57    0.854962  (  0.836229  -0.391732   0.047219)
  54:      3253.39    0.912268  (  0.090606   0.885600  -0.346081)
  55:      3511.60  103.415472  ( -3.095156  -0.147207   9.685753)
  56:      3619.91  106.272327  (  6.373646   7.631777   2.721202)

--------------------------
THERMOCHEMISTRY AT 298.15K
--------------------------

Temperature         ... 298.15 K
Pressure            ... 1.00 atm
Total Mass          ... 98.17 AMU

Throughout the following assumptions are being made:
  (1) The electronic state is orbitally nondegenerate
  (2) There are no thermally accessible electronically excited states
  (3) Hindered rotations indicated by low frequency modes) are not
      treated as such but are treated as vibrations and this may
      case some error
  (4) All equations used are the standard statistical mechanics
      equations for an ideal gas
  (5) All vibrations are strinctly harmonic

------------
INNER ENERGY
------------

The inner energy is: U= E(el) + E(ZPE) + E(vib) + E(rot) + E(trans)
    E(el)   - is the total energy from the electronic structure calculation
              = E(kin-el) + E(nuc-el) + E(el-el) + E(nuc-nuc)
    E(ZPE)  - the the zero temperature vibrational energy from the frequency calculation
    E(vib)  - the the finite temperature correction to E(ZPE) due to population
              of excietd vibrational states
    E(rot)  - is the rotational thermal energy
    E(trans)- is the translational thermal energy

Summary of contributions to the inner energy U:
Electronic energy                ...   -290.07701592 Eh
Zero point energy                ...      0.17418602 Eh     109.30 kcal/mol
Thermal vibrational correction   ...      0.00529491 Eh       3.32 kcal/mol
Thermal rotational correction    ...      0.00141627 Eh       0.89 kcal/mol
Thermal translational correction ...      0.00141627 Eh       0.89 kcal/mol
-----------------------------------------------------------------------
Total thermal energy                   -289.89470245 Eh

Summary of corrections to the electronic energy:
(perhaps to be used in another calculation)
Total thermal correction                  0.00812745 Eh       5.10 kcal/mol
Non-thermal (ZPE) correction              0.17418602 Eh     109.30 kcal/mol
-----------------------------------------------------------------------
Total correction                          0.18231347 Eh     114.40 kcal/mol

--------
ENTHALPY
--------

The enthalpy is H = U + kB*T
                kB is Boltzmann's constant
Total free energy                 ...   -289.89470245 Eh
Thermal Enthalpy correction       ...      0.00094421 Eh       0.59 kcal/mol
-----------------------------------------------------------------------
Total Enthalpy                    ...   -289.89375824 Eh

-------
ENTROPY
-------

The entropy contributions are T*S = T*(S(el)+S(vib)+S(rot)+S(trans)
     S(el)   - electronic entropy
     S(vib)  - vibrational entropy
     S(rot)  - rotational entropy
     S(trans)- translational entropy
The entropies will be listed as mutliplied by the temperature to get
units of energy

Electronic entropy                ...      0.00000000 Eh      0.00 kcal/mol
Vibrational entropy               ...      0.00964330 Eh      6.05 kcal/mol
Rotational entropy                ...      0.01225571 Eh      7.69 kcal/mol
Translational entropy             ...      0.01884507 Eh     11.83 kcal/mol
-----------------------------------------------------------------------
Final entropy term                ...      0.04074407 Eh     25.57 kcal/mol

CAUTION: The rotational entropy is not quite correctly treated here
         because it includes a symmetry number that is not yet correctly
         implemented in ORCA!
For a nonlinear molecule the correct rotational entropy is:
    S(rot) = R*(ln(qrot/sn)+1.5)
    R    = 8.31441 J/mol/K = 1.987191683e-3 kcal/mol/K
    qrot = 290356.3669698
    sn is the rotational symmetry number. We have assumed 3 here
       if it is different for your molecule then you should correct
       the printed rotational entropy by manually evaluating the equation
       as given above

For convenience we print out the resulting values for sn=1 - 12:
 sn= 1  qrot/sn=  290356.3670 T*S(rot)=     8.34 kcal/mol T*S(tot)=    26.22 kcal/mol
 sn= 2  qrot/sn=  145178.1835 T*S(rot)=     7.93 kcal/mol T*S(tot)=    25.81 kcal/mol
 sn= 3  qrot/sn=   96785.4557 T*S(rot)=     7.69 kcal/mol T*S(tot)=    25.57 kcal/mol
 sn= 4  qrot/sn=   72589.0917 T*S(rot)=     7.52 kcal/mol T*S(tot)=    25.40 kcal/mol
 sn= 5  qrot/sn=   58071.2734 T*S(rot)=     7.39 kcal/mol T*S(tot)=    25.26 kcal/mol
 sn= 6  qrot/sn=   48392.7278 T*S(rot)=     7.28 kcal/mol T*S(tot)=    25.16 kcal/mol
 sn= 7  qrot/sn=   41479.4810 T*S(rot)=     7.19 kcal/mol T*S(tot)=    25.07 kcal/mol
 sn= 8  qrot/sn=   36294.5459 T*S(rot)=     7.11 kcal/mol T*S(tot)=    24.99 kcal/mol
 sn= 9  qrot/sn=   32261.8186 T*S(rot)=     7.04 kcal/mol T*S(tot)=    24.92 kcal/mol
 sn=10  qrot/sn=   29035.6367 T*S(rot)=     6.98 kcal/mol T*S(tot)=    24.85 kcal/mol
 sn=11  qrot/sn=   26396.0334 T*S(rot)=     6.92 kcal/mol T*S(tot)=    24.80 kcal/mol
 sn=12  qrot/sn=   24196.3639 T*S(rot)=     6.87 kcal/mol T*S(tot)=    24.75 kcal/mol

-------------------
GIBBS FREE ENTHALPY
-------------------

The Gibbs free enthalpy is G = H - T*S

Total enthalpy                    ...   -289.89375824 Eh
Total entropy correction          ...     -0.04074407 Eh    -25.57 kcal/mol
-----------------------------------------------------------------------
Final Gibbs free enthalpy         ...   -289.93450231 Eh

For completeness - the Gibbs free enthalpy minus the electronic energy
G-E(el)                           ...      0.14251361 Eh     89.43 kcal/mol

                             ****ORCA TERMINATED NORMALLY****
TOTAL RUN TIME: 0 days 0 hours 50 minutes 35 seconds 358 msec
