                         Program Version 3.0.3 - RELEASE   -
|  1> ! NORI PBE0 def2-TZVP UseSym TightOPT Freq TightSCF Grid3 FinalGrid5 XYZFile
|  2> % pal
|  3>     nprocs 8
|  4> end
|  5> %method
|  6>     SymThresh 5.0e-2
|  7> end
|  8> % geom
|  9>     MaxIter 10
| 10> end
| 11> % maxcore 2000
| 12> % output
| 13>     printlevel mini
| 14>     print[ P_Basis ] 0
| 15>     print[ P_SCFInfo ] 1
| 16>     print[ P_SCFIterInfo ] 1
| 17>     print[ P_OrbEn ] 0
| 18>     print[ P_Cartesian ] 0
| 19> end
| 20> % elprop
| 21>     Dipole false
| 22> end
| 23> *xyz 1 1
| 24>  C        0.9863321636     0.1126126360    -0.2928730766
| 25>  C        2.4557910130     0.2742618012    -0.0938475305
| 26>  N        3.3545447793    -0.7208097438    -0.7734862478
| 27>  C        3.3651787640     0.7242303079    -1.1569347279
| 28>  C        4.6234479066     1.4996748668    -0.8654384834
| 29>  C        4.3174231292     2.9188889224    -0.8466598310
| 30>  C        4.0416543989     4.0845930211    -0.8409983342
| 31>  H        0.4966798554     1.0497052763    -0.0201459539
| 32>  H        0.5845179508    -0.6746655774     0.3464484266
| 33>  H        0.7361328484    -0.1029082984    -1.3338248303
| 34>  H        2.7920223049     0.4593441840     0.9220016931
| 35>  H        4.1511167530    -1.0860647737    -0.2627723898
| 36>  H        2.9285593904    -1.3863273027    -1.4094506288
| 37>  H        2.9283397789     0.8817183778    -2.1378383997
| 38>  H        5.3771362624     1.2847801536    -1.6304016355
| 39>  H        5.0415754020     1.1937152295     0.1014099787
| 40>  H        3.8129972991     5.1266109194    -0.8349980290
| 41> *
| 42>
| 43>                          ****END OF INPUT****
 Total Charge           Charge          ....    1
 Multiplicity           Mult            ....    1
 Number of Electrons    NEL             ....   52
FINAL SINGLE POINT ENERGY      -288.820821680357
FINAL SINGLE POINT ENERGY      -288.820822726262

CARTESIAN COORDINATES (ANGSTROEM)
---------------------------------
  C      2.366692    0.001524    0.925193
  C      0.953257   -0.464795    0.823881
  N      0.000313   -0.003432    1.891024
  C     -0.161054    0.424694    0.467447
  C     -1.386141   -0.067061   -0.259011
  C     -1.161117    0.016335   -1.690974
  C     -0.955129    0.098315   -2.868126
  H      2.845909   -0.138436   -0.045661
  H      2.923065   -0.579362    1.662178
  H      2.430084    1.062532    1.177540
  H      0.802462   -1.518624    0.608222
  H     -0.665682   -0.668586    2.269075
  H      0.336793    0.676021    2.564888
  H      0.077846    1.475156    0.335266
  H     -2.252703    0.539574    0.024199
  H     -1.606111   -1.103686    0.025156
  H     -0.789053    0.167156   -3.919624

FINAL SINGLE POINT ENERGY      -288.820823436814
                    ***********************HURRAY********************
 Multiplicity           Mult            ....    1
 Number of Electrons    NEL             ....   52
 Basis Dimension        Dim             ....  277
FINAL SINGLE POINT ENERGY      -288.820823625220

VIBRATIONAL FREQUENCIES
-----------------------

   0:         0.00 cm**-1
   1:         0.00 cm**-1
   2:         0.00 cm**-1
   3:         0.00 cm**-1
   4:         0.00 cm**-1
   5:         0.00 cm**-1
   6:        67.73 cm**-1
   7:       112.55 cm**-1
   8:       216.92 cm**-1
   9:       253.21 cm**-1
  10:       268.75 cm**-1
  11:       334.33 cm**-1
  12:       404.10 cm**-1
  13:       412.73 cm**-1
  14:       518.84 cm**-1
  15:       722.01 cm**-1
  16:       744.05 cm**-1
  17:       761.42 cm**-1
  18:       809.11 cm**-1
  19:       873.73 cm**-1
  20:       892.36 cm**-1
  21:       951.87 cm**-1
  22:       970.89 cm**-1
  23:      1002.36 cm**-1
  24:      1007.16 cm**-1
  25:      1060.87 cm**-1
  26:      1140.03 cm**-1
  27:      1146.21 cm**-1
  28:      1168.38 cm**-1
  29:      1232.21 cm**-1
  30:      1257.55 cm**-1
  31:      1290.65 cm**-1
  32:      1335.60 cm**-1
  33:      1369.75 cm**-1
  34:      1421.73 cm**-1
  35:      1464.64 cm**-1
  36:      1467.72 cm**-1
  37:      1475.56 cm**-1
  38:      1499.55 cm**-1
  39:      1624.60 cm**-1
  40:      2256.59 cm**-1
  41:      3036.59 cm**-1
  42:      3063.84 cm**-1
  43:      3086.48 cm**-1
  44:      3143.61 cm**-1
  45:      3153.83 cm**-1
  46:      3181.57 cm**-1
  47:      3193.48 cm**-1
  48:      3463.33 cm**-1
  49:      3509.60 cm**-1
  50:      3616.75 cm**-1

IR SPECTRUM
-----------

 Mode    freq (cm**-1)   T**2         TX         TY         TZ
-------------------------------------------------------------------
   6:        67.73    0.924692  (  0.135388   0.907978   0.286248)
   7:       112.55    1.662162  (  0.247472   1.264680  -0.038797)
   8:       216.92    1.281163  (  0.540268  -0.989554   0.100277)
   9:       253.21    3.766620  (  1.562780   0.817232  -0.810228)
  10:       268.75    1.348160  ( -1.160515  -0.021848  -0.029790)
  11:       334.33   12.603583  ( -1.338374   3.258906  -0.438026)
  12:       404.10    4.780933  ( -0.921777  -0.641268  -1.876176)
  13:       412.73    0.512797  (  0.101398  -0.579227   0.408671)
  14:       518.84   10.454129  (  2.937740   0.735585   1.132576)
  15:       722.01   41.178274  ( -2.947423   5.699927  -0.042562)
  16:       744.05   37.046149  ( -5.284977  -2.907752  -0.812494)
  17:       761.42   11.105549  ( -3.032990  -0.882205  -1.062185)
  18:       809.11    5.906890  ( -1.572032   0.217080   1.840783)
  19:       873.73   24.329796  (  0.487895  -0.691682  -4.859355)
  20:       892.36    2.916958  ( -0.009728  -1.529035  -0.760864)
  21:       951.87    9.487182  ( -0.918178  -0.748942   2.843100)
  22:       970.89    1.697172  ( -0.603848  -0.199658  -1.136960)
  23:      1002.36   93.343275  (  7.337444  -5.808923   2.400333)
  24:      1007.16    7.892804  (  1.549505  -1.807351   1.491750)
  25:      1060.87   10.858993  (  1.341850  -0.943987  -2.857852)
  26:      1140.03    1.028562  ( -0.585607   0.188725   0.806232)
  27:      1146.21   10.283778  (  1.441990  -1.238400   2.582791)
  28:      1168.38    1.665133  (  1.020343   0.015313  -0.789809)
  29:      1232.21    3.196342  ( -1.724817  -0.158892  -0.442833)
  30:      1257.55    0.832697  (  0.505221   0.281905   0.705676)
  31:      1290.65    6.247701  (  0.766860  -0.729969   2.264237)
  32:      1335.60    5.071333  ( -0.854144   0.191191  -2.074902)
  33:      1369.75    2.707753  ( -1.303845  -0.868719   0.503058)
  34:      1421.73   12.153599  (  2.826183   1.878739  -0.797888)
  35:      1464.64    9.145489  ( -2.632949  -1.213907   0.859942)
  36:      1467.72   10.644649  (  1.266469  -2.950430   0.579367)
  37:      1475.56    8.632058  ( -0.495490   0.698922   2.810348)
  38:      1499.55    8.912895  (  0.026031   2.939149   0.523085)
  39:      1624.60   79.393850  ( -2.735858  -0.004202   8.479912)
  40:      2256.59    6.326279  (  0.002804   0.082713  -2.513848)
  41:      3036.59   10.081434  ( -0.138056   1.090329  -2.978852)
  42:      3063.84    1.896736  ( -0.549549   0.872315   0.913126)
  43:      3086.48    0.126804  ( -0.006637   0.227519  -0.273852)
  44:      3143.61    1.589968  ( -0.007388  -1.246368   0.190996)
  45:      3153.83    1.354318  ( -1.033967   0.501013   0.184974)
  46:      3181.57    0.737423  (  0.708710  -0.136021  -0.465459)
  47:      3193.48    2.345995  (  0.518051  -1.346803   0.513557)
  48:      3463.33   93.535734  (  0.906279   0.593125  -9.610546)
  49:      3509.60  108.813083  ( -2.878549   0.205453  10.024212)
  50:      3616.75  110.830431  ( -6.306468  -8.139628  -2.192111)

--------------------------
THERMOCHEMISTRY AT 298.15K
--------------------------

Temperature         ... 298.15 K
Pressure            ... 1.00 atm
Total Mass          ... 96.15 AMU

Throughout the following assumptions are being made:
  (1) The electronic state is orbitally nondegenerate
  (2) There are no thermally accessible electronically excited states
  (3) Hindered rotations indicated by low frequency modes) are not
      treated as such but are treated as vibrations and this may
      case some error
  (4) All equations used are the standard statistical mechanics
      equations for an ideal gas
  (5) All vibrations are strinctly harmonic

------------
INNER ENERGY
------------

The inner energy is: U= E(el) + E(ZPE) + E(vib) + E(rot) + E(trans)
    E(el)   - is the total energy from the electronic structure calculation
              = E(kin-el) + E(nuc-el) + E(el-el) + E(nuc-nuc)
    E(ZPE)  - the the zero temperature vibrational energy from the frequency calculation
    E(vib)  - the the finite temperature correction to E(ZPE) due to population
              of excietd vibrational states
    E(rot)  - is the rotational thermal energy
    E(trans)- is the translational thermal energy

Summary of contributions to the inner energy U:
Electronic energy                ...   -288.82082363 Eh
Zero point energy                ...      0.15032452 Eh      94.33 kcal/mol
Thermal vibrational correction   ...      0.00499782 Eh       3.14 kcal/mol
Thermal rotational correction    ...      0.00141627 Eh       0.89 kcal/mol
Thermal translational correction ...      0.00141627 Eh       0.89 kcal/mol
-----------------------------------------------------------------------
Total thermal energy                   -288.66266875 Eh

Summary of corrections to the electronic energy:
(perhaps to be used in another calculation)
Total thermal correction                  0.00783036 Eh       4.91 kcal/mol
Non-thermal (ZPE) correction              0.15032452 Eh      94.33 kcal/mol
-----------------------------------------------------------------------
Total correction                          0.15815488 Eh      99.24 kcal/mol

--------
ENTHALPY
--------

The enthalpy is H = U + kB*T
                kB is Boltzmann's constant
Total free energy                 ...   -288.66266875 Eh
Thermal Enthalpy correction       ...      0.00094421 Eh       0.59 kcal/mol
-----------------------------------------------------------------------
Total Enthalpy                    ...   -288.66172454 Eh

-------
ENTROPY
-------

The entropy contributions are T*S = T*(S(el)+S(vib)+S(rot)+S(trans)
     S(el)   - electronic entropy
     S(vib)  - vibrational entropy
     S(rot)  - rotational entropy
     S(trans)- translational entropy
The entropies will be listed as mutliplied by the temperature to get
units of energy

Electronic entropy                ...      0.00000000 Eh      0.00 kcal/mol
Vibrational entropy               ...      0.00882786 Eh      5.54 kcal/mol
Rotational entropy                ...      0.01220153 Eh      7.66 kcal/mol
Translational entropy             ...      0.01881568 Eh     11.81 kcal/mol
-----------------------------------------------------------------------
Final entropy term                ...      0.03984507 Eh     25.00 kcal/mol

CAUTION: The rotational entropy is not quite correctly treated here
         because it includes a symmetry number that is not yet correctly
         implemented in ORCA!
For a nonlinear molecule the correct rotational entropy is:
    S(rot) = R*(ln(qrot/sn)+1.5)
    R    = 8.31441 J/mol/K = 1.987191683e-3 kcal/mol/K
    qrot = 274165.1656394
    sn is the rotational symmetry number. We have assumed 3 here
       if it is different for your molecule then you should correct
       the printed rotational entropy by manually evaluating the equation
       as given above

For convenience we print out the resulting values for sn=1 - 12:
 sn= 1  qrot/sn=  274165.1656 T*S(rot)=     8.31 kcal/mol T*S(tot)=    25.65 kcal/mol
 sn= 2  qrot/sn=  137082.5828 T*S(rot)=     7.90 kcal/mol T*S(tot)=    25.24 kcal/mol
 sn= 3  qrot/sn=   91388.3885 T*S(rot)=     7.66 kcal/mol T*S(tot)=    25.00 kcal/mol
 sn= 4  qrot/sn=   68541.2914 T*S(rot)=     7.49 kcal/mol T*S(tot)=    24.83 kcal/mol
 sn= 5  qrot/sn=   54833.0331 T*S(rot)=     7.35 kcal/mol T*S(tot)=    24.70 kcal/mol
 sn= 6  qrot/sn=   45694.1943 T*S(rot)=     7.25 kcal/mol T*S(tot)=    24.59 kcal/mol
 sn= 7  qrot/sn=   39166.4522 T*S(rot)=     7.15 kcal/mol T*S(tot)=    24.50 kcal/mol
 sn= 8  qrot/sn=   34270.6457 T*S(rot)=     7.08 kcal/mol T*S(tot)=    24.42 kcal/mol
 sn= 9  qrot/sn=   30462.7962 T*S(rot)=     7.01 kcal/mol T*S(tot)=    24.35 kcal/mol
 sn=10  qrot/sn=   27416.5166 T*S(rot)=     6.94 kcal/mol T*S(tot)=    24.29 kcal/mol
 sn=11  qrot/sn=   24924.1060 T*S(rot)=     6.89 kcal/mol T*S(tot)=    24.23 kcal/mol
 sn=12  qrot/sn=   22847.0971 T*S(rot)=     6.84 kcal/mol T*S(tot)=    24.18 kcal/mol

-------------------
GIBBS FREE ENTHALPY
-------------------

The Gibbs free enthalpy is G = H - T*S

Total enthalpy                    ...   -288.66172454 Eh
Total entropy correction          ...     -0.03984507 Eh    -25.00 kcal/mol
-----------------------------------------------------------------------
Final Gibbs free enthalpy         ...   -288.70156961 Eh

For completeness - the Gibbs free enthalpy minus the electronic energy
G-E(el)                           ...      0.11925401 Eh     74.83 kcal/mol

                             ****ORCA TERMINATED NORMALLY****
TOTAL RUN TIME: 0 days 0 hours 41 minutes 11 seconds 396 msec
