                         Program Version 3.0.3 - RELEASE   -
|  1> ! NORI PBE0 def2-TZVP UseSym TightOPT Freq TightSCF Grid3 FinalGrid5 XYZFile
|  2> % pal
|  3>     nprocs 8
|  4> end
|  5> %method
|  6>     SymThresh 5.0e-2
|  7> end
|  8> % geom
|  9>     MaxIter 10
| 10> end
| 11> % maxcore 2000
| 12> % output
| 13>     printlevel mini
| 14>     print[ P_Basis ] 0
| 15>     print[ P_SCFInfo ] 1
| 16>     print[ P_SCFIterInfo ] 1
| 17>     print[ P_OrbEn ] 0
| 18>     print[ P_Cartesian ] 0
| 19> end
| 20> % elprop
| 21>     Dipole false
| 22> end
| 23> *xyz 1 1
| 24>  C        0.8899869793     0.1994001378    -0.2217064532
| 25>  C        2.3632089933     0.3390075867    -0.0377089156
| 26>  N        3.2497237141    -0.6188333219    -0.7868912004
| 27>  C        3.2574050139     0.8388961264    -1.0935841781
| 28>  C        4.5243418443     1.5983928738    -0.7886727036
| 29>  C        4.1991478893     3.0091755411    -0.6422690295
| 30>  N        3.8954129096     4.1106292670    -0.5315881617
| 31>  H        0.4136648174     1.1243741918     0.1106514354
| 32>  H        0.4933123673    -0.6181980227     0.3816957221
| 33>  H        0.6202236595     0.0430692177    -1.2684310206
| 34>  H        2.7176735744     0.4656337375     0.9813078456
| 35>  H        4.0496310103    -1.0188266954    -0.3073072562
| 36>  H        2.8127448221    -1.2461984170    -1.4546893061
| 37>  H        2.8027091572     1.0506802885    -2.0562680619
| 38>  H        5.2532318672     1.4746050203    -1.5953186465
| 39>  H        4.9858313808     1.2432024684     0.1390799303
| 40> *
| 41>
| 42>                          ****END OF INPUT****
 Total Charge           Charge          ....    1
 Multiplicity           Mult            ....    1
 Number of Electrons    NEL             ....   52
FINAL SINGLE POINT ENERGY      -304.899342985003

CARTESIAN COORDINATES (ANGSTROEM)
---------------------------------
  C     -2.359988   -0.177469    0.922968
  C     -0.983952    0.389879    0.830642
  N     -0.000287    0.000343    1.900842
  C      0.193900   -0.421266    0.485211
  C      1.384542    0.149269   -0.244546
  C      1.134072    0.075608   -1.676108
  N      0.891487    0.001134   -2.795588
  H     -2.840256   -0.072808   -0.052200
  H     -2.961398    0.364836    1.653819
  H     -2.349400   -1.239699    1.177099
  H     -0.907613    1.451523    0.613555
  H      0.611071    0.714196    2.283797
  H     -0.286499   -0.702867    2.574696
  H      0.029666   -1.486451    0.355780
  H      2.291291   -0.413668   -0.004256
  H      1.555377    1.195540    0.031593

FINAL SINGLE POINT ENERGY      -304.899343628114
                    ***********************HURRAY********************
 Multiplicity           Mult            ....    1
 Number of Electrons    NEL             ....   52
 Basis Dimension        Dim             ....  271
FINAL SINGLE POINT ENERGY      -304.899344094900

VIBRATIONAL FREQUENCIES
-----------------------

   0:         0.00 cm**-1
   1:         0.00 cm**-1
   2:         0.00 cm**-1
   3:         0.00 cm**-1
   4:         0.00 cm**-1
   5:         0.00 cm**-1
   6:        62.72 cm**-1
   7:       112.77 cm**-1
   8:       217.43 cm**-1
   9:       257.29 cm**-1
  10:       273.19 cm**-1
  11:       369.37 cm**-1
  12:       407.85 cm**-1
  13:       418.21 cm**-1
  14:       542.48 cm**-1
  15:       764.30 cm**-1
  16:       810.17 cm**-1
  17:       880.12 cm**-1
  18:       892.49 cm**-1
  19:       951.34 cm**-1
  20:       971.74 cm**-1
  21:      1001.67 cm**-1
  22:      1013.60 cm**-1
  23:      1058.15 cm**-1
  24:      1143.78 cm**-1
  25:      1148.42 cm**-1
  26:      1172.40 cm**-1
  27:      1233.14 cm**-1
  28:      1258.54 cm**-1
  29:      1293.38 cm**-1
  30:      1337.35 cm**-1
  31:      1373.71 cm**-1
  32:      1422.41 cm**-1
  33:      1460.54 cm**-1
  34:      1467.94 cm**-1
  35:      1475.01 cm**-1
  36:      1500.06 cm**-1
  37:      1627.01 cm**-1
  38:      2400.81 cm**-1
  39:      3058.32 cm**-1
  40:      3064.17 cm**-1
  41:      3110.16 cm**-1
  42:      3144.28 cm**-1
  43:      3154.95 cm**-1
  44:      3181.33 cm**-1
  45:      3192.39 cm**-1
  46:      3503.48 cm**-1
  47:      3608.89 cm**-1

IR SPECTRUM
-----------

 Mode    freq (cm**-1)   T**2         TX         TY         TZ
-------------------------------------------------------------------
   6:        62.72    3.554415  (  1.722656  -0.471748  -0.603593)
   7:       112.77    3.211304  ( -1.545461  -0.689779   0.589117)
   8:       217.43    0.292438  (  0.059961   0.537005  -0.021659)
   9:       257.29    2.043954  ( -0.312404  -0.301670   1.362113)
  10:       273.19    1.220475  (  0.658377  -0.376204  -0.803421)
  11:       369.37    0.201890  (  0.265195  -0.249484   0.263286)
  12:       407.85    2.579094  (  0.469170   0.146469   1.528895)
  13:       418.21    1.992010  ( -1.242958   0.007645   0.668586)
  14:       542.48    0.611634  (  0.442071  -0.250260  -0.594624)
  15:       764.30    8.444013  (  2.661819   1.127925   0.294137)
  16:       810.17    3.701812  (  0.727866  -0.165696   1.773293)
  17:       880.12   14.984479  (  0.363055   0.206871   3.848360)
  18:       892.49    6.470508  ( -0.495447   1.933833  -1.576493)
  19:       951.34    9.338313  ( -1.482857  -0.035892  -2.671734)
  20:       971.74    1.985711  ( -0.930980   0.055369   1.056372)
  21:      1001.67    2.616027  ( -1.434254   0.241137  -0.707670)
  22:      1013.60   95.975343  (  7.686829  -5.561332  -2.441226)
  23:      1058.15   11.608408  (  1.665368  -0.907697   2.830379)
  24:      1143.78    4.379574  (  0.422906  -0.616791  -1.954557)
  25:      1148.42    7.263237  ( -1.682885   0.878825   1.912799)
  26:      1172.40    1.398000  ( -0.961231  -0.327782  -0.605469)
  27:      1233.14    3.073335  ( -1.713218  -0.324841   0.180825)
  28:      1258.54    0.932144  ( -0.379450  -0.381762   0.801510)
  29:      1293.38    4.066035  (  0.945497  -0.596999  -1.677994)
  30:      1337.35    0.791264  (  0.588355  -0.117331  -0.656761)
  31:      1373.71    2.744998  ( -1.362830  -0.867531   0.367539)
  32:      1422.41   12.357649  (  2.752898   2.049914   0.759641)
  33:      1460.54   13.414885  (  3.022100   1.604736   1.306376)
  34:      1467.94   11.348762  (  1.318482  -2.965673  -0.902857)
  35:      1475.01   10.581347  (  0.701392  -1.325060   2.886799)
  36:      1500.06    7.795095  (  0.121171  -2.768407   0.341077)
  37:      1627.01   78.486257  ( -2.781426  -0.181293  -8.409343)
  38:      2400.81    0.201027  (  0.042923  -0.013876   0.446085)
  39:      3058.32    3.082205  (  1.214584  -0.310978  -1.228936)
  40:      3064.17    2.673393  (  1.067191  -0.742371   0.991656)
  41:      3110.16    1.812827  (  0.840642  -0.868296   0.593473)
  42:      3144.28    1.426976  ( -0.237604  -1.076558  -0.459937)
  43:      3154.95    1.530292  ( -1.012443   0.447194  -0.552511)
  44:      3181.33    1.099229  (  0.902077  -0.124871   0.519513)
  45:      3192.39    4.889510  ( -0.660146   2.026667   0.588505)
  46:      3503.48  117.917706  ( -2.868355   0.089342 -10.472930)
  47:      3608.89  118.231374  ( -5.881924  -8.904121   2.085900)

--------------------------
THERMOCHEMISTRY AT 298.15K
--------------------------

Temperature         ... 298.15 K
Pressure            ... 1.00 atm
Total Mass          ... 97.14 AMU

Throughout the following assumptions are being made:
  (1) The electronic state is orbitally nondegenerate
  (2) There are no thermally accessible electronically excited states
  (3) Hindered rotations indicated by low frequency modes) are not
      treated as such but are treated as vibrations and this may
      case some error
  (4) All equations used are the standard statistical mechanics
      equations for an ideal gas
  (5) All vibrations are strinctly harmonic

------------
INNER ENERGY
------------

The inner energy is: U= E(el) + E(ZPE) + E(vib) + E(rot) + E(trans)
    E(el)   - is the total energy from the electronic structure calculation
              = E(kin-el) + E(nuc-el) + E(el-el) + E(nuc-nuc)
    E(ZPE)  - the the zero temperature vibrational energy from the frequency calculation
    E(vib)  - the the finite temperature correction to E(ZPE) due to population
              of excietd vibrational states
    E(rot)  - is the rotational thermal energy
    E(trans)- is the translational thermal energy

Summary of contributions to the inner energy U:
Electronic energy                ...   -304.89934409 Eh
Zero point energy                ...      0.13973679 Eh      87.69 kcal/mol
Thermal vibrational correction   ...      0.00472714 Eh       2.97 kcal/mol
Thermal rotational correction    ...      0.00141627 Eh       0.89 kcal/mol
Thermal translational correction ...      0.00141627 Eh       0.89 kcal/mol
-----------------------------------------------------------------------
Total thermal energy                   -304.75204762 Eh

Summary of corrections to the electronic energy:
(perhaps to be used in another calculation)
Total thermal correction                  0.00755968 Eh       4.74 kcal/mol
Non-thermal (ZPE) correction              0.13973679 Eh      87.69 kcal/mol
-----------------------------------------------------------------------
Total correction                          0.14729648 Eh      92.43 kcal/mol

--------
ENTHALPY
--------

The enthalpy is H = U + kB*T
                kB is Boltzmann's constant
Total free energy                 ...   -304.75204762 Eh
Thermal Enthalpy correction       ...      0.00094421 Eh       0.59 kcal/mol
-----------------------------------------------------------------------
Total Enthalpy                    ...   -304.75110341 Eh

-------
ENTROPY
-------

The entropy contributions are T*S = T*(S(el)+S(vib)+S(rot)+S(trans)
     S(el)   - electronic entropy
     S(vib)  - vibrational entropy
     S(rot)  - rotational entropy
     S(trans)- translational entropy
The entropies will be listed as mutliplied by the temperature to get
units of energy

Electronic entropy                ...      0.00000000 Eh      0.00 kcal/mol
Vibrational entropy               ...      0.00849235 Eh      5.33 kcal/mol
Rotational entropy                ...      0.01218664 Eh      7.65 kcal/mol
Translational entropy             ...      0.01883016 Eh     11.82 kcal/mol
-----------------------------------------------------------------------
Final entropy term                ...      0.03950914 Eh     24.79 kcal/mol

CAUTION: The rotational entropy is not quite correctly treated here
         because it includes a symmetry number that is not yet correctly
         implemented in ORCA!
For a nonlinear molecule the correct rotational entropy is:
    S(rot) = R*(ln(qrot/sn)+1.5)
    R    = 8.31441 J/mol/K = 1.987191683e-3 kcal/mol/K
    qrot = 269874.0703307
    sn is the rotational symmetry number. We have assumed 3 here
       if it is different for your molecule then you should correct
       the printed rotational entropy by manually evaluating the equation
       as given above

For convenience we print out the resulting values for sn=1 - 12:
 sn= 1  qrot/sn=  269874.0703 T*S(rot)=     8.30 kcal/mol T*S(tot)=    25.44 kcal/mol
 sn= 2  qrot/sn=  134937.0352 T*S(rot)=     7.89 kcal/mol T*S(tot)=    25.03 kcal/mol
 sn= 3  qrot/sn=   89958.0234 T*S(rot)=     7.65 kcal/mol T*S(tot)=    24.79 kcal/mol
 sn= 4  qrot/sn=   67468.5176 T*S(rot)=     7.48 kcal/mol T*S(tot)=    24.62 kcal/mol
 sn= 5  qrot/sn=   53974.8141 T*S(rot)=     7.34 kcal/mol T*S(tot)=    24.49 kcal/mol
 sn= 6  qrot/sn=   44979.0117 T*S(rot)=     7.24 kcal/mol T*S(tot)=    24.38 kcal/mol
 sn= 7  qrot/sn=   38553.4386 T*S(rot)=     7.15 kcal/mol T*S(tot)=    24.29 kcal/mol
 sn= 8  qrot/sn=   33734.2588 T*S(rot)=     7.07 kcal/mol T*S(tot)=    24.21 kcal/mol
 sn= 9  qrot/sn=   29986.0078 T*S(rot)=     7.00 kcal/mol T*S(tot)=    24.14 kcal/mol
 sn=10  qrot/sn=   26987.4070 T*S(rot)=     6.93 kcal/mol T*S(tot)=    24.08 kcal/mol
 sn=11  qrot/sn=   24534.0064 T*S(rot)=     6.88 kcal/mol T*S(tot)=    24.02 kcal/mol
 sn=12  qrot/sn=   22489.5059 T*S(rot)=     6.83 kcal/mol T*S(tot)=    23.97 kcal/mol

-------------------
GIBBS FREE ENTHALPY
-------------------

The Gibbs free enthalpy is G = H - T*S

Total enthalpy                    ...   -304.75110341 Eh
Total entropy correction          ...     -0.03950914 Eh    -24.79 kcal/mol
-----------------------------------------------------------------------
Final Gibbs free enthalpy         ...   -304.79061255 Eh

For completeness - the Gibbs free enthalpy minus the electronic energy
G-E(el)                           ...      0.10873154 Eh     68.23 kcal/mol

                             ****ORCA TERMINATED NORMALLY****
TOTAL RUN TIME: 0 days 0 hours 37 minutes 51 seconds 86 msec
