                         Program Version 3.0.3 - RELEASE   -
|  1> ! NORI PBE0 def2-TZVP UseSym TightOPT Freq TightSCF Grid3 FinalGrid5 XYZFile
|  2> % pal
|  3>     nprocs 8
|  4> end
|  5> %method
|  6>     SymThresh 5.0e-2
|  7> end
|  8> % geom
|  9>     MaxIter 10
| 10> end
| 11> % maxcore 2000
| 12> % output
| 13>     printlevel mini
| 14>     print[ P_Basis ] 0
| 15>     print[ P_SCFInfo ] 1
| 16>     print[ P_SCFIterInfo ] 1
| 17>     print[ P_OrbEn ] 0
| 18>     print[ P_Cartesian ] 0
| 19> end
| 20> % elprop
| 21>     Dipole false
| 22> end
| 23> *xyz 1 1
| 24>  C        0.9286817690     0.0552671318     0.0041002173
| 25>  C        2.4293380386     0.1507060525     0.0885010897
| 26>  N        3.0310378607    -0.9645116021     0.9726660168
| 27>  C        3.8398782614    -0.1571025103     1.9621586294
| 28>  C        4.5000291805     0.8610478577     1.0256599576
| 29>  C        3.0386460290     1.3321101215     0.8399421699
| 30>  C        2.8347892832     0.9399712949     2.3232263157
| 31>  H        0.5588523098     0.8655901469    -0.6265974317
| 32>  H        0.4481295915     0.1485100084     0.9799597278
| 33>  H        0.6102382941    -0.8824073594    -0.4574331021
| 34>  H        2.8762408405     0.0373215790    -0.9009773034
| 35>  H        3.6097861435    -1.6105491913     0.4375426492
| 36>  H        2.2990999228    -1.5075621577     1.4306204561
| 37>  H        4.3622128330    -0.7926455303     2.6738576718
| 38>  H        5.1038315734     1.5724556075     1.5849737554
| 39>  H        5.0534722864     0.4949089505     0.1578074859
| 40>  H        2.7860478721     2.3157844133     0.4540362668
| 41>  H        1.8452257699     0.6552696623     2.6832319121
| 42>  H        3.2815421406     1.6637955251     3.0017535156
| 43> *
| 44>
| 45>                          ****END OF INPUT****
 Total Charge           Charge          ....    1
 Multiplicity           Mult            ....    1
 Number of Electrons    NEL             ....   54
FINAL SINGLE POINT ENERGY      -290.104563752483

CARTESIAN COORDINATES (ANGSTROEM)
---------------------------------
  C      2.244836   -0.000048    0.086470
  C      0.864784    0.602062    0.122516
  N     -0.000174    0.000004    1.252711
  C     -1.217215   -0.461272    0.483614
  C     -1.445964    0.743641   -0.435852
  C     -0.090469    0.291277   -1.027515
  C     -0.553430   -1.151357   -0.711244
  H      2.807444    0.457232   -0.729187
  H      2.226200   -1.077971   -0.087098
  H      2.795275    0.199443    1.008716
  H      0.920204    1.675524    0.312694
  H     -0.233712    0.687768    1.967529
  H      0.478695   -0.775646    1.710458
  H     -1.963571   -0.909437    1.135727
  H     -2.280143    0.566759   -1.111265
  H     -1.524562    1.737654    0.010490
  H      0.247131    0.595216   -2.014523
  H      0.183292   -1.934984   -0.528456
  H     -1.301710   -1.504068   -1.417756

FINAL SINGLE POINT ENERGY      -290.104564585540
                    ***********************HURRAY********************
 Multiplicity           Mult            ....    1
 Number of Electrons    NEL             ....   54
 Basis Dimension        Dim             ....  289
FINAL SINGLE POINT ENERGY      -290.104565041520

VIBRATIONAL FREQUENCIES
-----------------------

   0:         0.00 cm**-1
   1:         0.00 cm**-1
   2:         0.00 cm**-1
   3:         0.00 cm**-1
   4:         0.00 cm**-1
   5:         0.00 cm**-1
   6:       204.81 cm**-1
   7:       224.89 cm**-1
   8:       296.33 cm**-1
   9:       425.83 cm**-1
  10:       485.35 cm**-1
  11:       519.67 cm**-1
  12:       641.73 cm**-1
  13:       774.31 cm**-1
  14:       816.98 cm**-1
  15:       847.53 cm**-1
  16:       861.83 cm**-1
  17:       875.09 cm**-1
  18:       915.48 cm**-1
  19:       927.00 cm**-1
  20:       950.92 cm**-1
  21:       978.88 cm**-1
  22:      1021.09 cm**-1
  23:      1039.44 cm**-1
  24:      1062.01 cm**-1
  25:      1080.08 cm**-1
  26:      1097.96 cm**-1
  27:      1127.91 cm**-1
  28:      1142.27 cm**-1
  29:      1178.92 cm**-1
  30:      1222.97 cm**-1
  31:      1234.72 cm**-1
  32:      1260.97 cm**-1
  33:      1273.98 cm**-1
  34:      1303.26 cm**-1
  35:      1316.20 cm**-1
  36:      1351.14 cm**-1
  37:      1362.53 cm**-1
  38:      1397.35 cm**-1
  39:      1422.32 cm**-1
  40:      1476.80 cm**-1
  41:      1484.15 cm**-1
  42:      1491.19 cm**-1
  43:      1513.77 cm**-1
  44:      1648.72 cm**-1
  45:      3062.37 cm**-1
  46:      3088.85 cm**-1
  47:      3102.07 cm**-1
  48:      3107.12 cm**-1
  49:      3141.62 cm**-1
  50:      3149.68 cm**-1
  51:      3168.25 cm**-1
  52:      3175.17 cm**-1
  53:      3177.42 cm**-1
  54:      3181.73 cm**-1
  55:      3463.05 cm**-1
  56:      3529.56 cm**-1

IR SPECTRUM
-----------

 Mode    freq (cm**-1)   T**2         TX         TY         TZ
-------------------------------------------------------------------
   6:       204.81    0.981416  (  0.258271  -0.952341  -0.088081)
   7:       224.89    0.652743  ( -0.161594   0.749461   0.254831)
   8:       296.33    1.247127  (  0.821754   0.628511  -0.420501)
   9:       425.83    4.379822  (  1.143414  -1.727533  -0.296741)
  10:       485.35    0.144511  (  0.359461  -0.024341   0.121267)
  11:       519.67    0.449440  ( -0.142362   0.056344   0.652685)
  12:       641.73    4.096854  ( -0.583372  -0.528548  -1.864717)
  13:       774.31    4.420684  (  1.794112  -0.167659  -1.083392)
  14:       816.98    1.465892  (  0.327167   0.844876  -0.803143)
  15:       847.53    5.431801  ( -0.664714  -0.189767   2.225746)
  16:       861.83    2.209486  (  0.681770  -1.237589   0.461573)
  17:       875.09    0.369753  (  0.285887  -0.499230  -0.196955)
  18:       915.48    1.771402  (  1.141151  -0.187149  -0.658903)
  19:       927.00    0.593886  ( -0.518177   0.277907  -0.498143)
  20:       950.92    7.641261  (  2.500744   0.956048   0.688123)
  21:       978.88    2.793078  ( -1.194895   0.625650   0.986847)
  22:      1021.09    4.767921  ( -1.172863  -1.279354   1.324978)
  23:      1039.44    5.991223  (  0.902872  -0.466331   2.226787)
  24:      1062.01    7.520949  (  2.318065   1.236345  -0.786750)
  25:      1080.08    2.041296  (  0.421235  -0.537498   1.254971)
  26:      1097.96    0.692701  ( -0.735341   0.387826  -0.039559)
  27:      1127.91    7.119191  (  0.677422   2.485227  -0.695655)
  28:      1142.27    2.633877  ( -0.735439  -0.227269  -1.428760)
  29:      1178.92    6.620811  ( -1.467648   2.084822   0.346895)
  30:      1222.97   10.501821  ( -3.116891   0.316337   0.828700)
  31:      1234.72    1.741204  ( -1.204551   0.347459   0.411746)
  32:      1260.97   18.583610  ( -3.823378  -1.923881  -0.513881)
  33:      1273.98   19.570450  ( -2.749857  -1.721026   3.007791)
  34:      1303.26    2.608680  (  1.118395   0.026938   1.164967)
  35:      1316.20    2.121122  (  0.115276  -1.012371  -1.040644)
  36:      1351.14    3.229820  (  1.221857   1.297558   0.230712)
  37:      1362.53   41.490662  (  5.205222   3.179996  -2.069771)
  38:      1397.35   20.949190  (  4.003956   1.569640  -1.566446)
  39:      1422.32   12.538391  (  3.264764  -1.334023  -0.316363)
  40:      1476.80    5.098809  ( -1.423824   1.740930   0.201737)
  41:      1484.15    9.312386  (  0.007196   0.385020  -3.027225)
  42:      1491.19   20.270877  ( -0.530502   4.417377   0.690092)
  43:      1513.77    8.983476  (  1.663440   1.112211   2.231463)
  44:      1648.72   54.439733  ( -1.146755   0.845524  -7.239460)
  45:      3062.37    1.512405  ( -0.149785   0.854938  -0.871235)
  46:      3088.85    8.908814  (  0.763681  -2.678769  -1.072288)
  47:      3102.07    9.465723  ( -1.818766   2.448144  -0.405466)
  48:      3107.12    1.318220  ( -0.155448  -1.090170  -0.324939)
  49:      3141.62    4.687726  (  0.971268   1.564478   1.138760)
  50:      3149.68    2.002300  ( -0.316419   1.372471   0.136027)
  51:      3168.25    2.836036  (  0.858315   0.502590  -1.358946)
  52:      3175.17    4.384459  (  0.552628  -2.007411  -0.222177)
  53:      3177.42    1.581504  ( -1.197127  -0.165755   0.347730)
  54:      3181.73    0.274264  ( -0.383275   0.331048  -0.133307)
  55:      3463.05   50.576814  ( -1.019251   1.028596  -6.962753)
  56:      3529.56   64.646533  (  3.400587  -6.905623  -2.322694)

--------------------------
THERMOCHEMISTRY AT 298.15K
--------------------------

Temperature         ... 298.15 K
Pressure            ... 1.00 atm
Total Mass          ... 98.17 AMU

Throughout the following assumptions are being made:
  (1) The electronic state is orbitally nondegenerate
  (2) There are no thermally accessible electronically excited states
  (3) Hindered rotations indicated by low frequency modes) are not
      treated as such but are treated as vibrations and this may
      case some error
  (4) All equations used are the standard statistical mechanics
      equations for an ideal gas
  (5) All vibrations are strinctly harmonic

------------
INNER ENERGY
------------

The inner energy is: U= E(el) + E(ZPE) + E(vib) + E(rot) + E(trans)
    E(el)   - is the total energy from the electronic structure calculation
              = E(kin-el) + E(nuc-el) + E(el-el) + E(nuc-nuc)
    E(ZPE)  - the the zero temperature vibrational energy from the frequency calculation
    E(vib)  - the the finite temperature correction to E(ZPE) due to population
              of excietd vibrational states
    E(rot)  - is the rotational thermal energy
    E(trans)- is the translational thermal energy

Summary of contributions to the inner energy U:
Electronic energy                ...   -290.10456504 Eh
Zero point energy                ...      0.17907141 Eh     112.37 kcal/mol
Thermal vibrational correction   ...      0.00324118 Eh       2.03 kcal/mol
Thermal rotational correction    ...      0.00141627 Eh       0.89 kcal/mol
Thermal translational correction ...      0.00141627 Eh       0.89 kcal/mol
-----------------------------------------------------------------------
Total thermal energy                   -289.91941990 Eh

Summary of corrections to the electronic energy:
(perhaps to be used in another calculation)
Total thermal correction                  0.00607373 Eh       3.81 kcal/mol
Non-thermal (ZPE) correction              0.17907141 Eh     112.37 kcal/mol
-----------------------------------------------------------------------
Total correction                          0.18514514 Eh     116.18 kcal/mol

--------
ENTHALPY
--------

The enthalpy is H = U + kB*T
                kB is Boltzmann's constant
Total free energy                 ...   -289.91941990 Eh
Thermal Enthalpy correction       ...      0.00094421 Eh       0.59 kcal/mol
-----------------------------------------------------------------------
Total Enthalpy                    ...   -289.91847569 Eh

-------
ENTROPY
-------

The entropy contributions are T*S = T*(S(el)+S(vib)+S(rot)+S(trans)
     S(el)   - electronic entropy
     S(vib)  - vibrational entropy
     S(rot)  - rotational entropy
     S(trans)- translational entropy
The entropies will be listed as mutliplied by the temperature to get
units of energy

Electronic entropy                ...      0.00000000 Eh      0.00 kcal/mol
Vibrational entropy               ...      0.00486366 Eh      3.05 kcal/mol
Rotational entropy                ...      0.01171887 Eh      7.35 kcal/mol
Translational entropy             ...      0.01884507 Eh     11.83 kcal/mol
-----------------------------------------------------------------------
Final entropy term                ...      0.03542760 Eh     22.23 kcal/mol

CAUTION: The rotational entropy is not quite correctly treated here
         because it includes a symmetry number that is not yet correctly
         implemented in ORCA!
For a nonlinear molecule the correct rotational entropy is:
    S(rot) = R*(ln(qrot/sn)+1.5)
    R    = 8.31441 J/mol/K = 1.987191683e-3 kcal/mol/K
    qrot = 164438.8618149
    sn is the rotational symmetry number. We have assumed 3 here
       if it is different for your molecule then you should correct
       the printed rotational entropy by manually evaluating the equation
       as given above

For convenience we print out the resulting values for sn=1 - 12:
 sn= 1  qrot/sn=  164438.8618 T*S(rot)=     8.00 kcal/mol T*S(tot)=    22.88 kcal/mol
 sn= 2  qrot/sn=   82219.4309 T*S(rot)=     7.59 kcal/mol T*S(tot)=    22.47 kcal/mol
 sn= 3  qrot/sn=   54812.9539 T*S(rot)=     7.35 kcal/mol T*S(tot)=    22.23 kcal/mol
 sn= 4  qrot/sn=   41109.7155 T*S(rot)=     7.18 kcal/mol T*S(tot)=    22.06 kcal/mol
 sn= 5  qrot/sn=   32887.7724 T*S(rot)=     7.05 kcal/mol T*S(tot)=    21.93 kcal/mol
 sn= 6  qrot/sn=   27406.4770 T*S(rot)=     6.94 kcal/mol T*S(tot)=    21.82 kcal/mol
 sn= 7  qrot/sn=   23491.2660 T*S(rot)=     6.85 kcal/mol T*S(tot)=    21.73 kcal/mol
 sn= 8  qrot/sn=   20554.8577 T*S(rot)=     6.77 kcal/mol T*S(tot)=    21.65 kcal/mol
 sn= 9  qrot/sn=   18270.9846 T*S(rot)=     6.70 kcal/mol T*S(tot)=    21.58 kcal/mol
 sn=10  qrot/sn=   16443.8862 T*S(rot)=     6.64 kcal/mol T*S(tot)=    21.52 kcal/mol
 sn=11  qrot/sn=   14948.9874 T*S(rot)=     6.58 kcal/mol T*S(tot)=    21.46 kcal/mol
 sn=12  qrot/sn=   13703.2385 T*S(rot)=     6.53 kcal/mol T*S(tot)=    21.41 kcal/mol

-------------------
GIBBS FREE ENTHALPY
-------------------

The Gibbs free enthalpy is G = H - T*S

Total enthalpy                    ...   -289.91847569 Eh
Total entropy correction          ...     -0.03542760 Eh    -22.23 kcal/mol
-----------------------------------------------------------------------
Final Gibbs free enthalpy         ...   -289.95390330 Eh

For completeness - the Gibbs free enthalpy minus the electronic energy
G-E(el)                           ...      0.15066174 Eh     94.54 kcal/mol

                             ****ORCA TERMINATED NORMALLY****
TOTAL RUN TIME: 0 days 0 hours 54 minutes 17 seconds 830 msec
