                         Program Version 3.0.3 - RELEASE   -
|  1> ! NORI PBE0 def2-TZVP UseSym TightOPT Freq TightSCF Grid3 FinalGrid5 XYZFile
|  2> % pal
|  3>     nprocs 8
|  4> end
|  5> %method
|  6>     SymThresh 5.0e-2
|  7> end
|  8> % geom
|  9>     MaxIter 10
| 10> end
| 11> % maxcore 2000
| 12> % output
| 13>     printlevel mini
| 14>     print[ P_Basis ] 0
| 15>     print[ P_SCFInfo ] 1
| 16>     print[ P_SCFIterInfo ] 1
| 17>     print[ P_OrbEn ] 0
| 18>     print[ P_Cartesian ] 0
| 19> end
| 20> % elprop
| 21>     Dipole false
| 22> end
| 23> *xyz 1 1
| 24>  C        0.9368009083    -0.0613623055     0.0231944769
| 25>  C        2.4270058881     0.0409407418     0.0114543460
| 26>  N        3.2153365944    -0.6675816064    -1.0520820239
| 27>  C        2.6183226295    -1.4265699729    -2.1552137484
| 28>  C        3.2380676154     0.8418242347    -0.9393840835
| 29>  C        2.6127062833     1.6132042450    -2.0634789824
| 30>  C        4.5612157307     1.3741319275    -0.4642351845
| 31>  H        0.5580861905     0.6644643565     0.7457144113
| 32>  H        0.6171505491    -1.0503563357     0.3561961356
| 33>  H        0.4701018047     0.1583966103    -0.9350901727
| 34>  H        2.8872463967    -0.1164202193     0.9828993403
| 35>  H        4.0660638833    -1.0956882213    -0.7032631056
| 36>  H        1.6630033613    -0.9977091766    -2.4369444570
| 37>  H        2.4668903863    -2.4550517790    -1.8288005428
| 38>  H        3.2952785283    -1.4040880739    -3.0085531469
| 39>  H        3.2829667359     1.6480468074    -2.9246682479
| 40>  H        2.4619589848     2.6399245713    -1.7245541666
| 41>  H        1.6462971752     1.2316633711    -2.3844417663
| 42>  H        5.2682799202     1.4640550516    -1.2914549508
| 43>  H        5.0019102836     0.7483055610     0.3160292615
| 44>  H        4.4138501506     2.3692902122    -0.0407333922
| 45> *
| 46>
| 47>                          ****END OF INPUT****
 Total Charge           Charge          ....    1
 Multiplicity           Mult            ....    1
 Number of Electrons    NEL             ....   56
FINAL SINGLE POINT ENERGY      -291.313942626951
FINAL SINGLE POINT ENERGY      -291.313945205737
FINAL SINGLE POINT ENERGY      -291.313947472177
FINAL SINGLE POINT ENERGY      -291.313948996175
FINAL SINGLE POINT ENERGY      -291.313951215523
FINAL SINGLE POINT ENERGY      -291.313952723813
FINAL SINGLE POINT ENERGY      -291.313953913438

CARTESIAN COORDINATES (ANGSTROEM)
---------------------------------
  C      2.041079   -0.000961   -0.598327
  C      0.818297   -0.674076   -0.066235
  N     -0.002942    0.001701    0.994184
  C      0.274979    1.339257    1.525276
  C     -0.584984   -0.298597   -0.370564
  C     -0.920287    0.878103   -1.238007
  C     -1.628954   -1.379182   -0.338372
  H      2.375601   -0.559391   -1.474993
  H      2.850227   -0.028918    0.133719
  H      1.878979    1.029257   -0.909006
  H      0.964977   -1.720067    0.187483
  H     -0.337673   -0.636504    1.707868
  H      0.673249    1.981794    0.747308
  H      1.005688    1.251964    2.328845
  H     -0.650497    1.765478    1.910636
  H     -1.862844    1.330656   -0.924077
  H     -1.054327    0.516313   -2.259308
  H     -0.152103    1.647648   -1.264083
  H     -2.602857   -0.976150   -0.053500
  H     -1.365094   -2.189568    0.345762
  H     -1.725049   -1.811732   -1.335997

FINAL SINGLE POINT ENERGY      -291.313954397794
                    ***********************HURRAY********************
 Multiplicity           Mult            ....    1
 Number of Electrons    NEL             ....   56
 Basis Dimension        Dim             ....  301
FINAL SINGLE POINT ENERGY      -291.313954647262

VIBRATIONAL FREQUENCIES
-----------------------

   0:         0.00 cm**-1
   1:         0.00 cm**-1
   2:         0.00 cm**-1
   3:         0.00 cm**-1
   4:         0.00 cm**-1
   5:         0.00 cm**-1
   6:       104.17 cm**-1
   7:       154.76 cm**-1
   8:       163.86 cm**-1
   9:       203.84 cm**-1
  10:       227.74 cm**-1
  11:       235.74 cm**-1
  12:       285.30 cm**-1
  13:       296.64 cm**-1
  14:       367.06 cm**-1
  15:       471.35 cm**-1
  16:       477.10 cm**-1
  17:       533.69 cm**-1
  18:       669.41 cm**-1
  19:       742.55 cm**-1
  20:       787.70 cm**-1
  21:       957.83 cm**-1
  22:       965.90 cm**-1
  23:       978.55 cm**-1
  24:       991.47 cm**-1
  25:      1046.19 cm**-1
  26:      1054.41 cm**-1
  27:      1102.34 cm**-1
  28:      1129.40 cm**-1
  29:      1149.76 cm**-1
  30:      1164.68 cm**-1
  31:      1191.84 cm**-1
  32:      1216.01 cm**-1
  33:      1312.49 cm**-1
  34:      1356.38 cm**-1
  35:      1411.41 cm**-1
  36:      1421.31 cm**-1
  37:      1425.69 cm**-1
  38:      1437.33 cm**-1
  39:      1454.78 cm**-1
  40:      1461.31 cm**-1
  41:      1472.54 cm**-1
  42:      1474.40 cm**-1
  43:      1477.69 cm**-1
  44:      1483.79 cm**-1
  45:      1492.66 cm**-1
  46:      1497.63 cm**-1
  47:      1499.90 cm**-1
  48:      1527.36 cm**-1
  49:      3057.79 cm**-1
  50:      3074.39 cm**-1
  51:      3076.43 cm**-1
  52:      3092.56 cm**-1
  53:      3137.54 cm**-1
  54:      3143.83 cm**-1
  55:      3144.97 cm**-1
  56:      3148.50 cm**-1
  57:      3162.57 cm**-1
  58:      3174.33 cm**-1
  59:      3175.46 cm**-1
  60:      3180.76 cm**-1
  61:      3217.13 cm**-1
  62:      3545.92 cm**-1

IR SPECTRUM
-----------

 Mode    freq (cm**-1)   T**2         TX         TY         TZ
-------------------------------------------------------------------
   6:       104.17    0.177626  ( -0.401848   0.114495  -0.055097)
   7:       154.76    0.005418  (  0.066295  -0.028345  -0.014831)
   8:       163.86    0.027291  (  0.078569  -0.087390   0.116106)
   9:       203.84    0.070560  ( -0.246288   0.045208   0.088649)
  10:       227.74    0.123579  ( -0.020494  -0.329509   0.120759)
  11:       235.74    0.055114  ( -0.106832   0.135118   0.159511)
  12:       285.30    0.075278  ( -0.098652   0.056715   0.249659)
  13:       296.64    0.171806  (  0.177389  -0.373018   0.034589)
  14:       367.06    0.478423  (  0.392041   0.152188   0.549150)
  15:       471.35    0.659787  (  0.479519  -0.400999  -0.518699)
  16:       477.10    2.907945  ( -1.285908   0.143591  -1.110750)
  17:       533.69    2.672685  (  1.096572  -1.061599  -0.585852)
  18:       669.41    4.526258  ( -1.954003  -0.303079  -0.785030)
  19:       742.55   15.561238  ( -0.150143   1.402769   3.683875)
  20:       787.70    2.776714  (  0.142060   0.651630  -1.527060)
  21:       957.83    1.605267  (  0.545159  -0.604275   0.971041)
  22:       965.90   16.974939  (  3.867741  -1.114425   0.879531)
  23:       978.55    4.079713  ( -1.496096  -0.961805  -0.957257)
  24:       991.47    0.915864  ( -0.293673  -0.759411  -0.502906)
  25:      1046.19   16.764108  ( -3.726665  -0.180746  -1.686240)
  26:      1054.41    3.621589  (  1.131456   0.467587   1.456969)
  27:      1102.34    8.342506  (  0.615197   0.162635   2.817373)
  28:      1129.40    0.952014  (  0.662602  -0.554234  -0.453649)
  29:      1149.76   52.366336  ( -0.504375   3.990363   6.015725)
  30:      1164.68    0.343454  ( -0.564905  -0.110790  -0.109824)
  31:      1191.84    6.912315  ( -2.566523   0.462332  -0.333955)
  32:      1216.01    7.097406  ( -1.818843   1.779111   0.789924)
  33:      1312.49    5.914864  ( -2.192929  -0.937444  -0.476579)
  34:      1356.38    0.504555  ( -0.140127   0.581779   0.382692)
  35:      1411.41    7.026685  ( -2.573334  -0.098348   0.628461)
  36:      1421.31   17.538369  ( -0.727427  -3.129233   2.686470)
  37:      1425.69   13.475468  ( -2.280416  -1.784769  -2.256051)
  38:      1437.33    2.704101  (  1.306851   0.319931  -0.945455)
  39:      1454.78    4.644034  ( -0.782422  -1.858936  -0.759084)
  40:      1461.31    2.717859  (  0.956584  -1.253087  -0.482264)
  41:      1472.54    2.761303  (  1.522245   0.666109  -0.019235)
  42:      1474.40   11.097562  (  0.952155   3.185843  -0.203385)
  43:      1477.69   20.497455  ( -1.182412  -4.355656  -0.357241)
  44:      1483.79   15.179549  (  2.740315  -2.717031   0.536625)
  45:      1492.66   17.705213  (  1.532721   0.911825   3.811109)
  46:      1497.63   22.511286  ( -3.234196   2.138755   2.734409)
  47:      1499.90   18.779494  ( -1.702903   0.472685  -3.956790)
  48:      1527.36   21.854566  ( -1.117690  -0.334326   4.526981)
  49:      3057.79    2.051444  (  0.212737   0.832861  -1.145657)
  50:      3074.39    0.086956  ( -0.188651  -0.204226  -0.098280)
  51:      3076.43    1.117497  ( -0.006178   0.949362   0.464941)
  52:      3092.56    1.331016  (  0.198196   0.960535   0.607542)
  53:      3137.54    5.030611  (  1.288963  -1.378277   1.212245)
  54:      3143.83    0.193337  (  0.192243  -0.379392   0.111539)
  55:      3144.97    0.685079  (  0.810156   0.166064   0.033888)
  56:      3148.50    1.265769  (  1.060289  -0.315034  -0.205696)
  57:      3162.57    1.151175  ( -0.916350   0.557807  -0.018157)
  58:      3174.33    2.780609  ( -1.498274  -0.638390  -0.358110)
  59:      3175.46    0.010816  ( -0.079058  -0.057896  -0.034834)
  60:      3180.76    4.886417  ( -0.779952  -1.999359   0.529770)
  61:      3217.13    0.464937  ( -0.261513  -0.554784   0.297931)
  62:      3545.92   66.224859  (  2.600675   4.064710  -6.552822)

--------------------------
THERMOCHEMISTRY AT 298.15K
--------------------------

Temperature         ... 298.15 K
Pressure            ... 1.00 atm
Total Mass          ... 100.18 AMU

Throughout the following assumptions are being made:
  (1) The electronic state is orbitally nondegenerate
  (2) There are no thermally accessible electronically excited states
  (3) Hindered rotations indicated by low frequency modes) are not
      treated as such but are treated as vibrations and this may
      case some error
  (4) All equations used are the standard statistical mechanics
      equations for an ideal gas
  (5) All vibrations are strinctly harmonic

------------
INNER ENERGY
------------

The inner energy is: U= E(el) + E(ZPE) + E(vib) + E(rot) + E(trans)
    E(el)   - is the total energy from the electronic structure calculation
              = E(kin-el) + E(nuc-el) + E(el-el) + E(nuc-nuc)
    E(ZPE)  - the the zero temperature vibrational energy from the frequency calculation
    E(vib)  - the the finite temperature correction to E(ZPE) due to population
              of excietd vibrational states
    E(rot)  - is the rotational thermal energy
    E(trans)- is the translational thermal energy

Summary of contributions to the inner energy U:
Electronic energy                ...   -291.31395465 Eh
Zero point energy                ...      0.19639662 Eh     123.24 kcal/mol
Thermal vibrational correction   ...      0.00620316 Eh       3.89 kcal/mol
Thermal rotational correction    ...      0.00141627 Eh       0.89 kcal/mol
Thermal translational correction ...      0.00141627 Eh       0.89 kcal/mol
-----------------------------------------------------------------------
Total thermal energy                   -291.10852233 Eh

Summary of corrections to the electronic energy:
(perhaps to be used in another calculation)
Total thermal correction                  0.00903570 Eh       5.67 kcal/mol
Non-thermal (ZPE) correction              0.19639662 Eh     123.24 kcal/mol
-----------------------------------------------------------------------
Total correction                          0.20543232 Eh     128.91 kcal/mol

--------
ENTHALPY
--------

The enthalpy is H = U + kB*T
                kB is Boltzmann's constant
Total free energy                 ...   -291.10852233 Eh
Thermal Enthalpy correction       ...      0.00094421 Eh       0.59 kcal/mol
-----------------------------------------------------------------------
Total Enthalpy                    ...   -291.10757812 Eh

-------
ENTROPY
-------

The entropy contributions are T*S = T*(S(el)+S(vib)+S(rot)+S(trans)
     S(el)   - electronic entropy
     S(vib)  - vibrational entropy
     S(rot)  - rotational entropy
     S(trans)- translational entropy
The entropies will be listed as mutliplied by the temperature to get
units of energy

Electronic entropy                ...      0.00000000 Eh      0.00 kcal/mol
Vibrational entropy               ...      0.01060018 Eh      6.65 kcal/mol
Rotational entropy                ...      0.01205415 Eh      7.56 kcal/mol
Translational entropy             ...      0.01887386 Eh     11.84 kcal/mol
-----------------------------------------------------------------------
Final entropy term                ...      0.04152819 Eh     26.06 kcal/mol

CAUTION: The rotational entropy is not quite correctly treated here
         because it includes a symmetry number that is not yet correctly
         implemented in ORCA!
For a nonlinear molecule the correct rotational entropy is:
    S(rot) = R*(ln(qrot/sn)+1.5)
    R    = 8.31441 J/mol/K = 1.987191683e-3 kcal/mol/K
    qrot = 234543.3041401
    sn is the rotational symmetry number. We have assumed 3 here
       if it is different for your molecule then you should correct
       the printed rotational entropy by manually evaluating the equation
       as given above

For convenience we print out the resulting values for sn=1 - 12:
 sn= 1  qrot/sn=  234543.3041 T*S(rot)=     8.21 kcal/mol T*S(tot)=    26.71 kcal/mol
 sn= 2  qrot/sn=  117271.6521 T*S(rot)=     7.80 kcal/mol T*S(tot)=    26.30 kcal/mol
 sn= 3  qrot/sn=   78181.1014 T*S(rot)=     7.56 kcal/mol T*S(tot)=    26.06 kcal/mol
 sn= 4  qrot/sn=   58635.8260 T*S(rot)=     7.39 kcal/mol T*S(tot)=    25.89 kcal/mol
 sn= 5  qrot/sn=   46908.6608 T*S(rot)=     7.26 kcal/mol T*S(tot)=    25.76 kcal/mol
 sn= 6  qrot/sn=   39090.5507 T*S(rot)=     7.15 kcal/mol T*S(tot)=    25.65 kcal/mol
 sn= 7  qrot/sn=   33506.1863 T*S(rot)=     7.06 kcal/mol T*S(tot)=    25.56 kcal/mol
 sn= 8  qrot/sn=   29317.9130 T*S(rot)=     6.98 kcal/mol T*S(tot)=    25.48 kcal/mol
 sn= 9  qrot/sn=   26060.3671 T*S(rot)=     6.91 kcal/mol T*S(tot)=    25.41 kcal/mol
 sn=10  qrot/sn=   23454.3304 T*S(rot)=     6.85 kcal/mol T*S(tot)=    25.35 kcal/mol
 sn=11  qrot/sn=   21322.1186 T*S(rot)=     6.79 kcal/mol T*S(tot)=    25.29 kcal/mol
 sn=12  qrot/sn=   19545.2753 T*S(rot)=     6.74 kcal/mol T*S(tot)=    25.24 kcal/mol

-------------------
GIBBS FREE ENTHALPY
-------------------

The Gibbs free enthalpy is G = H - T*S

Total enthalpy                    ...   -291.10757812 Eh
Total entropy correction          ...     -0.04152819 Eh    -26.06 kcal/mol
-----------------------------------------------------------------------
Final Gibbs free enthalpy         ...   -291.14910631 Eh

For completeness - the Gibbs free enthalpy minus the electronic energy
G-E(el)                           ...      0.16484834 Eh    103.44 kcal/mol

                             ****ORCA TERMINATED NORMALLY****
TOTAL RUN TIME: 0 days 1 hours 14 minutes 25 seconds 96 msec
