                         Program Version 3.0.3 - RELEASE   -
|  1> ! NORI PBE0 def2-TZVP UseSym TightOPT Freq TightSCF Grid3 FinalGrid5 XYZFile
|  2> % pal
|  3>     nprocs 8
|  4> end
|  5> %method
|  6>     SymThresh 5.0e-2
|  7> end
|  8> % geom
|  9>     MaxIter 10
| 10> end
| 11> % maxcore 2000
| 12> % output
| 13>     printlevel mini
| 14>     print[ P_Basis ] 0
| 15>     print[ P_SCFInfo ] 1
| 16>     print[ P_SCFIterInfo ] 1
| 17>     print[ P_OrbEn ] 0
| 18>     print[ P_Cartesian ] 0
| 19> end
| 20> % elprop
| 21>     Dipole false
| 22> end
| 23> *xyz 1 1
| 24>  C        0.8589604321     0.0391899627    -0.0356785527
| 25>  C        2.3519088828    -0.0683921619     0.0268403580
| 26>  N        3.0574750281     1.0243424259     0.8339058912
| 27>  C        4.0629653281    -0.0067668309     1.2937242194
| 28>  C        3.0925504407    -1.1356755583     0.8848743483
| 29>  C        2.2785007352    -1.6324587482     2.0689857354
| 30>  C        3.7002183486    -2.2795967636     0.1031264390
| 31>  H        0.5473900895     0.9371589846    -0.5745212314
| 32>  H        0.3983813997     0.0408443935     0.9539614553
| 33>  H        0.4643728904    -0.8187837779    -0.5842867366
| 34>  H        2.7969271047    -0.0259174156    -0.9697544585
| 35>  H        2.4739288789     1.3630626527     1.5980168172
| 36>  H        3.4132522464     1.8293917950     0.3210705745
| 37>  H        4.3333428784     0.1037594659     2.3421996894
| 38>  H        4.9465692675     0.0660652838     0.6616564480
| 39>  H        1.4548337479    -2.2676137601     1.7379055686
| 40>  H        1.8533085036    -0.8232216636     2.6706966907
| 41>  H        2.9117445843    -2.2286904747     2.7290799001
| 42>  H        4.2948397493    -1.9248921732    -0.7422439361
| 43>  H        2.9196369303    -2.9392485518    -0.2827190315
| 44>  H        4.3480625334    -2.8832470843     0.7425998114
| 45> *
| 46>
| 47>                          ****END OF INPUT****
 Total Charge           Charge          ....    1
 Multiplicity           Mult            ....    1
 Number of Electrons    NEL             ....   56
FINAL SINGLE POINT ENERGY      -291.320786776770
FINAL SINGLE POINT ENERGY      -291.320788465665

CARTESIAN COORDINATES (ANGSTROEM)
---------------------------------
  C      2.133383   -0.002130    0.198630
  C      0.731930   -0.503195    0.370526
  N      0.000103    0.000970    1.616923
  C     -1.280901    0.032563    0.814904
  C     -0.462795   -0.003306   -0.493659
  C     -0.259083    1.390905   -1.064543
  C     -0.942687   -0.975014   -1.549065
  H      2.787669   -0.372058    0.991253
  H      2.186375    1.087900    0.173297
  H      2.529553   -0.376463   -0.747659
  H      0.704314   -1.593019    0.439280
  H      0.313080    0.933809    1.883155
  H      0.020702   -0.592611    2.444439
  H     -1.893786    0.905730    1.030478
  H     -1.836646   -0.882771    1.013910
  H      0.491941    1.382972   -1.856306
  H      0.055670    2.123681   -0.314978
  H     -1.193626    1.752310   -1.498020
  H     -1.099675   -1.975999   -1.139950
  H     -0.216457   -1.050475   -2.361565
  H     -1.884529   -0.635991   -1.985784

FINAL SINGLE POINT ENERGY      -291.320789045325
                    ***********************HURRAY********************
 Multiplicity           Mult            ....    1
 Number of Electrons    NEL             ....   56
 Basis Dimension        Dim             ....  301
FINAL SINGLE POINT ENERGY      -291.320789190929

VIBRATIONAL FREQUENCIES
-----------------------

   0:         0.00 cm**-1
   1:         0.00 cm**-1
   2:         0.00 cm**-1
   3:         0.00 cm**-1
   4:         0.00 cm**-1
   5:         0.00 cm**-1
   6:       116.57 cm**-1
   7:       203.24 cm**-1
   8:       224.29 cm**-1
   9:       243.54 cm**-1
  10:       259.51 cm**-1
  11:       286.72 cm**-1
  12:       349.41 cm**-1
  13:       357.49 cm**-1
  14:       413.78 cm**-1
  15:       500.50 cm**-1
  16:       617.04 cm**-1
  17:       713.72 cm**-1
  18:       791.90 cm**-1
  19:       852.35 cm**-1
  20:       891.84 cm**-1
  21:       907.19 cm**-1
  22:       944.07 cm**-1
  23:       963.50 cm**-1
  24:       973.48 cm**-1
  25:      1008.64 cm**-1
  26:      1029.85 cm**-1
  27:      1073.89 cm**-1
  28:      1116.52 cm**-1
  29:      1180.37 cm**-1
  30:      1207.13 cm**-1
  31:      1241.46 cm**-1
  32:      1260.82 cm**-1
  33:      1294.25 cm**-1
  34:      1305.95 cm**-1
  35:      1329.60 cm**-1
  36:      1362.68 cm**-1
  37:      1390.19 cm**-1
  38:      1412.15 cm**-1
  39:      1419.60 cm**-1
  40:      1429.16 cm**-1
  41:      1468.42 cm**-1
  42:      1476.31 cm**-1
  43:      1482.71 cm**-1
  44:      1483.53 cm**-1
  45:      1494.56 cm**-1
  46:      1499.53 cm**-1
  47:      1505.53 cm**-1
  48:      1640.91 cm**-1
  49:      3048.19 cm**-1
  50:      3054.46 cm**-1
  51:      3062.07 cm**-1
  52:      3102.00 cm**-1
  53:      3114.66 cm**-1
  54:      3121.15 cm**-1
  55:      3132.22 cm**-1
  56:      3136.24 cm**-1
  57:      3140.34 cm**-1
  58:      3145.87 cm**-1
  59:      3147.80 cm**-1
  60:      3186.39 cm**-1
  61:      3467.76 cm**-1
  62:      3539.36 cm**-1

IR SPECTRUM
-----------

 Mode    freq (cm**-1)   T**2         TX         TY         TZ
-------------------------------------------------------------------
   6:       116.57    3.524996  ( -0.150290   1.697295  -0.788414)
   7:       203.24    0.093563  ( -0.138971  -0.137818   0.235067)
   8:       224.29    0.546625  (  0.433561  -0.555310   0.224235)
   9:       243.54    0.045619  (  0.083704  -0.125376   0.151304)
  10:       259.51    1.185920  (  0.343836   0.742639  -0.718459)
  11:       286.72    0.935715  (  0.917511  -0.023673  -0.305498)
  12:       349.41    1.277135  (  0.182198  -0.204781   1.096359)
  13:       357.49    0.783135  (  0.718693   0.503056  -0.116409)
  14:       413.78    1.191516  ( -0.874716  -0.171195   0.630143)
  15:       500.50    1.502694  (  0.230999  -0.748444   0.942955)
  16:       617.04    3.742713  ( -0.136036  -1.421743   1.304935)
  17:       713.72    1.826616  (  0.004293   1.207759  -0.606561)
  18:       791.90    4.247796  (  1.724100  -0.961940  -0.591561)
  19:       852.35    3.305310  ( -1.053528  -0.782522   1.258192)
  20:       891.84    2.557142  (  0.021950   0.853052  -1.352391)
  21:       907.19    4.398217  ( -1.964860  -0.008509   0.733123)
  22:       944.07    4.734272  ( -1.623232  -0.055027  -1.447882)
  23:       963.50    0.426677  (  0.386950   0.516680  -0.099942)
  24:       973.48    2.505714  ( -0.789203   1.329671   0.338895)
  25:      1008.64    1.805768  ( -0.516529   0.570189   1.101748)
  26:      1029.85    2.022036  ( -0.950200   1.057845  -0.010946)
  27:      1073.89    9.438682  (  0.088633  -0.023396  -3.070876)
  28:      1116.52    6.069965  (  1.508226  -0.548331  -1.869373)
  29:      1180.37    2.408589  (  0.122508  -0.866195  -1.281907)
  30:      1207.13   27.064189  ( -4.847972   1.313528   1.354991)
  31:      1241.46   15.429136  (  3.861545  -0.165076  -0.700256)
  32:      1260.82    1.345667  ( -0.328300  -0.054594   1.111263)
  33:      1294.25   40.766603  ( -5.949957   1.533705   1.735615)
  34:      1305.95    5.381519  (  1.750472  -1.454991  -0.447624)
  35:      1329.60    4.426947  ( -1.281140   1.511414  -0.707992)
  36:      1362.68    1.592203  ( -0.371351  -0.515995  -1.089977)
  37:      1390.19    3.602465  ( -1.021580  -0.482702   1.525070)
  38:      1412.15   15.412341  (  1.627469   3.457741   0.898728)
  39:      1419.60   14.779839  ( -3.666848   0.595432   0.989710)
  40:      1429.16    9.957953  ( -0.446245  -1.188299   2.889077)
  41:      1468.42    0.799345  ( -0.694566  -0.264370  -0.497024)
  42:      1476.31    5.719513  ( -1.555461   0.538174  -1.735057)
  43:      1482.71   13.646307  ( -1.118168   3.399216   0.917246)
  44:      1483.53    8.994889  ( -2.304606   1.127277  -1.553360)
  45:      1494.56   28.449873  ( -4.419000  -1.240197   2.717393)
  46:      1499.53    8.850598  (  1.582192  -2.485490  -0.411830)
  47:      1505.53    5.376577  (  0.384728  -0.325041   2.263384)
  48:      1640.91   67.572485  ( -1.667054  -2.812355  -7.542153)
  49:      3048.19   10.836875  ( -1.224336  -2.723795  -1.385214)
  50:      3054.46    2.164924  (  0.302951   1.364087   0.460879)
  51:      3062.07    1.991011  (  0.213757   0.952970   1.018414)
  52:      3102.00    1.539767  (  0.523844   1.082397  -0.306222)
  53:      3114.66    2.070257  ( -1.285927  -0.350716   0.541892)
  54:      3121.15   11.774451  ( -1.221302  -1.313893  -2.925159)
  55:      3132.22    9.849013  (  0.537753   2.185065  -2.187539)
  56:      3136.24    2.636085  (  1.458887  -0.670214   0.241967)
  57:      3140.34    3.306012  ( -1.343476   1.015007  -0.686182)
  58:      3145.87    4.279579  ( -1.829419   0.571441   0.778626)
  59:      3147.80    4.015898  ( -0.430734  -1.946826   0.200588)
  60:      3186.39    0.533838  (  0.482007  -0.544456   0.071240)
  61:      3467.76   52.893604  (  1.457787   1.451082   6.975874)
  62:      3539.36   70.945922  (  1.578656   7.582022  -3.311601)

--------------------------
THERMOCHEMISTRY AT 298.15K
--------------------------

Temperature         ... 298.15 K
Pressure            ... 1.00 atm
Total Mass          ... 100.18 AMU

Throughout the following assumptions are being made:
  (1) The electronic state is orbitally nondegenerate
  (2) There are no thermally accessible electronically excited states
  (3) Hindered rotations indicated by low frequency modes) are not
      treated as such but are treated as vibrations and this may
      case some error
  (4) All equations used are the standard statistical mechanics
      equations for an ideal gas
  (5) All vibrations are strinctly harmonic

------------
INNER ENERGY
------------

The inner energy is: U= E(el) + E(ZPE) + E(vib) + E(rot) + E(trans)
    E(el)   - is the total energy from the electronic structure calculation
              = E(kin-el) + E(nuc-el) + E(el-el) + E(nuc-nuc)
    E(ZPE)  - the the zero temperature vibrational energy from the frequency calculation
    E(vib)  - the the finite temperature correction to E(ZPE) due to population
              of excietd vibrational states
    E(rot)  - is the rotational thermal energy
    E(trans)- is the translational thermal energy

Summary of contributions to the inner energy U:
Electronic energy                ...   -291.32078919 Eh
Zero point energy                ...      0.19847950 Eh     124.55 kcal/mol
Thermal vibrational correction   ...      0.00535384 Eh       3.36 kcal/mol
Thermal rotational correction    ...      0.00141627 Eh       0.89 kcal/mol
Thermal translational correction ...      0.00141627 Eh       0.89 kcal/mol
-----------------------------------------------------------------------
Total thermal energy                   -291.11412330 Eh

Summary of corrections to the electronic energy:
(perhaps to be used in another calculation)
Total thermal correction                  0.00818638 Eh       5.14 kcal/mol
Non-thermal (ZPE) correction              0.19847950 Eh     124.55 kcal/mol
-----------------------------------------------------------------------
Total correction                          0.20666589 Eh     129.68 kcal/mol

--------
ENTHALPY
--------

The enthalpy is H = U + kB*T
                kB is Boltzmann's constant
Total free energy                 ...   -291.11412330 Eh
Thermal Enthalpy correction       ...      0.00094421 Eh       0.59 kcal/mol
-----------------------------------------------------------------------
Total Enthalpy                    ...   -291.11317909 Eh

-------
ENTROPY
-------

The entropy contributions are T*S = T*(S(el)+S(vib)+S(rot)+S(trans)
     S(el)   - electronic entropy
     S(vib)  - vibrational entropy
     S(rot)  - rotational entropy
     S(trans)- translational entropy
The entropies will be listed as mutliplied by the temperature to get
units of energy

Electronic entropy                ...      0.00000000 Eh      0.00 kcal/mol
Vibrational entropy               ...      0.00874723 Eh      5.49 kcal/mol
Rotational entropy                ...      0.01199980 Eh      7.53 kcal/mol
Translational entropy             ...      0.01887386 Eh     11.84 kcal/mol
-----------------------------------------------------------------------
Final entropy term                ...      0.03962089 Eh     24.86 kcal/mol

CAUTION: The rotational entropy is not quite correctly treated here
         because it includes a symmetry number that is not yet correctly
         implemented in ORCA!
For a nonlinear molecule the correct rotational entropy is:
    S(rot) = R*(ln(qrot/sn)+1.5)
    R    = 8.31441 J/mol/K = 1.987191683e-3 kcal/mol/K
    qrot = 221423.3015201
    sn is the rotational symmetry number. We have assumed 3 here
       if it is different for your molecule then you should correct
       the printed rotational entropy by manually evaluating the equation
       as given above

For convenience we print out the resulting values for sn=1 - 12:
 sn= 1  qrot/sn=  221423.3015 T*S(rot)=     8.18 kcal/mol T*S(tot)=    25.51 kcal/mol
 sn= 2  qrot/sn=  110711.6508 T*S(rot)=     7.77 kcal/mol T*S(tot)=    25.10 kcal/mol
 sn= 3  qrot/sn=   73807.7672 T*S(rot)=     7.53 kcal/mol T*S(tot)=    24.86 kcal/mol
 sn= 4  qrot/sn=   55355.8254 T*S(rot)=     7.36 kcal/mol T*S(tot)=    24.69 kcal/mol
 sn= 5  qrot/sn=   44284.6603 T*S(rot)=     7.23 kcal/mol T*S(tot)=    24.56 kcal/mol
 sn= 6  qrot/sn=   36903.8836 T*S(rot)=     7.12 kcal/mol T*S(tot)=    24.45 kcal/mol
 sn= 7  qrot/sn=   31631.9002 T*S(rot)=     7.03 kcal/mol T*S(tot)=    24.36 kcal/mol
 sn= 8  qrot/sn=   27677.9127 T*S(rot)=     6.95 kcal/mol T*S(tot)=    24.28 kcal/mol
 sn= 9  qrot/sn=   24602.5891 T*S(rot)=     6.88 kcal/mol T*S(tot)=    24.21 kcal/mol
 sn=10  qrot/sn=   22142.3302 T*S(rot)=     6.82 kcal/mol T*S(tot)=    24.15 kcal/mol
 sn=11  qrot/sn=   20129.3910 T*S(rot)=     6.76 kcal/mol T*S(tot)=    24.09 kcal/mol
 sn=12  qrot/sn=   18451.9418 T*S(rot)=     6.71 kcal/mol T*S(tot)=    24.04 kcal/mol

-------------------
GIBBS FREE ENTHALPY
-------------------

The Gibbs free enthalpy is G = H - T*S

Total enthalpy                    ...   -291.11317909 Eh
Total entropy correction          ...     -0.03962089 Eh    -24.86 kcal/mol
-----------------------------------------------------------------------
Final Gibbs free enthalpy         ...   -291.15279999 Eh

For completeness - the Gibbs free enthalpy minus the electronic energy
G-E(el)                           ...      0.16798921 Eh    105.41 kcal/mol

                             ****ORCA TERMINATED NORMALLY****
TOTAL RUN TIME: 0 days 1 hours 5 minutes 40 seconds 956 msec
