                         Program Version 3.0.3 - RELEASE   -
|  1> ! NORI PBE0 def2-TZVP UseSym TightOPT Freq TightSCF Grid3 FinalGrid5 XYZFile
|  2> % pal
|  3>     nprocs 8
|  4> end
|  5> %method
|  6>     SymThresh 5.0e-2
|  7> end
|  8> % geom
|  9>     MaxIter 10
| 10> end
| 11> % maxcore 2000
| 12> % output
| 13>     printlevel mini
| 14>     print[ P_Basis ] 0
| 15>     print[ P_SCFInfo ] 1
| 16>     print[ P_SCFIterInfo ] 1
| 17>     print[ P_OrbEn ] 0
| 18>     print[ P_Cartesian ] 0
| 19> end
| 20> % elprop
| 21>     Dipole false
| 22> end
| 23> *xyz 1 1
| 24>  C        1.0072335163    -0.0856725807     0.0611264089
| 25>  C        2.5002151107    -0.0020427701    -0.0080836449
| 26>  N        3.1277940870     1.1934439722     0.7213358011
| 27>  C        4.2446443321     0.2839834050     1.1863297246
| 28>  C        3.3860145245    -0.9456646203     0.8398626992
| 29>  C        4.0385843829    -2.0908425736     0.1569671849
| 30>  C        3.9446449362    -3.3465742005     0.5689918661
| 31>  H        0.5255967569     0.7296389468    -0.4830164937
| 32>  H        0.6510135985    -0.0906724229     1.0945578843
| 33>  H        0.6898612510    -1.0228204055    -0.4014803835
| 34>  H        2.8649443248     0.0489095005    -1.0363745093
| 35>  H        2.5402666084     1.5135521805     1.4910085858
| 36>  H        3.3869125228     2.0022524421     0.1588110591
| 37>  H        4.5362259213     0.4575053479     2.2194309753
| 38>  H        5.0984142623     0.4141082019     0.5231104817
| 39>  H        2.8320645518    -1.2873677271     1.7187288550
| 40>  H        4.6208666983    -1.8546227798    -0.7326217840
| 41>  H        3.3768621159    -3.6181093218     1.4531007314
| 42>  H        4.4366904983    -4.1513645948     0.0371545580
| 43> *
| 44>
| 45>                          ****END OF INPUT****
 Total Charge           Charge          ....    1
 Multiplicity           Mult            ....    1
 Number of Electrons    NEL             ....   54
FINAL SINGLE POINT ENERGY      -290.084744214891
FINAL SINGLE POINT ENERGY      -290.084745196377

CARTESIAN COORDINATES (ANGSTROEM)
---------------------------------
  C      2.196935    0.000721    0.541316
  C      0.761776   -0.421598    0.599646
  N      0.000044    0.000451    1.863444
  C     -1.208389    0.292622    1.000182
  C     -0.311452    0.298792   -0.251082
  C     -0.804495   -0.380982   -1.474997
  C     -0.821812    0.181177   -2.674636
  H      2.804098   -0.508241    1.292846
  H      2.305751    1.081745    0.660899
  H      2.596197   -0.264915   -0.439995
  H      0.646698   -1.505400    0.528638
  H      0.397118    0.844254    2.275820
  H     -0.108367   -0.695259    2.599668
  H     -1.730083    1.202647    1.287175
  H     -1.882539   -0.561888    1.044497
  H      0.017260    1.315777   -0.482967
  H     -1.165527   -1.400490   -1.348702
  H     -0.472970    1.196270   -2.836113
  H     -1.188841   -0.354145   -3.541610

FINAL SINGLE POINT ENERGY      -290.084745942161
                    ***********************HURRAY********************
 Multiplicity           Mult            ....    1
 Number of Electrons    NEL             ....   54
 Basis Dimension        Dim             ....  289
FINAL SINGLE POINT ENERGY      -290.084746138157

VIBRATIONAL FREQUENCIES
-----------------------

   0:         0.00 cm**-1
   1:         0.00 cm**-1
   2:         0.00 cm**-1
   3:         0.00 cm**-1
   4:         0.00 cm**-1
   5:         0.00 cm**-1
   6:        87.01 cm**-1
   7:       109.04 cm**-1
   8:       218.16 cm**-1
   9:       238.24 cm**-1
  10:       258.08 cm**-1
  11:       350.88 cm**-1
  12:       410.64 cm**-1
  13:       471.97 cm**-1
  14:       629.08 cm**-1
  15:       668.18 cm**-1
  16:       801.87 cm**-1
  17:       810.59 cm**-1
  18:       872.50 cm**-1
  19:       918.34 cm**-1
  20:       942.16 cm**-1
  21:       970.23 cm**-1
  22:      1001.20 cm**-1
  23:      1006.92 cm**-1
  24:      1023.87 cm**-1
  25:      1065.14 cm**-1
  26:      1115.00 cm**-1
  27:      1131.84 cm**-1
  28:      1163.31 cm**-1
  29:      1220.66 cm**-1
  30:      1256.42 cm**-1
  31:      1272.53 cm**-1
  32:      1290.10 cm**-1
  33:      1308.98 cm**-1
  34:      1319.21 cm**-1
  35:      1334.04 cm**-1
  36:      1367.45 cm**-1
  37:      1393.66 cm**-1
  38:      1418.23 cm**-1
  39:      1465.77 cm**-1
  40:      1479.19 cm**-1
  41:      1481.93 cm**-1
  42:      1493.69 cm**-1
  43:      1644.47 cm**-1
  44:      1726.39 cm**-1
  45:      3055.64 cm**-1
  46:      3083.81 cm**-1
  47:      3107.32 cm**-1
  48:      3119.34 cm**-1
  49:      3139.16 cm**-1
  50:      3143.53 cm**-1
  51:      3148.85 cm**-1
  52:      3162.69 cm**-1
  53:      3192.97 cm**-1
  54:      3256.76 cm**-1
  55:      3465.10 cm**-1
  56:      3537.30 cm**-1

IR SPECTRUM
-----------

 Mode    freq (cm**-1)   T**2         TX         TY         TZ
-------------------------------------------------------------------
   6:        87.01    0.646995  (  0.693449  -0.397892   0.088353)
   7:       109.04    2.920491  (  0.061642  -1.704209   0.111190)
   8:       218.16    0.561578  (  0.731755  -0.154115   0.048590)
   9:       238.24    0.380503  (  0.546237  -0.114589  -0.262674)
  10:       258.08    1.240398  ( -0.154798  -1.011231   0.440281)
  11:       350.88    2.902091  ( -1.684316  -0.105300   0.232556)
  12:       410.64    0.964567  ( -0.678289  -0.138913  -0.696559)
  13:       471.97    1.877010  (  0.500627   0.331837  -1.231368)
  14:       629.08    4.293959  (  1.726535   0.989057  -0.578619)
  15:       668.18   13.879306  ( -3.138817   1.878375   0.706287)
  16:       801.87    2.772504  (  1.114942  -0.073461  -1.234509)
  17:       810.59    1.354627  ( -0.793109   0.845138  -0.106520)
  18:       872.50    6.862784  (  1.345698   1.705163  -1.464343)
  19:       918.34   10.498208  ( -2.930429   1.126501  -0.801117)
  20:       942.16    2.968971  ( -0.530234   0.431784   1.581577)
  21:       970.23    4.336590  (  1.058747  -0.441725   1.737965)
  22:      1001.20    1.034260  ( -0.879015   0.496206  -0.123984)
  23:      1006.92   51.017992  ( -6.584919   2.444342   1.296931)
  24:      1023.87    4.936239  (  2.080649  -0.713867  -0.312302)
  25:      1065.14   12.598185  ( -1.148184   0.755906   3.272379)
  26:      1115.00    2.548131  (  0.565623  -0.872186  -1.211401)
  27:      1131.84    4.385890  ( -0.358288  -1.135117   1.723087)
  28:      1163.31    7.180951  (  1.816391  -0.591185  -1.879409)
  29:      1220.66    1.131050  ( -0.580841  -0.810503   0.369808)
  30:      1256.42   50.335670  ( -6.761005   1.778832   1.208401)
  31:      1272.53    2.642888  (  1.152435  -0.619276  -0.965028)
  32:      1290.10    7.414903  (  2.080016  -1.056158  -1.404624)
  33:      1308.98   15.310931  ( -3.054748   2.419906   0.351426)
  34:      1319.21   12.156727  (  2.965472  -1.833758   0.005934)
  35:      1334.04    5.435911  (  0.806260   1.136529  -1.869267)
  36:      1367.45    2.653467  (  1.075757   0.449993  -1.137418)
  37:      1393.66    4.600260  ( -1.911783   0.781755   0.578104)
  38:      1418.23   19.131744  ( -4.093848  -0.743208   1.348998)
  39:      1465.77    9.339379  (  0.438391   1.772920  -2.450295)
  40:      1479.19    8.647381  ( -0.853357   1.993528  -1.986205)
  41:      1481.93   12.533227  ( -1.254103   2.756633   1.833419)
  42:      1493.69   12.726748  (  2.826375   1.716414  -1.338758)
  43:      1644.47   58.118507  ( -1.223355  -1.569250  -7.359305)
  44:      1726.39    0.532484  ( -0.052763  -0.682345   0.253191)
  45:      3055.64    2.459843  (  0.110377  -1.003480  -1.200286)
  46:      3083.81    2.034490  (  0.577469   1.104586   0.693477)
  47:      3107.32    1.389578  ( -0.912710  -0.734485  -0.130658)
  48:      3119.34    1.387282  (  1.029775   0.287971  -0.493882)
  49:      3139.16    3.583345  (  0.247546   1.845378  -0.341533)
  50:      3143.53    1.470047  (  1.119536  -0.353098   0.303326)
  51:      3148.85    5.022699  ( -0.794670  -2.066674   0.346495)
  52:      3162.69    0.586146  ( -0.268639  -0.644831  -0.313324)
  53:      3192.97    0.368864  ( -0.561413   0.094300   0.211629)
  54:      3256.76    0.451474  (  0.208004   0.616815  -0.166578)
  55:      3465.10   63.784788  ( -1.410776  -0.786112  -7.821542)
  56:      3537.30   75.539435  (  2.771942   7.958865  -2.124205)

--------------------------
THERMOCHEMISTRY AT 298.15K
--------------------------

Temperature         ... 298.15 K
Pressure            ... 1.00 atm
Total Mass          ... 98.17 AMU

Throughout the following assumptions are being made:
  (1) The electronic state is orbitally nondegenerate
  (2) There are no thermally accessible electronically excited states
  (3) Hindered rotations indicated by low frequency modes) are not
      treated as such but are treated as vibrations and this may
      case some error
  (4) All equations used are the standard statistical mechanics
      equations for an ideal gas
  (5) All vibrations are strinctly harmonic

------------
INNER ENERGY
------------

The inner energy is: U= E(el) + E(ZPE) + E(vib) + E(rot) + E(trans)
    E(el)   - is the total energy from the electronic structure calculation
              = E(kin-el) + E(nuc-el) + E(el-el) + E(nuc-nuc)
    E(ZPE)  - the the zero temperature vibrational energy from the frequency calculation
    E(vib)  - the the finite temperature correction to E(ZPE) due to population
              of excietd vibrational states
    E(rot)  - is the rotational thermal energy
    E(trans)- is the translational thermal energy

Summary of contributions to the inner energy U:
Electronic energy                ...   -290.08474614 Eh
Zero point energy                ...      0.17575932 Eh     110.29 kcal/mol
Thermal vibrational correction   ...      0.00484798 Eh       3.04 kcal/mol
Thermal rotational correction    ...      0.00141627 Eh       0.89 kcal/mol
Thermal translational correction ...      0.00141627 Eh       0.89 kcal/mol
-----------------------------------------------------------------------
Total thermal energy                   -289.90130629 Eh

Summary of corrections to the electronic energy:
(perhaps to be used in another calculation)
Total thermal correction                  0.00768052 Eh       4.82 kcal/mol
Non-thermal (ZPE) correction              0.17575932 Eh     110.29 kcal/mol
-----------------------------------------------------------------------
Total correction                          0.18343985 Eh     115.11 kcal/mol

--------
ENTHALPY
--------

The enthalpy is H = U + kB*T
                kB is Boltzmann's constant
Total free energy                 ...   -289.90130629 Eh
Thermal Enthalpy correction       ...      0.00094421 Eh       0.59 kcal/mol
-----------------------------------------------------------------------
Total Enthalpy                    ...   -289.90036208 Eh

-------
ENTROPY
-------

The entropy contributions are T*S = T*(S(el)+S(vib)+S(rot)+S(trans)
     S(el)   - electronic entropy
     S(vib)  - vibrational entropy
     S(rot)  - rotational entropy
     S(trans)- translational entropy
The entropies will be listed as mutliplied by the temperature to get
units of energy

Electronic entropy                ...      0.00000000 Eh      0.00 kcal/mol
Vibrational entropy               ...      0.00844947 Eh      5.30 kcal/mol
Rotational entropy                ...      0.01214538 Eh      7.62 kcal/mol
Translational entropy             ...      0.01884507 Eh     11.83 kcal/mol
-----------------------------------------------------------------------
Final entropy term                ...      0.03943992 Eh     24.75 kcal/mol

CAUTION: The rotational entropy is not quite correctly treated here
         because it includes a symmetry number that is not yet correctly
         implemented in ORCA!
For a nonlinear molecule the correct rotational entropy is:
    S(rot) = R*(ln(qrot/sn)+1.5)
    R    = 8.31441 J/mol/K = 1.987191683e-3 kcal/mol/K
    qrot = 258335.6167433
    sn is the rotational symmetry number. We have assumed 3 here
       if it is different for your molecule then you should correct
       the printed rotational entropy by manually evaluating the equation
       as given above

For convenience we print out the resulting values for sn=1 - 12:
 sn= 1  qrot/sn=  258335.6167 T*S(rot)=     8.27 kcal/mol T*S(tot)=    25.40 kcal/mol
 sn= 2  qrot/sn=  129167.8084 T*S(rot)=     7.86 kcal/mol T*S(tot)=    24.99 kcal/mol
 sn= 3  qrot/sn=   86111.8722 T*S(rot)=     7.62 kcal/mol T*S(tot)=    24.75 kcal/mol
 sn= 4  qrot/sn=   64583.9042 T*S(rot)=     7.45 kcal/mol T*S(tot)=    24.58 kcal/mol
 sn= 5  qrot/sn=   51667.1233 T*S(rot)=     7.32 kcal/mol T*S(tot)=    24.45 kcal/mol
 sn= 6  qrot/sn=   43055.9361 T*S(rot)=     7.21 kcal/mol T*S(tot)=    24.34 kcal/mol
 sn= 7  qrot/sn=   36905.0881 T*S(rot)=     7.12 kcal/mol T*S(tot)=    24.25 kcal/mol
 sn= 8  qrot/sn=   32291.9521 T*S(rot)=     7.04 kcal/mol T*S(tot)=    24.17 kcal/mol
 sn= 9  qrot/sn=   28703.9574 T*S(rot)=     6.97 kcal/mol T*S(tot)=    24.10 kcal/mol
 sn=10  qrot/sn=   25833.5617 T*S(rot)=     6.91 kcal/mol T*S(tot)=    24.04 kcal/mol
 sn=11  qrot/sn=   23485.0561 T*S(rot)=     6.85 kcal/mol T*S(tot)=    23.98 kcal/mol
 sn=12  qrot/sn=   21527.9681 T*S(rot)=     6.80 kcal/mol T*S(tot)=    23.93 kcal/mol

-------------------
GIBBS FREE ENTHALPY
-------------------

The Gibbs free enthalpy is G = H - T*S

Total enthalpy                    ...   -289.90036208 Eh
Total entropy correction          ...     -0.03943992 Eh    -24.75 kcal/mol
-----------------------------------------------------------------------
Final Gibbs free enthalpy         ...   -289.93980200 Eh

For completeness - the Gibbs free enthalpy minus the electronic energy
G-E(el)                           ...      0.14494414 Eh     90.95 kcal/mol

                             ****ORCA TERMINATED NORMALLY****
TOTAL RUN TIME: 0 days 0 hours 54 minutes 30 seconds 376 msec
