                         Program Version 3.0.3 - RELEASE   -
|  1> ! NORI PBE0 def2-TZVP UseSym TightOPT Freq TightSCF Grid3 FinalGrid5 XYZFile
|  2> % pal
|  3>     nprocs 8
|  4> end
|  5> %method
|  6>     SymThresh 5.0e-2
|  7> end
|  8> % geom
|  9>     MaxIter 10
| 10> end
| 11> % maxcore 2000
| 12> % output
| 13>     printlevel mini
| 14>     print[ P_Basis ] 0
| 15>     print[ P_SCFInfo ] 1
| 16>     print[ P_SCFIterInfo ] 1
| 17>     print[ P_OrbEn ] 0
| 18>     print[ P_Cartesian ] 0
| 19> end
| 20> % elprop
| 21>     Dipole false
| 22> end
| 23> *xyz 1 1
| 24>  C        0.9957900971     0.0496261711    -0.0380695228
| 25>  C        2.4887349264    -0.0426669039    -0.0628183990
| 26>  N        3.2291050383     1.0506320289     0.7195947914
| 27>  C        4.2064873900     0.0087707615     1.2181005851
| 28>  C        3.2260412448    -1.1026208333     0.7941196123
| 29>  C        3.7604205526    -2.2571846762     0.1187824766
| 30>  C        4.2072746875    -3.2114312284    -0.4526010026
| 31>  H        0.6344297721     0.9274915632    -0.5781494477
| 32>  H        0.6065647857     0.0685492058     0.9834341433
| 33>  H        0.5847869058    -0.8331783872    -0.5329809401
| 34>  H        2.8954582809    -0.0233999631    -1.0746867944
| 35>  H        2.6522716036     1.4376060318     1.4666298629
| 36>  H        3.6149255516     1.8240409284     0.1801772796
| 37>  H        4.4509148924     0.1208419092     2.2714936256
| 38>  H        5.1044050733     0.0420335132     0.6055736647
| 39>  H        2.5989674244    -1.4075466522     1.6384905184
| 40>  H        4.6017917736    -4.0669334688    -0.9536604531
| 41> *
| 42>
| 43>                          ****END OF INPUT****
 Total Charge           Charge          ....    1
 Multiplicity           Mult            ....    1
 Number of Electrons    NEL             ....   52
FINAL SINGLE POINT ENERGY      -288.827704243037

CARTESIAN COORDINATES (ANGSTROEM)
---------------------------------
  C      2.223657    0.000170    0.506844
  C      0.771573   -0.360150    0.503164
  N     -0.000347   -0.000207    1.780069
  C     -1.170074    0.442153    0.928549
  C     -0.246762    0.483556   -0.305054
  C     -0.741411   -0.065905   -1.541128
  C     -1.152314   -0.533922   -2.565187
  H      2.787794   -0.596143    1.227049
  H      2.378459    1.061732    0.716747
  H      2.634701   -0.205174   -0.484044
  H      0.602125   -1.424204    0.333279
  H      0.436523    0.773835    2.280433
  H     -0.172261   -0.753649    2.443801
  H     -1.626404    1.365990    1.275158
  H     -1.902665   -0.360823    0.886403
  H      0.142599    1.494799   -0.462494
  H     -1.517268   -0.941440   -3.481321

FINAL SINGLE POINT ENERGY      -288.827704802265
                    ***********************HURRAY********************
 Multiplicity           Mult            ....    1
 Number of Electrons    NEL             ....   52
 Basis Dimension        Dim             ....  277
FINAL SINGLE POINT ENERGY      -288.827704976820

VIBRATIONAL FREQUENCIES
-----------------------

   0:         0.00 cm**-1
   1:         0.00 cm**-1
   2:         0.00 cm**-1
   3:         0.00 cm**-1
   4:         0.00 cm**-1
   5:         0.00 cm**-1
   6:        94.10 cm**-1
   7:       141.45 cm**-1
   8:       201.27 cm**-1
   9:       241.34 cm**-1
  10:       300.13 cm**-1
  11:       393.62 cm**-1
  12:       491.57 cm**-1
  13:       520.90 cm**-1
  14:       616.46 cm**-1
  15:       730.68 cm**-1
  16:       745.54 cm**-1
  17:       792.97 cm**-1
  18:       806.59 cm**-1
  19:       871.62 cm**-1
  20:       922.56 cm**-1
  21:       942.24 cm**-1
  22:       975.95 cm**-1
  23:      1059.40 cm**-1
  24:      1100.22 cm**-1
  25:      1115.38 cm**-1
  26:      1145.94 cm**-1
  27:      1171.47 cm**-1
  28:      1257.94 cm**-1
  29:      1265.63 cm**-1
  30:      1293.19 cm**-1
  31:      1315.50 cm**-1
  32:      1320.32 cm**-1
  33:      1379.69 cm**-1
  34:      1403.63 cm**-1
  35:      1420.60 cm**-1
  36:      1478.31 cm**-1
  37:      1481.62 cm**-1
  38:      1493.73 cm**-1
  39:      1644.79 cm**-1
  40:      2255.59 cm**-1
  41:      3055.98 cm**-1
  42:      3070.38 cm**-1
  43:      3121.90 cm**-1
  44:      3129.93 cm**-1
  45:      3142.62 cm**-1
  46:      3144.78 cm**-1
  47:      3204.80 cm**-1
  48:      3460.87 cm**-1
  49:      3464.59 cm**-1
  50:      3536.79 cm**-1

IR SPECTRUM
-----------

 Mode    freq (cm**-1)   T**2         TX         TY         TZ
-------------------------------------------------------------------
   6:        94.10    2.579759  ( -0.493545  -1.526353  -0.080106)
   7:       141.45    2.378361  (  0.571363  -1.432408  -0.010535)
   8:       201.27    2.148552  (  0.909128   1.149388  -0.030745)
   9:       241.34    1.947889  ( -0.664496   1.208067  -0.216582)
  10:       300.13    7.096241  ( -2.559209  -0.423577   0.606030)
  11:       393.62    3.286459  ( -1.208008   1.301779  -0.364070)
  12:       491.57    9.264583  (  2.728378  -1.053369  -0.843181)
  13:       520.90   12.151238  ( -0.742228  -2.162944   2.630971)
  14:       616.46    2.571654  (  0.125816  -1.530159   0.463075)
  15:       730.68   37.024567  ( -1.465508  -5.263378   2.678376)
  16:       745.54   34.362176  (  5.342768  -2.074336  -1.230501)
  17:       792.97    3.787173  (  1.199160   1.314907  -0.787534)
  18:       806.59    4.415577  ( -1.263690   1.367394   0.974114)
  19:       871.62    8.319784  (  1.606955   2.041914  -1.252225)
  20:       922.56   13.047629  ( -3.009577   1.779645  -0.907158)
  21:       942.24    1.598927  ( -0.393551   0.527615   1.079660)
  22:       975.95    2.520521  (  0.282475   0.043702   1.561672)
  23:      1059.40   10.032485  (  1.284414  -0.299646  -2.879753)
  24:      1100.22    3.572215  ( -0.011324  -0.353442  -1.856655)
  25:      1115.38    3.176412  ( -0.916982   0.416422   1.470425)
  26:      1145.94    4.330760  (  0.818670   0.119073  -1.909545)
  27:      1171.47    5.349859  (  1.287975  -1.391036  -1.325141)
  28:      1257.94   50.922724  ( -6.831221   1.626002   1.270141)
  29:      1265.63    0.721531  (  0.072459  -0.286012  -0.796541)
  30:      1293.19    9.596368  ( -1.735582   1.712488   1.910892)
  31:      1315.50   31.793601  (  4.871928  -2.791712  -0.514060)
  32:      1320.32    0.868344  (  0.169003  -0.803218  -0.441162)
  33:      1379.69    6.477706  ( -2.514510  -0.393301  -0.016170)
  34:      1403.63    4.404038  ( -0.059188  -1.378204  -1.581483)
  35:      1420.60   19.595109  ( -4.014898  -0.275501   1.843856)
  36:      1478.31    8.743769  (  0.537740  -1.951278   2.155718)
  37:      1481.62   14.153558  (  1.115194  -3.210003  -1.614244)
  38:      1493.73   12.385905  (  3.042613   1.346449  -1.146947)
  39:      1644.79   57.706220  ( -1.088951  -0.826756  -7.472408)
  40:      2255.59    9.519117  (  0.880156   0.971721   2.792884)
  41:      3055.98    2.599715  ( -0.435692   0.983331   1.201227)
  42:      3070.38    3.605542  ( -0.759703  -0.518217  -1.661278)
  43:      3121.90    0.896803  (  0.725192  -0.570873   0.212142)
  44:      3129.93    0.319400  ( -0.325004   0.335464   0.318177)
  45:      3142.62    2.536785  ( -0.896834  -1.284870   0.285628)
  46:      3144.78    1.202063  (  0.869413  -0.662278   0.087015)
  47:      3204.80    0.915519  (  0.781801   0.521908  -0.178655)
  48:      3460.87  115.208282  ( -3.650974  -3.449307  -9.485829)
  49:      3464.59   55.276651  (  1.170937   0.142013   7.340667)
  50:      3536.79   83.297640  (  3.311216   8.254746  -2.047599)

--------------------------
THERMOCHEMISTRY AT 298.15K
--------------------------

Temperature         ... 298.15 K
Pressure            ... 1.00 atm
Total Mass          ... 96.15 AMU

Throughout the following assumptions are being made:
  (1) The electronic state is orbitally nondegenerate
  (2) There are no thermally accessible electronically excited states
  (3) Hindered rotations indicated by low frequency modes) are not
      treated as such but are treated as vibrations and this may
      case some error
  (4) All equations used are the standard statistical mechanics
      equations for an ideal gas
  (5) All vibrations are strinctly harmonic

------------
INNER ENERGY
------------

The inner energy is: U= E(el) + E(ZPE) + E(vib) + E(rot) + E(trans)
    E(el)   - is the total energy from the electronic structure calculation
              = E(kin-el) + E(nuc-el) + E(el-el) + E(nuc-nuc)
    E(ZPE)  - the the zero temperature vibrational energy from the frequency calculation
    E(vib)  - the the finite temperature correction to E(ZPE) due to population
              of excietd vibrational states
    E(rot)  - is the rotational thermal energy
    E(trans)- is the translational thermal energy

Summary of contributions to the inner energy U:
Electronic energy                ...   -288.82770498 Eh
Zero point energy                ...      0.15200979 Eh      95.39 kcal/mol
Thermal vibrational correction   ...      0.00455442 Eh       2.86 kcal/mol
Thermal rotational correction    ...      0.00141627 Eh       0.89 kcal/mol
Thermal translational correction ...      0.00141627 Eh       0.89 kcal/mol
-----------------------------------------------------------------------
Total thermal energy                   -288.66830822 Eh

Summary of corrections to the electronic energy:
(perhaps to be used in another calculation)
Total thermal correction                  0.00738697 Eh       4.64 kcal/mol
Non-thermal (ZPE) correction              0.15200979 Eh      95.39 kcal/mol
-----------------------------------------------------------------------
Total correction                          0.15939675 Eh     100.02 kcal/mol

--------
ENTHALPY
--------

The enthalpy is H = U + kB*T
                kB is Boltzmann's constant
Total free energy                 ...   -288.66830822 Eh
Thermal Enthalpy correction       ...      0.00094421 Eh       0.59 kcal/mol
-----------------------------------------------------------------------
Total Enthalpy                    ...   -288.66736402 Eh

-------
ENTROPY
-------

The entropy contributions are T*S = T*(S(el)+S(vib)+S(rot)+S(trans)
     S(el)   - electronic entropy
     S(vib)  - vibrational entropy
     S(rot)  - rotational entropy
     S(trans)- translational entropy
The entropies will be listed as mutliplied by the temperature to get
units of energy

Electronic entropy                ...      0.00000000 Eh      0.00 kcal/mol
Vibrational entropy               ...      0.00777613 Eh      4.88 kcal/mol
Rotational entropy                ...      0.01208304 Eh      7.58 kcal/mol
Translational entropy             ...      0.01881568 Eh     11.81 kcal/mol
-----------------------------------------------------------------------
Final entropy term                ...      0.03867485 Eh     24.27 kcal/mol

CAUTION: The rotational entropy is not quite correctly treated here
         because it includes a symmetry number that is not yet correctly
         implemented in ORCA!
For a nonlinear molecule the correct rotational entropy is:
    S(rot) = R*(ln(qrot/sn)+1.5)
    R    = 8.31441 J/mol/K = 1.987191683e-3 kcal/mol/K
    qrot = 241829.4901325
    sn is the rotational symmetry number. We have assumed 3 here
       if it is different for your molecule then you should correct
       the printed rotational entropy by manually evaluating the equation
       as given above

For convenience we print out the resulting values for sn=1 - 12:
 sn= 1  qrot/sn=  241829.4901 T*S(rot)=     8.23 kcal/mol T*S(tot)=    24.92 kcal/mol
 sn= 2  qrot/sn=  120914.7451 T*S(rot)=     7.82 kcal/mol T*S(tot)=    24.51 kcal/mol
 sn= 3  qrot/sn=   80609.8300 T*S(rot)=     7.58 kcal/mol T*S(tot)=    24.27 kcal/mol
 sn= 4  qrot/sn=   60457.3725 T*S(rot)=     7.41 kcal/mol T*S(tot)=    24.10 kcal/mol
 sn= 5  qrot/sn=   48365.8980 T*S(rot)=     7.28 kcal/mol T*S(tot)=    23.97 kcal/mol
 sn= 6  qrot/sn=   40304.9150 T*S(rot)=     7.17 kcal/mol T*S(tot)=    23.86 kcal/mol
 sn= 7  qrot/sn=   34547.0700 T*S(rot)=     7.08 kcal/mol T*S(tot)=    23.77 kcal/mol
 sn= 8  qrot/sn=   30228.6863 T*S(rot)=     7.00 kcal/mol T*S(tot)=    23.69 kcal/mol
 sn= 9  qrot/sn=   26869.9433 T*S(rot)=     6.93 kcal/mol T*S(tot)=    23.62 kcal/mol
 sn=10  qrot/sn=   24182.9490 T*S(rot)=     6.87 kcal/mol T*S(tot)=    23.56 kcal/mol
 sn=11  qrot/sn=   21984.4991 T*S(rot)=     6.81 kcal/mol T*S(tot)=    23.50 kcal/mol
 sn=12  qrot/sn=   20152.4575 T*S(rot)=     6.76 kcal/mol T*S(tot)=    23.45 kcal/mol

-------------------
GIBBS FREE ENTHALPY
-------------------

The Gibbs free enthalpy is G = H - T*S

Total enthalpy                    ...   -288.66736402 Eh
Total entropy correction          ...     -0.03867485 Eh    -24.27 kcal/mol
-----------------------------------------------------------------------
Final Gibbs free enthalpy         ...   -288.70603887 Eh

For completeness - the Gibbs free enthalpy minus the electronic energy
G-E(el)                           ...      0.12166611 Eh     76.35 kcal/mol

                             ****ORCA TERMINATED NORMALLY****
TOTAL RUN TIME: 0 days 0 hours 41 minutes 42 seconds 60 msec
