                         Program Version 3.0.3 - RELEASE   -
|  1> ! NORI PBE0 def2-TZVP UseSym TightOPT Freq TightSCF Grid3 FinalGrid5 XYZFile
|  2> % pal
|  3>     nprocs 8
|  4> end
|  5> %method
|  6>     SymThresh 5.0e-2
|  7> end
|  8> % geom
|  9>     MaxIter 10
| 10> end
| 11> % maxcore 2000
| 12> % output
| 13>     printlevel mini
| 14>     print[ P_Basis ] 0
| 15>     print[ P_SCFInfo ] 1
| 16>     print[ P_SCFIterInfo ] 1
| 17>     print[ P_OrbEn ] 0
| 18>     print[ P_Cartesian ] 0
| 19> end
| 20> % elprop
| 21>     Dipole false
| 22> end
| 23> *xyz 1 1
| 24>  C        1.0253173214    -0.0579394206     0.1221271469
| 25>  C        2.5171554728    -0.1588247934     0.0733510387
| 26>  N        3.2744961751     0.9427925940     0.8281922637
| 27>  C        4.2258664496    -0.0960971244     1.3780824527
| 28>  C        3.2524112282    -1.2088508750     0.9450282623
| 29>  C        3.8172981685    -2.3450238627     0.2530107469
| 30>  N        4.2766148818    -3.2266666791    -0.3222552119
| 31>  H        0.6640502123     0.8138231285    -0.4275526143
| 32>  H        0.6531579739    -0.0185680806     1.1493375768
| 33>  H        0.5992520152    -0.9447532407    -0.3528284597
| 34>  H        2.9056268840    -0.1608182899    -0.9457885831
| 35>  H        2.6982887300     1.3757062228     1.5507510793
| 36>  H        3.6865930281     1.6838594934     0.2621737651
| 37>  H        4.4259386842     0.0283936826     2.4392372590
| 38>  H        5.1507478478    -0.0794624453     0.8064758426
| 39>  H        2.6262649271    -1.5510503097     1.7732674350
| 40> *
| 41>
| 42>                          ****END OF INPUT****
 Total Charge           Charge          ....    1
 Multiplicity           Mult            ....    1
 Number of Electrons    NEL             ....   52
FINAL SINGLE POINT ENERGY      -304.904295577935
FINAL SINGLE POINT ENERGY      -304.904296472036

CARTESIAN COORDINATES (ANGSTROEM)
---------------------------------
  C     -1.996018    1.001873    0.520617
  C     -0.537014    0.670602    0.504606
  N      0.000177   -0.000650    1.776513
  C      0.799313   -0.961333    0.924730
  C     -0.026195   -0.547076   -0.307900
  C      0.703079   -0.256855   -1.521403
  N      1.298507    0.000082   -2.469315
  H     -2.220508    1.786997    1.245539
  H     -2.611791    0.124356    0.734142
  H     -2.279067    1.375697   -0.466102
  H      0.089905    1.545330    0.327189
  H     -0.739787   -0.461108    2.307420
  H      0.530352    0.590789    2.415475
  H      0.733008   -1.990974    1.266613
  H      1.836146   -0.633914    0.885174
  H     -0.832881   -1.254308   -0.517690

FINAL SINGLE POINT ENERGY      -304.904296995400
                    ***********************HURRAY********************
 Multiplicity           Mult            ....    1
 Number of Electrons    NEL             ....   52
 Basis Dimension        Dim             ....  271
FINAL SINGLE POINT ENERGY      -304.904297101853

VIBRATIONAL FREQUENCIES
-----------------------

   0:         0.00 cm**-1
   1:         0.00 cm**-1
   2:         0.00 cm**-1
   3:         0.00 cm**-1
   4:         0.00 cm**-1
   5:         0.00 cm**-1
   6:        85.10 cm**-1
   7:       145.48 cm**-1
   8:       203.15 cm**-1
   9:       247.36 cm**-1
  10:       306.75 cm**-1
  11:       401.74 cm**-1
  12:       525.64 cm**-1
  13:       537.53 cm**-1
  14:       625.38 cm**-1
  15:       798.31 cm**-1
  16:       815.59 cm**-1
  17:       870.50 cm**-1
  18:       928.93 cm**-1
  19:       943.03 cm**-1
  20:       981.55 cm**-1
  21:      1062.32 cm**-1
  22:      1092.70 cm**-1
  23:      1116.33 cm**-1
  24:      1145.82 cm**-1
  25:      1173.33 cm**-1
  26:      1262.28 cm**-1
  27:      1268.19 cm**-1
  28:      1298.13 cm**-1
  29:      1319.43 cm**-1
  30:      1327.34 cm**-1
  31:      1379.87 cm**-1
  32:      1405.62 cm**-1
  33:      1421.28 cm**-1
  34:      1477.34 cm**-1
  35:      1481.09 cm**-1
  36:      1493.14 cm**-1
  37:      1645.74 cm**-1
  38:      2396.94 cm**-1
  39:      3056.00 cm**-1
  40:      3096.22 cm**-1
  41:      3124.09 cm**-1
  42:      3132.20 cm**-1
  43:      3142.90 cm**-1
  44:      3145.92 cm**-1
  45:      3206.46 cm**-1
  46:      3459.26 cm**-1
  47:      3529.38 cm**-1

IR SPECTRUM
-----------

 Mode    freq (cm**-1)   T**2         TX         TY         TZ
-------------------------------------------------------------------
   6:        85.10    2.588214  (  0.351234  -1.088489   1.131388)
   7:       145.48    4.204592  ( -1.488005   1.406555   0.109713)
   8:       203.15    4.420805  ( -0.565272  -0.878697  -1.824600)
   9:       247.36    0.241253  ( -0.300698  -0.383944  -0.058482)
  10:       306.75    0.950071  ( -0.870599  -0.128895   0.418946)
  11:       401.74    1.940808  (  1.211119   0.031283   0.687764)
  12:       525.64    0.110324  (  0.115645  -0.127342   0.284137)
  13:       537.53    2.470192  ( -0.084040  -0.077603  -1.567516)
  14:       625.38    1.801280  (  0.623347   1.099382   0.451749)
  15:       798.31    2.604793  (  1.580001   0.117069   0.307708)
  16:       815.59    4.556358  ( -0.437944   1.701343  -1.212434)
  17:       870.50    8.498542  (  2.371125   1.183161   1.215087)
  18:       928.93   11.784272  (  1.836987  -2.862620  -0.463853)
  19:       943.03    1.692188  ( -0.247542   0.071325   1.275078)
  20:       981.55    3.310217  ( -0.027198  -0.082015   1.817347)
  21:      1062.32    8.408003  (  0.843925  -0.526482   2.723713)
  22:      1092.70    2.707347  ( -0.100432  -0.374228   1.599129)
  23:      1116.33    2.219047  ( -0.795363   0.929983  -0.849457)
  24:      1145.82    6.564335  ( -0.624072   0.154846  -2.480099)
  25:      1173.33    5.919318  (  0.609046  -1.988553   1.262552)
  26:      1262.28    5.582215  ( -1.325262   1.522671  -1.227749)
  27:      1268.19   45.329870  (  5.068805  -4.329429   0.945054)
  28:      1298.13   10.091441  ( -1.030802   2.437363  -1.757314)
  29:      1319.43   32.735013  ( -3.068566   4.758579  -0.821486)
  30:      1327.34    3.367494  (  0.518206  -1.747671   0.211196)
  31:      1379.87    7.339236  (  2.280315  -1.091282   0.973912)
  32:      1405.62    1.609050  ( -0.319925  -1.195608   0.277885)
  33:      1421.28   18.151285  (  3.785433  -1.560176   1.177979)
  34:      1477.34    8.984681  (  0.492209   2.033665   2.146303)
  35:      1481.09   15.008282  (  0.504581   3.491806  -1.600302)
  36:      1493.14   12.847961  (  3.433075  -0.616058   0.826093)
  37:      1645.74   57.884303  ( -1.058474  -0.044123   7.534055)
  38:      2396.94    0.234217  ( -0.120481  -0.259587   0.390276)
  39:      3056.00    3.578196  (  0.482815  -1.391404   1.187048)
  40:      3096.22    1.834286  ( -0.272447  -0.659894  -1.150912)
  41:      3124.09    1.561798  (  0.001386  -1.236168  -0.183535)
  42:      3132.20    0.455340  (  0.667916   0.093683  -0.021262)
  43:      3142.90    1.951102  (  1.257230  -0.240342   0.559204)
  44:      3145.92    0.474283  (  0.035694   0.678298  -0.113667)
  45:      3206.46    2.466740  (  1.396611   0.717605  -0.035511)
  46:      3459.26   78.269011  ( -1.363821   0.512951   8.726161)
  47:      3529.38   92.412112  ( -7.276930  -6.013892  -1.814251)

--------------------------
THERMOCHEMISTRY AT 298.15K
--------------------------

Temperature         ... 298.15 K
Pressure            ... 1.00 atm
Total Mass          ... 97.14 AMU

Throughout the following assumptions are being made:
  (1) The electronic state is orbitally nondegenerate
  (2) There are no thermally accessible electronically excited states
  (3) Hindered rotations indicated by low frequency modes) are not
      treated as such but are treated as vibrations and this may
      case some error
  (4) All equations used are the standard statistical mechanics
      equations for an ideal gas
  (5) All vibrations are strinctly harmonic

------------
INNER ENERGY
------------

The inner energy is: U= E(el) + E(ZPE) + E(vib) + E(rot) + E(trans)
    E(el)   - is the total energy from the electronic structure calculation
              = E(kin-el) + E(nuc-el) + E(el-el) + E(nuc-nuc)
    E(ZPE)  - the the zero temperature vibrational energy from the frequency calculation
    E(vib)  - the the finite temperature correction to E(ZPE) due to population
              of excietd vibrational states
    E(rot)  - is the rotational thermal energy
    E(trans)- is the translational thermal energy

Summary of contributions to the inner energy U:
Electronic energy                ...   -304.90429710 Eh
Zero point energy                ...      0.14141808 Eh      88.74 kcal/mol
Thermal vibrational correction   ...      0.00429316 Eh       2.69 kcal/mol
Thermal rotational correction    ...      0.00141627 Eh       0.89 kcal/mol
Thermal translational correction ...      0.00141627 Eh       0.89 kcal/mol
-----------------------------------------------------------------------
Total thermal energy                   -304.75575332 Eh

Summary of corrections to the electronic energy:
(perhaps to be used in another calculation)
Total thermal correction                  0.00712570 Eh       4.47 kcal/mol
Non-thermal (ZPE) correction              0.14141808 Eh      88.74 kcal/mol
-----------------------------------------------------------------------
Total correction                          0.14854378 Eh      93.21 kcal/mol

--------
ENTHALPY
--------

The enthalpy is H = U + kB*T
                kB is Boltzmann's constant
Total free energy                 ...   -304.75575332 Eh
Thermal Enthalpy correction       ...      0.00094421 Eh       0.59 kcal/mol
-----------------------------------------------------------------------
Total Enthalpy                    ...   -304.75480911 Eh

-------
ENTROPY
-------

The entropy contributions are T*S = T*(S(el)+S(vib)+S(rot)+S(trans)
     S(el)   - electronic entropy
     S(vib)  - vibrational entropy
     S(rot)  - rotational entropy
     S(trans)- translational entropy
The entropies will be listed as mutliplied by the temperature to get
units of energy

Electronic entropy                ...      0.00000000 Eh      0.00 kcal/mol
Vibrational entropy               ...      0.00745993 Eh      4.68 kcal/mol
Rotational entropy                ...      0.01206789 Eh      7.57 kcal/mol
Translational entropy             ...      0.01883016 Eh     11.82 kcal/mol
-----------------------------------------------------------------------
Final entropy term                ...      0.03835799 Eh     24.07 kcal/mol

CAUTION: The rotational entropy is not quite correctly treated here
         because it includes a symmetry number that is not yet correctly
         implemented in ORCA!
For a nonlinear molecule the correct rotational entropy is:
    S(rot) = R*(ln(qrot/sn)+1.5)
    R    = 8.31441 J/mol/K = 1.987191683e-3 kcal/mol/K
    qrot = 237981.2290318
    sn is the rotational symmetry number. We have assumed 3 here
       if it is different for your molecule then you should correct
       the printed rotational entropy by manually evaluating the equation
       as given above

For convenience we print out the resulting values for sn=1 - 12:
 sn= 1  qrot/sn=  237981.2290 T*S(rot)=     8.22 kcal/mol T*S(tot)=    24.72 kcal/mol
 sn= 2  qrot/sn=  118990.6145 T*S(rot)=     7.81 kcal/mol T*S(tot)=    24.31 kcal/mol
 sn= 3  qrot/sn=   79327.0763 T*S(rot)=     7.57 kcal/mol T*S(tot)=    24.07 kcal/mol
 sn= 4  qrot/sn=   59495.3073 T*S(rot)=     7.40 kcal/mol T*S(tot)=    23.90 kcal/mol
 sn= 5  qrot/sn=   47596.2458 T*S(rot)=     7.27 kcal/mol T*S(tot)=    23.77 kcal/mol
 sn= 6  qrot/sn=   39663.5382 T*S(rot)=     7.16 kcal/mol T*S(tot)=    23.66 kcal/mol
 sn= 7  qrot/sn=   33997.3184 T*S(rot)=     7.07 kcal/mol T*S(tot)=    23.57 kcal/mol
 sn= 8  qrot/sn=   29747.6536 T*S(rot)=     6.99 kcal/mol T*S(tot)=    23.49 kcal/mol
 sn= 9  qrot/sn=   26442.3588 T*S(rot)=     6.92 kcal/mol T*S(tot)=    23.42 kcal/mol
 sn=10  qrot/sn=   23798.1229 T*S(rot)=     6.86 kcal/mol T*S(tot)=    23.36 kcal/mol
 sn=11  qrot/sn=   21634.6572 T*S(rot)=     6.80 kcal/mol T*S(tot)=    23.30 kcal/mol
 sn=12  qrot/sn=   19831.7691 T*S(rot)=     6.75 kcal/mol T*S(tot)=    23.25 kcal/mol

-------------------
GIBBS FREE ENTHALPY
-------------------

The Gibbs free enthalpy is G = H - T*S

Total enthalpy                    ...   -304.75480911 Eh
Total entropy correction          ...     -0.03835799 Eh    -24.07 kcal/mol
-----------------------------------------------------------------------
Final Gibbs free enthalpy         ...   -304.79316710 Eh

For completeness - the Gibbs free enthalpy minus the electronic energy
G-E(el)                           ...      0.11113001 Eh     69.73 kcal/mol

                             ****ORCA TERMINATED NORMALLY****
TOTAL RUN TIME: 0 days 0 hours 43 minutes 17 seconds 479 msec
