                         Program Version 3.0.3 - RELEASE   -
|  1> ! NORI PBE0 def2-TZVP UseSym TightOPT Freq TightSCF Grid3 FinalGrid5 XYZFile
|  2> % pal
|  3>     nprocs 8
|  4> end
|  5> %method
|  6>     SymThresh 5.0e-2
|  7> end
|  8> % geom
|  9>     MaxIter 10
| 10> end
| 11> % maxcore 2000
| 12> % output
| 13>     printlevel mini
| 14>     print[ P_Basis ] 0
| 15>     print[ P_SCFInfo ] 1
| 16>     print[ P_SCFIterInfo ] 1
| 17>     print[ P_OrbEn ] 0
| 18>     print[ P_Cartesian ] 0
| 19> end
| 20> % elprop
| 21>     Dipole false
| 22> end
| 23> *xyz 1 1
| 24>  C        1.0004608362     0.3530936723     0.5480686253
| 25>  C        2.2318535541    -0.1900086481    -0.1350662775
| 26>  N        1.9804989579    -1.5981821674    -0.6574378299
| 27>  C        2.9482142083    -1.8532758169    -1.7822836000
| 28>  C        3.1594987670    -0.4911029062    -2.3789297597
| 29>  C        1.9428824270     0.3404726475    -2.6372984363
| 30>  C        2.7161635071     0.5273174338    -1.3691361542
| 31>  H        1.2200567389     1.3491009387     0.9337441721
| 32>  H        0.6925110251    -0.2635473290     1.3954417249
| 33>  H        0.1654305112     0.4492466956    -0.1505676809
| 34>  H        3.0580261327    -0.2851816413     0.5753299873
| 35>  H        2.0572706349    -2.2941302765     0.0831871055
| 36>  H        1.0226554822    -1.6468326471    -1.0055193207
| 37>  H        3.8672892136    -2.2472540061    -1.3468658263
| 38>  H        2.5192809925    -2.6009299011    -2.4513249870
| 39>  H        4.0492346950    -0.3502489533    -2.9776556181
| 40>  H        0.9574360014    -0.1158066852    -2.6186233896
| 41>  H        2.0327505366     1.1198009166    -3.3824114840
| 42>  H        3.2718357782     1.4419286737    -1.2103112508
| 43> *
| 44>
| 45>                          ****END OF INPUT****
 Total Charge           Charge          ....    1
 Multiplicity           Mult            ....    1
 Number of Electrons    NEL             ....   54
FINAL SINGLE POINT ENERGY      -290.111783678781

CARTESIAN COORDINATES (ANGSTROEM)
---------------------------------
  C      2.256658   -0.000104    0.227158
  C      0.867055   -0.587606    0.184404
  N      0.000058   -0.000126    1.290288
  C     -1.439375   -0.136578    0.870384
  C     -1.377474   -0.051565   -0.628139
  C     -0.546640    1.043372   -1.218874
  C      0.038248   -0.323965   -1.046643
  H      2.859489   -0.459078   -0.557455
  H      2.757571   -0.194285    1.178195
  H      2.241265    1.076821    0.040749
  H      0.895951   -1.663801    0.376935
  H      0.183728   -0.444001    2.189194
  H      0.238460    0.986176    1.398143
  H     -1.790899   -1.114280    1.202298
  H     -2.024141    0.640957    1.364138
  H     -2.220643   -0.448004   -1.177477
  H     -0.210916    1.868301   -0.596700
  H     -0.785932    1.347609   -2.229003
  H      0.262478   -0.924305   -1.918388

FINAL SINGLE POINT ENERGY      -290.111784523192
                    ***********************HURRAY********************
 Multiplicity           Mult            ....    1
 Number of Electrons    NEL             ....   54
 Basis Dimension        Dim             ....  289
FINAL SINGLE POINT ENERGY      -290.111784760558

VIBRATIONAL FREQUENCIES
-----------------------

   0:         0.00 cm**-1
   1:         0.00 cm**-1
   2:         0.00 cm**-1
   3:         0.00 cm**-1
   4:         0.00 cm**-1
   5:         0.00 cm**-1
   6:       155.86 cm**-1
   7:       229.61 cm**-1
   8:       253.64 cm**-1
   9:       315.67 cm**-1
  10:       373.33 cm**-1
  11:       498.56 cm**-1
  12:       586.25 cm**-1
  13:       644.01 cm**-1
  14:       769.22 cm**-1
  15:       822.48 cm**-1
  16:       840.46 cm**-1
  17:       858.35 cm**-1
  18:       902.38 cm**-1
  19:       925.81 cm**-1
  20:       949.99 cm**-1
  21:       996.72 cm**-1
  22:      1028.45 cm**-1
  23:      1053.82 cm**-1
  24:      1062.60 cm**-1
  25:      1070.72 cm**-1
  26:      1104.14 cm**-1
  27:      1108.05 cm**-1
  28:      1136.37 cm**-1
  29:      1166.68 cm**-1
  30:      1206.83 cm**-1
  31:      1231.65 cm**-1
  32:      1269.25 cm**-1
  33:      1342.79 cm**-1
  34:      1351.42 cm**-1
  35:      1384.27 cm**-1
  36:      1394.32 cm**-1
  37:      1403.99 cm**-1
  38:      1418.53 cm**-1
  39:      1423.66 cm**-1
  40:      1479.78 cm**-1
  41:      1490.72 cm**-1
  42:      1501.78 cm**-1
  43:      1502.68 cm**-1
  44:      1644.90 cm**-1
  45:      3057.88 cm**-1
  46:      3087.36 cm**-1
  47:      3097.07 cm**-1
  48:      3136.71 cm**-1
  49:      3137.81 cm**-1
  50:      3151.27 cm**-1
  51:      3153.51 cm**-1
  52:      3217.54 cm**-1
  53:      3223.75 cm**-1
  54:      3241.27 cm**-1
  55:      3464.39 cm**-1
  56:      3525.11 cm**-1

IR SPECTRUM
-----------

 Mode    freq (cm**-1)   T**2         TX         TY         TZ
-------------------------------------------------------------------
   6:       155.86    2.739431  ( -0.040768   1.447375  -0.801795)
   7:       229.61    0.697394  (  0.499984  -0.439565   0.504175)
   8:       253.64    1.793752  ( -0.652965   0.993239  -0.617143)
   9:       315.67    1.218366  ( -0.842749  -0.154804   0.695827)
  10:       373.33    6.065393  (  0.310738   1.515025  -1.916647)
  11:       498.56    0.035525  ( -0.093264   0.024038   0.162016)
  12:       586.25    2.296848  ( -0.315246  -0.666533   1.324086)
  13:       644.01    4.122451  ( -0.632288   1.275038  -1.448082)
  14:       769.22    4.741712  (  2.099852  -0.434011  -0.379429)
  15:       822.48    8.250773  (  2.065997  -1.797844  -0.866134)
  16:       840.46    2.822698  (  1.232688   1.100625  -0.302990)
  17:       858.35    9.268653  (  0.816572   2.914287  -0.329838)
  18:       902.38    0.792863  (  0.022811  -0.155879  -0.876382)
  19:       925.81    8.697131  (  2.842292   0.282039  -0.734138)
  20:       949.99    5.217574  (  1.777953  -0.696688   1.253428)
  21:       996.72    2.332285  (  0.348887  -0.748052   1.284905)
  22:      1028.45   11.167809  (  2.101765  -1.452777  -2.154027)
  23:      1053.82    3.734114  (  0.561054   0.122168   1.845104)
  24:      1062.60    2.053581  (  1.236654  -0.650599   0.317789)
  25:      1070.72    6.614850  (  2.518502  -0.290100   0.433407)
  26:      1104.14    0.293361  ( -0.030160   0.478511  -0.251950)
  27:      1108.05    1.281788  ( -0.429492   0.244537   1.018590)
  28:      1136.37    6.496915  (  1.796734   0.134330  -1.802947)
  29:      1166.68    2.993071  ( -0.966038   0.788021   1.199527)
  30:      1206.83    0.676826  (  0.517512   0.590875   0.244691)
  31:      1231.65    7.320217  ( -2.165550   0.947860   1.316120)
  32:      1269.25   13.982638  ( -3.501223  -0.721304   1.097177)
  33:      1342.79    0.310570  (  0.122593   0.472295  -0.269218)
  34:      1351.42   13.604989  ( -3.066701   1.662453   1.198575)
  35:      1384.27    9.883850  ( -0.756368   2.216620  -2.097225)
  36:      1394.32   22.712555  ( -4.236213   0.950000   1.965846)
  37:      1403.99   31.179329  (  5.312285  -0.675450  -1.582000)
  38:      1418.53   15.875466  (  3.920031  -0.592560   0.397111)
  39:      1423.66    5.865524  (  0.673808   2.315138  -0.227249)
  40:      1479.78    7.236898  ( -1.215339   1.710429   1.683532)
  41:      1490.72    6.353315  (  0.458074  -1.631028   1.866342)
  42:      1501.78   11.087192  ( -1.887432  -1.619199   2.214269)
  43:      1502.68    7.786469  ( -0.030326   2.790150  -0.024787)
  44:      1644.90   69.712750  (  2.486945   4.432785   6.624067)
  45:      3057.88    2.530705  (  0.322374   0.977058   1.213317)
  46:      3087.36    2.223720  (  0.179591   1.465290  -0.210697)
  47:      3097.07    4.568085  ( -1.107115  -0.464680   1.768178)
  48:      3136.71    7.567266  ( -1.397436   0.193776  -2.361544)
  49:      3137.81    6.001326  (  0.142447  -2.410541  -0.412706)
  50:      3151.27    1.116958  (  0.743931   0.566544   0.492496)
  51:      3153.51    0.258986  ( -0.168940   0.419650   0.233106)
  52:      3217.54    0.432549  (  0.140741  -0.165835  -0.620677)
  53:      3223.75    2.091580  (  0.649781   0.574633   1.157221)
  54:      3241.27    1.013787  (  0.068443  -0.676309   0.742771)
  55:      3464.39   45.822942  (  2.007417   3.038895   5.705991)
  56:      3525.11   74.147429  ( -0.007265   6.319667  -5.848862)

--------------------------
THERMOCHEMISTRY AT 298.15K
--------------------------

Temperature         ... 298.15 K
Pressure            ... 1.00 atm
Total Mass          ... 98.17 AMU

Throughout the following assumptions are being made:
  (1) The electronic state is orbitally nondegenerate
  (2) There are no thermally accessible electronically excited states
  (3) Hindered rotations indicated by low frequency modes) are not
      treated as such but are treated as vibrations and this may
      case some error
  (4) All equations used are the standard statistical mechanics
      equations for an ideal gas
  (5) All vibrations are strinctly harmonic

------------
INNER ENERGY
------------

The inner energy is: U= E(el) + E(ZPE) + E(vib) + E(rot) + E(trans)
    E(el)   - is the total energy from the electronic structure calculation
              = E(kin-el) + E(nuc-el) + E(el-el) + E(nuc-nuc)
    E(ZPE)  - the the zero temperature vibrational energy from the frequency calculation
    E(vib)  - the the finite temperature correction to E(ZPE) due to population
              of excietd vibrational states
    E(rot)  - is the rotational thermal energy
    E(trans)- is the translational thermal energy

Summary of contributions to the inner energy U:
Electronic energy                ...   -290.11178476 Eh
Zero point energy                ...      0.17859334 Eh     112.07 kcal/mol
Thermal vibrational correction   ...      0.00370370 Eh       2.32 kcal/mol
Thermal rotational correction    ...      0.00141627 Eh       0.89 kcal/mol
Thermal translational correction ...      0.00141627 Eh       0.89 kcal/mol
-----------------------------------------------------------------------
Total thermal energy                   -289.92665518 Eh

Summary of corrections to the electronic energy:
(perhaps to be used in another calculation)
Total thermal correction                  0.00653624 Eh       4.10 kcal/mol
Non-thermal (ZPE) correction              0.17859334 Eh     112.07 kcal/mol
-----------------------------------------------------------------------
Total correction                          0.18512958 Eh     116.17 kcal/mol

--------
ENTHALPY
--------

The enthalpy is H = U + kB*T
                kB is Boltzmann's constant
Total free energy                 ...   -289.92665518 Eh
Thermal Enthalpy correction       ...      0.00094421 Eh       0.59 kcal/mol
-----------------------------------------------------------------------
Total Enthalpy                    ...   -289.92571097 Eh

-------
ENTROPY
-------

The entropy contributions are T*S = T*(S(el)+S(vib)+S(rot)+S(trans)
     S(el)   - electronic entropy
     S(vib)  - vibrational entropy
     S(rot)  - rotational entropy
     S(trans)- translational entropy
The entropies will be listed as mutliplied by the temperature to get
units of energy

Electronic entropy                ...      0.00000000 Eh      0.00 kcal/mol
Vibrational entropy               ...      0.00577727 Eh      3.63 kcal/mol
Rotational entropy                ...      0.01181654 Eh      7.41 kcal/mol
Translational entropy             ...      0.01884507 Eh     11.83 kcal/mol
-----------------------------------------------------------------------
Final entropy term                ...      0.03643888 Eh     22.87 kcal/mol

CAUTION: The rotational entropy is not quite correctly treated here
         because it includes a symmetry number that is not yet correctly
         implemented in ORCA!
For a nonlinear molecule the correct rotational entropy is:
    S(rot) = R*(ln(qrot/sn)+1.5)
    R    = 8.31441 J/mol/K = 1.987191683e-3 kcal/mol/K
    qrot = 182359.7852352
    sn is the rotational symmetry number. We have assumed 3 here
       if it is different for your molecule then you should correct
       the printed rotational entropy by manually evaluating the equation
       as given above

For convenience we print out the resulting values for sn=1 - 12:
 sn= 1  qrot/sn=  182359.7852 T*S(rot)=     8.07 kcal/mol T*S(tot)=    23.52 kcal/mol
 sn= 2  qrot/sn=   91179.8926 T*S(rot)=     7.66 kcal/mol T*S(tot)=    23.11 kcal/mol
 sn= 3  qrot/sn=   60786.5951 T*S(rot)=     7.41 kcal/mol T*S(tot)=    22.87 kcal/mol
 sn= 4  qrot/sn=   45589.9463 T*S(rot)=     7.24 kcal/mol T*S(tot)=    22.70 kcal/mol
 sn= 5  qrot/sn=   36471.9570 T*S(rot)=     7.11 kcal/mol T*S(tot)=    22.56 kcal/mol
 sn= 6  qrot/sn=   30393.2975 T*S(rot)=     7.00 kcal/mol T*S(tot)=    22.46 kcal/mol
 sn= 7  qrot/sn=   26051.3979 T*S(rot)=     6.91 kcal/mol T*S(tot)=    22.36 kcal/mol
 sn= 8  qrot/sn=   22794.9732 T*S(rot)=     6.83 kcal/mol T*S(tot)=    22.28 kcal/mol
 sn= 9  qrot/sn=   20262.1984 T*S(rot)=     6.76 kcal/mol T*S(tot)=    22.21 kcal/mol
 sn=10  qrot/sn=   18235.9785 T*S(rot)=     6.70 kcal/mol T*S(tot)=    22.15 kcal/mol
 sn=11  qrot/sn=   16578.1623 T*S(rot)=     6.65 kcal/mol T*S(tot)=    22.10 kcal/mol
 sn=12  qrot/sn=   15196.6488 T*S(rot)=     6.59 kcal/mol T*S(tot)=    22.04 kcal/mol

-------------------
GIBBS FREE ENTHALPY
-------------------

The Gibbs free enthalpy is G = H - T*S

Total enthalpy                    ...   -289.92571097 Eh
Total entropy correction          ...     -0.03643888 Eh    -22.87 kcal/mol
-----------------------------------------------------------------------
Final Gibbs free enthalpy         ...   -289.96214985 Eh

For completeness - the Gibbs free enthalpy minus the electronic energy
G-E(el)                           ...      0.14963491 Eh     93.90 kcal/mol

                             ****ORCA TERMINATED NORMALLY****
TOTAL RUN TIME: 0 days 0 hours 54 minutes 4 seconds 69 msec
