                         Program Version 3.0.3 - RELEASE   -
|  1> ! NORI PBE0 def2-TZVP UseSym TightOPT Freq TightSCF Grid3 FinalGrid5 XYZFile
|  2> % pal
|  3>     nprocs 8
|  4> end
|  5> %method
|  6>     SymThresh 5.0e-2
|  7> end
|  8> % geom
|  9>     MaxIter 10
| 10> end
| 11> % maxcore 2000
| 12> % output
| 13>     printlevel mini
| 14>     print[ P_Basis ] 0
| 15>     print[ P_SCFInfo ] 1
| 16>     print[ P_SCFIterInfo ] 1
| 17>     print[ P_OrbEn ] 0
| 18>     print[ P_Cartesian ] 0
| 19> end
| 20> % elprop
| 21>     Dipole false
| 22> end
| 23> *xyz 1 1
| 24>  C        1.0544147319     0.1612619713     0.5885303152
| 25>  C        2.3371253344    -0.2190752807    -0.0965114135
| 26>  N        3.3940935609     0.8842897492     0.0216132558
| 27>  C        4.1480122481     0.0333158003     1.0450446714
| 28>  C        5.6391030514     0.0333511967     0.8854016107
| 29>  C        3.2799604598    -1.1864390582     0.6501274636
| 30>  C        3.9312240422    -2.2376638737    -0.2219386090
| 31>  H        0.5507864236     0.9853397621     0.0782489516
| 32>  H        1.2146403079     0.4316758793     1.6356043873
| 33>  H        0.3805226527    -0.6976107478     0.5714629467
| 34>  H        2.1766881381    -0.4555803066    -1.1488804044
| 35>  H        3.0593100684     1.7920645638     0.3410593336
| 36>  H        3.9276584270     1.0212487107    -0.8354972956
| 37>  H        3.8618005033     0.4165037789     2.0250997134
| 38>  H        5.9527801319    -0.3103395456    -0.1020550723
| 39>  H        6.0752539953    -0.6416824513     1.6244521051
| 40>  H        6.0570603872     1.0261123254     1.0664078772
| 41>  H        2.8057222741    -1.6545651389     1.5131427167
| 42>  H        4.3829652576    -1.8170738457    -1.1241333454
| 43>  H        3.1860112819    -2.9693348502    -0.5400141536
| 44>  H        4.7081667222    -2.7773186390     0.3221149456
| 45> *
| 46>
| 47>                          ****END OF INPUT****
 Total Charge           Charge          ....    1
 Multiplicity           Mult            ....    1
 Number of Electrons    NEL             ....   56
FINAL SINGLE POINT ENERGY      -291.324398739598
FINAL SINGLE POINT ENERGY      -291.324400471572
FINAL SINGLE POINT ENERGY      -291.324402098024

CARTESIAN COORDINATES (ANGSTROEM)
---------------------------------
  C      2.372959   -0.005856    0.447109
  C      0.993876   -0.578461    0.274429
  N      0.000891    0.007709    1.284430
  C     -0.638578    0.826797    0.162375
  C     -2.137203    0.875248    0.197348
  C      0.130348   -0.023844   -0.878972
  C     -0.664734   -1.066366   -1.634951
  H      2.828424   -0.321914    1.388302
  H      2.372528    1.086120    0.397254
  H      3.006488   -0.371203   -0.363175
  H      0.996725   -1.665780    0.360575
  H      0.406784    0.532023    2.058365
  H     -0.637571   -0.687922    1.667764
  H     -0.214276    1.828537    0.239114
  H     -2.585629   -0.119321    0.159131
  H     -2.494442    1.433330   -0.670381
  H     -2.496283    1.394685    1.088706
  H      0.702539    0.590407   -1.575297
  H     -1.217875   -1.737588   -0.971955
  H      0.007058   -1.682059   -2.236302
  H     -1.380025   -0.601269   -2.315249

FINAL SINGLE POINT ENERGY      -291.324402865548
                    ***********************HURRAY********************
 Multiplicity           Mult            ....    1
 Number of Electrons    NEL             ....   56
 Basis Dimension        Dim             ....  301
FINAL SINGLE POINT ENERGY      -291.324403656092

VIBRATIONAL FREQUENCIES
-----------------------

   0:         0.00 cm**-1
   1:         0.00 cm**-1
   2:         0.00 cm**-1
   3:         0.00 cm**-1
   4:         0.00 cm**-1
   5:         0.00 cm**-1
   6:        58.66 cm**-1
   7:       224.26 cm**-1
   8:       229.45 cm**-1
   9:       243.78 cm**-1
  10:       256.78 cm**-1
  11:       265.98 cm**-1
  12:       275.74 cm**-1
  13:       382.51 cm**-1
  14:       416.36 cm**-1
  15:       531.74 cm**-1
  16:       669.30 cm**-1
  17:       787.67 cm**-1
  18:       811.39 cm**-1
  19:       834.99 cm**-1
  20:       863.72 cm**-1
  21:       893.53 cm**-1
  22:       981.26 cm**-1
  23:      1001.27 cm**-1
  24:      1027.24 cm**-1
  25:      1033.38 cm**-1
  26:      1058.26 cm**-1
  27:      1112.23 cm**-1
  28:      1140.99 cm**-1
  29:      1162.25 cm**-1
  30:      1211.49 cm**-1
  31:      1223.24 cm**-1
  32:      1270.74 cm**-1
  33:      1281.90 cm**-1
  34:      1312.11 cm**-1
  35:      1330.42 cm**-1
  36:      1359.06 cm**-1
  37:      1386.31 cm**-1
  38:      1401.59 cm**-1
  39:      1418.41 cm**-1
  40:      1421.51 cm**-1
  41:      1422.00 cm**-1
  42:      1475.86 cm**-1
  43:      1479.10 cm**-1
  44:      1482.40 cm**-1
  45:      1486.45 cm**-1
  46:      1491.62 cm**-1
  47:      1497.83 cm**-1
  48:      1633.68 cm**-1
  49:      3054.21 cm**-1
  50:      3055.69 cm**-1
  51:      3062.52 cm**-1
  52:      3108.21 cm**-1
  53:      3115.42 cm**-1
  54:      3118.76 cm**-1
  55:      3131.84 cm**-1
  56:      3139.01 cm**-1
  57:      3141.99 cm**-1
  58:      3145.12 cm**-1
  59:      3145.68 cm**-1
  60:      3149.49 cm**-1
  61:      3463.60 cm**-1
  62:      3538.38 cm**-1

IR SPECTRUM
-----------

 Mode    freq (cm**-1)   T**2         TX         TY         TZ
-------------------------------------------------------------------
   6:        58.66    3.056286  ( -0.330803  -1.599417  -0.623473)
   7:       224.26    0.261658  (  0.276759  -0.274934  -0.330868)
   8:       229.45    0.108748  ( -0.043289   0.234485  -0.227795)
   9:       243.78    0.107499  ( -0.172154  -0.157871  -0.230085)
  10:       256.78    0.601793  (  0.016764  -0.070887   0.772326)
  11:       265.98    0.190237  ( -0.271766   0.236664   0.245705)
  12:       275.74    1.133746  ( -0.214338  -1.034161  -0.135339)
  13:       382.51    2.448699  ( -1.378908  -0.317455  -0.668232)
  14:       416.36    1.949070  (  1.382498   0.129983   0.144481)
  15:       531.74    1.492994  (  0.122409  -1.059234  -0.596686)
  16:       669.30    2.743642  ( -1.106430  -0.616876  -1.067202)
  17:       787.67    6.232528  ( -2.480683  -0.181159   0.214297)
  18:       811.39    1.916425  (  1.305106  -0.133915   0.441803)
  19:       834.99    2.521810  ( -0.296150  -0.878927   1.289028)
  20:       863.72    2.796629  (  1.209973  -0.929127  -0.685068)
  21:       893.53    7.337880  (  2.606545  -0.352468   0.647741)
  22:       981.26    1.050954  ( -0.395285  -0.857668   0.398884)
  23:      1001.27    8.092748  ( -1.722415   1.665498  -1.533673)
  24:      1027.24    8.032825  (  1.104090  -0.949039   2.431694)
  25:      1033.38   11.872259  ( -2.647616   1.611001   1.505677)
  26:      1058.26    1.335728  (  0.130236   0.122177  -1.141858)
  27:      1112.23    6.855320  ( -0.930549   0.958149  -2.251965)
  28:      1140.99    2.334053  ( -0.873193   0.963635   0.801870)
  29:      1162.25    6.277391  (  1.587656  -1.813520  -0.684021)
  30:      1211.49    6.184447  (  1.085360  -2.219984  -0.279485)
  31:      1223.24   12.846761  ( -3.357071   1.174748  -0.443625)
  32:      1270.74   55.131625  (  6.087034  -4.250458  -0.115115)
  33:      1281.90    4.325793  (  1.784135  -0.904875   0.569084)
  34:      1312.11   20.356359  (  3.027824  -3.121697   1.201518)
  35:      1330.42    4.519072  ( -0.858062   1.533960   1.195729)
  36:      1359.06    3.403763  ( -1.781130  -0.331275   0.348708)
  37:      1386.31    3.021866  (  1.169369  -0.410916   1.218848)
  38:      1401.59    1.185724  (  0.042646   0.608098   0.902287)
  39:      1418.41    6.074662  (  0.574640   2.384993  -0.237195)
  40:      1421.51    9.757291  (  2.385018   1.224565   1.602941)
  41:      1422.00   20.556318  ( -4.493838  -0.058532   0.598590)
  42:      1475.86    9.908761  ( -2.095745   1.570870   1.746134)
  43:      1479.10   11.625399  ( -0.080456  -1.690841  -2.959727)
  44:      1482.40    9.869704  (  1.149250   0.985479  -2.752773)
  45:      1486.45   15.767509  (  0.967705  -3.837431   0.324308)
  46:      1491.62    8.883006  (  0.964394  -2.252643   1.696629)
  47:      1497.83   10.295120  (  1.086879   2.427215  -1.795115)
  48:      1633.68   62.687463  ( -1.735754  -1.595908   7.558287)
  49:      3054.21    4.617053  (  1.472206   1.559170  -0.136569)
  50:      3055.69    1.953627  ( -0.203237   0.955859   0.999327)
  51:      3062.52    2.603349  (  0.700413   1.073512  -0.979971)
  52:      3108.21    0.062926  (  0.171371   0.105514   0.149749)
  53:      3115.42    1.439945  (  0.442172   0.762393   0.814362)
  54:      3118.76    1.263538  ( -0.916224  -0.179397  -0.626010)
  55:      3131.84    9.297707  (  1.817892   0.511066  -2.394115)
  56:      3139.01    5.206700  ( -0.283854   1.787107  -1.390099)
  57:      3141.99    4.459778  (  0.742791  -1.952311  -0.310678)
  58:      3145.12    3.581743  ( -1.488511   0.572274  -1.019107)
  59:      3145.68    0.761429  ( -0.339167  -0.694111  -0.405715)
  60:      3149.49    5.432932  ( -1.037583  -2.076900   0.206974)
  61:      3463.60   47.631286  ( -0.861943  -0.594362   6.821662)
  62:      3538.38   64.030405  ( -5.240169  -5.847626  -1.541525)

--------------------------
THERMOCHEMISTRY AT 298.15K
--------------------------

Temperature         ... 298.15 K
Pressure            ... 1.00 atm
Total Mass          ... 100.18 AMU

Throughout the following assumptions are being made:
  (1) The electronic state is orbitally nondegenerate
  (2) There are no thermally accessible electronically excited states
  (3) Hindered rotations indicated by low frequency modes) are not
      treated as such but are treated as vibrations and this may
      case some error
  (4) All equations used are the standard statistical mechanics
      equations for an ideal gas
  (5) All vibrations are strinctly harmonic

------------
INNER ENERGY
------------

The inner energy is: U= E(el) + E(ZPE) + E(vib) + E(rot) + E(trans)
    E(el)   - is the total energy from the electronic structure calculation
              = E(kin-el) + E(nuc-el) + E(el-el) + E(nuc-nuc)
    E(ZPE)  - the the zero temperature vibrational energy from the frequency calculation
    E(vib)  - the the finite temperature correction to E(ZPE) due to population
              of excietd vibrational states
    E(rot)  - is the rotational thermal energy
    E(trans)- is the translational thermal energy

Summary of contributions to the inner energy U:
Electronic energy                ...   -291.32440366 Eh
Zero point energy                ...      0.19869806 Eh     124.68 kcal/mol
Thermal vibrational correction   ...      0.00542689 Eh       3.41 kcal/mol
Thermal rotational correction    ...      0.00141627 Eh       0.89 kcal/mol
Thermal translational correction ...      0.00141627 Eh       0.89 kcal/mol
-----------------------------------------------------------------------
Total thermal energy                   -291.11744617 Eh

Summary of corrections to the electronic energy:
(perhaps to be used in another calculation)
Total thermal correction                  0.00825943 Eh       5.18 kcal/mol
Non-thermal (ZPE) correction              0.19869806 Eh     124.68 kcal/mol
-----------------------------------------------------------------------
Total correction                          0.20695749 Eh     129.87 kcal/mol

--------
ENTHALPY
--------

The enthalpy is H = U + kB*T
                kB is Boltzmann's constant
Total free energy                 ...   -291.11744617 Eh
Thermal Enthalpy correction       ...      0.00094421 Eh       0.59 kcal/mol
-----------------------------------------------------------------------
Total Enthalpy                    ...   -291.11650196 Eh

-------
ENTROPY
-------

The entropy contributions are T*S = T*(S(el)+S(vib)+S(rot)+S(trans)
     S(el)   - electronic entropy
     S(vib)  - vibrational entropy
     S(rot)  - rotational entropy
     S(trans)- translational entropy
The entropies will be listed as mutliplied by the temperature to get
units of energy

Electronic entropy                ...      0.00000000 Eh      0.00 kcal/mol
Vibrational entropy               ...      0.00935245 Eh      5.87 kcal/mol
Rotational entropy                ...      0.01207685 Eh      7.58 kcal/mol
Translational entropy             ...      0.01887386 Eh     11.84 kcal/mol
-----------------------------------------------------------------------
Final entropy term                ...      0.04030316 Eh     25.29 kcal/mol

CAUTION: The rotational entropy is not quite correctly treated here
         because it includes a symmetry number that is not yet correctly
         implemented in ORCA!
For a nonlinear molecule the correct rotational entropy is:
    S(rot) = R*(ln(qrot/sn)+1.5)
    R    = 8.31441 J/mol/K = 1.987191683e-3 kcal/mol/K
    qrot = 240250.0564135
    sn is the rotational symmetry number. We have assumed 3 here
       if it is different for your molecule then you should correct
       the printed rotational entropy by manually evaluating the equation
       as given above

For convenience we print out the resulting values for sn=1 - 12:
 sn= 1  qrot/sn=  240250.0564 T*S(rot)=     8.23 kcal/mol T*S(tot)=    25.94 kcal/mol
 sn= 2  qrot/sn=  120125.0282 T*S(rot)=     7.82 kcal/mol T*S(tot)=    25.53 kcal/mol
 sn= 3  qrot/sn=   80083.3521 T*S(rot)=     7.58 kcal/mol T*S(tot)=    25.29 kcal/mol
 sn= 4  qrot/sn=   60062.5141 T*S(rot)=     7.41 kcal/mol T*S(tot)=    25.12 kcal/mol
 sn= 5  qrot/sn=   48050.0113 T*S(rot)=     7.28 kcal/mol T*S(tot)=    24.99 kcal/mol
 sn= 6  qrot/sn=   40041.6761 T*S(rot)=     7.17 kcal/mol T*S(tot)=    24.88 kcal/mol
 sn= 7  qrot/sn=   34321.4366 T*S(rot)=     7.08 kcal/mol T*S(tot)=    24.79 kcal/mol
 sn= 8  qrot/sn=   30031.2571 T*S(rot)=     7.00 kcal/mol T*S(tot)=    24.71 kcal/mol
 sn= 9  qrot/sn=   26694.4507 T*S(rot)=     6.93 kcal/mol T*S(tot)=    24.64 kcal/mol
 sn=10  qrot/sn=   24025.0056 T*S(rot)=     6.86 kcal/mol T*S(tot)=    24.58 kcal/mol
 sn=11  qrot/sn=   21840.9142 T*S(rot)=     6.81 kcal/mol T*S(tot)=    24.52 kcal/mol
 sn=12  qrot/sn=   20020.8380 T*S(rot)=     6.76 kcal/mol T*S(tot)=    24.47 kcal/mol

-------------------
GIBBS FREE ENTHALPY
-------------------

The Gibbs free enthalpy is G = H - T*S

Total enthalpy                    ...   -291.11650196 Eh
Total entropy correction          ...     -0.04030316 Eh    -25.29 kcal/mol
-----------------------------------------------------------------------
Final Gibbs free enthalpy         ...   -291.15680512 Eh

For completeness - the Gibbs free enthalpy minus the electronic energy
G-E(el)                           ...      0.16759854 Eh    105.17 kcal/mol

                             ****ORCA TERMINATED NORMALLY****
TOTAL RUN TIME: 0 days 1 hours 0 minutes 2 seconds 653 msec
