                         Program Version 3.0.3 - RELEASE   -
|  1> ! NORI PBE0 def2-TZVP UseSym TightOPT Freq TightSCF Grid3 FinalGrid5 XYZFile
|  2> % pal
|  3>     nprocs 8
|  4> end
|  5> %method
|  6>     SymThresh 5.0e-2
|  7> end
|  8> % geom
|  9>     MaxIter 10
| 10> end
| 11> % maxcore 2000
| 12> % output
| 13>     printlevel mini
| 14>     print[ P_Basis ] 0
| 15>     print[ P_SCFInfo ] 1
| 16>     print[ P_SCFIterInfo ] 1
| 17>     print[ P_OrbEn ] 0
| 18>     print[ P_Cartesian ] 0
| 19> end
| 20> % elprop
| 21>     Dipole false
| 22> end
| 23> *xyz 1 1
| 24>  C        0.9560222201     0.1320323628    -0.0072758230
| 25>  C        2.4578674414     0.0408980854     0.0807741897
| 26>  N        3.0381005702     1.1519203051     0.9317516877
| 27>  C        4.4413485154     0.7266539773     1.2530155977
| 28>  C        4.3155130515    -0.7751640167     1.4755851593
| 29>  C        3.0563832404    -1.1776219810     0.7378587130
| 30>  C        2.5349229086    -2.3918788975     0.6870047417
| 31>  H        0.5867253755    -0.6559993449    -0.6640569763
| 32>  H        0.6318870037     1.0827327077    -0.4363831602
| 33>  H        0.4887265932    -0.0041635337     0.9707446095
| 34>  H        2.9100820261     0.1931665661    -0.9065406641
| 35>  H        2.4869126692     1.2308630160     1.7888964256
| 36>  H        3.0003763450     2.0573643899     0.4639145619
| 37>  H        4.8087375963     1.2939563914     2.1064960846
| 38>  H        5.0464797489     0.9672883378     0.3785918230
| 39>  H        5.1995801146    -1.2939442794     1.1025734724
| 40>  H        4.2301461953    -1.0094939840     2.5391675643
| 41>  H        1.6138403278    -2.6025182321     0.1573237631
| 42>  H        3.0202680568    -3.2316218701     1.1698982301
| 43> *
| 44>
| 45>                          ****END OF INPUT****
 Total Charge           Charge          ....    1
 Multiplicity           Mult            ....    1
 Number of Electrons    NEL             ....   54
FINAL SINGLE POINT ENERGY      -290.114049894606

CARTESIAN COORDINATES (ANGSTROEM)
---------------------------------
  C      2.165150    0.000503    0.191524
  C      0.729707   -0.459185    0.198990
  N     -0.000301   -0.000363    1.444986
  C     -1.461251   -0.173280    1.146435
  C     -1.575692    0.235173   -0.316913
  C     -0.183914    0.055496   -0.884919
  C      0.195914    0.324485   -2.122803
  H      2.661873   -0.389258   -0.697239
  H      2.716110   -0.376310    1.055990
  H      2.236006    1.090286    0.160685
  H      0.677409   -1.553651    0.243160
  H      0.213764    0.986202    1.606492
  H      0.293504   -0.512994    2.276260
  H     -2.049232    0.422316    1.842479
  H     -1.686953   -1.228272    1.301949
  H     -2.316667   -0.379218   -0.830160
  H     -1.898904    1.274526   -0.411260
  H      1.218827    0.192271   -2.453659
  H     -0.511841    0.680017   -2.862297

FINAL SINGLE POINT ENERGY      -290.114050817652
                    ***********************HURRAY********************
 Multiplicity           Mult            ....    1
 Number of Electrons    NEL             ....   54
 Basis Dimension        Dim             ....  289
FINAL SINGLE POINT ENERGY      -290.114051181499

VIBRATIONAL FREQUENCIES
-----------------------

   0:         0.00 cm**-1
   1:         0.00 cm**-1
   2:         0.00 cm**-1
   3:         0.00 cm**-1
   4:         0.00 cm**-1
   5:         0.00 cm**-1
   6:        41.08 cm**-1
   7:       191.80 cm**-1
   8:       230.05 cm**-1
   9:       275.80 cm**-1
  10:       344.16 cm**-1
  11:       388.83 cm**-1
  12:       526.91 cm**-1
  13:       566.67 cm**-1
  14:       607.12 cm**-1
  15:       702.89 cm**-1
  16:       780.17 cm**-1
  17:       840.39 cm**-1
  18:       852.11 cm**-1
  19:       908.77 cm**-1
  20:       918.06 cm**-1
  21:       965.13 cm**-1
  22:       982.27 cm**-1
  23:      1016.29 cm**-1
  24:      1033.04 cm**-1
  25:      1067.45 cm**-1
  26:      1106.59 cm**-1
  27:      1117.90 cm**-1
  28:      1194.63 cm**-1
  29:      1247.50 cm**-1
  30:      1256.61 cm**-1
  31:      1270.46 cm**-1
  32:      1321.25 cm**-1
  33:      1352.32 cm**-1
  34:      1375.09 cm**-1
  35:      1396.61 cm**-1
  36:      1407.31 cm**-1
  37:      1418.29 cm**-1
  38:      1452.41 cm**-1
  39:      1476.93 cm**-1
  40:      1478.85 cm**-1
  41:      1494.14 cm**-1
  42:      1505.65 cm**-1
  43:      1648.87 cm**-1
  44:      1752.92 cm**-1
  45:      3053.03 cm**-1
  46:      3062.49 cm**-1
  47:      3083.82 cm**-1
  48:      3111.75 cm**-1
  49:      3131.49 cm**-1
  50:      3140.99 cm**-1
  51:      3156.24 cm**-1
  52:      3173.74 cm**-1
  53:      3175.48 cm**-1
  54:      3260.54 cm**-1
  55:      3442.68 cm**-1
  56:      3514.16 cm**-1

IR SPECTRUM
-----------

 Mode    freq (cm**-1)   T**2         TX         TY         TZ
-------------------------------------------------------------------
   6:        41.08    1.333678  (  0.189676   1.041009  -0.462602)
   7:       191.80    2.152434  ( -0.493008   1.317217  -0.417513)
   8:       230.05    0.117037  ( -0.147334   0.136017  -0.277180)
   9:       275.80    1.958681  ( -0.922213   1.042545   0.145960)
  10:       344.16   10.096876  ( -1.072390  -2.771903   1.124015)
  11:       388.83    0.895279  ( -0.532888   0.574094   0.530778)
  12:       526.91    3.454421  (  0.373500   1.576415   0.910952)
  13:       566.67    7.320051  (  0.289130   0.871701   2.544915)
  14:       607.12    1.812978  ( -0.903438   0.888254  -0.455830)
  15:       702.89    0.212174  ( -0.459110  -0.036456   0.007985)
  16:       780.17    1.530650  ( -0.185307  -0.090084   1.219917)
  17:       840.39    2.272396  (  0.911479  -0.986235  -0.684794)
  18:       852.11    1.591228  ( -1.085278   0.642650   0.020033)
  19:       908.77    1.734044  (  0.457948   1.234633  -0.002843)
  20:       918.06    2.927520  ( -0.380609   1.351928  -0.977214)
  21:       965.13    4.078661  ( -1.304732   1.102739   1.077172)
  22:       982.27   35.680188  ( -1.127203  -5.598149  -1.752234)
  23:      1016.29    5.295683  (  1.007475  -0.775092  -1.918309)
  24:      1033.04    6.522430  ( -2.531273  -0.304752  -0.149035)
  25:      1067.45    4.788802  ( -1.661566   1.288863  -0.605665)
  26:      1106.59    7.389724  ( -1.413760   0.817288   2.173257)
  27:      1117.90    3.740350  (  0.582494   0.252104  -1.826881)
  28:      1194.63    9.791518  (  1.787576  -0.791730  -2.443205)
  29:      1247.50    1.874211  ( -1.287920  -0.415340  -0.207285)
  30:      1256.61    1.309305  (  1.093933  -0.223950   0.249923)
  31:      1270.46   28.255418  (  4.426129   0.751213  -2.846134)
  32:      1321.25    6.184184  ( -1.822601  -0.106436   1.688485)
  33:      1352.32   14.104392  (  2.619908  -0.916072  -2.530076)
  34:      1375.09   21.201617  ( -3.951618   2.341579  -0.321467)
  35:      1396.61    5.948361  ( -1.787476   0.034433   1.658947)
  36:      1407.31   19.198237  ( -3.645241   0.078143   2.429886)
  37:      1418.29    9.119798  ( -2.827163  -1.010179  -0.326318)
  38:      1452.41   21.374710  ( -0.681764  -1.743001   4.227512)
  39:      1476.93    5.856920  (  0.153261  -1.441344  -1.938030)
  40:      1478.85   11.767902  ( -2.283186   1.947228  -1.662307)
  41:      1494.14   10.516932  (  2.119693  -2.422068  -0.396764)
  42:      1505.65   11.184264  (  2.072282   1.937790  -1.770559)
  43:      1648.87   61.201847  ( -2.728326  -3.425350  -6.482674)
  44:      1752.92    2.892032  ( -0.644707  -0.065754   1.572279)
  45:      3053.03    2.312525  ( -0.582599  -0.766076   1.177383)
  46:      3062.49    2.767050  ( -0.712304  -0.909297  -1.197018)
  47:      3083.82    0.693993  (  0.479282  -0.678671   0.060727)
  48:      3111.75    1.628357  (  0.271689   0.818081  -0.940896)
  49:      3131.49    0.290809  ( -0.055403   0.013027  -0.536256)
  50:      3140.99    4.599161  ( -0.987003   1.534421  -1.127182)
  51:      3156.24    0.805609  (  0.576473   0.467977   0.504268)
  52:      3173.74    0.420973  ( -0.137141   0.274832  -0.571518)
  53:      3175.48    0.164858  ( -0.369102   0.117390   0.121823)
  54:      3260.54    0.094757  ( -0.231594  -0.036447   0.199482)
  55:      3442.68   46.777720  ( -2.160278  -3.548690  -5.433021)
  56:      3514.16   68.787498  ( -0.846778   6.495912  -5.086609)

--------------------------
THERMOCHEMISTRY AT 298.15K
--------------------------

Temperature         ... 298.15 K
Pressure            ... 1.00 atm
Total Mass          ... 98.17 AMU

Throughout the following assumptions are being made:
  (1) The electronic state is orbitally nondegenerate
  (2) There are no thermally accessible electronically excited states
  (3) Hindered rotations indicated by low frequency modes) are not
      treated as such but are treated as vibrations and this may
      case some error
  (4) All equations used are the standard statistical mechanics
      equations for an ideal gas
  (5) All vibrations are strinctly harmonic

------------
INNER ENERGY
------------

The inner energy is: U= E(el) + E(ZPE) + E(vib) + E(rot) + E(trans)
    E(el)   - is the total energy from the electronic structure calculation
              = E(kin-el) + E(nuc-el) + E(el-el) + E(nuc-nuc)
    E(ZPE)  - the the zero temperature vibrational energy from the frequency calculation
    E(vib)  - the the finite temperature correction to E(ZPE) due to population
              of excietd vibrational states
    E(rot)  - is the rotational thermal energy
    E(trans)- is the translational thermal energy

Summary of contributions to the inner energy U:
Electronic energy                ...   -290.11405118 Eh
Zero point energy                ...      0.17728645 Eh     111.25 kcal/mol
Thermal vibrational correction   ...      0.00441468 Eh       2.77 kcal/mol
Thermal rotational correction    ...      0.00141627 Eh       0.89 kcal/mol
Thermal translational correction ...      0.00141627 Eh       0.89 kcal/mol
-----------------------------------------------------------------------
Total thermal energy                   -289.92951752 Eh

Summary of corrections to the electronic energy:
(perhaps to be used in another calculation)
Total thermal correction                  0.00724722 Eh       4.55 kcal/mol
Non-thermal (ZPE) correction              0.17728645 Eh     111.25 kcal/mol
-----------------------------------------------------------------------
Total correction                          0.18453366 Eh     115.80 kcal/mol

--------
ENTHALPY
--------

The enthalpy is H = U + kB*T
                kB is Boltzmann's constant
Total free energy                 ...   -289.92951752 Eh
Thermal Enthalpy correction       ...      0.00094421 Eh       0.59 kcal/mol
-----------------------------------------------------------------------
Total Enthalpy                    ...   -289.92857331 Eh

-------
ENTROPY
-------

The entropy contributions are T*S = T*(S(el)+S(vib)+S(rot)+S(trans)
     S(el)   - electronic entropy
     S(vib)  - vibrational entropy
     S(rot)  - rotational entropy
     S(trans)- translational entropy
The entropies will be listed as mutliplied by the temperature to get
units of energy

Electronic entropy                ...      0.00000000 Eh      0.00 kcal/mol
Vibrational entropy               ...      0.00790270 Eh      4.96 kcal/mol
Rotational entropy                ...      0.01196359 Eh      7.51 kcal/mol
Translational entropy             ...      0.01884507 Eh     11.83 kcal/mol
-----------------------------------------------------------------------
Final entropy term                ...      0.03871136 Eh     24.29 kcal/mol

CAUTION: The rotational entropy is not quite correctly treated here
         because it includes a symmetry number that is not yet correctly
         implemented in ORCA!
For a nonlinear molecule the correct rotational entropy is:
    S(rot) = R*(ln(qrot/sn)+1.5)
    R    = 8.31441 J/mol/K = 1.987191683e-3 kcal/mol/K
    qrot = 213091.7922991
    sn is the rotational symmetry number. We have assumed 3 here
       if it is different for your molecule then you should correct
       the printed rotational entropy by manually evaluating the equation
       as given above

For convenience we print out the resulting values for sn=1 - 12:
 sn= 1  qrot/sn=  213091.7923 T*S(rot)=     8.16 kcal/mol T*S(tot)=    24.94 kcal/mol
 sn= 2  qrot/sn=  106545.8961 T*S(rot)=     7.75 kcal/mol T*S(tot)=    24.53 kcal/mol
 sn= 3  qrot/sn=   71030.5974 T*S(rot)=     7.51 kcal/mol T*S(tot)=    24.29 kcal/mol
 sn= 4  qrot/sn=   53272.9481 T*S(rot)=     7.34 kcal/mol T*S(tot)=    24.12 kcal/mol
 sn= 5  qrot/sn=   42618.3585 T*S(rot)=     7.20 kcal/mol T*S(tot)=    23.99 kcal/mol
 sn= 6  qrot/sn=   35515.2987 T*S(rot)=     7.10 kcal/mol T*S(tot)=    23.88 kcal/mol
 sn= 7  qrot/sn=   30441.6846 T*S(rot)=     7.01 kcal/mol T*S(tot)=    23.79 kcal/mol
 sn= 8  qrot/sn=   26636.4740 T*S(rot)=     6.93 kcal/mol T*S(tot)=    23.71 kcal/mol
 sn= 9  qrot/sn=   23676.8658 T*S(rot)=     6.86 kcal/mol T*S(tot)=    23.64 kcal/mol
 sn=10  qrot/sn=   21309.1792 T*S(rot)=     6.79 kcal/mol T*S(tot)=    23.58 kcal/mol
 sn=11  qrot/sn=   19371.9811 T*S(rot)=     6.74 kcal/mol T*S(tot)=    23.52 kcal/mol
 sn=12  qrot/sn=   17757.6494 T*S(rot)=     6.69 kcal/mol T*S(tot)=    23.47 kcal/mol

-------------------
GIBBS FREE ENTHALPY
-------------------

The Gibbs free enthalpy is G = H - T*S

Total enthalpy                    ...   -289.92857331 Eh
Total entropy correction          ...     -0.03871136 Eh    -24.29 kcal/mol
-----------------------------------------------------------------------
Final Gibbs free enthalpy         ...   -289.96728467 Eh

For completeness - the Gibbs free enthalpy minus the electronic energy
G-E(el)                           ...      0.14676652 Eh     92.10 kcal/mol

                             ****ORCA TERMINATED NORMALLY****
TOTAL RUN TIME: 0 days 0 hours 55 minutes 5 seconds 39 msec
