                         Program Version 3.0.3 - RELEASE   -
|  1> ! NORI PBE0 def2-TZVP UseSym TightOPT Freq TightSCF Grid3 FinalGrid5 XYZFile
|  2> % pal
|  3>     nprocs 8
|  4> end
|  5> %method
|  6>     SymThresh 5.0e-2
|  7> end
|  8> % geom
|  9>     MaxIter 10
| 10> end
| 11> % maxcore 2000
| 12> % output
| 13>     printlevel mini
| 14>     print[ P_Basis ] 0
| 15>     print[ P_SCFInfo ] 1
| 16>     print[ P_SCFIterInfo ] 1
| 17>     print[ P_OrbEn ] 0
| 18>     print[ P_Cartesian ] 0
| 19> end
| 20> % elprop
| 21>     Dipole false
| 22> end
| 23> *xyz 1 1
| 24>  C        0.9644365213     0.0328868067    -0.0031488983
| 25>  C        2.4581085504    -0.0000474512     0.2154972239
| 26>  N        3.1195328699     0.0534670152    -1.1671742323
| 27>  C        3.0463287267     1.1479339322     1.0272092848
| 28>  C        4.4595800958     0.6894934708     1.4152908113
| 29>  C        4.4405364521    -0.8561385912     1.3306011571
| 30>  C        3.0115390841    -1.2342192276     0.9175688460
| 31>  H        0.6149597050    -0.8252438829    -0.5840588494
| 32>  H        0.6428777865     0.9501765585    -0.5044131227
| 33>  H        0.4626828904    -0.0018907062     0.9639475617
| 34>  H        2.8337625716    -0.7425177599    -1.7402543248
| 35>  H        4.1376698430     0.0308397784    -1.0763267520
| 36>  H        2.8635221438     0.9097510570    -1.6620133455
| 37>  H        2.4178238273     1.2601190873     1.9129350438
| 38>  H        3.0159491686     2.1084857090     0.5045811048
| 39>  H        4.7227318053     1.0426791874     2.4112867728
| 40>  H        5.2151030811     1.1152945416     0.7485768167
| 41>  H        5.1746870082    -1.2234140493     0.6071658396
| 42>  H        4.7105075621    -1.3236646141     2.2765034019
| 43>  H        2.9466408168    -2.1432189736     0.3123592495
| 44>  H        2.3858794901    -1.4037318880     1.7965164112
| 45> *
| 46>
| 47>                          ****END OF INPUT****
 Total Charge           Charge          ....    1
 Multiplicity           Mult            ....    1
 Number of Electrons    NEL             ....   56
FINAL SINGLE POINT ENERGY      -291.346460118963
FINAL SINGLE POINT ENERGY      -291.346461243266

CARTESIAN COORDINATES (ANGSTROEM)
---------------------------------
  C      2.114827   -0.000222    0.419249
  C      0.614414    0.000145    0.249794
  N      0.001066    0.000466    1.655234
  C      0.018516    1.192762   -0.489382
  C     -1.414182    0.773791   -0.850536
  C     -1.417765   -0.774351   -0.837380
  C      0.017340   -1.192168   -0.488621
  H      2.467687   -0.889061    0.949420
  H      2.468048    0.888537    0.949346
  H      2.583949   -0.000218   -0.564906
  H      0.292294   -0.825458    2.180824
  H     -1.019538   -0.001617    1.599387
  H      0.289236    0.828550    2.179066
  H      0.619209    1.336466   -1.390068
  H      0.081741    2.127652    0.074920
  H     -1.704480    1.176382   -1.820073
  H     -2.140152    1.178405   -0.139294
  H     -2.134338   -1.163113   -0.107461
  H     -1.725623   -1.193585   -1.794318
  H      0.086671   -2.128821    0.071996
  H      0.611607   -1.330674   -1.394424

FINAL SINGLE POINT ENERGY      -291.346461606801
                    ***********************HURRAY********************
 Multiplicity           Mult            ....    1
 Number of Electrons    NEL             ....   56
 Basis Dimension        Dim             ....  301
FINAL SINGLE POINT ENERGY      -291.346461719043

VIBRATIONAL FREQUENCIES
-----------------------

   0:         0.00 cm**-1
   1:         0.00 cm**-1
   2:         0.00 cm**-1
   3:         0.00 cm**-1
   4:         0.00 cm**-1
   5:         0.00 cm**-1
   6:        57.41 cm**-1
   7:       169.36 cm**-1
   8:       209.61 cm**-1
   9:       240.73 cm**-1
  10:       280.21 cm**-1
  11:       338.22 cm**-1
  12:       392.37 cm**-1
  13:       407.69 cm**-1
  14:       568.03 cm**-1
  15:       648.52 cm**-1
  16:       695.80 cm**-1
  17:       785.04 cm**-1
  18:       802.92 cm**-1
  19:       881.54 cm**-1
  20:       906.27 cm**-1
  21:       915.89 cm**-1
  22:       936.03 cm**-1
  23:       967.25 cm**-1
  24:       970.27 cm**-1
  25:      1009.19 cm**-1
  26:      1051.95 cm**-1
  27:      1071.84 cm**-1
  28:      1077.74 cm**-1
  29:      1197.15 cm**-1
  30:      1203.71 cm**-1
  31:      1240.29 cm**-1
  32:      1254.23 cm**-1
  33:      1287.68 cm**-1
  34:      1289.40 cm**-1
  35:      1323.92 cm**-1
  36:      1329.11 cm**-1
  37:      1347.31 cm**-1
  38:      1388.77 cm**-1
  39:      1423.00 cm**-1
  40:      1471.56 cm**-1
  41:      1472.75 cm**-1
  42:      1480.49 cm**-1
  43:      1488.83 cm**-1
  44:      1491.42 cm**-1
  45:      1498.93 cm**-1
  46:      1524.14 cm**-1
  47:      1650.85 cm**-1
  48:      1651.37 cm**-1
  49:      3052.26 cm**-1
  50:      3057.07 cm**-1
  51:      3069.94 cm**-1
  52:      3071.58 cm**-1
  53:      3077.50 cm**-1
  54:      3117.71 cm**-1
  55:      3121.91 cm**-1
  56:      3124.37 cm**-1
  57:      3133.38 cm**-1
  58:      3146.99 cm**-1
  59:      3154.04 cm**-1
  60:      3420.21 cm**-1
  61:      3509.08 cm**-1
  62:      3517.15 cm**-1

IR SPECTRUM
-----------

 Mode    freq (cm**-1)   T**2         TX         TY         TZ
-------------------------------------------------------------------
   6:        57.41    1.206329  ( -0.060218   1.094471  -0.069547)
   7:       169.36    9.329824  (  1.595255   0.054475   2.604231)
   8:       209.61    0.055038  ( -0.008909  -0.233313  -0.022884)
   9:       240.73    0.712993  ( -0.004553  -0.844365  -0.004374)
  10:       280.21    1.507031  ( -0.012781   1.227438  -0.016234)
  11:       338.22    9.972066  (  2.665812   0.004516   1.692776)
  12:       392.37    4.387460  ( -0.019814  -2.094189   0.037916)
  13:       407.69    6.080705  (  0.677177  -0.038732  -2.370788)
  14:       568.03    0.881074  (  0.555584   0.005672   0.756550)
  15:       648.52    0.029346  (  0.004636   0.164719  -0.046817)
  16:       695.80    0.698510  ( -0.379127  -0.013694  -0.744705)
  17:       785.04    5.119178  (  0.909248  -0.003806  -2.071819)
  18:       802.92    0.030982  ( -0.057444  -0.054646   0.157151)
  19:       881.54    2.500240  (  0.780646  -0.004099  -1.375069)
  20:       906.27    0.998513  ( -0.404022  -0.014494   0.913821)
  21:       915.89    0.541845  (  0.005175   0.735774   0.021318)
  22:       936.03    7.451965  ( -2.151027  -0.010783  -1.680753)
  23:       967.25   11.934585  (  3.397173   0.250476   0.575378)
  24:       970.27    5.594583  ( -0.369652   2.335769  -0.046068)
  25:      1009.19    1.947432  (  0.024587   1.394846   0.035106)
  26:      1051.95    7.984352  (  0.122154   0.016666  -2.822969)
  27:      1071.84    4.638424  (  0.084002   0.094711   2.149976)
  28:      1077.74    2.499453  (  0.020206   1.576698  -0.114309)
  29:      1197.15    3.993567  ( -1.061933   0.006918  -1.692873)
  30:      1203.71    2.727637  ( -0.048145   1.650748  -0.018722)
  31:      1240.29   14.168591  (  2.487898  -0.009056  -2.824690)
  32:      1254.23    6.837962  ( -0.082344  -2.613550   0.023134)
  33:      1287.68    3.051245  (  0.029991  -1.746523   0.001877)
  34:      1289.40    4.893963  ( -1.208350   0.030520  -1.852814)
  35:      1323.92    4.227339  ( -0.092626   2.050193   0.124373)
  36:      1329.11    1.637008  ( -0.910499  -0.198450   0.876708)
  37:      1347.31    0.034027  ( -0.002564  -0.184418  -0.003293)
  38:      1388.77   15.855935  ( -2.484298  -0.003651  -3.111942)
  39:      1423.00   32.313293  (  5.056402  -0.009247  -2.597308)
  40:      1471.56  125.622556  ( -3.348292  -0.027113  10.696297)
  41:      1472.75    6.646699  (  0.109251  -2.550159  -0.362565)
  42:      1480.49   41.179057  ( -1.513558   0.018727   6.236012)
  43:      1488.83   10.440905  ( -0.027760   3.230978   0.030214)
  44:      1491.42    2.830201  ( -1.675553   0.020642   0.149321)
  45:      1498.93   13.444561  ( -0.070496  -3.660727   0.196635)
  46:      1524.14   13.217425  ( -3.299405  -0.015569   1.526796)
  47:      1650.85   32.779119  ( -1.630486   5.454416  -0.608259)
  48:      1651.37   34.524326  ( -5.245056  -1.700079  -2.030627)
  49:      3052.26    4.071657  (  0.748438  -0.010814   1.873868)
  50:      3057.07    5.376654  (  0.541047   2.211059  -0.441746)
  51:      3069.94   21.508180  (  4.530919   0.238368  -0.960277)
  52:      3071.58   11.446659  (  0.695503  -3.310439  -0.062672)
  53:      3077.50    9.652733  ( -0.005153   0.254919   3.096405)
  54:      3117.71    6.305729  ( -0.018081   2.510658  -0.044722)
  55:      3121.91    3.940520  ( -1.439490  -0.017705   1.366775)
  56:      3124.37    6.952132  ( -0.011464  -2.636612   0.016711)
  57:      3133.38    0.028548  (  0.073941   0.142970  -0.051382)
  58:      3146.99    4.966585  ( -0.139565   0.037116   2.223900)
  59:      3154.04    2.552904  ( -0.774114  -0.001235  -1.397730)
  60:      3420.21   24.618848  (  2.224487   0.017126  -4.435111)
  61:      3509.08   76.673354  (  7.281774  -0.065363   4.862597)
  62:      3517.15   66.236111  ( -0.073880  -8.137975  -0.063363)

--------------------------
THERMOCHEMISTRY AT 298.15K
--------------------------

Temperature         ... 298.15 K
Pressure            ... 1.00 atm
Total Mass          ... 100.18 AMU

Throughout the following assumptions are being made:
  (1) The electronic state is orbitally nondegenerate
  (2) There are no thermally accessible electronically excited states
  (3) Hindered rotations indicated by low frequency modes) are not
      treated as such but are treated as vibrations and this may
      case some error
  (4) All equations used are the standard statistical mechanics
      equations for an ideal gas
  (5) All vibrations are strinctly harmonic

------------
INNER ENERGY
------------

The inner energy is: U= E(el) + E(ZPE) + E(vib) + E(rot) + E(trans)
    E(el)   - is the total energy from the electronic structure calculation
              = E(kin-el) + E(nuc-el) + E(el-el) + E(nuc-nuc)
    E(ZPE)  - the the zero temperature vibrational energy from the frequency calculation
    E(vib)  - the the finite temperature correction to E(ZPE) due to population
              of excietd vibrational states
    E(rot)  - is the rotational thermal energy
    E(trans)- is the translational thermal energy

Summary of contributions to the inner energy U:
Electronic energy                ...   -291.34646172 Eh
Zero point energy                ...      0.20041488 Eh     125.76 kcal/mol
Thermal vibrational correction   ...      0.00508478 Eh       3.19 kcal/mol
Thermal rotational correction    ...      0.00141627 Eh       0.89 kcal/mol
Thermal translational correction ...      0.00141627 Eh       0.89 kcal/mol
-----------------------------------------------------------------------
Total thermal energy                   -291.13812951 Eh

Summary of corrections to the electronic energy:
(perhaps to be used in another calculation)
Total thermal correction                  0.00791732 Eh       4.97 kcal/mol
Non-thermal (ZPE) correction              0.20041488 Eh     125.76 kcal/mol
-----------------------------------------------------------------------
Total correction                          0.20833221 Eh     130.73 kcal/mol

--------
ENTHALPY
--------

The enthalpy is H = U + kB*T
                kB is Boltzmann's constant
Total free energy                 ...   -291.13812951 Eh
Thermal Enthalpy correction       ...      0.00094421 Eh       0.59 kcal/mol
-----------------------------------------------------------------------
Total Enthalpy                    ...   -291.13718530 Eh

-------
ENTROPY
-------

The entropy contributions are T*S = T*(S(el)+S(vib)+S(rot)+S(trans)
     S(el)   - electronic entropy
     S(vib)  - vibrational entropy
     S(rot)  - rotational entropy
     S(trans)- translational entropy
The entropies will be listed as mutliplied by the temperature to get
units of energy

Electronic entropy                ...      0.00000000 Eh      0.00 kcal/mol
Vibrational entropy               ...      0.00883547 Eh      5.54 kcal/mol
Rotational entropy                ...      0.01193030 Eh      7.49 kcal/mol
Translational entropy             ...      0.01887386 Eh     11.84 kcal/mol
-----------------------------------------------------------------------
Final entropy term                ...      0.03963963 Eh     24.87 kcal/mol

CAUTION: The rotational entropy is not quite correctly treated here
         because it includes a symmetry number that is not yet correctly
         implemented in ORCA!
For a nonlinear molecule the correct rotational entropy is:
    S(rot) = R*(ln(qrot/sn)+1.5)
    R    = 8.31441 J/mol/K = 1.987191683e-3 kcal/mol/K
    qrot = 205709.4584703
    sn is the rotational symmetry number. We have assumed 3 here
       if it is different for your molecule then you should correct
       the printed rotational entropy by manually evaluating the equation
       as given above

For convenience we print out the resulting values for sn=1 - 12:
 sn= 1  qrot/sn=  205709.4585 T*S(rot)=     8.14 kcal/mol T*S(tot)=    25.53 kcal/mol
 sn= 2  qrot/sn=  102854.7292 T*S(rot)=     7.73 kcal/mol T*S(tot)=    25.11 kcal/mol
 sn= 3  qrot/sn=   68569.8195 T*S(rot)=     7.49 kcal/mol T*S(tot)=    24.87 kcal/mol
 sn= 4  qrot/sn=   51427.3646 T*S(rot)=     7.32 kcal/mol T*S(tot)=    24.70 kcal/mol
 sn= 5  qrot/sn=   41141.8917 T*S(rot)=     7.18 kcal/mol T*S(tot)=    24.57 kcal/mol
 sn= 6  qrot/sn=   34284.9097 T*S(rot)=     7.08 kcal/mol T*S(tot)=    24.46 kcal/mol
 sn= 7  qrot/sn=   29387.0655 T*S(rot)=     6.98 kcal/mol T*S(tot)=    24.37 kcal/mol
 sn= 8  qrot/sn=   25713.6823 T*S(rot)=     6.91 kcal/mol T*S(tot)=    24.29 kcal/mol
 sn= 9  qrot/sn=   22856.6065 T*S(rot)=     6.84 kcal/mol T*S(tot)=    24.22 kcal/mol
 sn=10  qrot/sn=   20570.9458 T*S(rot)=     6.77 kcal/mol T*S(tot)=    24.16 kcal/mol
 sn=11  qrot/sn=   18700.8599 T*S(rot)=     6.72 kcal/mol T*S(tot)=    24.10 kcal/mol
 sn=12  qrot/sn=   17142.4549 T*S(rot)=     6.67 kcal/mol T*S(tot)=    24.05 kcal/mol

-------------------
GIBBS FREE ENTHALPY
-------------------

The Gibbs free enthalpy is G = H - T*S

Total enthalpy                    ...   -291.13718530 Eh
Total entropy correction          ...     -0.03963963 Eh    -24.87 kcal/mol
-----------------------------------------------------------------------
Final Gibbs free enthalpy         ...   -291.17682494 Eh

For completeness - the Gibbs free enthalpy minus the electronic energy
G-E(el)                           ...      0.16963678 Eh    106.45 kcal/mol

                             ****ORCA TERMINATED NORMALLY****
TOTAL RUN TIME: 0 days 1 hours 1 minutes 43 seconds 98 msec
