                         Program Version 3.0.3 - RELEASE   -
|  1> ! NORI PBE0 def2-TZVP UseSym TightOPT Freq TightSCF Grid3 FinalGrid5 XYZFile
|  2> % pal
|  3>     nprocs 8
|  4> end
|  5> %method
|  6>     SymThresh 5.0e-2
|  7> end
|  8> % geom
|  9>     MaxIter 10
| 10> end
| 11> % maxcore 2000
| 12> % output
| 13>     printlevel mini
| 14>     print[ P_Basis ] 0
| 15>     print[ P_SCFInfo ] 1
| 16>     print[ P_SCFIterInfo ] 1
| 17>     print[ P_OrbEn ] 0
| 18>     print[ P_Cartesian ] 0
| 19> end
| 20> % elprop
| 21>     Dipole false
| 22> end
| 23> *xyz 1 1
| 24>  C        0.9934390553    -0.0204498352     0.0292318642
| 25>  C        2.5097033347    -0.0245086392    -0.0351031569
| 26>  N        3.0517453384    -0.0328110040     1.3928270091
| 27>  C        3.1052443916     1.1598647867    -0.7547330085
| 28>  C        3.8588157882     0.7156004442    -1.7636463897
| 29>  C        3.8545834809    -0.7563513792    -1.7704743176
| 30>  C        3.0984277937    -1.2055744473    -0.7657028723
| 31>  H        0.6011891512    -0.0150174078    -0.9878675836
| 32>  H        0.6136225842     0.8692445895     0.5382831206
| 33>  H        0.6084972629    -0.9122220103     0.5307592318
| 34>  H        4.0743629336    -0.0346186483     1.3719895627
| 35>  H        2.7379619113    -0.8610440536     1.9030313581
| 36>  H        2.7410426381     0.7912867238     1.9115679959
| 37>  H        2.8828814817     2.1884181561    -0.5002048395
| 38>  H        4.3826101903     1.3288075240    -2.4847561168
| 39>  H        4.3748909543    -1.3658445323    -2.4972318787
| 40>  H        2.8700617095    -2.2351402672    -0.5207099790
| 41> *
| 42>
| 43>                          ****END OF INPUT****
 Total Charge           Charge          ....    1
 Multiplicity           Mult            ....    1
 Number of Electrons    NEL             ....   52
FINAL SINGLE POINT ENERGY      -288.885779298096

CARTESIAN COORDINATES (ANGSTROEM)
---------------------------------
  C      0.299170   -1.931602    0.000000
  C      0.367244   -0.415366    0.000000
  N      1.837175   -0.000598    0.000000
  C     -0.303419    0.237981    1.182754
  C     -1.241676    1.076427    0.735960
  C     -1.241676    1.076427   -0.735960
  C     -0.303419    0.237981   -1.182754
  H     -0.748221   -2.233556    0.000000
  H      0.769200   -2.356371    0.890772
  H      0.769200   -2.356371   -0.890772
  H      1.906170    1.019742    0.000000
  H      2.322102   -0.356791   -0.826093
  H      2.322103   -0.356791    0.826093
  H     -0.074000   -0.007867    2.211715
  H     -1.918118    1.658630    1.347281
  H     -1.918118    1.658630   -1.347281
  H     -0.074000   -0.007867   -2.211715

FINAL SINGLE POINT ENERGY      -288.885779895534
                    ***********************HURRAY********************
 Multiplicity           Mult            ....    1
 Number of Electrons    NEL             ....   52
 Basis Dimension        Dim             ....  277
FINAL SINGLE POINT ENERGY      -288.885780045405

VIBRATIONAL FREQUENCIES
-----------------------

   0:         0.00 cm**-1
   1:         0.00 cm**-1
   2:         0.00 cm**-1
   3:         0.00 cm**-1
   4:         0.00 cm**-1
   5:         0.00 cm**-1
   6:       158.32 cm**-1
   7:       243.15 cm**-1
   8:       256.09 cm**-1
   9:       270.80 cm**-1
  10:       329.73 cm**-1
  11:       369.96 cm**-1
  12:       539.99 cm**-1
  13:       570.01 cm**-1
  14:       615.60 cm**-1
  15:       741.28 cm**-1
  16:       774.77 cm**-1
  17:       794.57 cm**-1
  18:       845.20 cm**-1
  19:       903.99 cm**-1
  20:       948.31 cm**-1
  21:       965.02 cm**-1
  22:       988.84 cm**-1
  23:      1001.64 cm**-1
  24:      1015.65 cm**-1
  25:      1032.41 cm**-1
  26:      1105.57 cm**-1
  27:      1119.26 cm**-1
  28:      1121.51 cm**-1
  29:      1271.42 cm**-1
  30:      1286.49 cm**-1
  31:      1325.83 cm**-1
  32:      1399.91 cm**-1
  33:      1412.91 cm**-1
  34:      1477.72 cm**-1
  35:      1482.60 cm**-1
  36:      1486.00 cm**-1
  37:      1615.14 cm**-1
  38:      1640.61 cm**-1
  39:      1655.15 cm**-1
  40:      1677.15 cm**-1
  41:      3053.64 cm**-1
  42:      3129.84 cm**-1
  43:      3158.96 cm**-1
  44:      3224.44 cm**-1
  45:      3228.37 cm**-1
  46:      3246.36 cm**-1
  47:      3254.94 cm**-1
  48:      3414.68 cm**-1
  49:      3506.89 cm**-1
  50:      3506.98 cm**-1

IR SPECTRUM
-----------

 Mode    freq (cm**-1)   T**2         TX         TY         TZ
-------------------------------------------------------------------
   6:       158.32    6.547243  (  1.363744  -2.165051  -0.000005)
   7:       243.15    0.650700  (  0.000001  -0.000001   0.806660)
   8:       256.09    2.293718  (  0.000002  -0.000006   1.514503)
   9:       270.80    0.052550  (  0.000001  -0.000000  -0.229237)
  10:       329.73    7.286487  ( -0.453971   2.660902  -0.000001)
  11:       369.96    7.040893  (  0.000000   0.000000   2.653468)
  12:       539.99    1.673583  ( -0.887512   0.941225   0.000003)
  13:       570.01    0.100316  (  0.000002   0.000006  -0.316727)
  14:       615.60    2.199219  (  1.208272   0.859825   0.000004)
  15:       741.28    1.134988  ( -0.000005  -0.000006  -1.065358)
  16:       774.77  107.582960  ( -7.520052  -7.143653  -0.000006)
  17:       794.57    3.487649  ( -0.000029  -0.000033   1.867525)
  18:       845.20    3.686201  (  1.913452   0.157805  -0.000005)
  19:       903.99    4.131812  (  1.953008   0.563534   0.000004)
  20:       948.31    0.301357  (  0.000005  -0.000003   0.548960)
  21:       965.02   17.765348  ( -1.065710   4.077942  -0.000002)
  22:       988.84    1.251440  ( -1.100502  -0.200836   0.000000)
  23:      1001.64    0.084662  ( -0.000003   0.000009   0.290968)
  24:      1015.65    1.608737  (  0.560643  -1.137724   0.000001)
  25:      1032.41    3.291296  (  0.000005   0.000001  -1.814193)
  26:      1105.57   53.862530  (  7.136361   1.713149   0.000004)
  27:      1119.26    6.397824  (  1.346874   2.140970  -0.000007)
  28:      1121.51   13.729634  ( -0.000003  -0.000004  -3.705352)
  29:      1271.42    3.031105  ( -0.000002   0.000003  -1.741007)
  30:      1286.49    7.819032  ( -0.671287   2.714481   0.000001)
  31:      1325.83    0.038177  ( -0.000001   0.000001   0.195388)
  32:      1399.91   34.885305  ( -4.198687   4.154074  -0.000003)
  33:      1412.91   29.364688  (  4.748599   2.610650  -0.000006)
  34:      1477.72    1.617553  ( -0.712347   1.053620   0.000062)
  35:      1482.60    7.951165  (  0.000072   0.000007   2.819781)
  36:      1486.00  144.984653  ( 11.376617   3.944266  -0.000010)
  37:      1615.14    3.537141  ( -1.429803   1.221804   0.000000)
  38:      1640.61   38.560658  (  0.000000  -0.000000  -6.209723)
  39:      1655.15   32.965390  ( -1.047492   5.645188  -0.000001)
  40:      1677.15    0.074089  ( -0.000000   0.000002   0.272193)
  41:      3053.64    6.459443  ( -2.291822   1.098634   0.000019)
  42:      3129.84    3.799567  (  0.000003   0.000001   1.949248)
  43:      3158.96    1.847257  ( -0.115253   1.354243   0.000004)
  44:      3224.44    3.127474  ( -0.000000  -0.000000   1.768467)
  45:      3228.37    0.183951  ( -0.081233   0.421132  -0.000000)
  46:      3246.36    1.046982  ( -0.000000  -0.000000   1.023221)
  47:      3254.94    1.693767  (  1.057855  -0.758096   0.000000)
  48:      3414.68   39.602958  ( -6.052170  -1.724585  -0.000000)
  49:      3506.89   75.807800  (  2.330168  -8.389167  -0.000000)
  50:      3506.98   76.402940  (  0.000000  -0.000000   8.740878)

--------------------------
THERMOCHEMISTRY AT 298.15K
--------------------------

Temperature         ... 298.15 K
Pressure            ... 1.00 atm
Total Mass          ... 96.15 AMU

Throughout the following assumptions are being made:
  (1) The electronic state is orbitally nondegenerate
  (2) There are no thermally accessible electronically excited states
  (3) Hindered rotations indicated by low frequency modes) are not
      treated as such but are treated as vibrations and this may
      case some error
  (4) All equations used are the standard statistical mechanics
      equations for an ideal gas
  (5) All vibrations are strinctly harmonic

------------
INNER ENERGY
------------

The inner energy is: U= E(el) + E(ZPE) + E(vib) + E(rot) + E(trans)
    E(el)   - is the total energy from the electronic structure calculation
              = E(kin-el) + E(nuc-el) + E(el-el) + E(nuc-nuc)
    E(ZPE)  - the the zero temperature vibrational energy from the frequency calculation
    E(vib)  - the the finite temperature correction to E(ZPE) due to population
              of excietd vibrational states
    E(rot)  - is the rotational thermal energy
    E(trans)- is the translational thermal energy

Summary of contributions to the inner energy U:
Electronic energy                ...   -288.88578005 Eh
Zero point energy                ...      0.15301920 Eh      96.02 kcal/mol
Thermal vibrational correction   ...      0.00406825 Eh       2.55 kcal/mol
Thermal rotational correction    ...      0.00141627 Eh       0.89 kcal/mol
Thermal translational correction ...      0.00141627 Eh       0.89 kcal/mol
-----------------------------------------------------------------------
Total thermal energy                   -288.72586005 Eh

Summary of corrections to the electronic energy:
(perhaps to be used in another calculation)
Total thermal correction                  0.00690079 Eh       4.33 kcal/mol
Non-thermal (ZPE) correction              0.15301920 Eh      96.02 kcal/mol
-----------------------------------------------------------------------
Total correction                          0.15992000 Eh     100.35 kcal/mol

--------
ENTHALPY
--------

The enthalpy is H = U + kB*T
                kB is Boltzmann's constant
Total free energy                 ...   -288.72586005 Eh
Thermal Enthalpy correction       ...      0.00094421 Eh       0.59 kcal/mol
-----------------------------------------------------------------------
Total Enthalpy                    ...   -288.72491584 Eh

-------
ENTROPY
-------

The entropy contributions are T*S = T*(S(el)+S(vib)+S(rot)+S(trans)
     S(el)   - electronic entropy
     S(vib)  - vibrational entropy
     S(rot)  - rotational entropy
     S(trans)- translational entropy
The entropies will be listed as mutliplied by the temperature to get
units of energy

Electronic entropy                ...      0.00000000 Eh      0.00 kcal/mol
Vibrational entropy               ...      0.00637526 Eh      4.00 kcal/mol
Rotational entropy                ...      0.01180099 Eh      7.41 kcal/mol
Translational entropy             ...      0.01881568 Eh     11.81 kcal/mol
-----------------------------------------------------------------------
Final entropy term                ...      0.03699193 Eh     23.21 kcal/mol

CAUTION: The rotational entropy is not quite correctly treated here
         because it includes a symmetry number that is not yet correctly
         implemented in ORCA!
For a nonlinear molecule the correct rotational entropy is:
    S(rot) = R*(ln(qrot/sn)+1.5)
    R    = 8.31441 J/mol/K = 1.987191683e-3 kcal/mol/K
    qrot = 179380.2927372
    sn is the rotational symmetry number. We have assumed 3 here
       if it is different for your molecule then you should correct
       the printed rotational entropy by manually evaluating the equation
       as given above

For convenience we print out the resulting values for sn=1 - 12:
 sn= 1  qrot/sn=  179380.2927 T*S(rot)=     8.06 kcal/mol T*S(tot)=    23.86 kcal/mol
 sn= 2  qrot/sn=   89690.1464 T*S(rot)=     7.65 kcal/mol T*S(tot)=    23.45 kcal/mol
 sn= 3  qrot/sn=   59793.4309 T*S(rot)=     7.41 kcal/mol T*S(tot)=    23.21 kcal/mol
 sn= 4  qrot/sn=   44845.0732 T*S(rot)=     7.23 kcal/mol T*S(tot)=    23.04 kcal/mol
 sn= 5  qrot/sn=   35876.0585 T*S(rot)=     7.10 kcal/mol T*S(tot)=    22.91 kcal/mol
 sn= 6  qrot/sn=   29896.7155 T*S(rot)=     6.99 kcal/mol T*S(tot)=    22.80 kcal/mol
 sn= 7  qrot/sn=   25625.7561 T*S(rot)=     6.90 kcal/mol T*S(tot)=    22.71 kcal/mol
 sn= 8  qrot/sn=   22422.5366 T*S(rot)=     6.82 kcal/mol T*S(tot)=    22.63 kcal/mol
 sn= 9  qrot/sn=   19931.1436 T*S(rot)=     6.75 kcal/mol T*S(tot)=    22.56 kcal/mol
 sn=10  qrot/sn=   17938.0293 T*S(rot)=     6.69 kcal/mol T*S(tot)=    22.50 kcal/mol
 sn=11  qrot/sn=   16307.2993 T*S(rot)=     6.64 kcal/mol T*S(tot)=    22.44 kcal/mol
 sn=12  qrot/sn=   14948.3577 T*S(rot)=     6.58 kcal/mol T*S(tot)=    22.39 kcal/mol

-------------------
GIBBS FREE ENTHALPY
-------------------

The Gibbs free enthalpy is G = H - T*S

Total enthalpy                    ...   -288.72491584 Eh
Total entropy correction          ...     -0.03699193 Eh    -23.21 kcal/mol
-----------------------------------------------------------------------
Final Gibbs free enthalpy         ...   -288.76190778 Eh

For completeness - the Gibbs free enthalpy minus the electronic energy
G-E(el)                           ...      0.12387227 Eh     77.73 kcal/mol

                             ****ORCA TERMINATED NORMALLY****
TOTAL RUN TIME: 0 days 0 hours 51 minutes 39 seconds 660 msec
