                         Program Version 3.0.3 - RELEASE   -
|  1> ! NORI PBE0 def2-TZVP UseSym TightOPT Freq TightSCF Grid3 FinalGrid5 XYZFile
|  2> % pal
|  3>     nprocs 8
|  4> end
|  5> %method
|  6>     SymThresh 5.0e-2
|  7> end
|  8> % geom
|  9>     MaxIter 10
| 10> end
| 11> % maxcore 2000
| 12> % output
| 13>     printlevel mini
| 14>     print[ P_Basis ] 0
| 15>     print[ P_SCFInfo ] 1
| 16>     print[ P_SCFIterInfo ] 1
| 17>     print[ P_OrbEn ] 0
| 18>     print[ P_Cartesian ] 0
| 19> end
| 20> % elprop
| 21>     Dipole false
| 22> end
| 23> *xyz 1 1
| 24>  C        0.8994579738     0.0051120623    -0.0674884600
| 25>  C        2.4118611789     0.0124628545    -0.1408296873
| 26>  N        2.9314840624     0.0251279490     1.2887808410
| 27>  C        2.9663252363    -1.2175846402    -0.8836248383
| 28>  C        3.2764320904    -0.6607950155    -2.2406603369
| 29>  C        3.2693382514     0.6656189586    -2.2498697068
| 30>  C        2.9531396420     1.2379148999    -0.9007174032
| 31>  H        0.5053061851    -0.0039691291    -1.0848678520
| 32>  H        0.5094588106     0.8979655905     0.4288507073
| 33>  H        0.5186480593    -0.8847209275     0.4412318843
| 34>  H        3.9532159869     0.0306377848     1.3077399149
| 35>  H        2.6100527399    -0.7982828949     1.8025267919
| 36>  H        2.6012990537     0.8521915701     1.7909419334
| 37>  H        3.8770091347    -1.6165701315    -0.4138132390
| 38>  H        2.2413403622    -2.0365122869    -0.9023423127
| 39>  H        3.5011060387    -1.2950111689    -3.0881290542
| 40>  H        3.4874071081     1.2903870550    -3.1060347849
| 41>  H        2.2192540407     2.0485627496    -0.9309741904
| 42>  H        3.8593140449     1.6536747203    -0.4366702073
| 43> *
| 44>
| 45>                          ****END OF INPUT****
 Total Charge           Charge          ....    1
 Multiplicity           Mult            ....    1
 Number of Electrons    NEL             ....   54
FINAL SINGLE POINT ENERGY      -290.116110038537

CARTESIAN COORDINATES (ANGSTROEM)
---------------------------------
  C      0.332117    1.821386    0.000000
  C      0.471898    0.313384    0.000000
  N      1.960700    0.000490   -0.000000
  C     -0.194754   -0.335373    1.227638
  C     -1.490294   -0.835943    0.663248
  C     -1.490294   -0.835943   -0.663248
  C     -0.194754   -0.335373   -1.227638
  H     -0.730399    2.068420    0.000000
  H      0.775619    2.273557   -0.891311
  H      0.775619    2.273557    0.891311
  H      2.123423   -1.008253   -0.000000
  H      2.417502    0.394634    0.825183
  H      2.417502    0.394634   -0.825183
  H      0.395566   -1.169377    1.634413
  H     -0.321440    0.382486    2.042772
  H     -2.302512   -1.174706    1.292844
  H     -2.302512   -1.174706   -1.292844
  H     -0.321440    0.382486   -2.042772
  H      0.395566   -1.169377   -1.634413

FINAL SINGLE POINT ENERGY      -290.116111020038
                    ***********************HURRAY********************
 Multiplicity           Mult            ....    1
 Number of Electrons    NEL             ....   54
 Basis Dimension        Dim             ....  289
FINAL SINGLE POINT ENERGY      -290.116111296965

VIBRATIONAL FREQUENCIES
-----------------------

   0:         0.00 cm**-1
   1:         0.00 cm**-1
   2:         0.00 cm**-1
   3:         0.00 cm**-1
   4:         0.00 cm**-1
   5:         0.00 cm**-1
   6:        84.19 cm**-1
   7:       230.48 cm**-1
   8:       280.86 cm**-1
   9:       305.30 cm**-1
  10:       337.55 cm**-1
  11:       373.83 cm**-1
  12:       413.75 cm**-1
  13:       416.00 cm**-1
  14:       567.70 cm**-1
  15:       702.61 cm**-1
  16:       779.63 cm**-1
  17:       789.04 cm**-1
  18:       893.42 cm**-1
  19:       917.06 cm**-1
  20:       942.17 cm**-1
  21:       947.36 cm**-1
  22:       967.71 cm**-1
  23:       993.96 cm**-1
  24:      1005.24 cm**-1
  25:      1007.89 cm**-1
  26:      1043.83 cm**-1
  27:      1102.09 cm**-1
  28:      1140.30 cm**-1
  29:      1181.68 cm**-1
  30:      1200.40 cm**-1
  31:      1270.86 cm**-1
  32:      1314.20 cm**-1
  33:      1318.92 cm**-1
  34:      1361.32 cm**-1
  35:      1379.75 cm**-1
  36:      1416.58 cm**-1
  37:      1471.75 cm**-1
  38:      1472.95 cm**-1
  39:      1484.97 cm**-1
  40:      1490.98 cm**-1
  41:      1502.09 cm**-1
  42:      1650.20 cm**-1
  43:      1657.11 cm**-1
  44:      1707.55 cm**-1
  45:      3009.41 cm**-1
  46:      3009.87 cm**-1
  47:      3050.36 cm**-1
  48:      3091.32 cm**-1
  49:      3092.36 cm**-1
  50:      3126.74 cm**-1
  51:      3151.21 cm**-1
  52:      3226.75 cm**-1
  53:      3246.78 cm**-1
  54:      3416.96 cm**-1
  55:      3505.94 cm**-1
  56:      3509.93 cm**-1

IR SPECTRUM
-----------

 Mode    freq (cm**-1)   T**2         TX         TY         TZ
-------------------------------------------------------------------
   6:        84.19    0.946807  (  0.647556   0.726277  -0.000002)
   7:       230.48    0.390678  (  0.000000   0.000009   0.625043)
   8:       280.86    0.852575  ( -0.000003  -0.000001  -0.923350)
   9:       305.30    2.948598  (  0.000003  -0.000000   1.717148)
  10:       337.55    5.900780  ( -0.083477   2.427717   0.000004)
  11:       373.83    1.380495  ( -0.000005  -0.000008   1.174945)
  12:       413.75    6.292007  (  2.016902   1.491346   0.000365)
  13:       416.00    1.419762  ( -0.000625  -0.000452   1.191537)
  14:       567.70    6.466821  ( -2.214782   1.249625  -0.000002)
  15:       702.61   45.036886  ( -2.739586   6.126300   0.000004)
  16:       779.63    0.119913  (  0.000010  -0.000015   0.346284)
  17:       789.04    4.334211  ( -0.501310   2.020618  -0.000004)
  18:       893.42   10.955031  (  2.975155  -1.450338  -0.000011)
  19:       917.06    0.936350  (  0.000005   0.000000   0.967652)
  20:       942.17    5.163931  ( -1.330287   1.842354   0.000014)
  21:       947.36    0.562565  ( -0.000073   0.000123  -0.750043)
  22:       967.71   15.405370  (  0.395668  -3.904973  -0.000040)
  23:       993.96    3.110478  ( -0.000001  -0.000012   1.763655)
  24:      1005.24    0.244930  (  0.431567  -0.242240  -0.000051)
  25:      1007.89   15.298629  (  0.000002  -0.000023   3.911346)
  26:      1043.83    4.194790  ( -0.000003  -0.000004   2.048119)
  27:      1102.09    9.591587  ( -2.904000  -1.076277  -0.000003)
  28:      1140.30    0.013138  (  0.109622   0.033483  -0.000000)
  29:      1181.68    0.080293  (  0.000042   0.000015   0.283360)
  30:      1200.40   14.773384  ( -3.677538  -1.117631   0.000007)
  31:      1270.86    7.262605  ( -0.000003  -0.000008  -2.694922)
  32:      1314.20    3.885982  (  0.000013  -0.000005  -1.971289)
  33:      1318.92    6.920701  (  1.982039  -1.729804   0.000023)
  34:      1361.32   23.300486  ( -4.090175  -2.563387  -0.000001)
  35:      1379.75    1.437105  (  0.000011  -0.000003   1.198793)
  36:      1416.58   30.943685  ( -2.996701   4.686520  -0.000020)
  37:      1471.75   12.390203  (  3.463090  -0.630249  -0.000214)
  38:      1472.95   19.166249  ( -0.000142  -0.000003  -4.377928)
  39:      1484.97   53.706899  ( -7.241772   1.124114   0.000004)
  40:      1490.98    2.489835  ( -0.000012   0.000007  -1.577921)
  41:      1502.09   88.746690  (  9.225169  -1.908653   0.000007)
  42:      1650.20   37.656841  ( -0.000000   0.000001   6.136517)
  43:      1657.11   37.582964  (  1.106593   6.029794  -0.000000)
  44:      1707.55    0.916523  (  0.823483   0.488260   0.000000)
  45:      3009.41   15.342823  (  0.000012  -0.000005  -3.916992)
  46:      3009.87   28.499527  (  4.778099  -2.381028   0.000010)
  47:      3050.36    5.802471  (  2.145125   1.095860  -0.000003)
  48:      3091.32    3.339998  ( -0.000005   0.000001  -1.827566)
  49:      3092.36    4.620038  (  0.163512   2.143199   0.000002)
  50:      3126.74    6.457832  (  0.000000  -0.000000   2.541226)
  51:      3151.21    1.306431  ( -0.361918  -1.084180  -0.000000)
  52:      3226.75    0.691284  (  0.000000  -0.000001  -0.831435)
  53:      3246.78    0.082243  (  0.271388  -0.092690   0.000000)
  54:      3416.96   35.886679  ( -5.930546   0.845755   0.000000)
  55:      3505.94   72.246293  (  0.000000  -0.000017  -8.499782)
  56:      3509.93   68.685457  ( -1.827887  -8.083581  -0.000000)

--------------------------
THERMOCHEMISTRY AT 298.15K
--------------------------

Temperature         ... 298.15 K
Pressure            ... 1.00 atm
Total Mass          ... 98.17 AMU

Throughout the following assumptions are being made:
  (1) The electronic state is orbitally nondegenerate
  (2) There are no thermally accessible electronically excited states
  (3) Hindered rotations indicated by low frequency modes) are not
      treated as such but are treated as vibrations and this may
      case some error
  (4) All equations used are the standard statistical mechanics
      equations for an ideal gas
  (5) All vibrations are strinctly harmonic

------------
INNER ENERGY
------------

The inner energy is: U= E(el) + E(ZPE) + E(vib) + E(rot) + E(trans)
    E(el)   - is the total energy from the electronic structure calculation
              = E(kin-el) + E(nuc-el) + E(el-el) + E(nuc-nuc)
    E(ZPE)  - the the zero temperature vibrational energy from the frequency calculation
    E(vib)  - the the finite temperature correction to E(ZPE) due to population
              of excietd vibrational states
    E(rot)  - is the rotational thermal energy
    E(trans)- is the translational thermal energy

Summary of contributions to the inner energy U:
Electronic energy                ...   -290.11611130 Eh
Zero point energy                ...      0.17669679 Eh     110.88 kcal/mol
Thermal vibrational correction   ...      0.00444689 Eh       2.79 kcal/mol
Thermal rotational correction    ...      0.00141627 Eh       0.89 kcal/mol
Thermal translational correction ...      0.00141627 Eh       0.89 kcal/mol
-----------------------------------------------------------------------
Total thermal energy                   -289.93213507 Eh

Summary of corrections to the electronic energy:
(perhaps to be used in another calculation)
Total thermal correction                  0.00727943 Eh       4.57 kcal/mol
Non-thermal (ZPE) correction              0.17669679 Eh     110.88 kcal/mol
-----------------------------------------------------------------------
Total correction                          0.18397622 Eh     115.45 kcal/mol

--------
ENTHALPY
--------

The enthalpy is H = U + kB*T
                kB is Boltzmann's constant
Total free energy                 ...   -289.93213507 Eh
Thermal Enthalpy correction       ...      0.00094421 Eh       0.59 kcal/mol
-----------------------------------------------------------------------
Total Enthalpy                    ...   -289.93119087 Eh

-------
ENTROPY
-------

The entropy contributions are T*S = T*(S(el)+S(vib)+S(rot)+S(trans)
     S(el)   - electronic entropy
     S(vib)  - vibrational entropy
     S(rot)  - rotational entropy
     S(trans)- translational entropy
The entropies will be listed as mutliplied by the temperature to get
units of energy

Electronic entropy                ...      0.00000000 Eh      0.00 kcal/mol
Vibrational entropy               ...      0.00728482 Eh      4.57 kcal/mol
Rotational entropy                ...      0.01187701 Eh      7.45 kcal/mol
Translational entropy             ...      0.01884507 Eh     11.83 kcal/mol
-----------------------------------------------------------------------
Final entropy term                ...      0.03800691 Eh     23.85 kcal/mol

CAUTION: The rotational entropy is not quite correctly treated here
         because it includes a symmetry number that is not yet correctly
         implemented in ORCA!
For a nonlinear molecule the correct rotational entropy is:
    S(rot) = R*(ln(qrot/sn)+1.5)
    R    = 8.31441 J/mol/K = 1.987191683e-3 kcal/mol/K
    qrot = 194421.0332808
    sn is the rotational symmetry number. We have assumed 3 here
       if it is different for your molecule then you should correct
       the printed rotational entropy by manually evaluating the equation
       as given above

For convenience we print out the resulting values for sn=1 - 12:
 sn= 1  qrot/sn=  194421.0333 T*S(rot)=     8.10 kcal/mol T*S(tot)=    24.50 kcal/mol
 sn= 2  qrot/sn=   97210.5166 T*S(rot)=     7.69 kcal/mol T*S(tot)=    24.09 kcal/mol
 sn= 3  qrot/sn=   64807.0111 T*S(rot)=     7.45 kcal/mol T*S(tot)=    23.85 kcal/mol
 sn= 4  qrot/sn=   48605.2583 T*S(rot)=     7.28 kcal/mol T*S(tot)=    23.68 kcal/mol
 sn= 5  qrot/sn=   38884.2067 T*S(rot)=     7.15 kcal/mol T*S(tot)=    23.55 kcal/mol
 sn= 6  qrot/sn=   32403.5055 T*S(rot)=     7.04 kcal/mol T*S(tot)=    23.44 kcal/mol
 sn= 7  qrot/sn=   27774.4333 T*S(rot)=     6.95 kcal/mol T*S(tot)=    23.35 kcal/mol
 sn= 8  qrot/sn=   24302.6292 T*S(rot)=     6.87 kcal/mol T*S(tot)=    23.27 kcal/mol
 sn= 9  qrot/sn=   21602.3370 T*S(rot)=     6.80 kcal/mol T*S(tot)=    23.20 kcal/mol
 sn=10  qrot/sn=   19442.1033 T*S(rot)=     6.74 kcal/mol T*S(tot)=    23.14 kcal/mol
 sn=11  qrot/sn=   17674.6394 T*S(rot)=     6.68 kcal/mol T*S(tot)=    23.08 kcal/mol
 sn=12  qrot/sn=   16201.7528 T*S(rot)=     6.63 kcal/mol T*S(tot)=    23.03 kcal/mol

-------------------
GIBBS FREE ENTHALPY
-------------------

The Gibbs free enthalpy is G = H - T*S

Total enthalpy                    ...   -289.93119087 Eh
Total entropy correction          ...     -0.03800691 Eh    -23.85 kcal/mol
-----------------------------------------------------------------------
Final Gibbs free enthalpy         ...   -289.96919777 Eh

For completeness - the Gibbs free enthalpy minus the electronic energy
G-E(el)                           ...      0.14691353 Eh     92.19 kcal/mol

                             ****ORCA TERMINATED NORMALLY****
TOTAL RUN TIME: 0 days 0 hours 59 minutes 36 seconds 406 msec
