                         Program Version 3.0.3 - RELEASE   -
|  1> ! NORI PBE0 def2-TZVP UseSym TightOPT Freq TightSCF Grid3 FinalGrid5 XYZFile
|  2> % pal
|  3>     nprocs 8
|  4> end
|  5> %method
|  6>     SymThresh 5.0e-2
|  7> end
|  8> % geom
|  9>     MaxIter 10
| 10> end
| 11> % maxcore 2000
| 12> % output
| 13>     printlevel mini
| 14>     print[ P_Basis ] 0
| 15>     print[ P_SCFInfo ] 1
| 16>     print[ P_SCFIterInfo ] 1
| 17>     print[ P_OrbEn ] 0
| 18>     print[ P_Cartesian ] 0
| 19> end
| 20> % elprop
| 21>     Dipole false
| 22> end
| 23> *xyz 1 1
| 24>  C        0.9100064988    -0.0426189720    -0.3625232723
| 25>  C        2.3547373966    -0.0972387340     0.0844423453
| 26>  N        3.2110659714     0.0654656156    -1.1982091889
| 27>  C        2.7822125548    -1.3954036485     0.7839280543
| 28>  C        3.7999180136    -0.9865449587     1.8598863611
| 29>  C        3.5919701462     0.4888867890     1.9820990636
| 30>  C        2.7985972880     0.9779781346     1.0334285159
| 31>  H        0.6586776360    -0.8680340971    -1.0346430473
| 32>  H        0.6700117289     0.9017313589    -0.8590599141
| 33>  H        0.2677036339    -0.1216706104     0.5142923773
| 34>  H        2.9937720657    -0.6578156940    -1.8867181083
| 35>  H        4.2043718528     0.0130665575    -0.9669102571
| 36>  H        3.0409464441     0.9757450063    -1.6301387061
| 37>  H        3.1524621349    -2.1548688284     0.0896323447
| 38>  H        1.8944641926    -1.8189634641     1.2553130163
| 39>  H        4.8373378906    -1.2137099233     1.5879870867
| 40>  H        3.6247934208    -1.5048887850     2.8051961558
| 41>  H        4.0449661708     1.0814134986     2.7682067657
| 42>  H        2.4916649596     2.0125407550     0.9267404074
| 43> *
| 44>
| 45>                          ****END OF INPUT****
 Total Charge           Charge          ....    1
 Multiplicity           Mult            ....    1
 Number of Electrons    NEL             ....   54
FINAL SINGLE POINT ENERGY      -290.120361671999
FINAL SINGLE POINT ENERGY      -290.120364013195
FINAL SINGLE POINT ENERGY      -290.120365604183

CARTESIAN COORDINATES (ANGSTROEM)
---------------------------------
  C      2.023209    0.001302    0.409185
  C      0.511785    0.001374    0.328347
  N      0.001822    0.000181    1.793237
  C     -0.112438   -1.198858   -0.398121
  C     -1.346317   -0.658363   -1.136567
  C     -1.128511    0.820600   -1.125641
  C     -0.116613    1.187055   -0.344583
  H      2.406926   -0.906865    0.882396
  H      2.403949    0.870442    0.952668
  H      2.429841    0.045371   -0.601076
  H      0.356662   -0.805667    2.311904
  H     -1.018921   -0.020138    1.811709
  H      0.304140    0.846954    2.278143
  H     -0.328106   -2.038704    0.268154
  H      0.621482   -1.561578   -1.119123
  H     -2.293754   -0.917618   -0.649696
  H     -1.420207   -1.054472   -2.151671
  H     -1.738296    1.507209   -1.701013
  H      0.237407    2.200139   -0.190284

FINAL SINGLE POINT ENERGY      -290.120365824920
                    ***********************HURRAY********************
 Multiplicity           Mult            ....    1
 Number of Electrons    NEL             ....   54
 Basis Dimension        Dim             ....  289
FINAL SINGLE POINT ENERGY      -290.120365931546

VIBRATIONAL FREQUENCIES
-----------------------

   0:         0.00 cm**-1
   1:         0.00 cm**-1
   2:         0.00 cm**-1
   3:         0.00 cm**-1
   4:         0.00 cm**-1
   5:         0.00 cm**-1
   6:        94.39 cm**-1
   7:       220.83 cm**-1
   8:       243.61 cm**-1
   9:       255.62 cm**-1
  10:       322.34 cm**-1
  11:       349.00 cm**-1
  12:       387.27 cm**-1
  13:       499.91 cm**-1
  14:       587.14 cm**-1
  15:       678.82 cm**-1
  16:       773.91 cm**-1
  17:       777.11 cm**-1
  18:       839.05 cm**-1
  19:       864.02 cm**-1
  20:       919.58 cm**-1
  21:       946.27 cm**-1
  22:       962.52 cm**-1
  23:       978.11 cm**-1
  24:       997.12 cm**-1
  25:      1030.27 cm**-1
  26:      1039.10 cm**-1
  27:      1099.32 cm**-1
  28:      1129.78 cm**-1
  29:      1198.74 cm**-1
  30:      1240.86 cm**-1
  31:      1266.77 cm**-1
  32:      1283.67 cm**-1
  33:      1329.87 cm**-1
  34:      1339.87 cm**-1
  35:      1400.37 cm**-1
  36:      1419.01 cm**-1
  37:      1466.20 cm**-1
  38:      1469.63 cm**-1
  39:      1479.17 cm**-1
  40:      1489.30 cm**-1
  41:      1490.15 cm**-1
  42:      1643.48 cm**-1
  43:      1652.84 cm**-1
  44:      1688.79 cm**-1
  45:      3050.77 cm**-1
  46:      3051.28 cm**-1
  47:      3078.83 cm**-1
  48:      3107.53 cm**-1
  49:      3124.32 cm**-1
  50:      3132.44 cm**-1
  51:      3157.02 cm**-1
  52:      3204.78 cm**-1
  53:      3228.73 cm**-1
  54:      3417.43 cm**-1
  55:      3514.30 cm**-1
  56:      3520.67 cm**-1

IR SPECTRUM
-----------

 Mode    freq (cm**-1)   T**2         TX         TY         TZ
-------------------------------------------------------------------
   6:        94.39    2.820608  ( -1.315349  -0.058998  -1.042586)
   7:       220.83    0.027753  (  0.040784   0.147442   0.065957)
   8:       243.61    3.014444  (  0.356524  -1.541189   0.715592)
   9:       255.62    0.292163  ( -0.318210  -0.097235  -0.425970)
  10:       322.34    4.580582  (  1.598411   0.113938   1.418690)
  11:       349.00    3.252575  ( -1.722846   0.030640   0.532388)
  12:       387.27    5.738001  (  0.058609   2.228826   0.875728)
  13:       499.91    0.293157  ( -0.310656   0.418133  -0.147697)
  14:       587.14    0.683750  ( -0.762053  -0.048453  -0.317297)
  15:       678.82    3.857145  (  1.850469  -0.181638  -0.632391)
  16:       773.91   24.507069  ( -3.258493   0.149621   3.723829)
  17:       777.11   29.187179  (  1.870250  -0.070233  -5.067979)
  18:       839.05    3.250300  ( -0.633278   0.271665  -1.665970)
  19:       864.02   10.763923  ( -0.715303  -0.692705   3.126088)
  20:       919.58    1.004133  (  0.460216  -0.858813   0.234038)
  21:       946.27   13.737884  ( -3.325023  -1.170681  -1.145255)
  22:       962.52    2.063886  (  0.597727  -1.180182  -0.560160)
  23:       978.11   10.823431  (  3.001980  -1.276827  -0.425750)
  24:       997.12    3.967320  (  0.584192  -1.006519   1.616465)
  25:      1030.27    4.644401  (  0.544834  -0.638576  -1.984887)
  26:      1039.10    1.686429  ( -0.154465   1.238711   0.358001)
  27:      1099.32   39.135684  (  1.622835  -0.598590  -6.011970)
  28:      1129.78    6.110616  (  1.953470   1.320219   0.742693)
  29:      1198.74    6.296527  ( -0.216145   1.309433  -2.129599)
  30:      1240.86   10.271726  (  1.954702  -2.202612  -1.264662)
  31:      1266.77   13.160011  (  2.593709  -1.015731   2.323999)
  32:      1283.67    5.172801  (  0.596378  -1.856502   1.170698)
  33:      1329.87    4.039119  ( -1.169789  -1.531899   0.569209)
  34:      1339.87    1.628364  ( -1.158736  -0.458439  -0.274824)
  35:      1400.37   32.401615  (  3.368348  -0.658013   4.541241)
  36:      1419.01   33.705016  ( -4.851368   0.021554   3.188852)
  37:      1466.20   86.004534  (  3.131002  -1.245629  -8.640010)
  38:      1469.63   43.899973  ( -0.297296  -0.487899  -6.601026)
  39:      1479.17   21.675112  ( -2.579017   0.091379   3.874975)
  40:      1489.30   17.811418  (  2.293989   3.193341  -1.533496)
  41:      1490.15   11.577381  ( -0.862154  -3.239240   0.584290)
  42:      1643.48   37.080534  ( -3.196982  -5.059656  -1.122372)
  43:      1652.84   39.197577  (  5.107270  -3.241250   1.614829)
  44:      1688.79   12.300392  ( -2.114601  -1.166445  -2.543277)
  45:      3050.77    4.586894  ( -2.054776  -0.242369   0.553213)
  46:      3051.28    6.262873  (  1.637570   0.206436   1.881123)
  47:      3078.83   10.826566  ( -0.689852   2.380227  -2.164530)
  48:      3107.53    0.619062  ( -0.339188  -0.591096  -0.393215)
  49:      3124.32    6.331192  ( -0.077914  -2.514974  -0.005009)
  50:      3132.44    2.250819  ( -0.929410  -0.610253   1.007277)
  51:      3157.02    1.943891  (  1.123698   0.058892   0.823240)
  52:      3204.78    0.137643  (  0.308154   0.206123   0.014062)
  53:      3228.73    0.202353  ( -0.172140  -0.085456  -0.406716)
  54:      3417.43   32.923905  ( -1.045994   0.000377   5.641791)
  55:      3514.30   66.623437  ( -0.308369   8.137215   0.560422)
  56:      3520.67   61.150186  ( -7.463007  -0.350651  -2.308842)

--------------------------
THERMOCHEMISTRY AT 298.15K
--------------------------

Temperature         ... 298.15 K
Pressure            ... 1.00 atm
Total Mass          ... 98.17 AMU

Throughout the following assumptions are being made:
  (1) The electronic state is orbitally nondegenerate
  (2) There are no thermally accessible electronically excited states
  (3) Hindered rotations indicated by low frequency modes) are not
      treated as such but are treated as vibrations and this may
      case some error
  (4) All equations used are the standard statistical mechanics
      equations for an ideal gas
  (5) All vibrations are strinctly harmonic

------------
INNER ENERGY
------------

The inner energy is: U= E(el) + E(ZPE) + E(vib) + E(rot) + E(trans)
    E(el)   - is the total energy from the electronic structure calculation
              = E(kin-el) + E(nuc-el) + E(el-el) + E(nuc-nuc)
    E(ZPE)  - the the zero temperature vibrational energy from the frequency calculation
    E(vib)  - the the finite temperature correction to E(ZPE) due to population
              of excietd vibrational states
    E(rot)  - is the rotational thermal energy
    E(trans)- is the translational thermal energy

Summary of contributions to the inner energy U:
Electronic energy                ...   -290.12036593 Eh
Zero point energy                ...      0.17642557 Eh     110.71 kcal/mol
Thermal vibrational correction   ...      0.00459084 Eh       2.88 kcal/mol
Thermal rotational correction    ...      0.00141627 Eh       0.89 kcal/mol
Thermal translational correction ...      0.00141627 Eh       0.89 kcal/mol
-----------------------------------------------------------------------
Total thermal energy                   -289.93651698 Eh

Summary of corrections to the electronic energy:
(perhaps to be used in another calculation)
Total thermal correction                  0.00742338 Eh       4.66 kcal/mol
Non-thermal (ZPE) correction              0.17642557 Eh     110.71 kcal/mol
-----------------------------------------------------------------------
Total correction                          0.18384895 Eh     115.37 kcal/mol

--------
ENTHALPY
--------

The enthalpy is H = U + kB*T
                kB is Boltzmann's constant
Total free energy                 ...   -289.93651698 Eh
Thermal Enthalpy correction       ...      0.00094421 Eh       0.59 kcal/mol
-----------------------------------------------------------------------
Total Enthalpy                    ...   -289.93557277 Eh

-------
ENTROPY
-------

The entropy contributions are T*S = T*(S(el)+S(vib)+S(rot)+S(trans)
     S(el)   - electronic entropy
     S(vib)  - vibrational entropy
     S(rot)  - rotational entropy
     S(trans)- translational entropy
The entropies will be listed as mutliplied by the temperature to get
units of energy

Electronic entropy                ...      0.00000000 Eh      0.00 kcal/mol
Vibrational entropy               ...      0.00753445 Eh      4.73 kcal/mol
Rotational entropy                ...      0.01188828 Eh      7.46 kcal/mol
Translational entropy             ...      0.01884507 Eh     11.83 kcal/mol
-----------------------------------------------------------------------
Final entropy term                ...      0.03826780 Eh     24.01 kcal/mol

CAUTION: The rotational entropy is not quite correctly treated here
         because it includes a symmetry number that is not yet correctly
         implemented in ORCA!
For a nonlinear molecule the correct rotational entropy is:
    S(rot) = R*(ln(qrot/sn)+1.5)
    R    = 8.31441 J/mol/K = 1.987191683e-3 kcal/mol/K
    qrot = 196755.6484687
    sn is the rotational symmetry number. We have assumed 3 here
       if it is different for your molecule then you should correct
       the printed rotational entropy by manually evaluating the equation
       as given above

For convenience we print out the resulting values for sn=1 - 12:
 sn= 1  qrot/sn=  196755.6485 T*S(rot)=     8.11 kcal/mol T*S(tot)=    24.66 kcal/mol
 sn= 2  qrot/sn=   98377.8242 T*S(rot)=     7.70 kcal/mol T*S(tot)=    24.25 kcal/mol
 sn= 3  qrot/sn=   65585.2162 T*S(rot)=     7.46 kcal/mol T*S(tot)=    24.01 kcal/mol
 sn= 4  qrot/sn=   49188.9121 T*S(rot)=     7.29 kcal/mol T*S(tot)=    23.84 kcal/mol
 sn= 5  qrot/sn=   39351.1297 T*S(rot)=     7.16 kcal/mol T*S(tot)=    23.71 kcal/mol
 sn= 6  qrot/sn=   32792.6081 T*S(rot)=     7.05 kcal/mol T*S(tot)=    23.60 kcal/mol
 sn= 7  qrot/sn=   28107.9498 T*S(rot)=     6.96 kcal/mol T*S(tot)=    23.51 kcal/mol
 sn= 8  qrot/sn=   24594.4561 T*S(rot)=     6.88 kcal/mol T*S(tot)=    23.43 kcal/mol
 sn= 9  qrot/sn=   21861.7387 T*S(rot)=     6.81 kcal/mol T*S(tot)=    23.36 kcal/mol
 sn=10  qrot/sn=   19675.5648 T*S(rot)=     6.75 kcal/mol T*S(tot)=    23.30 kcal/mol
 sn=11  qrot/sn=   17886.8771 T*S(rot)=     6.69 kcal/mol T*S(tot)=    23.24 kcal/mol
 sn=12  qrot/sn=   16396.3040 T*S(rot)=     6.64 kcal/mol T*S(tot)=    23.19 kcal/mol

-------------------
GIBBS FREE ENTHALPY
-------------------

The Gibbs free enthalpy is G = H - T*S

Total enthalpy                    ...   -289.93557277 Eh
Total entropy correction          ...     -0.03826780 Eh    -24.01 kcal/mol
-----------------------------------------------------------------------
Final Gibbs free enthalpy         ...   -289.97384057 Eh

For completeness - the Gibbs free enthalpy minus the electronic energy
G-E(el)                           ...      0.14652536 Eh     91.95 kcal/mol

                             ****ORCA TERMINATED NORMALLY****
TOTAL RUN TIME: 0 days 1 hours 4 minutes 50 seconds 23 msec
