                         Program Version 3.0.3 - RELEASE   -
|  1> ! NORI PBE0 def2-TZVP UseSym TightOPT Freq TightSCF Grid3 FinalGrid5 XYZFile
|  2> % pal
|  3>     nprocs 8
|  4> end
|  5> %method
|  6>     SymThresh 5.0e-2
|  7> end
|  8> % geom
|  9>     MaxIter 10
| 10> end
| 11> % maxcore 2000
| 12> % output
| 13>     printlevel mini
| 14>     print[ P_Basis ] 0
| 15>     print[ P_SCFInfo ] 1
| 16>     print[ P_SCFIterInfo ] 1
| 17>     print[ P_OrbEn ] 0
| 18>     print[ P_Cartesian ] 0
| 19> end
| 20> % elprop
| 21>     Dipole false
| 22> end
| 23> *xyz 1 1
| 24>  C        1.0226400242     0.0971991785    -0.4128788724
| 25>  C        2.3842007383    -0.0136585913     0.2361090888
| 26>  N        2.4525487776    -1.2291685827     1.1509494322
| 27>  C        3.2744078329    -0.8749404058     2.3843051989
| 28>  C        4.6734570103    -1.4495671210     2.2894310585
| 29>  C        3.2162036165     0.6203773734     2.3409427572
| 30>  C        2.7617759601     1.0794362746     1.1864192918
| 31>  H        0.7975332154    -0.7730331507    -1.0338544754
| 32>  H        1.0060218360     0.9731893877    -1.0630880645
| 33>  H        0.2353176378     0.2254129243     0.3347632947
| 34>  H        3.1536037246    -0.1496940953    -0.5315960255
| 35>  H        2.8335375208    -2.0442546684     0.6713895317
| 36>  H        1.5006993655    -1.4637765284     1.4341781959
| 37>  H        2.7533969397    -1.2940609125     3.2489032164
| 38>  H        5.1945611380    -1.0859147682     1.4004181502
| 39>  H        4.6626284478    -2.5420149017     2.2896056307
| 40>  H        5.2483837112    -1.1289594581     3.1596469218
| 41>  H        3.5641938499     1.2186874148     3.1723602683
| 42>  H        2.6770586533     2.1205606309     0.9040154007
| 43> *
| 44>
| 45>                          ****END OF INPUT****
 Total Charge           Charge          ....    1
 Multiplicity           Mult            ....    1
 Number of Electrons    NEL             ....   54
FINAL SINGLE POINT ENERGY      -290.118809730087

CARTESIAN COORDINATES (ANGSTROEM)
---------------------------------
  C      2.451444   -0.000356    0.514888
  C      1.087598    0.443494    0.034793
  N      0.000083    0.000554    1.004618
  C     -1.233143   -0.412868    0.210608
  C     -2.292892    0.670140    0.248047
  C     -0.632662   -0.644028   -1.141198
  C      0.597418   -0.167529   -1.240759
  H      2.701766    0.436637    1.484125
  H      3.207592    0.333279   -0.196990
  H      2.515058   -1.089953    0.578698
  H      1.045673    1.536993   -0.012302
  H     -0.221328    0.727134    1.684880
  H      0.352004   -0.803039    1.525942
  H     -1.615961   -1.329627    0.666091
  H     -1.914209    1.612964   -0.153440
  H     -2.674857    0.827172    1.259507
  H     -3.134801    0.363929   -0.374341
  H     -1.200690   -1.112850   -1.933557
  H      1.212159   -0.173002   -2.130979

FINAL SINGLE POINT ENERGY      -290.118810535389
                    ***********************HURRAY********************
 Multiplicity           Mult            ....    1
 Number of Electrons    NEL             ....   54
 Basis Dimension        Dim             ....  289
FINAL SINGLE POINT ENERGY      -290.118810820397

VIBRATIONAL FREQUENCIES
-----------------------

   0:         0.00 cm**-1
   1:         0.00 cm**-1
   2:         0.00 cm**-1
   3:         0.00 cm**-1
   4:         0.00 cm**-1
   5:         0.00 cm**-1
   6:        69.99 cm**-1
   7:       199.72 cm**-1
   8:       242.74 cm**-1
   9:       251.53 cm**-1
  10:       292.96 cm**-1
  11:       362.80 cm**-1
  12:       417.34 cm**-1
  13:       531.51 cm**-1
  14:       665.58 cm**-1
  15:       752.15 cm**-1
  16:       771.94 cm**-1
  17:       815.10 cm**-1
  18:       835.58 cm**-1
  19:       894.13 cm**-1
  20:       913.61 cm**-1
  21:       952.46 cm**-1
  22:       988.08 cm**-1
  23:      1032.10 cm**-1
  24:      1041.26 cm**-1
  25:      1087.92 cm**-1
  26:      1110.53 cm**-1
  27:      1123.44 cm**-1
  28:      1151.99 cm**-1
  29:      1174.30 cm**-1
  30:      1256.18 cm**-1
  31:      1310.28 cm**-1
  32:      1327.58 cm**-1
  33:      1356.75 cm**-1
  34:      1366.58 cm**-1
  35:      1392.33 cm**-1
  36:      1401.20 cm**-1
  37:      1415.43 cm**-1
  38:      1422.85 cm**-1
  39:      1481.28 cm**-1
  40:      1483.06 cm**-1
  41:      1488.59 cm**-1
  42:      1491.00 cm**-1
  43:      1635.04 cm**-1
  44:      1715.68 cm**-1
  45:      3055.41 cm**-1
  46:      3058.22 cm**-1
  47:      3066.75 cm**-1
  48:      3091.94 cm**-1
  49:      3137.42 cm**-1
  50:      3140.95 cm**-1
  51:      3152.32 cm**-1
  52:      3152.44 cm**-1
  53:      3234.01 cm**-1
  54:      3252.75 cm**-1
  55:      3458.23 cm**-1
  56:      3522.30 cm**-1

IR SPECTRUM
-----------

 Mode    freq (cm**-1)   T**2         TX         TY         TZ
-------------------------------------------------------------------
   6:        69.99    2.489902  ( -0.075717  -1.574128  -0.079312)
   7:       199.72    0.262795  ( -0.103524   0.026825  -0.501356)
   8:       242.74    0.025665  ( -0.054647  -0.098142   0.114223)
   9:       251.53    0.348402  (  0.317352   0.497636  -0.006914)
  10:       292.96    0.825592  ( -0.528502  -0.520316   0.524927)
  11:       362.80    1.483830  ( -1.139833  -0.427682   0.041210)
  12:       417.34    7.239858  (  1.394926  -2.280525  -0.305364)
  13:       531.51    0.148653  ( -0.264119  -0.268951   0.080991)
  14:       665.58    3.027550  ( -0.756471   1.105535   1.110447)
  15:       752.15   21.782333  (  0.758117  -4.313819   1.612003)
  16:       771.94   29.786194  ( -2.559412   4.680416  -1.152957)
  17:       815.10    3.865128  ( -1.687949   0.960297  -0.306243)
  18:       835.58    1.633588  (  0.066580   1.092094  -0.660670)
  19:       894.13    4.502756  ( -1.874258   0.960990   0.257702)
  20:       913.61    0.377529  (  0.489771  -0.281438   0.241755)
  21:       952.46   12.891015  (  3.525786   0.629439  -0.252299)
  22:       988.08    0.518784  ( -0.305514  -0.489041  -0.431607)
  23:      1032.10    3.790105  ( -0.948046  -0.928512   1.424492)
  24:      1041.26    4.373866  ( -1.379586  -0.595576  -1.454612)
  25:      1087.92    2.969765  (  0.194755  -0.523432   1.630293)
  26:      1110.53   18.603387  ( -4.108620   0.463360  -1.227977)
  27:      1123.44   12.709012  (  2.635168  -1.266053  -2.040102)
  28:      1151.99    1.994291  ( -0.935819  -0.972218  -0.416322)
  29:      1174.30   12.780729  ( -1.762485  -2.985554   0.872263)
  30:      1256.18   13.393879  (  3.654473  -0.174735  -0.090392)
  31:      1310.28    6.918136  (  2.365166   1.147683  -0.083355)
  32:      1327.58   20.194723  ( -4.363208  -1.075532   0.019292)
  33:      1356.75    3.345012  (  0.052359   0.715783   1.682238)
  34:      1366.58    3.419989  ( -1.531337   0.948408  -0.418950)
  35:      1392.33    4.615226  (  1.589739   0.268010   1.419903)
  36:      1401.20   55.220642  (  7.369723   0.813116  -0.496654)
  37:      1415.43    4.294019  (  1.378254   1.507620  -0.348594)
  38:      1422.85   17.047522  (  0.498844   3.866386  -1.360051)
  39:      1481.28   13.613993  ( -2.684770  -2.468976  -0.556920)
  40:      1483.06    3.190501  (  0.082704   0.820430  -1.584473)
  41:      1488.59   11.416899  (  0.534175  -0.115627  -3.334394)
  42:      1491.00    9.208155  ( -0.055036   3.014139   0.346543)
  43:      1635.04   57.148194  ( -0.969298   1.149745  -7.408559)
  44:      1715.68    0.095344  ( -0.170484  -0.214023  -0.143084)
  45:      3055.41    1.973095  ( -0.132973   0.520173  -1.298011)
  46:      3058.22    2.044015  ( -0.007124   0.818067   1.172489)
  47:      3066.75    2.262219  ( -0.123215   1.495323   0.105100)
  48:      3091.94    1.566093  ( -0.524084  -0.994002   0.550807)
  49:      3137.42    4.417241  ( -0.597642  -1.754640  -0.990607)
  50:      3140.95    5.263479  ( -1.375600  -0.791503   1.656722)
  51:      3152.32    0.635509  (  0.025673   0.719034   0.343278)
  52:      3152.44    0.911309  ( -0.555035   0.498660  -0.595469)
  53:      3234.01    3.749316  ( -1.832421  -0.606658   0.153349)
  54:      3252.75    5.714641  ( -0.034241   0.682424   2.290800)
  55:      3458.23   45.108225  ( -0.984581   1.166377  -6.540519)
  56:      3522.30   64.668368  ( -3.040626   7.317798   1.368500)

--------------------------
THERMOCHEMISTRY AT 298.15K
--------------------------

Temperature         ... 298.15 K
Pressure            ... 1.00 atm
Total Mass          ... 98.17 AMU

Throughout the following assumptions are being made:
  (1) The electronic state is orbitally nondegenerate
  (2) There are no thermally accessible electronically excited states
  (3) Hindered rotations indicated by low frequency modes) are not
      treated as such but are treated as vibrations and this may
      case some error
  (4) All equations used are the standard statistical mechanics
      equations for an ideal gas
  (5) All vibrations are strinctly harmonic

------------
INNER ENERGY
------------

The inner energy is: U= E(el) + E(ZPE) + E(vib) + E(rot) + E(trans)
    E(el)   - is the total energy from the electronic structure calculation
              = E(kin-el) + E(nuc-el) + E(el-el) + E(nuc-nuc)
    E(ZPE)  - the the zero temperature vibrational energy from the frequency calculation
    E(vib)  - the the finite temperature correction to E(ZPE) due to population
              of excietd vibrational states
    E(rot)  - is the rotational thermal energy
    E(trans)- is the translational thermal energy

Summary of contributions to the inner energy U:
Electronic energy                ...   -290.11881082 Eh
Zero point energy                ...      0.17666130 Eh     110.86 kcal/mol
Thermal vibrational correction   ...      0.00452859 Eh       2.84 kcal/mol
Thermal rotational correction    ...      0.00141627 Eh       0.89 kcal/mol
Thermal translational correction ...      0.00141627 Eh       0.89 kcal/mol
-----------------------------------------------------------------------
Total thermal energy                   -289.93478839 Eh

Summary of corrections to the electronic energy:
(perhaps to be used in another calculation)
Total thermal correction                  0.00736113 Eh       4.62 kcal/mol
Non-thermal (ZPE) correction              0.17666130 Eh     110.86 kcal/mol
-----------------------------------------------------------------------
Total correction                          0.18402243 Eh     115.48 kcal/mol

--------
ENTHALPY
--------

The enthalpy is H = U + kB*T
                kB is Boltzmann's constant
Total free energy                 ...   -289.93478839 Eh
Thermal Enthalpy correction       ...      0.00094421 Eh       0.59 kcal/mol
-----------------------------------------------------------------------
Total Enthalpy                    ...   -289.93384418 Eh

-------
ENTROPY
-------

The entropy contributions are T*S = T*(S(el)+S(vib)+S(rot)+S(trans)
     S(el)   - electronic entropy
     S(vib)  - vibrational entropy
     S(rot)  - rotational entropy
     S(trans)- translational entropy
The entropies will be listed as mutliplied by the temperature to get
units of energy

Electronic entropy                ...      0.00000000 Eh      0.00 kcal/mol
Vibrational entropy               ...      0.00771289 Eh      4.84 kcal/mol
Rotational entropy                ...      0.01194273 Eh      7.49 kcal/mol
Translational entropy             ...      0.01884507 Eh     11.83 kcal/mol
-----------------------------------------------------------------------
Final entropy term                ...      0.03850069 Eh     24.16 kcal/mol

CAUTION: The rotational entropy is not quite correctly treated here
         because it includes a symmetry number that is not yet correctly
         implemented in ORCA!
For a nonlinear molecule the correct rotational entropy is:
    S(rot) = R*(ln(qrot/sn)+1.5)
    R    = 8.31441 J/mol/K = 1.987191683e-3 kcal/mol/K
    qrot = 208434.8586146
    sn is the rotational symmetry number. We have assumed 3 here
       if it is different for your molecule then you should correct
       the printed rotational entropy by manually evaluating the equation
       as given above

For convenience we print out the resulting values for sn=1 - 12:
 sn= 1  qrot/sn=  208434.8586 T*S(rot)=     8.15 kcal/mol T*S(tot)=    24.81 kcal/mol
 sn= 2  qrot/sn=  104217.4293 T*S(rot)=     7.73 kcal/mol T*S(tot)=    24.40 kcal/mol
 sn= 3  qrot/sn=   69478.2862 T*S(rot)=     7.49 kcal/mol T*S(tot)=    24.16 kcal/mol
 sn= 4  qrot/sn=   52108.7147 T*S(rot)=     7.32 kcal/mol T*S(tot)=    23.99 kcal/mol
 sn= 5  qrot/sn=   41686.9717 T*S(rot)=     7.19 kcal/mol T*S(tot)=    23.86 kcal/mol
 sn= 6  qrot/sn=   34739.1431 T*S(rot)=     7.08 kcal/mol T*S(tot)=    23.75 kcal/mol
 sn= 7  qrot/sn=   29776.4084 T*S(rot)=     6.99 kcal/mol T*S(tot)=    23.66 kcal/mol
 sn= 8  qrot/sn=   26054.3573 T*S(rot)=     6.91 kcal/mol T*S(tot)=    23.58 kcal/mol
 sn= 9  qrot/sn=   23159.4287 T*S(rot)=     6.84 kcal/mol T*S(tot)=    23.51 kcal/mol
 sn=10  qrot/sn=   20843.4859 T*S(rot)=     6.78 kcal/mol T*S(tot)=    23.45 kcal/mol
 sn=11  qrot/sn=   18948.6235 T*S(rot)=     6.72 kcal/mol T*S(tot)=    23.39 kcal/mol
 sn=12  qrot/sn=   17369.5716 T*S(rot)=     6.67 kcal/mol T*S(tot)=    23.34 kcal/mol

-------------------
GIBBS FREE ENTHALPY
-------------------

The Gibbs free enthalpy is G = H - T*S

Total enthalpy                    ...   -289.93384418 Eh
Total entropy correction          ...     -0.03850069 Eh    -24.16 kcal/mol
-----------------------------------------------------------------------
Final Gibbs free enthalpy         ...   -289.97234487 Eh

For completeness - the Gibbs free enthalpy minus the electronic energy
G-E(el)                           ...      0.14646595 Eh     91.91 kcal/mol

                             ****ORCA TERMINATED NORMALLY****
TOTAL RUN TIME: 0 days 0 hours 55 minutes 35 seconds 28 msec
