                         Program Version 3.0.3 - RELEASE   -
|  1> ! NORI PBE0 def2-TZVP UseSym TightOPT Freq TightSCF Grid3 FinalGrid5 XYZFile
|  2> % pal
|  3>     nprocs 8
|  4> end
|  5> %method
|  6>     SymThresh 5.0e-2
|  7> end
|  8> % geom
|  9>     MaxIter 10
| 10> end
| 11> % maxcore 2000
| 12> % output
| 13>     printlevel mini
| 14>     print[ P_Basis ] 0
| 15>     print[ P_SCFInfo ] 1
| 16>     print[ P_SCFIterInfo ] 1
| 17>     print[ P_OrbEn ] 0
| 18>     print[ P_Cartesian ] 0
| 19> end
| 20> % elprop
| 21>     Dipole false
| 22> end
| 23> *xyz 1 1
| 24>  C        0.8504667314    -0.0651131763    -0.2841115091
| 25>  C        2.2965204798    -0.0138349126     0.1510006557
| 26>  N        2.6753573885    -1.2706474471     0.9277165962
| 27>  C        3.6709850501    -0.8783685169     1.9823055813
| 28>  C        3.4191225619     0.5936943447     2.1408205508
| 29>  C        4.0155448105     1.3430368850     3.2722263463
| 30>  C        2.6722933975     1.0443517150     1.1385070782
| 31>  H        0.6536584638    -0.9119489739    -0.9458224411
| 32>  H        0.6133825784     0.8429835571    -0.8405580251
| 33>  H        0.1772965219    -0.1101323923     0.5762916473
| 34>  H        2.9525597911     0.0130707637    -0.7268914906
| 35>  H        3.0212713820    -2.0094969419     0.3163257333
| 36>  H        1.8292556203    -1.6237167731     1.3769004173
| 37>  H        4.6782434997    -1.0929282767     1.6135657567
| 38>  H        3.5017769139    -1.4703488144     2.8832172788
| 39>  H        3.7531543209     2.3989938724     3.2273245516
| 40>  H        5.1071375898     1.2599300794     3.2612416305
| 41>  H        3.6758320031     0.9415021468     4.2312471201
| 42>  H        2.3742308952     2.0743828612     0.9917925217
| 43> *
| 44>
| 45>                          ****END OF INPUT****
 Total Charge           Charge          ....    1
 Multiplicity           Mult            ....    1
 Number of Electrons    NEL             ....   54
FINAL SINGLE POINT ENERGY      -290.122501041892

CARTESIAN COORDINATES (ANGSTROEM)
---------------------------------
  C      2.409698    0.000118    0.734246
  C      1.042453    0.576911    0.449339
  N      0.000122   -0.000270    1.401554
  C     -1.296110   -0.115870    0.650994
  C     -0.845515   -0.136742   -0.781464
  C     -1.791485   -0.497829   -1.864220
  C      0.424846    0.242298   -0.870869
  H      2.747764    0.234077    1.746323
  H      3.131632    0.436064    0.042367
  H      2.423187   -1.083078    0.586218
  H      1.047690    1.659945    0.621187
  H     -0.087461    0.551820    2.254144
  H      0.314662   -0.931703    1.677322
  H     -1.916263    0.755187    0.881706
  H     -1.827880   -1.011741    0.975565
  H     -1.312759   -0.441223   -2.840559
  H     -2.654953    0.174584   -1.866042
  H     -2.178437   -1.511515   -1.725491
  H      0.984548    0.349041   -1.790841

FINAL SINGLE POINT ENERGY      -290.122501787895
                    ***********************HURRAY********************
 Multiplicity           Mult            ....    1
 Number of Electrons    NEL             ....   54
 Basis Dimension        Dim             ....  289
FINAL SINGLE POINT ENERGY      -290.122502151149

VIBRATIONAL FREQUENCIES
-----------------------

   0:         0.00 cm**-1
   1:         0.00 cm**-1
   2:         0.00 cm**-1
   3:         0.00 cm**-1
   4:         0.00 cm**-1
   5:         0.00 cm**-1
   6:       107.08 cm**-1
   7:       161.68 cm**-1
   8:       178.98 cm**-1
   9:       243.00 cm**-1
  10:       277.92 cm**-1
  11:       365.20 cm**-1
  12:       407.69 cm**-1
  13:       493.55 cm**-1
  14:       596.38 cm**-1
  15:       623.02 cm**-1
  16:       813.67 cm**-1
  17:       842.21 cm**-1
  18:       862.26 cm**-1
  19:       917.49 cm**-1
  20:       933.58 cm**-1
  21:       971.97 cm**-1
  22:       992.54 cm**-1
  23:      1023.95 cm**-1
  24:      1037.87 cm**-1
  25:      1074.53 cm**-1
  26:      1124.65 cm**-1
  27:      1138.60 cm**-1
  28:      1212.69 cm**-1
  29:      1228.40 cm**-1
  30:      1278.49 cm**-1
  31:      1301.66 cm**-1
  32:      1343.98 cm**-1
  33:      1370.91 cm**-1
  34:      1391.00 cm**-1
  35:      1402.47 cm**-1
  36:      1416.69 cm**-1
  37:      1420.83 cm**-1
  38:      1467.84 cm**-1
  39:      1474.09 cm**-1
  40:      1481.55 cm**-1
  41:      1489.82 cm**-1
  42:      1497.22 cm**-1
  43:      1639.89 cm**-1
  44:      1745.14 cm**-1
  45:      3048.81 cm**-1
  46:      3051.98 cm**-1
  47:      3056.55 cm**-1
  48:      3075.59 cm**-1
  49:      3109.91 cm**-1
  50:      3133.41 cm**-1
  51:      3136.14 cm**-1
  52:      3152.03 cm**-1
  53:      3164.35 cm**-1
  54:      3237.81 cm**-1
  55:      3455.26 cm**-1
  56:      3520.79 cm**-1

IR SPECTRUM
-----------

 Mode    freq (cm**-1)   T**2         TX         TY         TZ
-------------------------------------------------------------------
   6:       107.08    1.371813  ( -0.129184  -0.921046  -0.711897)
   7:       161.68    2.923650  (  0.160236  -1.675811  -0.299384)
   8:       178.98    0.875059  ( -0.217814   0.908605   0.045315)
   9:       243.00    0.295681  ( -0.189503  -0.509370  -0.017657)
  10:       277.92    2.134349  (  0.347044  -1.234774  -0.699460)
  11:       365.20    4.014220  (  1.979702  -0.191813  -0.241264)
  12:       407.69    4.359844  (  0.285206  -1.938839   0.720696)
  13:       493.55    4.726295  ( -0.000411  -2.066698  -0.674578)
  14:       596.38    0.627103  ( -0.062639   0.291277  -0.733714)
  15:       623.02    4.055312  (  0.303682  -1.470068  -1.342382)
  16:       813.67    2.244346  ( -1.280416   0.762864   0.151393)
  17:       842.21   16.873687  (  1.770679  -3.668283   0.531118)
  18:       862.26    2.401004  ( -0.531794  -1.240957   0.760411)
  19:       917.49    1.290792  (  0.298152  -1.012535  -0.420322)
  20:       933.58    0.854476  (  0.031486  -0.045699  -0.922712)
  21:       971.97   10.928272  (  3.277114  -0.310075   0.304378)
  22:       992.54    5.951397  (  1.444504   1.914459   0.446822)
  23:      1023.95    2.685803  ( -1.126203  -0.906102   0.772301)
  24:      1037.87    6.004526  (  0.592234  -2.160716   0.992517)
  25:      1074.53    0.652689  (  0.068104   0.804865   0.015573)
  26:      1124.65    8.052494  (  2.160460  -1.301541  -1.300345)
  27:      1138.60   14.502657  ( -3.022575  -1.587917   1.686776)
  28:      1212.69    2.555528  ( -1.099172  -0.182260   1.146355)
  29:      1228.40    1.460834  (  0.422644   0.859220  -0.737528)
  30:      1278.49    8.766810  (  2.595368  -0.073621  -1.423185)
  31:      1301.66   11.777008  (  3.103256   0.448324  -1.394925)
  32:      1343.98    5.253246  ( -1.563290  -1.325210   1.026250)
  33:      1370.91   14.321909  ( -2.902883  -1.577102  -1.846057)
  34:      1391.00    8.310293  (  2.588450   0.531370  -1.152331)
  35:      1402.47   43.056939  ( -6.362136  -1.603640  -0.092221)
  36:      1416.69    7.522831  (  2.084657  -0.707576   1.635963)
  37:      1420.83    6.035908  ( -0.411873   1.908635   1.491101)
  38:      1467.84   14.756483  ( -0.627331   3.753871  -0.520949)
  39:      1474.09   16.169972  (  3.732777   0.716721  -1.312501)
  40:      1481.55    8.860510  (  1.566244   2.164252  -1.312784)
  41:      1489.82    8.902405  ( -0.035029  -2.146672  -2.071950)
  42:      1497.22   12.079085  (  2.850959  -0.321746  -1.961529)
  43:      1639.89   61.804605  ( -1.220991   3.085747  -7.126847)
  44:      1745.14   15.635528  ( -3.241422  -1.080351  -1.990365)
  45:      3048.81    3.883012  (  0.335022   1.272283   1.466993)
  46:      3051.98    1.618552  ( -1.131898  -0.432399  -0.387802)
  47:      3056.55    3.451042  (  0.111934  -1.676447   0.792488)
  48:      3075.59    4.391008  ( -1.885178  -0.046894   0.913735)
  49:      3109.91    1.794806  ( -0.162274   1.329830   0.005029)
  50:      3133.41    0.289670  (  0.395965   0.356808  -0.074634)
  51:      3136.14    5.698656  (  0.923643   1.683235   1.418542)
  52:      3152.03    0.985988  ( -0.686489   0.367720  -0.616039)
  53:      3164.35    1.609039  (  0.391206   0.087270  -1.203487)
  54:      3237.81    3.782896  ( -1.555061  -0.293200   1.130803)
  55:      3455.26   48.749922  ( -1.423621   2.916824  -6.181858)
  56:      3520.79   69.274589  (  2.257582  -6.931415  -4.016641)

--------------------------
THERMOCHEMISTRY AT 298.15K
--------------------------

Temperature         ... 298.15 K
Pressure            ... 1.00 atm
Total Mass          ... 98.17 AMU

Throughout the following assumptions are being made:
  (1) The electronic state is orbitally nondegenerate
  (2) There are no thermally accessible electronically excited states
  (3) Hindered rotations indicated by low frequency modes) are not
      treated as such but are treated as vibrations and this may
      case some error
  (4) All equations used are the standard statistical mechanics
      equations for an ideal gas
  (5) All vibrations are strinctly harmonic

------------
INNER ENERGY
------------

The inner energy is: U= E(el) + E(ZPE) + E(vib) + E(rot) + E(trans)
    E(el)   - is the total energy from the electronic structure calculation
              = E(kin-el) + E(nuc-el) + E(el-el) + E(nuc-nuc)
    E(ZPE)  - the the zero temperature vibrational energy from the frequency calculation
    E(vib)  - the the finite temperature correction to E(ZPE) due to population
              of excietd vibrational states
    E(rot)  - is the rotational thermal energy
    E(trans)- is the translational thermal energy

Summary of contributions to the inner energy U:
Electronic energy                ...   -290.12250215 Eh
Zero point energy                ...      0.17654234 Eh     110.78 kcal/mol
Thermal vibrational correction   ...      0.00471896 Eh       2.96 kcal/mol
Thermal rotational correction    ...      0.00141627 Eh       0.89 kcal/mol
Thermal translational correction ...      0.00141627 Eh       0.89 kcal/mol
-----------------------------------------------------------------------
Total thermal energy                   -289.93840831 Eh

Summary of corrections to the electronic energy:
(perhaps to be used in another calculation)
Total thermal correction                  0.00755150 Eh       4.74 kcal/mol
Non-thermal (ZPE) correction              0.17654234 Eh     110.78 kcal/mol
-----------------------------------------------------------------------
Total correction                          0.18409384 Eh     115.52 kcal/mol

--------
ENTHALPY
--------

The enthalpy is H = U + kB*T
                kB is Boltzmann's constant
Total free energy                 ...   -289.93840831 Eh
Thermal Enthalpy correction       ...      0.00094421 Eh       0.59 kcal/mol
-----------------------------------------------------------------------
Total Enthalpy                    ...   -289.93746410 Eh

-------
ENTROPY
-------

The entropy contributions are T*S = T*(S(el)+S(vib)+S(rot)+S(trans)
     S(el)   - electronic entropy
     S(vib)  - vibrational entropy
     S(rot)  - rotational entropy
     S(trans)- translational entropy
The entropies will be listed as mutliplied by the temperature to get
units of energy

Electronic entropy                ...      0.00000000 Eh      0.00 kcal/mol
Vibrational entropy               ...      0.00795669 Eh      4.99 kcal/mol
Rotational entropy                ...      0.01200503 Eh      7.53 kcal/mol
Translational entropy             ...      0.01884507 Eh     11.83 kcal/mol
-----------------------------------------------------------------------
Final entropy term                ...      0.03880678 Eh     24.35 kcal/mol

CAUTION: The rotational entropy is not quite correctly treated here
         because it includes a symmetry number that is not yet correctly
         implemented in ORCA!
For a nonlinear molecule the correct rotational entropy is:
    S(rot) = R*(ln(qrot/sn)+1.5)
    R    = 8.31441 J/mol/K = 1.987191683e-3 kcal/mol/K
    qrot = 222651.4899908
    sn is the rotational symmetry number. We have assumed 3 here
       if it is different for your molecule then you should correct
       the printed rotational entropy by manually evaluating the equation
       as given above

For convenience we print out the resulting values for sn=1 - 12:
 sn= 1  qrot/sn=  222651.4900 T*S(rot)=     8.18 kcal/mol T*S(tot)=    25.00 kcal/mol
 sn= 2  qrot/sn=  111325.7450 T*S(rot)=     7.77 kcal/mol T*S(tot)=    24.59 kcal/mol
 sn= 3  qrot/sn=   74217.1633 T*S(rot)=     7.53 kcal/mol T*S(tot)=    24.35 kcal/mol
 sn= 4  qrot/sn=   55662.8725 T*S(rot)=     7.36 kcal/mol T*S(tot)=    24.18 kcal/mol
 sn= 5  qrot/sn=   44530.2980 T*S(rot)=     7.23 kcal/mol T*S(tot)=    24.05 kcal/mol
 sn= 6  qrot/sn=   37108.5817 T*S(rot)=     7.12 kcal/mol T*S(tot)=    23.94 kcal/mol
 sn= 7  qrot/sn=   31807.3557 T*S(rot)=     7.03 kcal/mol T*S(tot)=    23.85 kcal/mol
 sn= 8  qrot/sn=   27831.4362 T*S(rot)=     6.95 kcal/mol T*S(tot)=    23.77 kcal/mol
 sn= 9  qrot/sn=   24739.0544 T*S(rot)=     6.88 kcal/mol T*S(tot)=    23.70 kcal/mol
 sn=10  qrot/sn=   22265.1490 T*S(rot)=     6.82 kcal/mol T*S(tot)=    23.64 kcal/mol
 sn=11  qrot/sn=   20241.0445 T*S(rot)=     6.76 kcal/mol T*S(tot)=    23.58 kcal/mol
 sn=12  qrot/sn=   18554.2908 T*S(rot)=     6.71 kcal/mol T*S(tot)=    23.53 kcal/mol

-------------------
GIBBS FREE ENTHALPY
-------------------

The Gibbs free enthalpy is G = H - T*S

Total enthalpy                    ...   -289.93746410 Eh
Total entropy correction          ...     -0.03880678 Eh    -24.35 kcal/mol
-----------------------------------------------------------------------
Final Gibbs free enthalpy         ...   -289.97627088 Eh

For completeness - the Gibbs free enthalpy minus the electronic energy
G-E(el)                           ...      0.14623127 Eh     91.76 kcal/mol

                             ****ORCA TERMINATED NORMALLY****
TOTAL RUN TIME: 0 days 0 hours 51 minutes 4 seconds 155 msec
