                         Program Version 3.0.3 - RELEASE   -
|  1> ! NORI PBE0 def2-TZVP UseSym TightOPT Freq TightSCF Grid3 FinalGrid5 XYZFile
|  2> % pal
|  3>     nprocs 8
|  4> end
|  5> %method
|  6>     SymThresh 5.0e-2
|  7> end
|  8> % geom
|  9>     MaxIter 10
| 10> end
| 11> % maxcore 2000
| 12> % output
| 13>     printlevel mini
| 14>     print[ P_Basis ] 0
| 15>     print[ P_SCFInfo ] 1
| 16>     print[ P_SCFIterInfo ] 1
| 17>     print[ P_OrbEn ] 0
| 18>     print[ P_Cartesian ] 0
| 19> end
| 20> % elprop
| 21>     Dipole false
| 22> end
| 23> *xyz 1 1
| 24>  C        1.0372310408     0.1640789177    -0.0692696238
| 25>  C        2.5245606453    -0.0804236133     0.1006614149
| 26>  N        3.3134293707     1.1381939460    -0.3315635995
| 27>  C        3.5000892109     1.2395193977    -1.8163498230
| 28>  C        4.3212324880     0.0644359055    -2.2946997111
| 29>  C        3.8553729576    -1.2164726691    -1.6814545712
| 30>  C        3.0452253724    -1.2745352692    -0.6323819856
| 31>  H        0.4966262378    -0.7135966808     0.2876859812
| 32>  H        0.7609695211     0.3089805809    -1.1147137849
| 33>  H        0.6961899003     1.0180935397     0.5221721522
| 34>  H        2.7455568622    -0.1873970430     1.1676823216
| 35>  H        2.8485271521     1.9756534006     0.0213450369
| 36>  H        4.2342392883     1.1020396585     0.1096539117
| 37>  H        2.5032895773     1.2388953471    -2.2558812424
| 38>  H        3.9732247712     2.1993138434    -2.0244207749
| 39>  H        5.3880826428     0.2201032512    -2.0903370475
| 40>  H        4.2396490045     0.0121786116    -3.3840260465
| 41>  H        4.2097059256    -2.1373324953    -2.1308944767
| 42>  H        2.7209180310    -2.2306986291    -0.2370181313
| 43> *
| 44>
| 45>                          ****END OF INPUT****
 Total Charge           Charge          ....    1
 Multiplicity           Mult            ....    1
 Number of Electrons    NEL             ....   54
FINAL SINGLE POINT ENERGY      -290.119675593917

CARTESIAN COORDINATES (ANGSTROEM)
---------------------------------
  C      2.209912   -0.000370    0.119840
  C      0.890107    0.729600    0.282568
  N      0.000023    0.000258    1.267363
  C     -0.722118   -1.172417    0.673349
  C     -1.664005   -0.682978   -0.402435
  C     -1.007802    0.324861   -1.289712
  C      0.132380    0.933612   -0.989661
  H      2.841914    0.570397   -0.561677
  H      2.080458   -0.992163   -0.315890
  H      2.747191   -0.083533    1.068457
  H      1.079032    1.701709    0.749965
  H      0.564273   -0.301733    2.062697
  H     -0.692695    0.658916    1.628125
  H      0.041993   -1.834682    0.267855
  H     -1.236930   -1.687861    1.484279
  H     -2.580139   -0.267391    0.035434
  H     -1.989497   -1.546210   -0.989183
  H     -1.505654    0.559453   -2.224003
  H      0.577214    1.644008   -1.677708

FINAL SINGLE POINT ENERGY      -290.119676522884
                    ***********************HURRAY********************
 Multiplicity           Mult            ....    1
 Number of Electrons    NEL             ....   54
 Basis Dimension        Dim             ....  289
FINAL SINGLE POINT ENERGY      -290.119677307503

VIBRATIONAL FREQUENCIES
-----------------------

   0:         0.00 cm**-1
   1:         0.00 cm**-1
   2:         0.00 cm**-1
   3:         0.00 cm**-1
   4:         0.00 cm**-1
   5:         0.00 cm**-1
   6:       114.52 cm**-1
   7:       229.67 cm**-1
   8:       235.11 cm**-1
   9:       290.63 cm**-1
  10:       371.48 cm**-1
  11:       453.29 cm**-1
  12:       494.55 cm**-1
  13:       541.99 cm**-1
  14:       724.13 cm**-1
  15:       747.05 cm**-1
  16:       766.06 cm**-1
  17:       864.33 cm**-1
  18:       875.76 cm**-1
  19:       903.97 cm**-1
  20:       969.96 cm**-1
  21:       992.90 cm**-1
  22:      1017.20 cm**-1
  23:      1049.42 cm**-1
  24:      1060.79 cm**-1
  25:      1070.71 cm**-1
  26:      1117.07 cm**-1
  27:      1143.02 cm**-1
  28:      1202.97 cm**-1
  29:      1237.48 cm**-1
  30:      1268.24 cm**-1
  31:      1308.00 cm**-1
  32:      1360.22 cm**-1
  33:      1369.80 cm**-1
  34:      1397.62 cm**-1
  35:      1413.61 cm**-1
  36:      1415.71 cm**-1
  37:      1428.95 cm**-1
  38:      1446.61 cm**-1
  39:      1468.52 cm**-1
  40:      1479.19 cm**-1
  41:      1488.97 cm**-1
  42:      1501.08 cm**-1
  43:      1636.57 cm**-1
  44:      1744.77 cm**-1
  45:      3044.55 cm**-1
  46:      3059.36 cm**-1
  47:      3067.73 cm**-1
  48:      3101.52 cm**-1
  49:      3110.62 cm**-1
  50:      3141.39 cm**-1
  51:      3155.56 cm**-1
  52:      3166.51 cm**-1
  53:      3196.46 cm**-1
  54:      3212.53 cm**-1
  55:      3443.81 cm**-1
  56:      3502.15 cm**-1

IR SPECTRUM
-----------

 Mode    freq (cm**-1)   T**2         TX         TY         TZ
-------------------------------------------------------------------
   6:       114.52    0.530842  ( -0.380948   0.620509  -0.026256)
   7:       229.67    0.388178  (  0.245738  -0.187709   0.540885)
   8:       235.11    1.989501  (  0.116183  -0.972133   1.015362)
   9:       290.63    0.063221  (  0.084151  -0.150481   0.183016)
  10:       371.48    3.914186  (  1.599520  -0.964462   0.652330)
  11:       453.29    3.241940  ( -1.597793   0.412622  -0.720237)
  12:       494.55    0.392450  (  0.510405   0.349301  -0.099630)
  13:       541.99    6.176663  (  0.710755  -1.658053  -1.709488)
  14:       724.13   20.206409  ( -3.377567   2.302878   1.869546)
  15:       747.05   21.875891  ( -2.201126   3.728886   1.768147)
  16:       766.06    0.423083  (  0.577724   0.254970   0.155911)
  17:       864.33    7.842172  (  1.932172  -1.899616   0.707350)
  18:       875.76    3.145934  (  1.591608  -0.778918  -0.077492)
  19:       903.97    1.948708  ( -0.292793  -0.128832  -1.358817)
  20:       969.96   13.286593  ( -3.397592  -0.717496  -1.108224)
  21:       992.90    2.496882  (  1.075058   1.041961   0.505421)
  22:      1017.20    0.752145  (  0.174721   0.774740   0.348417)
  23:      1049.42    2.388304  ( -0.077112   0.688346   1.381498)
  24:      1060.79    3.681660  (  1.647302  -0.960534  -0.213145)
  25:      1070.71    9.135019  ( -2.599792  -1.394737   0.656362)
  26:      1117.07   12.115300  (  2.567527   0.655756  -2.256788)
  27:      1143.02    2.273481  (  0.319408   0.435833  -1.407661)
  28:      1202.97    1.406444  (  0.577830   1.027053   0.133114)
  29:      1237.48    8.167762  ( -0.225550   2.812589  -0.454128)
  30:      1268.24    7.966498  ( -1.514626  -2.204767   0.900784)
  31:      1308.00    3.668445  (  0.935257   1.425661  -0.872485)
  32:      1360.22    7.335365  (  2.465819   1.105684  -0.180458)
  33:      1369.80    6.935840  (  1.296170   1.256820  -1.917338)
  34:      1397.62   11.879840  (  2.254907   1.476894  -2.148027)
  35:      1413.61   15.830871  (  3.959286  -0.387873  -0.066954)
  36:      1415.71    9.143039  ( -1.628733  -1.548982   2.022603)
  37:      1428.95   14.243232  ( -1.490449  -3.283204  -1.114615)
  38:      1446.61   13.372162  (  2.237183   2.765667   0.847500)
  39:      1468.52   12.506438  ( -3.415638  -0.077292  -0.913171)
  40:      1479.19    6.666265  ( -1.649053  -1.907139  -0.556517)
  41:      1488.97   15.121335  (  0.597103   2.755250  -2.678320)
  42:      1501.08   11.571760  ( -0.652620   3.303711   0.480978)
  43:      1636.57   76.615300  ( -1.429609   2.463993   8.276488)
  44:      1744.77    3.264425  (  1.467883   0.942427  -0.470720)
  45:      3044.55    3.131900  ( -1.601151   0.221022   0.720670)
  46:      3059.36    4.262113  (  0.752064  -1.026389   1.625743)
  47:      3067.73    1.412630  ( -0.153179  -1.036693  -0.560745)
  48:      3101.52    0.192179  (  0.098691  -0.414774   0.101985)
  49:      3110.62    2.464108  (  0.674275  -1.018042   0.986435)
  50:      3141.39    6.003630  (  1.566038   0.866838   1.673244)
  51:      3155.56    1.278645  (  0.039155  -1.081513  -0.327783)
  52:      3166.51    0.555097  (  0.449565  -0.245436  -0.541063)
  53:      3196.46    0.898106  ( -0.647067  -0.600793   0.344178)
  54:      3212.53    0.292316  ( -0.060061   0.116845  -0.524458)
  55:      3443.81   46.151806  ( -0.893395   2.034470   6.419858)
  56:      3502.15   60.251411  ( -5.842572   4.522551  -2.379557)

--------------------------
THERMOCHEMISTRY AT 298.15K
--------------------------

Temperature         ... 298.15 K
Pressure            ... 1.00 atm
Total Mass          ... 98.17 AMU

Throughout the following assumptions are being made:
  (1) The electronic state is orbitally nondegenerate
  (2) There are no thermally accessible electronically excited states
  (3) Hindered rotations indicated by low frequency modes) are not
      treated as such but are treated as vibrations and this may
      case some error
  (4) All equations used are the standard statistical mechanics
      equations for an ideal gas
  (5) All vibrations are strinctly harmonic

------------
INNER ENERGY
------------

The inner energy is: U= E(el) + E(ZPE) + E(vib) + E(rot) + E(trans)
    E(el)   - is the total energy from the electronic structure calculation
              = E(kin-el) + E(nuc-el) + E(el-el) + E(nuc-nuc)
    E(ZPE)  - the the zero temperature vibrational energy from the frequency calculation
    E(vib)  - the the finite temperature correction to E(ZPE) due to population
              of excietd vibrational states
    E(rot)  - is the rotational thermal energy
    E(trans)- is the translational thermal energy

Summary of contributions to the inner energy U:
Electronic energy                ...   -290.11967731 Eh
Zero point energy                ...      0.17861768 Eh     112.08 kcal/mol
Thermal vibrational correction   ...      0.00402342 Eh       2.52 kcal/mol
Thermal rotational correction    ...      0.00141627 Eh       0.89 kcal/mol
Thermal translational correction ...      0.00141627 Eh       0.89 kcal/mol
-----------------------------------------------------------------------
Total thermal energy                   -289.93420366 Eh

Summary of corrections to the electronic energy:
(perhaps to be used in another calculation)
Total thermal correction                  0.00685597 Eh       4.30 kcal/mol
Non-thermal (ZPE) correction              0.17861768 Eh     112.08 kcal/mol
-----------------------------------------------------------------------
Total correction                          0.18547365 Eh     116.39 kcal/mol

--------
ENTHALPY
--------

The enthalpy is H = U + kB*T
                kB is Boltzmann's constant
Total free energy                 ...   -289.93420366 Eh
Thermal Enthalpy correction       ...      0.00094421 Eh       0.59 kcal/mol
-----------------------------------------------------------------------
Total Enthalpy                    ...   -289.93325945 Eh

-------
ENTROPY
-------

The entropy contributions are T*S = T*(S(el)+S(vib)+S(rot)+S(trans)
     S(el)   - electronic entropy
     S(vib)  - vibrational entropy
     S(rot)  - rotational entropy
     S(trans)- translational entropy
The entropies will be listed as mutliplied by the temperature to get
units of energy

Electronic entropy                ...      0.00000000 Eh      0.00 kcal/mol
Vibrational entropy               ...      0.00647911 Eh      4.07 kcal/mol
Rotational entropy                ...      0.01189315 Eh      7.46 kcal/mol
Translational entropy             ...      0.01884507 Eh     11.83 kcal/mol
-----------------------------------------------------------------------
Final entropy term                ...      0.03721733 Eh     23.35 kcal/mol

CAUTION: The rotational entropy is not quite correctly treated here
         because it includes a symmetry number that is not yet correctly
         implemented in ORCA!
For a nonlinear molecule the correct rotational entropy is:
    S(rot) = R*(ln(qrot/sn)+1.5)
    R    = 8.31441 J/mol/K = 1.987191683e-3 kcal/mol/K
    qrot = 197773.2319516
    sn is the rotational symmetry number. We have assumed 3 here
       if it is different for your molecule then you should correct
       the printed rotational entropy by manually evaluating the equation
       as given above

For convenience we print out the resulting values for sn=1 - 12:
 sn= 1  qrot/sn=  197773.2320 T*S(rot)=     8.11 kcal/mol T*S(tot)=    24.01 kcal/mol
 sn= 2  qrot/sn=   98886.6160 T*S(rot)=     7.70 kcal/mol T*S(tot)=    23.59 kcal/mol
 sn= 3  qrot/sn=   65924.4107 T*S(rot)=     7.46 kcal/mol T*S(tot)=    23.35 kcal/mol
 sn= 4  qrot/sn=   49443.3080 T*S(rot)=     7.29 kcal/mol T*S(tot)=    23.18 kcal/mol
 sn= 5  qrot/sn=   39554.6464 T*S(rot)=     7.16 kcal/mol T*S(tot)=    23.05 kcal/mol
 sn= 6  qrot/sn=   32962.2053 T*S(rot)=     7.05 kcal/mol T*S(tot)=    22.94 kcal/mol
 sn= 7  qrot/sn=   28253.3189 T*S(rot)=     6.96 kcal/mol T*S(tot)=    22.85 kcal/mol
 sn= 8  qrot/sn=   24721.6540 T*S(rot)=     6.88 kcal/mol T*S(tot)=    22.77 kcal/mol
 sn= 9  qrot/sn=   21974.8036 T*S(rot)=     6.81 kcal/mol T*S(tot)=    22.70 kcal/mol
 sn=10  qrot/sn=   19777.3232 T*S(rot)=     6.75 kcal/mol T*S(tot)=    22.64 kcal/mol
 sn=11  qrot/sn=   17979.3847 T*S(rot)=     6.69 kcal/mol T*S(tot)=    22.58 kcal/mol
 sn=12  qrot/sn=   16481.1027 T*S(rot)=     6.64 kcal/mol T*S(tot)=    22.53 kcal/mol

-------------------
GIBBS FREE ENTHALPY
-------------------

The Gibbs free enthalpy is G = H - T*S

Total enthalpy                    ...   -289.93325945 Eh
Total entropy correction          ...     -0.03721733 Eh    -23.35 kcal/mol
-----------------------------------------------------------------------
Final Gibbs free enthalpy         ...   -289.97047678 Eh

For completeness - the Gibbs free enthalpy minus the electronic energy
G-E(el)                           ...      0.14920053 Eh     93.62 kcal/mol

                             ****ORCA TERMINATED NORMALLY****
TOTAL RUN TIME: 0 days 1 hours 0 minutes 50 seconds 699 msec
