                         Program Version 3.0.3 - RELEASE   -
|  1> ! NORI PBE0 def2-TZVP UseSym TightOPT Freq TightSCF Grid3 FinalGrid5 XYZFile
|  2> % pal
|  3>     nprocs 8
|  4> end
|  5> %method
|  6>     SymThresh 5.0e-2
|  7> end
|  8> % geom
|  9>     MaxIter 10
| 10> end
| 11> % maxcore 2000
| 12> % output
| 13>     printlevel mini
| 14>     print[ P_Basis ] 0
| 15>     print[ P_SCFInfo ] 1
| 16>     print[ P_SCFIterInfo ] 1
| 17>     print[ P_OrbEn ] 0
| 18>     print[ P_Cartesian ] 0
| 19> end
| 20> % elprop
| 21>     Dipole false
| 22> end
| 23> *xyz 1 1
| 24>  C        0.9917081552    -0.1136438067    -0.0705708200
| 25>  C        2.4625875620     0.0434739125    -0.0707123124
| 26>  C        3.2461519164     1.1632694327    -0.0741743130
| 27>  C        2.8907370491     2.6030131502    -0.0788657083
| 28>  N        4.5497683951     0.7131345396    -0.0724100903
| 29>  C        4.5880156268    -0.6106520798    -0.0680831867
| 30>  N        3.3308998057    -1.0281249013    -0.0670256563
| 31>  H        0.5125216930     0.8639374585    -0.0741673536
| 32>  H        0.6482099281    -0.6519729613     0.8165921306
| 33>  H        0.6487231921    -0.6582811567    -0.9540753046
| 34>  H        3.7841219944     3.2279174514    -0.0819664633
| 35>  H        2.3049691574     2.8653431517     0.8043089866
| 36>  H        2.3031886112     2.8590699952    -0.9626762632
| 37>  H        5.3667853463     1.3060197599    -0.0741346443
| 38>  H        5.4710621671    -1.2283197744    -0.0658627897
| 39>  H        3.0549994001    -1.9992941715    -0.0639162115
| 40> *
| 41>
| 42>                          ****END OF INPUT****
 Total Charge           Charge          ....    1
 Multiplicity           Mult            ....    1
 Number of Electrons    NEL             ....   52
FINAL SINGLE POINT ENERGY      -304.998273317509

CARTESIAN COORDINATES (ANGSTROEM)
---------------------------------
  C     -2.209126   -0.046858   -0.000000
  C     -0.738594   -0.207750   -0.000000
  C      0.266485    0.718684   -0.000000
  C      0.227211    2.201173    0.000000
  N      1.443633    0.000068   -0.000000
  C      1.197790   -1.301386   -0.000000
  N     -0.119464   -1.440415   -0.000000
  H     -2.468191    1.010719   -0.000000
  H     -2.659897   -0.502464    0.885173
  H     -2.659897   -0.502464   -0.885173
  H      1.233633    2.620653    0.000000
  H     -0.290380    2.579623    0.883405
  H     -0.290380    2.579623   -0.883405
  H      2.368496    0.404396   -0.000000
  H      1.928279   -2.093685    0.000000
  H     -0.596621   -2.330098    0.000000

FINAL SINGLE POINT ENERGY      -304.998273653412
                    ***********************HURRAY********************
 Multiplicity           Mult            ....    1
 Number of Electrons    NEL             ....   52
 Basis Dimension        Dim             ....  271
FINAL SINGLE POINT ENERGY      -304.998273697760

VIBRATIONAL FREQUENCIES
-----------------------

   0:         0.00 cm**-1
   1:         0.00 cm**-1
   2:         0.00 cm**-1
   3:         0.00 cm**-1
   4:         0.00 cm**-1
   5:         0.00 cm**-1
   6:      -100.66 cm**-1 ***imaginary mode***
   7:        88.00 cm**-1
   8:       236.37 cm**-1
   9:       245.13 cm**-1
  10:       281.83 cm**-1
  11:       407.38 cm**-1
  12:       633.78 cm**-1
  13:       639.30 cm**-1
  14:       674.84 cm**-1
  15:       684.58 cm**-1
  16:       725.04 cm**-1
  17:       728.31 cm**-1
  18:       843.06 cm**-1
  19:       963.93 cm**-1
  20:       982.45 cm**-1
  21:       995.27 cm**-1
  22:      1045.03 cm**-1
  23:      1071.65 cm**-1
  24:      1140.34 cm**-1
  25:      1189.89 cm**-1
  26:      1244.05 cm**-1
  27:      1305.69 cm**-1
  28:      1309.50 cm**-1
  29:      1421.50 cm**-1
  30:      1423.23 cm**-1
  31:      1462.96 cm**-1
  32:      1469.97 cm**-1
  33:      1475.60 cm**-1
  34:      1482.57 cm**-1
  35:      1509.98 cm**-1
  36:      1533.91 cm**-1
  37:      1585.93 cm**-1
  38:      1701.15 cm**-1
  39:      3062.66 cm**-1
  40:      3069.76 cm**-1
  41:      3127.32 cm**-1
  42:      3140.57 cm**-1
  43:      3154.87 cm**-1
  44:      3167.82 cm**-1
  45:      3302.45 cm**-1
  46:      3635.06 cm**-1
  47:      3641.75 cm**-1

IR SPECTRUM
-----------

 Mode    freq (cm**-1)   T**2         TX         TY         TZ
-------------------------------------------------------------------
   7:        88.00    0.023996  (  0.000000  -0.000014   0.154906)
   8:       236.37    0.035432  ( -0.000025   0.000000   0.188235)
   9:       245.13    0.089045  (  0.276489  -0.112247   0.000038)
  10:       281.83   15.342069  (  0.000002   0.000016   3.916895)
  11:       407.38    2.118266  ( -1.120514  -0.928824  -0.000017)
  12:       633.78   37.448185  ( -0.000003   0.000010  -6.119492)
  13:       639.30    0.445220  (  0.648964   0.155128  -0.000030)
  14:       674.84    0.048348  (  0.000014   0.000019  -0.219882)
  15:       684.58    0.520530  ( -0.000010  -0.000020   0.721478)
  16:       725.04    0.065342  (  0.255323  -0.012344  -0.000002)
  17:       728.31  151.084837  (  0.000004   0.000006  12.291657)
  18:       843.06    2.235744  ( -0.000003  -0.000005   1.495240)
  19:       963.93    2.061464  ( -1.328412   0.544779  -0.000004)
  20:       982.45    3.853584  (  0.403812   1.921073  -0.000012)
  21:       995.27   11.862303  (  1.220365  -3.220716  -0.000012)
  22:      1045.03    2.788837  ( -0.000006   0.000030  -1.669981)
  23:      1071.65    0.000083  (  0.000003   0.000019   0.009101)
  24:      1140.34    9.351889  (  2.501203   1.759509   0.000005)
  25:      1189.89   37.579707  ( -4.359416   4.309895   0.000000)
  26:      1244.05    0.048861  (  0.089694   0.202029   0.000003)
  27:      1305.69    9.964405  (  2.159433   2.302445   0.000005)
  28:      1309.50    3.158672  (  1.698786  -0.522300  -0.000001)
  29:      1421.50    3.376006  ( -1.788877   0.419434   0.000003)
  30:      1423.23    6.491479  (  1.347547  -2.162313  -0.000039)
  31:      1462.96   26.707911  ( -0.000048  -0.000011   5.167970)
  32:      1469.97    7.907574  (  0.762073  -2.706810   0.000041)
  33:      1475.60    0.808598  ( -0.000082  -0.000023  -0.899221)
  34:      1482.57    6.159176  (  2.386608   0.680647   0.000084)
  35:      1509.98    1.319510  (  1.121660  -0.247766   0.000006)
  36:      1533.91   19.883578  (  3.218113   3.086637   0.000008)
  37:      1585.93   11.191934  ( -2.331043  -2.399619   0.000002)
  38:      1701.15   68.770510  (  6.012552  -5.711368   0.000000)
  39:      3062.66    0.555292  ( -0.668052  -0.330149   0.000010)
  40:      3069.76    0.694939  (  0.776501   0.303291   0.000007)
  41:      3127.32    0.255760  (  0.000005  -0.000005   0.505727)
  42:      3140.57    0.000145  ( -0.000026  -0.000017  -0.012051)
  43:      3154.87    1.255321  (  0.990759   0.523180  -0.000005)
  44:      3167.82    0.115048  ( -0.075511  -0.330675   0.000005)
  45:      3302.45   47.127232  (  4.672379  -5.029523  -0.000000)
  46:      3635.06  276.206197  ( 11.486968  12.010653   0.000000)
  47:      3641.75   43.279530  (  6.053262  -2.576345  -0.000000)

--------------------------
THERMOCHEMISTRY AT 298.15K
--------------------------

Temperature         ... 298.15 K
Pressure            ... 1.00 atm
Total Mass          ... 97.14 AMU

Throughout the following assumptions are being made:
  (1) The electronic state is orbitally nondegenerate
  (2) There are no thermally accessible electronically excited states
  (3) Hindered rotations indicated by low frequency modes) are not
      treated as such but are treated as vibrations and this may
      case some error
  (4) All equations used are the standard statistical mechanics
      equations for an ideal gas
  (5) All vibrations are strinctly harmonic

------------
INNER ENERGY
------------

The inner energy is: U= E(el) + E(ZPE) + E(vib) + E(rot) + E(trans)
    E(el)   - is the total energy from the electronic structure calculation
              = E(kin-el) + E(nuc-el) + E(el-el) + E(nuc-nuc)
    E(ZPE)  - the the zero temperature vibrational energy from the frequency calculation
    E(vib)  - the the finite temperature correction to E(ZPE) due to population
              of excietd vibrational states
    E(rot)  - is the rotational thermal energy
    E(trans)- is the translational thermal energy

Summary of contributions to the inner energy U:
Electronic energy                ...   -304.99827370 Eh
Zero point energy                ...      0.14080091 Eh      88.35 kcal/mol
Thermal vibrational correction   ...      0.00360130 Eh       2.26 kcal/mol
Thermal rotational correction    ...      0.00141627 Eh       0.89 kcal/mol
Thermal translational correction ...      0.00141627 Eh       0.89 kcal/mol
-----------------------------------------------------------------------
Total thermal energy                   -304.85103895 Eh

Summary of corrections to the electronic energy:
(perhaps to be used in another calculation)
Total thermal correction                  0.00643384 Eh       4.04 kcal/mol
Non-thermal (ZPE) correction              0.14080091 Eh      88.35 kcal/mol
-----------------------------------------------------------------------
Total correction                          0.14723475 Eh      92.39 kcal/mol

--------
ENTHALPY
--------

The enthalpy is H = U + kB*T
                kB is Boltzmann's constant
Total free energy                 ...   -304.85103895 Eh
Thermal Enthalpy correction       ...      0.00094421 Eh       0.59 kcal/mol
-----------------------------------------------------------------------
Total Enthalpy                    ...   -304.85009474 Eh

-------
ENTROPY
-------

The entropy contributions are T*S = T*(S(el)+S(vib)+S(rot)+S(trans)
     S(el)   - electronic entropy
     S(vib)  - vibrational entropy
     S(rot)  - rotational entropy
     S(trans)- translational entropy
The entropies will be listed as mutliplied by the temperature to get
units of energy

Electronic entropy                ...      0.00000000 Eh      0.00 kcal/mol
Vibrational entropy               ...      0.00602695 Eh      3.78 kcal/mol
Rotational entropy                ...      0.01187516 Eh      7.45 kcal/mol
Translational entropy             ...      0.01883016 Eh     11.82 kcal/mol
-----------------------------------------------------------------------
Final entropy term                ...      0.03673227 Eh     23.05 kcal/mol

CAUTION: The rotational entropy is not quite correctly treated here
         because it includes a symmetry number that is not yet correctly
         implemented in ORCA!
For a nonlinear molecule the correct rotational entropy is:
    S(rot) = R*(ln(qrot/sn)+1.5)
    R    = 8.31441 J/mol/K = 1.987191683e-3 kcal/mol/K
    qrot = 194039.2506426
    sn is the rotational symmetry number. We have assumed 3 here
       if it is different for your molecule then you should correct
       the printed rotational entropy by manually evaluating the equation
       as given above

For convenience we print out the resulting values for sn=1 - 12:
 sn= 1  qrot/sn=  194039.2506 T*S(rot)=     8.10 kcal/mol T*S(tot)=    23.70 kcal/mol
 sn= 2  qrot/sn=   97019.6253 T*S(rot)=     7.69 kcal/mol T*S(tot)=    23.29 kcal/mol
 sn= 3  qrot/sn=   64679.7502 T*S(rot)=     7.45 kcal/mol T*S(tot)=    23.05 kcal/mol
 sn= 4  qrot/sn=   48509.8127 T*S(rot)=     7.28 kcal/mol T*S(tot)=    22.88 kcal/mol
 sn= 5  qrot/sn=   38807.8501 T*S(rot)=     7.15 kcal/mol T*S(tot)=    22.75 kcal/mol
 sn= 6  qrot/sn=   32339.8751 T*S(rot)=     7.04 kcal/mol T*S(tot)=    22.64 kcal/mol
 sn= 7  qrot/sn=   27719.8929 T*S(rot)=     6.95 kcal/mol T*S(tot)=    22.55 kcal/mol
 sn= 8  qrot/sn=   24254.9063 T*S(rot)=     6.87 kcal/mol T*S(tot)=    22.47 kcal/mol
 sn= 9  qrot/sn=   21559.9167 T*S(rot)=     6.80 kcal/mol T*S(tot)=    22.40 kcal/mol
 sn=10  qrot/sn=   19403.9251 T*S(rot)=     6.74 kcal/mol T*S(tot)=    22.34 kcal/mol
 sn=11  qrot/sn=   17639.9319 T*S(rot)=     6.68 kcal/mol T*S(tot)=    22.28 kcal/mol
 sn=12  qrot/sn=   16169.9376 T*S(rot)=     6.63 kcal/mol T*S(tot)=    22.23 kcal/mol

-------------------
GIBBS FREE ENTHALPY
-------------------

The Gibbs free enthalpy is G = H - T*S

Total enthalpy                    ...   -304.85009474 Eh
Total entropy correction          ...     -0.03673227 Eh    -23.05 kcal/mol
-----------------------------------------------------------------------
Final Gibbs free enthalpy         ...   -304.88682701 Eh

For completeness - the Gibbs free enthalpy minus the electronic energy
G-E(el)                           ...      0.11144669 Eh     69.93 kcal/mol

                             ****ORCA TERMINATED NORMALLY****
TOTAL RUN TIME: 0 days 0 hours 41 minutes 37 seconds 426 msec
