                         Program Version 3.0.3 - RELEASE   -
|  1> ! NORI PBE0 def2-TZVP UseSym TightOPT Freq TightSCF Grid3 FinalGrid5 XYZFile
|  2> % pal
|  3>     nprocs 8
|  4> end
|  5> %method
|  6>     SymThresh 5.0e-2
|  7> end
|  8> % geom
|  9>     MaxIter 10
| 10> end
| 11> % maxcore 2000
| 12> % output
| 13>     printlevel mini
| 14>     print[ P_Basis ] 0
| 15>     print[ P_SCFInfo ] 1
| 16>     print[ P_SCFIterInfo ] 1
| 17>     print[ P_OrbEn ] 0
| 18>     print[ P_Cartesian ] 0
| 19> end
| 20> % elprop
| 21>     Dipole false
| 22> end
| 23> *xyz 1 1
| 24>  C        2.5734520809     1.2675539908    -0.3209212792
| 25>  C        1.9359186306    -0.1113803200    -0.3642012120
| 26>  C        2.8098311340    -1.1809495366     0.2335768329
| 27>  C        2.6589757088    -2.6119893196    -0.1577556372
| 28>  C        3.8721144141    -1.8316004565    -0.6103848209
| 29>  C        5.1970353600    -2.1408057407    -0.0105892310
| 30>  N        5.7275846207    -3.4434254132    -0.5832069322
| 31>  H        1.9077908264     2.0181732232    -0.7492277726
| 32>  H        3.5085630877     1.2944149073    -0.8865951495
| 33>  H        2.7935418091     1.5699420365     0.7057720262
| 34>  H        1.6912731740    -0.3842999570    -1.3964075256
| 35>  H        0.9864273616    -0.1007569327     0.1791131508
| 36>  H        3.0885345982    -1.0096889806     1.2703369937
| 37>  H        2.7808911817    -3.3653565933     0.6147263134
| 38>  H        1.9201598202    -2.8594239284    -0.9101652431
| 39>  H        3.8971341941    -1.5237285206    -1.6523149252
| 40>  H        5.9564713391    -1.3847460677    -0.2174321110
| 41>  H        5.1324608054    -2.2922476661     1.0679979547
| 42>  H        5.8890881301    -3.3558985575    -1.5882077487
| 43>  H        5.0289564283    -4.1790976628    -0.4517949049
| 44>  H        6.6024152950    -3.7389385043    -0.1459987788
| 45> *
| 46>
| 47>                          ****END OF INPUT****
 Total Charge           Charge          ....    1
 Multiplicity           Mult            ....    1
 Number of Electrons    NEL             ....   56
FINAL SINGLE POINT ENERGY      -291.309105995918
FINAL SINGLE POINT ENERGY      -291.309107760699
FINAL SINGLE POINT ENERGY      -291.309109160985

CARTESIAN COORDINATES (ANGSTROEM)
---------------------------------
  C      1.350478   -0.006287   -2.586893
  C     -0.055819   -0.343162   -2.120585
  C     -0.422920    0.329603   -0.825444
  C     -1.465665   -0.241194    0.074186
  C     -0.010113   -0.295451    0.479527
  C      0.465197    0.570362    1.590447
  N      0.006709   -0.004001    2.919216
  H      1.575752   -0.499867   -3.533293
  H      2.101617   -0.327691   -1.860054
  H      1.470601    1.069133   -2.740257
  H     -0.167182   -1.426990   -2.005547
  H     -0.783656   -0.043499   -2.880865
  H     -0.373812    1.415496   -0.849438
  H     -2.125346    0.450400    0.589329
  H     -1.934762   -1.173288   -0.215979
  H      0.486287   -1.258981    0.400300
  H      1.552126    0.645867    1.649899
  H      0.043013    1.574629    1.536573
  H      0.426064   -0.921772    3.079439
  H     -1.007565   -0.134643    2.899108
  H      0.244987    0.595858    3.711322

FINAL SINGLE POINT ENERGY      -291.309109477395
                    ***********************HURRAY********************
 Multiplicity           Mult            ....    1
 Number of Electrons    NEL             ....   56
 Basis Dimension        Dim             ....  301
FINAL SINGLE POINT ENERGY      -291.309109639475

VIBRATIONAL FREQUENCIES
-----------------------

   0:         0.00 cm**-1
   1:         0.00 cm**-1
   2:         0.00 cm**-1
   3:         0.00 cm**-1
   4:         0.00 cm**-1
   5:         0.00 cm**-1
   6:        75.54 cm**-1
   7:       119.08 cm**-1
   8:       129.95 cm**-1
   9:       181.32 cm**-1
  10:       213.49 cm**-1
  11:       241.87 cm**-1
  12:       348.23 cm**-1
  13:       388.83 cm**-1
  14:       409.72 cm**-1
  15:       481.01 cm**-1
  16:       768.13 cm**-1
  17:       793.63 cm**-1
  18:       828.48 cm**-1
  19:       843.95 cm**-1
  20:       880.95 cm**-1
  21:       917.58 cm**-1
  22:       930.99 cm**-1
  23:       968.35 cm**-1
  24:      1017.87 cm**-1
  25:      1045.18 cm**-1
  26:      1070.90 cm**-1
  27:      1076.31 cm**-1
  28:      1106.21 cm**-1
  29:      1123.38 cm**-1
  30:      1142.55 cm**-1
  31:      1208.94 cm**-1
  32:      1222.69 cm**-1
  33:      1240.62 cm**-1
  34:      1292.46 cm**-1
  35:      1332.42 cm**-1
  36:      1342.98 cm**-1
  37:      1367.61 cm**-1
  38:      1406.14 cm**-1
  39:      1412.30 cm**-1
  40:      1446.28 cm**-1
  41:      1477.29 cm**-1
  42:      1488.74 cm**-1
  43:      1490.96 cm**-1
  44:      1492.26 cm**-1
  45:      1495.81 cm**-1
  46:      1505.46 cm**-1
  47:      1649.36 cm**-1
  48:      1663.76 cm**-1
  49:      3046.85 cm**-1
  50:      3051.36 cm**-1
  51:      3086.51 cm**-1
  52:      3095.03 cm**-1
  53:      3121.85 cm**-1
  54:      3136.61 cm**-1
  55:      3139.98 cm**-1
  56:      3146.36 cm**-1
  57:      3150.31 cm**-1
  58:      3163.24 cm**-1
  59:      3231.19 cm**-1
  60:      3418.84 cm**-1
  61:      3502.52 cm**-1
  62:      3514.74 cm**-1

IR SPECTRUM
-----------

 Mode    freq (cm**-1)   T**2         TX         TY         TZ
-------------------------------------------------------------------
   6:        75.54    5.962063  ( -2.352305   0.624487   0.196829)
   7:       119.08    4.474827  ( -1.018501   1.359880  -1.260241)
   8:       129.95    3.728413  (  1.195550   1.432348   0.497445)
   9:       181.32    5.591992  (  0.528727   0.997167   2.078003)
  10:       213.49    1.267327  (  0.209788   0.011179  -1.105980)
  11:       241.87    2.209010  (  0.069547   0.749350   1.281658)
  12:       348.23    2.890181  (  0.227023   0.343673   1.649403)
  13:       388.83    0.827838  (  0.239916   0.452677  -0.751906)
  14:       409.72    6.332581  ( -0.641077   0.583306   2.362489)
  15:       481.01    0.830479  (  0.290494  -0.017887   0.863581)
  16:       768.13    5.721743  ( -0.654895   1.775414  -1.463134)
  17:       793.63   13.176104  (  2.521702  -0.565437   2.549001)
  18:       828.48   14.111017  ( -0.803446   0.175509  -3.665336)
  19:       843.95    9.848284  ( -1.869660   1.406388   2.091585)
  20:       880.95   11.745134  (  0.405139   1.180124   3.191912)
  21:       917.58    3.174123  ( -0.684023  -0.884635   1.386960)
  22:       930.99   12.547402  ( -3.147087  -0.432401  -1.567251)
  23:       968.35    0.238969  ( -0.331724   0.217991   0.285321)
  24:      1017.87   14.672027  ( -1.450957   2.079176  -2.871198)
  25:      1045.18   11.268870  (  0.421989   1.921154   2.720287)
  26:      1070.90   14.393336  ( -0.328228  -1.905090   3.264389)
  27:      1076.31    0.534860  ( -0.671601   0.213376   0.195660)
  28:      1106.21    9.452591  (  0.628026  -0.491060  -2.969349)
  29:      1123.38    6.281206  (  1.773499   0.759360   1.599775)
  30:      1142.55    7.894812  (  1.720603   1.267666   1.824105)
  31:      1208.94    4.278448  ( -0.431673  -1.488927  -1.369381)
  32:      1222.69    6.821264  (  0.133828   1.659309   2.012473)
  33:      1240.62    4.627700  ( -1.169898   1.028154  -1.483892)
  34:      1292.46    1.073698  (  0.697057  -0.068207  -0.763647)
  35:      1332.42    2.796181  (  0.680719  -0.929693  -1.211806)
  36:      1342.98   12.416102  ( -1.428623   0.294185  -3.207584)
  37:      1367.61    3.097703  (  1.640819   0.448815   0.451643)
  38:      1406.14   18.503090  ( -0.617649   0.798710  -4.181347)
  39:      1412.30    4.547427  ( -2.013076  -0.498726   0.496212)
  40:      1446.28   12.632315  (  1.651797   0.552074   3.098241)
  41:      1477.29    2.628723  ( -1.133657  -1.136542   0.227635)
  42:      1488.74   54.028357  (  3.002123   4.854749  -4.631093)
  43:      1490.96  121.122395  (  3.435285   1.793259 -10.300749)
  44:      1492.26   12.818573  ( -0.896897   2.792972  -2.052670)
  45:      1495.81   18.095760  (  0.217138   0.353722   4.233615)
  46:      1505.46    3.223648  ( -0.135499  -1.722114  -0.489502)
  47:      1649.36   48.566625  ( -5.408122   4.391052   0.193660)
  48:      1663.76   32.742971  ( -3.588093  -3.367583  -2.920265)
  49:      3046.85    4.077104  ( -0.337091  -1.882940  -0.646538)
  50:      3051.36   25.357651  ( -4.498882  -2.230394  -0.378224)
  51:      3086.51    2.173177  ( -0.810181   0.653753  -1.043739)
  52:      3095.03    3.692348  (  0.949250   1.066082   1.286368)
  53:      3121.85   27.482154  ( -1.968469   3.541489  -3.326431)
  54:      3136.61    5.852257  (  1.459155  -0.072210  -1.928188)
  55:      3139.98   11.949795  (  0.266447   1.952983   2.839834)
  56:      3146.36    0.110675  ( -0.003486  -0.199257   0.266383)
  57:      3150.31    8.087122  ( -0.027860   2.784079   0.579008)
  58:      3163.24    3.135645  ( -0.959225   1.317308  -0.692988)
  59:      3231.19    1.500769  (  0.482394  -0.761337  -0.829718)
  60:      3418.84   33.747390  (  1.923345   1.664887  -5.222670)
  61:      3502.52   91.703409  ( -8.391559   1.309064  -4.423969)
  62:      3514.74   89.915576  ( -0.200551   8.816864   3.484002)

--------------------------
THERMOCHEMISTRY AT 298.15K
--------------------------

Temperature         ... 298.15 K
Pressure            ... 1.00 atm
Total Mass          ... 100.18 AMU

Throughout the following assumptions are being made:
  (1) The electronic state is orbitally nondegenerate
  (2) There are no thermally accessible electronically excited states
  (3) Hindered rotations indicated by low frequency modes) are not
      treated as such but are treated as vibrations and this may
      case some error
  (4) All equations used are the standard statistical mechanics
      equations for an ideal gas
  (5) All vibrations are strinctly harmonic

------------
INNER ENERGY
------------

The inner energy is: U= E(el) + E(ZPE) + E(vib) + E(rot) + E(trans)
    E(el)   - is the total energy from the electronic structure calculation
              = E(kin-el) + E(nuc-el) + E(el-el) + E(nuc-nuc)
    E(ZPE)  - the the zero temperature vibrational energy from the frequency calculation
    E(vib)  - the the finite temperature correction to E(ZPE) due to population
              of excietd vibrational states
    E(rot)  - is the rotational thermal energy
    E(trans)- is the translational thermal energy

Summary of contributions to the inner energy U:
Electronic energy                ...   -291.30910964 Eh
Zero point energy                ...      0.19921432 Eh     125.01 kcal/mol
Thermal vibrational correction   ...      0.00584468 Eh       3.67 kcal/mol
Thermal rotational correction    ...      0.00141627 Eh       0.89 kcal/mol
Thermal translational correction ...      0.00141627 Eh       0.89 kcal/mol
-----------------------------------------------------------------------
Total thermal energy                   -291.10121810 Eh

Summary of corrections to the electronic energy:
(perhaps to be used in another calculation)
Total thermal correction                  0.00867722 Eh       5.45 kcal/mol
Non-thermal (ZPE) correction              0.19921432 Eh     125.01 kcal/mol
-----------------------------------------------------------------------
Total correction                          0.20789154 Eh     130.45 kcal/mol

--------
ENTHALPY
--------

The enthalpy is H = U + kB*T
                kB is Boltzmann's constant
Total free energy                 ...   -291.10121810 Eh
Thermal Enthalpy correction       ...      0.00094421 Eh       0.59 kcal/mol
-----------------------------------------------------------------------
Total Enthalpy                    ...   -291.10027389 Eh

-------
ENTROPY
-------

The entropy contributions are T*S = T*(S(el)+S(vib)+S(rot)+S(trans)
     S(el)   - electronic entropy
     S(vib)  - vibrational entropy
     S(rot)  - rotational entropy
     S(trans)- translational entropy
The entropies will be listed as mutliplied by the temperature to get
units of energy

Electronic entropy                ...      0.00000000 Eh      0.00 kcal/mol
Vibrational entropy               ...      0.01051521 Eh      6.60 kcal/mol
Rotational entropy                ...      0.01230123 Eh      7.72 kcal/mol
Translational entropy             ...      0.01887386 Eh     11.84 kcal/mol
-----------------------------------------------------------------------
Final entropy term                ...      0.04169030 Eh     26.16 kcal/mol

CAUTION: The rotational entropy is not quite correctly treated here
         because it includes a symmetry number that is not yet correctly
         implemented in ORCA!
For a nonlinear molecule the correct rotational entropy is:
    S(rot) = R*(ln(qrot/sn)+1.5)
    R    = 8.31441 J/mol/K = 1.987191683e-3 kcal/mol/K
    qrot = 304698.9183227
    sn is the rotational symmetry number. We have assumed 3 here
       if it is different for your molecule then you should correct
       the printed rotational entropy by manually evaluating the equation
       as given above

For convenience we print out the resulting values for sn=1 - 12:
 sn= 1  qrot/sn=  304698.9183 T*S(rot)=     8.37 kcal/mol T*S(tot)=    26.81 kcal/mol
 sn= 2  qrot/sn=  152349.4592 T*S(rot)=     7.96 kcal/mol T*S(tot)=    26.40 kcal/mol
 sn= 3  qrot/sn=  101566.3061 T*S(rot)=     7.72 kcal/mol T*S(tot)=    26.16 kcal/mol
 sn= 4  qrot/sn=   76174.7296 T*S(rot)=     7.55 kcal/mol T*S(tot)=    25.99 kcal/mol
 sn= 5  qrot/sn=   60939.7837 T*S(rot)=     7.42 kcal/mol T*S(tot)=    25.86 kcal/mol
 sn= 6  qrot/sn=   50783.1531 T*S(rot)=     7.31 kcal/mol T*S(tot)=    25.75 kcal/mol
 sn= 7  qrot/sn=   43528.4169 T*S(rot)=     7.22 kcal/mol T*S(tot)=    25.66 kcal/mol
 sn= 8  qrot/sn=   38087.3648 T*S(rot)=     7.14 kcal/mol T*S(tot)=    25.58 kcal/mol
 sn= 9  qrot/sn=   33855.4354 T*S(rot)=     7.07 kcal/mol T*S(tot)=    25.51 kcal/mol
 sn=10  qrot/sn=   30469.8918 T*S(rot)=     7.01 kcal/mol T*S(tot)=    25.45 kcal/mol
 sn=11  qrot/sn=   27699.9017 T*S(rot)=     6.95 kcal/mol T*S(tot)=    25.39 kcal/mol
 sn=12  qrot/sn=   25391.5765 T*S(rot)=     6.90 kcal/mol T*S(tot)=    25.34 kcal/mol

-------------------
GIBBS FREE ENTHALPY
-------------------

The Gibbs free enthalpy is G = H - T*S

Total enthalpy                    ...   -291.10027389 Eh
Total entropy correction          ...     -0.04169030 Eh    -26.16 kcal/mol
-----------------------------------------------------------------------
Final Gibbs free enthalpy         ...   -291.14196420 Eh

For completeness - the Gibbs free enthalpy minus the electronic energy
G-E(el)                           ...      0.16714544 Eh    104.89 kcal/mol

                             ****ORCA TERMINATED NORMALLY****
TOTAL RUN TIME: 0 days 0 hours 54 minutes 4 seconds 629 msec
