                         Program Version 3.0.3 - RELEASE   -
|  1> ! NORI PBE0 def2-TZVP UseSym TightOPT Freq TightSCF Grid3 FinalGrid5 XYZFile
|  2> % pal
|  3>     nprocs 8
|  4> end
|  5> %method
|  6>     SymThresh 5.0e-2
|  7> end
|  8> % geom
|  9>     MaxIter 10
| 10> end
| 11> % maxcore 2000
| 12> % output
| 13>     printlevel mini
| 14>     print[ P_Basis ] 0
| 15>     print[ P_SCFInfo ] 1
| 16>     print[ P_SCFIterInfo ] 1
| 17>     print[ P_OrbEn ] 0
| 18>     print[ P_Cartesian ] 0
| 19> end
| 20> % elprop
| 21>     Dipole false
| 22> end
| 23> *xyz 1 1
| 24>  C        1.2983220131    -0.2376009916     0.4738319808
| 25>  C        2.5312104892     0.1504959058    -0.3258966799
| 26>  C        3.2585454851     1.3366162294     0.2501476474
| 27>  C        4.1629531954     2.2091634150    -0.5761219695
| 28>  C        2.8651592653     2.7479614317    -0.0709921558
| 29>  C        1.7322701856     3.1497023240    -0.9638587325
| 30>  N        2.9970426262     3.7026575648     1.0733727457
| 31>  H        0.8226856833    -1.1206744561     0.0458109685
| 32>  H        0.5532990282     0.5630890912     0.4847383274
| 33>  H        1.5546151652    -0.4742051875     1.5094804767
| 34>  H        3.2362711142    -0.6857128506    -0.3556230731
| 35>  H        2.2648299916     0.3487732631    -1.3678790719
| 36>  H        3.5946597570     1.1783068917     1.2744475481
| 37>  H        5.0939581680     2.5564798752    -0.1413177566
| 38>  H        4.2192184122     2.0237608566    -1.6421450992
| 39>  H        1.6377176682     2.4414010075    -1.7847854230
| 40>  H        1.9020108463     4.1355139101    -1.4070269380
| 41>  H        0.7766926918     3.1628914923    -0.4315731041
| 42>  H        3.1796541915     4.6535555691     0.7406888801
| 43>  H        3.7644417013     3.4357707511     1.6930914837
| 44>  H        2.1388223211     3.7254939070     1.6307899451
| 45> *
| 46>
| 47>                          ****END OF INPUT****
 Total Charge           Charge          ....    1
 Multiplicity           Mult            ....    1
 Number of Electrons    NEL             ....   56
FINAL SINGLE POINT ENERGY      -291.309561190998
FINAL SINGLE POINT ENERGY      -291.309562211967

CARTESIAN COORDINATES (ANGSTROEM)
---------------------------------
  C      1.855566   -0.000621   -1.795752
  C      0.411829    0.459474   -1.676012
  C      0.017780    0.808693   -0.265136
  C     -1.412359    0.796422    0.200473
  C     -0.453147   -0.227044    0.712239
  C     -0.577510   -1.691759    0.428161
  N      0.000256    0.000442    2.120266
  H      2.110495   -0.207998   -2.835744
  H      2.038162   -0.915350   -1.225582
  H      2.547588    0.765094   -1.436161
  H      0.250817    1.349054   -2.292011
  H     -0.266439   -0.300942   -2.073896
  H      0.627781    1.600881    0.168230
  H     -1.754839    1.587889    0.858722
  H     -2.170569    0.437021   -0.484938
  H     -0.894876   -1.843910   -0.601872
  H     -1.329080   -2.161501    1.069626
  H      0.373919   -2.215778    0.558114
  H     -0.666338   -0.393256    2.790357
  H      0.095200    0.997369    2.322723
  H      0.909129   -0.439731    2.286992

FINAL SINGLE POINT ENERGY      -291.309562473603
                    ***********************HURRAY********************
 Multiplicity           Mult            ....    1
 Number of Electrons    NEL             ....   56
 Basis Dimension        Dim             ....  301
FINAL SINGLE POINT ENERGY      -291.309562544564

VIBRATIONAL FREQUENCIES
-----------------------

   0:         0.00 cm**-1
   1:         0.00 cm**-1
   2:         0.00 cm**-1
   3:         0.00 cm**-1
   4:         0.00 cm**-1
   5:         0.00 cm**-1
   6:        88.47 cm**-1
   7:       136.65 cm**-1
   8:       191.49 cm**-1
   9:       203.87 cm**-1
  10:       220.29 cm**-1
  11:       265.01 cm**-1
  12:       339.96 cm**-1
  13:       359.06 cm**-1
  14:       384.96 cm**-1
  15:       423.21 cm**-1
  16:       493.59 cm**-1
  17:       683.64 cm**-1
  18:       762.54 cm**-1
  19:       802.00 cm**-1
  20:       885.64 cm**-1
  21:       901.02 cm**-1
  22:       938.52 cm**-1
  23:       951.93 cm**-1
  24:       983.02 cm**-1
  25:      1026.42 cm**-1
  26:      1046.98 cm**-1
  27:      1076.64 cm**-1
  28:      1087.35 cm**-1
  29:      1122.31 cm**-1
  30:      1143.26 cm**-1
  31:      1192.97 cm**-1
  32:      1209.48 cm**-1
  33:      1230.85 cm**-1
  34:      1294.83 cm**-1
  35:      1342.51 cm**-1
  36:      1386.88 cm**-1
  37:      1413.39 cm**-1
  38:      1422.95 cm**-1
  39:      1440.24 cm**-1
  40:      1472.90 cm**-1
  41:      1478.08 cm**-1
  42:      1488.25 cm**-1
  43:      1492.94 cm**-1
  44:      1493.15 cm**-1
  45:      1499.24 cm**-1
  46:      1518.92 cm**-1
  47:      1647.33 cm**-1
  48:      1657.28 cm**-1
  49:      3049.44 cm**-1
  50:      3051.72 cm**-1
  51:      3063.49 cm**-1
  52:      3093.18 cm**-1
  53:      3115.84 cm**-1
  54:      3119.53 cm**-1
  55:      3127.12 cm**-1
  56:      3143.34 cm**-1
  57:      3147.43 cm**-1
  58:      3169.14 cm**-1
  59:      3235.78 cm**-1
  60:      3403.85 cm**-1
  61:      3480.06 cm**-1
  62:      3503.80 cm**-1

IR SPECTRUM
-----------

 Mode    freq (cm**-1)   T**2         TX         TY         TZ
-------------------------------------------------------------------
   6:        88.47    0.211182  (  0.053096   0.409542  -0.201590)
   7:       136.65    7.529238  (  2.404362  -0.268267  -1.294726)
   8:       191.49    1.225100  (  0.829966   0.529710  -0.505631)
   9:       203.87    0.064423  ( -0.209578   0.137373  -0.040358)
  10:       220.29    0.514792  ( -0.610636   0.038021   0.374793)
  11:       265.01    0.517105  (  0.126955  -0.176822   0.685363)
  12:       339.96    4.402593  ( -0.640287  -0.372873  -1.963057)
  13:       359.06    6.704462  ( -0.431769  -2.417056   0.822118)
  14:       384.96    6.586502  (  1.858148  -0.664254  -1.640901)
  15:       423.21    0.073729  (  0.113511  -0.242723   0.043932)
  16:       493.59    4.241130  (  1.150112   1.225452   1.190227)
  17:       683.64    0.391374  ( -0.254146   0.378238   0.428625)
  18:       762.54    3.868258  ( -0.119572  -1.917857   0.419269)
  19:       802.00    1.241865  (  0.938476   0.412013  -0.437463)
  20:       885.64    5.227705  (  0.533890  -2.222593   0.052395)
  21:       901.02    0.166607  ( -0.152844  -0.148698   0.348043)
  22:       938.52    3.205371  ( -0.584894   0.395179   1.645328)
  23:       951.93    0.304825  (  0.326596   0.250830   0.367755)
  24:       983.02   17.982537  (  0.319279   4.045028  -1.232213)
  25:      1026.42    1.985795  ( -1.380579   0.186674  -0.212012)
  26:      1046.98    3.188865  (  0.070481  -1.016489   1.466508)
  27:      1076.64    4.922356  ( -0.908896  -1.102640   1.697189)
  28:      1087.35    3.967392  ( -0.783434   1.791498  -0.379679)
  29:      1122.31    2.534507  ( -0.013761  -0.686924   1.436124)
  30:      1143.26    7.377054  (  1.000909   1.233697  -2.203004)
  31:      1192.97   12.214816  (  2.581986   0.518620  -2.297651)
  32:      1209.48   11.300667  (  3.265799  -0.784667   0.139711)
  33:      1230.85   11.983711  (  0.764224   0.240703   3.367749)
  34:      1294.83    1.926258  (  1.122112   0.244254   0.779399)
  35:      1342.51    2.431530  ( -0.370775  -0.781004   1.297724)
  36:      1386.88    0.115662  (  0.302596  -0.091240   0.125590)
  37:      1413.39    6.088589  (  2.180980  -0.924961  -0.690190)
  38:      1422.95   16.082041  ( -0.342258  -2.448797  -3.157261)
  39:      1440.24   14.171346  (  2.841392   2.377618   0.666911)
  40:      1472.90    1.584598  ( -1.238768   0.051352   0.217752)
  41:      1478.08   12.774087  ( -1.400383   0.316323  -3.273065)
  42:      1488.25    7.685515  ( -2.532160  -0.316515   1.083281)
  43:      1492.94   61.167225  (  2.995547  -1.541604   7.058143)
  44:      1493.15   49.678959  ( -3.526138  -3.348353  -5.102337)
  45:      1499.24    4.491289  (  0.089471   0.152519   2.111876)
  46:      1518.92   55.453041  (  0.346449   2.915213   6.843577)
  47:      1647.33   38.042955  (  5.846913  -0.466400  -1.907625)
  48:      1657.28   37.479573  (  0.065256   6.115981  -0.264740)
  49:      3049.44    4.140471  (  0.337673   1.400852  -1.436684)
  50:      3051.72   12.747613  (  2.548458  -2.002276   1.497953)
  51:      3063.49   12.711588  ( -3.220350   0.139164  -1.523669)
  52:      3093.18    0.611345  (  0.141351   0.446121  -0.626372)
  53:      3115.84    8.487021  (  2.551314   0.698313  -1.220727)
  54:      3119.53    7.109390  (  0.746572  -1.351076   2.174078)
  55:      3127.12   27.685062  (  1.972538   4.877919   0.008041)
  56:      3143.34    9.159395  (  0.356303   0.384768   2.980671)
  57:      3147.43    2.344513  ( -0.001523  -0.206275  -1.517222)
  58:      3169.14    0.735266  ( -0.266414   0.760089  -0.294201)
  59:      3235.78    0.357836  ( -0.557483   0.179937   0.121127)
  60:      3403.85   26.775420  ( -1.073315   0.359673  -5.049163)
  61:      3480.06   71.473529  (  8.135869   0.258254  -2.283522)
  62:      3503.80   67.033495  (  0.351358  -8.179622  -0.061813)

--------------------------
THERMOCHEMISTRY AT 298.15K
--------------------------

Temperature         ... 298.15 K
Pressure            ... 1.00 atm
Total Mass          ... 100.18 AMU

Throughout the following assumptions are being made:
  (1) The electronic state is orbitally nondegenerate
  (2) There are no thermally accessible electronically excited states
  (3) Hindered rotations indicated by low frequency modes) are not
      treated as such but are treated as vibrations and this may
      case some error
  (4) All equations used are the standard statistical mechanics
      equations for an ideal gas
  (5) All vibrations are strinctly harmonic

------------
INNER ENERGY
------------

The inner energy is: U= E(el) + E(ZPE) + E(vib) + E(rot) + E(trans)
    E(el)   - is the total energy from the electronic structure calculation
              = E(kin-el) + E(nuc-el) + E(el-el) + E(nuc-nuc)
    E(ZPE)  - the the zero temperature vibrational energy from the frequency calculation
    E(vib)  - the the finite temperature correction to E(ZPE) due to population
              of excietd vibrational states
    E(rot)  - is the rotational thermal energy
    E(trans)- is the translational thermal energy

Summary of contributions to the inner energy U:
Electronic energy                ...   -291.30956254 Eh
Zero point energy                ...      0.19798126 Eh     124.23 kcal/mol
Thermal vibrational correction   ...      0.00594030 Eh       3.73 kcal/mol
Thermal rotational correction    ...      0.00141627 Eh       0.89 kcal/mol
Thermal translational correction ...      0.00141627 Eh       0.89 kcal/mol
-----------------------------------------------------------------------
Total thermal energy                   -291.10280844 Eh

Summary of corrections to the electronic energy:
(perhaps to be used in another calculation)
Total thermal correction                  0.00877284 Eh       5.51 kcal/mol
Non-thermal (ZPE) correction              0.19798126 Eh     124.23 kcal/mol
-----------------------------------------------------------------------
Total correction                          0.20675411 Eh     129.74 kcal/mol

--------
ENTHALPY
--------

The enthalpy is H = U + kB*T
                kB is Boltzmann's constant
Total free energy                 ...   -291.10280844 Eh
Thermal Enthalpy correction       ...      0.00094421 Eh       0.59 kcal/mol
-----------------------------------------------------------------------
Total Enthalpy                    ...   -291.10186423 Eh

-------
ENTROPY
-------

The entropy contributions are T*S = T*(S(el)+S(vib)+S(rot)+S(trans)
     S(el)   - electronic entropy
     S(vib)  - vibrational entropy
     S(rot)  - rotational entropy
     S(trans)- translational entropy
The entropies will be listed as mutliplied by the temperature to get
units of energy

Electronic entropy                ...      0.00000000 Eh      0.00 kcal/mol
Vibrational entropy               ...      0.01020878 Eh      6.41 kcal/mol
Rotational entropy                ...      0.01216536 Eh      7.63 kcal/mol
Translational entropy             ...      0.01887386 Eh     11.84 kcal/mol
-----------------------------------------------------------------------
Final entropy term                ...      0.04124800 Eh     25.88 kcal/mol

CAUTION: The rotational entropy is not quite correctly treated here
         because it includes a symmetry number that is not yet correctly
         implemented in ORCA!
For a nonlinear molecule the correct rotational entropy is:
    S(rot) = R*(ln(qrot/sn)+1.5)
    R    = 8.31441 J/mol/K = 1.987191683e-3 kcal/mol/K
    qrot = 263860.2611958
    sn is the rotational symmetry number. We have assumed 3 here
       if it is different for your molecule then you should correct
       the printed rotational entropy by manually evaluating the equation
       as given above

For convenience we print out the resulting values for sn=1 - 12:
 sn= 1  qrot/sn=  263860.2612 T*S(rot)=     8.28 kcal/mol T*S(tot)=    26.53 kcal/mol
 sn= 2  qrot/sn=  131930.1306 T*S(rot)=     7.87 kcal/mol T*S(tot)=    26.12 kcal/mol
 sn= 3  qrot/sn=   87953.4204 T*S(rot)=     7.63 kcal/mol T*S(tot)=    25.88 kcal/mol
 sn= 4  qrot/sn=   65965.0653 T*S(rot)=     7.46 kcal/mol T*S(tot)=    25.71 kcal/mol
 sn= 5  qrot/sn=   52772.0522 T*S(rot)=     7.33 kcal/mol T*S(tot)=    25.58 kcal/mol
 sn= 6  qrot/sn=   43976.7102 T*S(rot)=     7.22 kcal/mol T*S(tot)=    25.47 kcal/mol
 sn= 7  qrot/sn=   37694.3230 T*S(rot)=     7.13 kcal/mol T*S(tot)=    25.38 kcal/mol
 sn= 8  qrot/sn=   32982.5326 T*S(rot)=     7.05 kcal/mol T*S(tot)=    25.30 kcal/mol
 sn= 9  qrot/sn=   29317.8068 T*S(rot)=     6.98 kcal/mol T*S(tot)=    25.23 kcal/mol
 sn=10  qrot/sn=   26386.0261 T*S(rot)=     6.92 kcal/mol T*S(tot)=    25.17 kcal/mol
 sn=11  qrot/sn=   23987.2965 T*S(rot)=     6.86 kcal/mol T*S(tot)=    25.11 kcal/mol
 sn=12  qrot/sn=   21988.3551 T*S(rot)=     6.81 kcal/mol T*S(tot)=    25.06 kcal/mol

-------------------
GIBBS FREE ENTHALPY
-------------------

The Gibbs free enthalpy is G = H - T*S

Total enthalpy                    ...   -291.10186423 Eh
Total entropy correction          ...     -0.04124800 Eh    -25.88 kcal/mol
-----------------------------------------------------------------------
Final Gibbs free enthalpy         ...   -291.14311223 Eh

For completeness - the Gibbs free enthalpy minus the electronic energy
G-E(el)                           ...      0.16645032 Eh    104.45 kcal/mol

                             ****ORCA TERMINATED NORMALLY****
TOTAL RUN TIME: 0 days 1 hours 2 minutes 11 seconds 17 msec
