                         Program Version 3.0.3 - RELEASE   -
|  1> ! NORI PBE0 def2-TZVP UseSym TightOPT Freq TightSCF Grid3 FinalGrid5 XYZFile
|  2> % pal
|  3>     nprocs 8
|  4> end
|  5> %method
|  6>     SymThresh 5.0e-2
|  7> end
|  8> % geom
|  9>     MaxIter 10
| 10> end
| 11> % maxcore 2000
| 12> % output
| 13>     printlevel mini
| 14>     print[ P_Basis ] 0
| 15>     print[ P_SCFInfo ] 1
| 16>     print[ P_SCFIterInfo ] 1
| 17>     print[ P_OrbEn ] 0
| 18>     print[ P_Cartesian ] 0
| 19> end
| 20> % elprop
| 21>     Dipole false
| 22> end
| 23> *xyz 1 1
| 24>  C        1.3160294894     0.4501934832    -0.5606406615
| 25>  C        1.9097229335    -0.6281593218     0.3293507595
| 26>  C        2.9145473182    -1.4927453542    -0.3847194480
| 27>  C        3.2246720854    -2.8899649178     0.0660428719
| 28>  C        2.4539206879    -2.6621444371    -1.1892758107
| 29>  N        3.1163224715    -2.9435591470    -2.4809037643
| 30>  C        2.5137609154    -2.2275705933    -3.6405479996
| 31>  H        0.6095518944     1.0673087972    -0.0040349046
| 32>  H        0.7750569997     0.0198710860    -1.4083149335
| 33>  H        2.0906923842     1.1140646466    -0.9532287725
| 34>  H        1.1165319139    -1.2630915301     0.7374579077
| 35>  H        2.4054601345    -0.1738187233     1.1918737073
| 36>  H        3.7627221463    -0.9499514752    -0.8003356219
| 37>  H        4.2493835640    -3.2380881110    -0.0056898706
| 38>  H        2.6761542106    -3.3022148103     0.9039357176
| 39>  H        1.4000747370    -2.9088943693    -1.2356724553
| 40>  H        4.1025327136    -2.6870770836    -2.4024318474
| 41>  H        3.1028888107    -3.9514376268    -2.6561488555
| 42>  H        2.5639005351    -1.1584024889    -3.4451070139
| 43>  H        1.4761425185    -2.5403389774    -3.7371768435
| 44>  H        3.0673115364    -2.4793390460    -4.5435721613
| 45> *
| 46>
| 47>                          ****END OF INPUT****
 Total Charge           Charge          ....    1
 Multiplicity           Mult            ....    1
 Number of Electrons    NEL             ....   56
FINAL SINGLE POINT ENERGY      -291.303047949885
FINAL SINGLE POINT ENERGY      -291.303049946049
FINAL SINGLE POINT ENERGY      -291.303051588789

CARTESIAN COORDINATES (ANGSTROEM)
---------------------------------
  C      1.319041   -0.002953   -2.228470
  C     -0.177482    0.027846   -1.968878
  C     -0.526434    0.511170   -0.585873
  C     -1.817930    0.137484    0.082111
  C     -0.531891   -0.448235    0.556915
  N     -0.001687   -0.004840    1.864467
  C      1.466801   -0.201082    2.023981
  H      1.529787   -0.340476   -3.243890
  H      1.832333   -0.686744   -1.545917
  H      1.764084    0.988899   -2.115109
  H     -0.610303   -0.966897   -2.119489
  H     -0.671295    0.683661   -2.691659
  H     -0.165708    1.511941   -0.351365
  H     -2.310978    0.881369    0.698998
  H     -2.496846   -0.532176   -0.431137
  H     -0.312982   -1.495763    0.387447
  H     -0.225131    0.985055    1.986131
  H     -0.496480   -0.496000    2.613160
  H      1.972081    0.347583    1.232586
  H      1.683608   -1.263662    1.937453
  H      1.772797    0.166339    3.002084

FINAL SINGLE POINT ENERGY      -291.303052032692
                    ***********************HURRAY********************
 Multiplicity           Mult            ....    1
 Number of Electrons    NEL             ....   56
 Basis Dimension        Dim             ....  301
FINAL SINGLE POINT ENERGY      -291.303052267669

VIBRATIONAL FREQUENCIES
-----------------------

   0:         0.00 cm**-1
   1:         0.00 cm**-1
   2:         0.00 cm**-1
   3:         0.00 cm**-1
   4:         0.00 cm**-1
   5:         0.00 cm**-1
   6:        73.58 cm**-1
   7:       114.20 cm**-1
   8:       118.84 cm**-1
   9:       190.10 cm**-1
  10:       227.56 cm**-1
  11:       271.38 cm**-1
  12:       311.51 cm**-1
  13:       378.67 cm**-1
  14:       452.98 cm**-1
  15:       461.18 cm**-1
  16:       754.58 cm**-1
  17:       791.03 cm**-1
  18:       808.24 cm**-1
  19:       842.99 cm**-1
  20:       906.64 cm**-1
  21:       952.76 cm**-1
  22:       973.75 cm**-1
  23:      1003.79 cm**-1
  24:      1032.45 cm**-1
  25:      1066.59 cm**-1
  26:      1078.47 cm**-1
  27:      1093.25 cm**-1
  28:      1104.67 cm**-1
  29:      1133.92 cm**-1
  30:      1182.81 cm**-1
  31:      1204.44 cm**-1
  32:      1219.74 cm**-1
  33:      1247.14 cm**-1
  34:      1294.28 cm**-1
  35:      1336.57 cm**-1
  36:      1348.55 cm**-1
  37:      1397.68 cm**-1
  38:      1407.78 cm**-1
  39:      1412.77 cm**-1
  40:      1444.89 cm**-1
  41:      1459.18 cm**-1
  42:      1478.05 cm**-1
  43:      1490.06 cm**-1
  44:      1492.24 cm**-1
  45:      1495.49 cm**-1
  46:      1497.86 cm**-1
  47:      1508.08 cm**-1
  48:      1648.01 cm**-1
  49:      3046.78 cm**-1
  50:      3054.74 cm**-1
  51:      3091.90 cm**-1
  52:      3093.57 cm**-1
  53:      3119.31 cm**-1
  54:      3130.03 cm**-1
  55:      3142.51 cm**-1
  56:      3150.76 cm**-1
  57:      3193.69 cm**-1
  58:      3200.01 cm**-1
  59:      3200.89 cm**-1
  60:      3240.51 cm**-1
  61:      3431.59 cm**-1
  62:      3482.04 cm**-1

IR SPECTRUM
-----------

 Mode    freq (cm**-1)   T**2         TX         TY         TZ
-------------------------------------------------------------------
   6:        73.58    1.049944  (  0.027146   0.845345   0.578445)
   7:       114.20    4.046959  ( -1.059951  -1.231153   1.186476)
   8:       118.84    0.229670  ( -0.110153   0.378024   0.273192)
   9:       190.10    0.403391  ( -0.458110   0.250815  -0.361411)
  10:       227.56    0.695875  ( -0.306588  -0.699762  -0.334980)
  11:       271.38    0.900547  ( -0.317137   0.855166   0.262035)
  12:       311.51    1.944334  ( -0.021106  -0.725925   1.190345)
  13:       378.67    3.781688  (  0.472589  -0.437596   1.834900)
  14:       452.98    1.688114  (  0.409795   0.650069   1.047661)
  15:       461.18    2.718469  ( -1.548601  -0.328312   0.460992)
  16:       754.58    0.370864  (  0.229610   0.483394   0.290643)
  17:       791.03   18.100991  (  0.314680   3.174623  -2.814913)
  18:       808.24    1.891082  ( -1.089522   0.674755  -0.498728)
  19:       842.99    7.906847  ( -0.857175   2.571028  -0.749609)
  20:       906.64    7.097791  (  2.247225   1.031567   0.991787)
  21:       952.76    7.907167  (  2.266094  -0.376285  -1.621849)
  22:       973.75    4.815867  (  0.128836   2.076718  -0.697505)
  23:      1003.79    2.925415  (  1.240659  -0.186583   1.162483)
  24:      1032.45    5.975945  ( -2.016208  -0.223038  -1.364223)
  25:      1066.59   13.871103  ( -0.579933  -1.567196   3.328465)
  26:      1078.47    4.174395  ( -1.607581  -1.130075  -0.559469)
  27:      1093.25    7.481704  (  1.553681  -1.052725   1.989861)
  28:      1104.67    3.187937  ( -1.713711   0.499356   0.042130)
  29:      1133.92    1.153291  ( -0.651740  -0.243974  -0.817926)
  30:      1182.81    3.296982  ( -1.615353   0.001590  -0.829225)
  31:      1204.44    2.711714  (  0.941228   1.111946   0.767711)
  32:      1219.74    0.143977  ( -0.020455   0.365958  -0.098152)
  33:      1247.14    2.915044  ( -1.472621   0.588685  -0.632360)
  34:      1294.28    1.717546  ( -0.838542  -0.862925   0.519378)
  35:      1336.57    2.631552  ( -0.441289   0.585640  -1.447011)
  36:      1348.55    2.754035  ( -0.194081   0.103129   1.644911)
  37:      1397.68    7.010084  (  2.351163   0.487466   1.115570)
  38:      1407.78   33.084581  ( -5.051279  -1.303198  -2.422981)
  39:      1412.77    2.104163  ( -1.004739   0.446970   0.945981)
  40:      1444.89    7.670326  ( -1.104300  -0.302497   2.521774)
  41:      1459.18    3.642084  (  1.023360   0.381905   1.564917)
  42:      1478.05    2.033006  (  1.387595   0.297813  -0.137455)
  43:      1490.06   34.946526  ( -1.367526  -5.699222  -0.771539)
  44:      1492.24    4.861578  (  0.162384   0.835603   2.033956)
  45:      1495.49   24.883613  (  1.376224  -0.911086   4.707392)
  46:      1497.86    6.647791  ( -0.171890   0.524203  -2.518622)
  47:      1508.08    9.996909  ( -3.095899   0.462978  -0.444936)
  48:      1648.01   54.822323  ( -3.708771   3.770391   5.181843)
  49:      3046.78    9.421164  ( -2.764491   0.719263  -1.123127)
  50:      3054.74   16.578817  ( -3.630554  -1.192218  -1.405886)
  51:      3091.90    0.544930  (  0.474110   0.035881   0.564679)
  52:      3093.57    0.110448  (  0.276921   0.049851   0.176855)
  53:      3119.31   23.353015  ( -0.602723   3.792033  -2.934319)
  54:      3130.03    9.938121  (  0.824466   2.983981   0.595174)
  55:      3142.51   10.013621  ( -0.454752  -1.280401  -2.857866)
  56:      3150.76    2.575710  ( -0.289765  -0.553893  -1.478157)
  57:      3193.69    0.154844  ( -0.303316   0.235602  -0.085645)
  58:      3200.01    0.228827  ( -0.043276  -0.322416  -0.350716)
  59:      3200.89    0.131688  (  0.055133  -0.102747   0.343644)
  60:      3240.51    0.217248  ( -0.350936  -0.301479   0.056596)
  61:      3431.59   44.599148  (  3.944009  -0.643633  -5.350671)
  62:      3482.04   62.594907  (  0.995198   7.574872  -2.055675)

--------------------------
THERMOCHEMISTRY AT 298.15K
--------------------------

Temperature         ... 298.15 K
Pressure            ... 1.00 atm
Total Mass          ... 100.18 AMU

Throughout the following assumptions are being made:
  (1) The electronic state is orbitally nondegenerate
  (2) There are no thermally accessible electronically excited states
  (3) Hindered rotations indicated by low frequency modes) are not
      treated as such but are treated as vibrations and this may
      case some error
  (4) All equations used are the standard statistical mechanics
      equations for an ideal gas
  (5) All vibrations are strinctly harmonic

------------
INNER ENERGY
------------

The inner energy is: U= E(el) + E(ZPE) + E(vib) + E(rot) + E(trans)
    E(el)   - is the total energy from the electronic structure calculation
              = E(kin-el) + E(nuc-el) + E(el-el) + E(nuc-nuc)
    E(ZPE)  - the the zero temperature vibrational energy from the frequency calculation
    E(vib)  - the the finite temperature correction to E(ZPE) due to population
              of excietd vibrational states
    E(rot)  - is the rotational thermal energy
    E(trans)- is the translational thermal energy

Summary of contributions to the inner energy U:
Electronic energy                ...   -291.30305227 Eh
Zero point energy                ...      0.19885465 Eh     124.78 kcal/mol
Thermal vibrational correction   ...      0.00580965 Eh       3.65 kcal/mol
Thermal rotational correction    ...      0.00141627 Eh       0.89 kcal/mol
Thermal translational correction ...      0.00141627 Eh       0.89 kcal/mol
-----------------------------------------------------------------------
Total thermal energy                   -291.09555542 Eh

Summary of corrections to the electronic energy:
(perhaps to be used in another calculation)
Total thermal correction                  0.00864219 Eh       5.42 kcal/mol
Non-thermal (ZPE) correction              0.19885465 Eh     124.78 kcal/mol
-----------------------------------------------------------------------
Total correction                          0.20749684 Eh     130.21 kcal/mol

--------
ENTHALPY
--------

The enthalpy is H = U + kB*T
                kB is Boltzmann's constant
Total free energy                 ...   -291.09555542 Eh
Thermal Enthalpy correction       ...      0.00094421 Eh       0.59 kcal/mol
-----------------------------------------------------------------------
Total Enthalpy                    ...   -291.09461122 Eh

-------
ENTROPY
-------

The entropy contributions are T*S = T*(S(el)+S(vib)+S(rot)+S(trans)
     S(el)   - electronic entropy
     S(vib)  - vibrational entropy
     S(rot)  - rotational entropy
     S(trans)- translational entropy
The entropies will be listed as mutliplied by the temperature to get
units of energy

Electronic entropy                ...      0.00000000 Eh      0.00 kcal/mol
Vibrational entropy               ...      0.01050380 Eh      6.59 kcal/mol
Rotational entropy                ...      0.01230342 Eh      7.72 kcal/mol
Translational entropy             ...      0.01887386 Eh     11.84 kcal/mol
-----------------------------------------------------------------------
Final entropy term                ...      0.04168108 Eh     26.16 kcal/mol

CAUTION: The rotational entropy is not quite correctly treated here
         because it includes a symmetry number that is not yet correctly
         implemented in ORCA!
For a nonlinear molecule the correct rotational entropy is:
    S(rot) = R*(ln(qrot/sn)+1.5)
    R    = 8.31441 J/mol/K = 1.987191683e-3 kcal/mol/K
    qrot = 305406.2959194
    sn is the rotational symmetry number. We have assumed 3 here
       if it is different for your molecule then you should correct
       the printed rotational entropy by manually evaluating the equation
       as given above

For convenience we print out the resulting values for sn=1 - 12:
 sn= 1  qrot/sn=  305406.2959 T*S(rot)=     8.37 kcal/mol T*S(tot)=    26.81 kcal/mol
 sn= 2  qrot/sn=  152703.1480 T*S(rot)=     7.96 kcal/mol T*S(tot)=    26.40 kcal/mol
 sn= 3  qrot/sn=  101802.0986 T*S(rot)=     7.72 kcal/mol T*S(tot)=    26.16 kcal/mol
 sn= 4  qrot/sn=   76351.5740 T*S(rot)=     7.55 kcal/mol T*S(tot)=    25.98 kcal/mol
 sn= 5  qrot/sn=   61081.2592 T*S(rot)=     7.42 kcal/mol T*S(tot)=    25.85 kcal/mol
 sn= 6  qrot/sn=   50901.0493 T*S(rot)=     7.31 kcal/mol T*S(tot)=    25.74 kcal/mol
 sn= 7  qrot/sn=   43629.4708 T*S(rot)=     7.22 kcal/mol T*S(tot)=    25.65 kcal/mol
 sn= 8  qrot/sn=   38175.7870 T*S(rot)=     7.14 kcal/mol T*S(tot)=    25.57 kcal/mol
 sn= 9  qrot/sn=   33934.0329 T*S(rot)=     7.07 kcal/mol T*S(tot)=    25.50 kcal/mol
 sn=10  qrot/sn=   30540.6296 T*S(rot)=     7.01 kcal/mol T*S(tot)=    25.44 kcal/mol
 sn=11  qrot/sn=   27764.2087 T*S(rot)=     6.95 kcal/mol T*S(tot)=    25.39 kcal/mol
 sn=12  qrot/sn=   25450.5247 T*S(rot)=     6.90 kcal/mol T*S(tot)=    25.33 kcal/mol

-------------------
GIBBS FREE ENTHALPY
-------------------

The Gibbs free enthalpy is G = H - T*S

Total enthalpy                    ...   -291.09461122 Eh
Total entropy correction          ...     -0.04168108 Eh    -26.16 kcal/mol
-----------------------------------------------------------------------
Final Gibbs free enthalpy         ...   -291.13629230 Eh

For completeness - the Gibbs free enthalpy minus the electronic energy
G-E(el)                           ...      0.16675997 Eh    104.64 kcal/mol

                             ****ORCA TERMINATED NORMALLY****
TOTAL RUN TIME: 0 days 1 hours 3 minutes 24 seconds 3 msec
