                         Program Version 3.0.3 - RELEASE   -
|  1> ! NORI PBE0 def2-TZVP UseSym TightOPT Freq TightSCF Grid3 FinalGrid5 XYZFile
|  2> % pal
|  3>     nprocs 8
|  4> end
|  5> %method
|  6>     SymThresh 5.0e-2
|  7> end
|  8> % geom
|  9>     MaxIter 10
| 10> end
| 11> % maxcore 2000
| 12> % output
| 13>     printlevel mini
| 14>     print[ P_Basis ] 0
| 15>     print[ P_SCFInfo ] 1
| 16>     print[ P_SCFIterInfo ] 1
| 17>     print[ P_OrbEn ] 0
| 18>     print[ P_Cartesian ] 0
| 19> end
| 20> % elprop
| 21>     Dipole false
| 22> end
| 23> *xyz 1 1
| 24>  C        2.6288236475    -1.4991031222    -0.3045019110
| 25>  C        2.1195936709    -0.0654215063    -0.2660201090
| 26>  C        2.9436457558     0.8510148926     0.5987315276
| 27>  C        4.1518753861     1.5485096269     0.0656636488
| 28>  C        2.9258497718     2.3324488492     0.4397715475
| 29>  N        3.0786623579     0.3670584551     2.0040067633
| 30>  C        1.8142849620     0.3226815432     2.7889549908
| 31>  H        2.0596307143    -2.0842021411    -1.0268744748
| 32>  H        2.5169905227    -2.0167707962     0.6553794073
| 33>  H        3.6800499925    -1.5447277250    -0.5994889859
| 34>  H        1.0694313182    -0.0353066516     0.0417337392
| 35>  H        2.1400738517     0.3607904853    -1.2718417010
| 36>  H        5.0279596231     1.6547198909     0.6966058241
| 37>  H        4.3809751614     1.3996177540    -0.9815287021
| 38>  H        2.2991125825     2.7334842688    -0.3463563851
| 39>  H        2.9842741373     2.9613831466     1.3216956291
| 40>  H        3.7511343269     0.9642622819     2.4872461118
| 41>  H        3.4960063267    -0.5671576327     1.9786925269
| 42>  H        1.3663332138     1.3139104039     2.7754520485
| 43>  H        2.0434377125     0.0218547880     3.8099479546
| 44>  H        1.1406549646    -0.3980268116     2.3324905493
| 45> *
| 46>
| 47>                          ****END OF INPUT****
 Total Charge           Charge          ....    1
 Multiplicity           Mult            ....    1
 Number of Electrons    NEL             ....   56
FINAL SINGLE POINT ENERGY      -291.305159867954
FINAL SINGLE POINT ENERGY      -291.305162034868
FINAL SINGLE POINT ENERGY      -291.305163262843

CARTESIAN COORDINATES (ANGSTROEM)
---------------------------------
  C      2.138648    0.008277   -0.868264
  C      0.708178   -0.453465   -1.108017
  C     -0.302175    0.193851   -0.199084
  C     -0.913156    1.515912   -0.529395
  C     -1.751224    0.268962   -0.538014
  N     -0.000329   -0.003338    1.248812
  C     -0.075088   -1.409663    1.731776
  H      2.804083   -0.412666   -1.622256
  H      2.536393   -0.320808    0.098735
  H      2.225189    1.096157   -0.923652
  H      0.635269   -1.543735   -1.041398
  H      0.406891   -0.203949   -2.128035
  H     -1.088532    2.234735    0.264209
  H     -0.629614    1.964703   -1.472618
  H     -2.054941   -0.152909   -1.487381
  H     -2.486980    0.154086    0.250698
  H     -0.643999    0.572298    1.793513
  H      0.935676    0.368991    1.430123
  H     -1.062511   -1.801582    1.498286
  H      0.095047   -1.422880    2.806966
  H      0.688185   -1.997072    1.228377

FINAL SINGLE POINT ENERGY      -291.305163444000
                    ***********************HURRAY********************
 Multiplicity           Mult            ....    1
 Number of Electrons    NEL             ....   56
 Basis Dimension        Dim             ....  301
FINAL SINGLE POINT ENERGY      -291.305163547343

VIBRATIONAL FREQUENCIES
-----------------------

   0:         0.00 cm**-1
   1:         0.00 cm**-1
   2:         0.00 cm**-1
   3:         0.00 cm**-1
   4:         0.00 cm**-1
   5:         0.00 cm**-1
   6:        85.53 cm**-1
   7:       114.17 cm**-1
   8:       193.31 cm**-1
   9:       219.23 cm**-1
  10:       228.70 cm**-1
  11:       273.40 cm**-1
  12:       337.57 cm**-1
  13:       353.36 cm**-1
  14:       425.64 cm**-1
  15:       523.68 cm**-1
  16:       676.58 cm**-1
  17:       764.27 cm**-1
  18:       782.27 cm**-1
  19:       829.55 cm**-1
  20:       877.99 cm**-1
  21:       933.05 cm**-1
  22:       946.64 cm**-1
  23:       979.20 cm**-1
  24:      1021.81 cm**-1
  25:      1025.10 cm**-1
  26:      1062.36 cm**-1
  27:      1077.90 cm**-1
  28:      1103.88 cm**-1
  29:      1118.60 cm**-1
  30:      1144.45 cm**-1
  31:      1179.56 cm**-1
  32:      1189.18 cm**-1
  33:      1254.74 cm**-1
  34:      1307.26 cm**-1
  35:      1336.92 cm**-1
  36:      1357.94 cm**-1
  37:      1400.95 cm**-1
  38:      1416.67 cm**-1
  39:      1445.10 cm**-1
  40:      1451.17 cm**-1
  41:      1464.78 cm**-1
  42:      1480.07 cm**-1
  43:      1489.95 cm**-1
  44:      1491.95 cm**-1
  45:      1499.91 cm**-1
  46:      1504.18 cm**-1
  47:      1518.57 cm**-1
  48:      1636.88 cm**-1
  49:      3036.13 cm**-1
  50:      3063.83 cm**-1
  51:      3097.64 cm**-1
  52:      3101.28 cm**-1
  53:      3120.69 cm**-1
  54:      3149.29 cm**-1
  55:      3149.65 cm**-1
  56:      3153.66 cm**-1
  57:      3194.62 cm**-1
  58:      3206.28 cm**-1
  59:      3237.39 cm**-1
  60:      3248.05 cm**-1
  61:      3428.46 cm**-1
  62:      3488.58 cm**-1

IR SPECTRUM
-----------

 Mode    freq (cm**-1)   T**2         TX         TY         TZ
-------------------------------------------------------------------
   6:        85.53    0.450213  ( -0.030970   0.523953  -0.418003)
   7:       114.17    3.249192  (  1.469803   0.355759  -0.980973)
   8:       193.31    0.503137  (  0.574342  -0.197672  -0.366325)
   9:       219.23    1.049106  ( -0.803427  -0.126115   0.622660)
  10:       228.70    2.882642  ( -1.002096   0.021586   1.370394)
  11:       273.40    3.502099  (  1.082216  -0.170643  -1.517165)
  12:       337.57    4.257545  (  1.791517  -0.590790   0.836049)
  13:       353.36    3.708662  (  0.452818   0.505520  -1.802240)
  14:       425.64    0.782442  ( -0.393878   0.791928   0.012323)
  15:       523.68    6.493410  (  1.553814   1.599990  -1.232520)
  16:       676.58    3.455136  ( -1.310035   1.316313  -0.079161)
  17:       764.27    1.592054  ( -0.580195  -0.019993   1.120280)
  18:       782.27    1.337465  ( -0.211497   0.770872  -0.835757)
  19:       829.55   18.770887  (  3.990348  -1.250803  -1.132917)
  20:       877.99    3.859521  (  0.295940  -0.275922  -1.922448)
  21:       933.05    1.756654  ( -0.243836   1.245234  -0.382870)
  22:       946.64    6.312346  (  2.155509  -0.524498   1.179419)
  23:       979.20    5.008952  ( -0.281590  -2.002493  -0.959000)
  24:      1021.81    5.017987  ( -1.560038  -0.512013   1.523847)
  25:      1025.10    2.038529  ( -0.309132   1.377033   0.216208)
  26:      1062.36   17.033314  ( -2.759024   2.155532  -2.185127)
  27:      1077.90    2.333315  (  1.241008  -0.634059  -0.625447)
  28:      1103.88    2.561187  ( -0.703365  -1.401436   0.320067)
  29:      1118.60    4.141964  ( -0.928340   1.154329  -1.395591)
  30:      1144.45    9.949204  ( -1.789939   1.701296  -1.962375)
  31:      1179.56    7.208891  (  0.892605   1.224487  -2.216479)
  32:      1189.18    3.990446  ( -0.851514  -0.937171   1.545018)
  33:      1254.74    2.034345  ( -0.127571  -0.307471   1.386915)
  34:      1307.26    3.342667  ( -0.166977  -0.577506   1.726636)
  35:      1336.92    0.582975  (  0.559246   0.196763  -0.481148)
  36:      1357.94    3.358822  (  1.423603  -1.137468   0.195816)
  37:      1400.95   37.382624  ( -1.065139  -3.355087   4.999150)
  38:      1416.67    5.980767  (  2.065172  -0.075931   1.307696)
  39:      1445.10    3.538546  (  0.345943  -0.635129   1.736514)
  40:      1451.17    7.443538  (  0.089879   1.569943  -2.229515)
  41:      1464.78   18.422031  ( -2.631632  -3.121338  -1.324308)
  42:      1480.07    7.336350  ( -2.323476  -0.738435  -1.180052)
  43:      1489.95   25.997882  (  0.508729   0.201901   5.069350)
  44:      1491.95   16.129576  (  3.029305  -0.982363  -2.447009)
  45:      1499.91   10.531226  (  0.593023  -3.186952  -0.151280)
  46:      1504.18    8.385709  (  2.041276  -1.733343   1.102008)
  47:      1518.57    5.213217  ( -1.863682   1.247749  -0.427817)
  48:      1636.88   66.110483  (  0.423798   4.818117   6.535796)
  49:      3036.13   18.809430  ( -1.645929   0.023588  -4.012454)
  50:      3063.83    8.772365  (  1.087749   2.699325   0.550283)
  51:      3097.64    0.419524  ( -0.050869  -0.566390   0.310063)
  52:      3101.28    3.736293  ( -0.862199  -1.117350   1.320771)
  53:      3120.69   14.269960  ( -0.685486   2.782277  -2.461504)
  54:      3149.29    2.293892  ( -0.605638   1.306951   0.467946)
  55:      3149.65    1.014657  ( -0.193119  -0.733277  -0.663073)
  56:      3153.66    2.833465  (  0.173266  -0.337121   1.640059)
  57:      3194.62    0.092327  (  0.178005   0.183995   0.163666)
  58:      3206.28    0.017699  ( -0.054888  -0.075088  -0.095122)
  59:      3237.39    0.209099  ( -0.123022  -0.436366  -0.059579)
  60:      3248.05    0.151370  ( -0.232098   0.012020  -0.312019)
  61:      3428.46   36.062529  (  4.106945   3.923099   1.950596)
  62:      3488.58   61.453236  ( -6.630932   2.181219   3.567389)

--------------------------
THERMOCHEMISTRY AT 298.15K
--------------------------

Temperature         ... 298.15 K
Pressure            ... 1.00 atm
Total Mass          ... 100.18 AMU

Throughout the following assumptions are being made:
  (1) The electronic state is orbitally nondegenerate
  (2) There are no thermally accessible electronically excited states
  (3) Hindered rotations indicated by low frequency modes) are not
      treated as such but are treated as vibrations and this may
      case some error
  (4) All equations used are the standard statistical mechanics
      equations for an ideal gas
  (5) All vibrations are strinctly harmonic

------------
INNER ENERGY
------------

The inner energy is: U= E(el) + E(ZPE) + E(vib) + E(rot) + E(trans)
    E(el)   - is the total energy from the electronic structure calculation
              = E(kin-el) + E(nuc-el) + E(el-el) + E(nuc-nuc)
    E(ZPE)  - the the zero temperature vibrational energy from the frequency calculation
    E(vib)  - the the finite temperature correction to E(ZPE) due to population
              of excietd vibrational states
    E(rot)  - is the rotational thermal energy
    E(trans)- is the translational thermal energy

Summary of contributions to the inner energy U:
Electronic energy                ...   -291.30516355 Eh
Zero point energy                ...      0.19865521 Eh     124.66 kcal/mol
Thermal vibrational correction   ...      0.00566276 Eh       3.55 kcal/mol
Thermal rotational correction    ...      0.00141627 Eh       0.89 kcal/mol
Thermal translational correction ...      0.00141627 Eh       0.89 kcal/mol
-----------------------------------------------------------------------
Total thermal energy                   -291.09801304 Eh

Summary of corrections to the electronic energy:
(perhaps to be used in another calculation)
Total thermal correction                  0.00849530 Eh       5.33 kcal/mol
Non-thermal (ZPE) correction              0.19865521 Eh     124.66 kcal/mol
-----------------------------------------------------------------------
Total correction                          0.20715051 Eh     129.99 kcal/mol

--------
ENTHALPY
--------

The enthalpy is H = U + kB*T
                kB is Boltzmann's constant
Total free energy                 ...   -291.09801304 Eh
Thermal Enthalpy correction       ...      0.00094421 Eh       0.59 kcal/mol
-----------------------------------------------------------------------
Total Enthalpy                    ...   -291.09706883 Eh

-------
ENTROPY
-------

The entropy contributions are T*S = T*(S(el)+S(vib)+S(rot)+S(trans)
     S(el)   - electronic entropy
     S(vib)  - vibrational entropy
     S(rot)  - rotational entropy
     S(trans)- translational entropy
The entropies will be listed as mutliplied by the temperature to get
units of energy

Electronic entropy                ...      0.00000000 Eh      0.00 kcal/mol
Vibrational entropy               ...      0.00985172 Eh      6.18 kcal/mol
Rotational entropy                ...      0.01212486 Eh      7.61 kcal/mol
Translational entropy             ...      0.01887386 Eh     11.84 kcal/mol
-----------------------------------------------------------------------
Final entropy term                ...      0.04085044 Eh     25.63 kcal/mol

CAUTION: The rotational entropy is not quite correctly treated here
         because it includes a symmetry number that is not yet correctly
         implemented in ORCA!
For a nonlinear molecule the correct rotational entropy is:
    S(rot) = R*(ln(qrot/sn)+1.5)
    R    = 8.31441 J/mol/K = 1.987191683e-3 kcal/mol/K
    qrot = 252781.3001824
    sn is the rotational symmetry number. We have assumed 3 here
       if it is different for your molecule then you should correct
       the printed rotational entropy by manually evaluating the equation
       as given above

For convenience we print out the resulting values for sn=1 - 12:
 sn= 1  qrot/sn=  252781.3002 T*S(rot)=     8.26 kcal/mol T*S(tot)=    26.28 kcal/mol
 sn= 2  qrot/sn=  126390.6501 T*S(rot)=     7.85 kcal/mol T*S(tot)=    25.87 kcal/mol
 sn= 3  qrot/sn=   84260.4334 T*S(rot)=     7.61 kcal/mol T*S(tot)=    25.63 kcal/mol
 sn= 4  qrot/sn=   63195.3250 T*S(rot)=     7.44 kcal/mol T*S(tot)=    25.46 kcal/mol
 sn= 5  qrot/sn=   50556.2600 T*S(rot)=     7.31 kcal/mol T*S(tot)=    25.33 kcal/mol
 sn= 6  qrot/sn=   42130.2167 T*S(rot)=     7.20 kcal/mol T*S(tot)=    25.22 kcal/mol
 sn= 7  qrot/sn=   36111.6143 T*S(rot)=     7.11 kcal/mol T*S(tot)=    25.13 kcal/mol
 sn= 8  qrot/sn=   31597.6625 T*S(rot)=     7.03 kcal/mol T*S(tot)=    25.05 kcal/mol
 sn= 9  qrot/sn=   28086.8111 T*S(rot)=     6.96 kcal/mol T*S(tot)=    24.98 kcal/mol
 sn=10  qrot/sn=   25278.1300 T*S(rot)=     6.90 kcal/mol T*S(tot)=    24.92 kcal/mol
 sn=11  qrot/sn=   22980.1182 T*S(rot)=     6.84 kcal/mol T*S(tot)=    24.86 kcal/mol
 sn=12  qrot/sn=   21065.1083 T*S(rot)=     6.79 kcal/mol T*S(tot)=    24.81 kcal/mol

-------------------
GIBBS FREE ENTHALPY
-------------------

The Gibbs free enthalpy is G = H - T*S

Total enthalpy                    ...   -291.09706883 Eh
Total entropy correction          ...     -0.04085044 Eh    -25.63 kcal/mol
-----------------------------------------------------------------------
Final Gibbs free enthalpy         ...   -291.13791927 Eh

For completeness - the Gibbs free enthalpy minus the electronic energy
G-E(el)                           ...      0.16724428 Eh    104.95 kcal/mol

                             ****ORCA TERMINATED NORMALLY****
TOTAL RUN TIME: 0 days 0 hours 57 minutes 51 seconds 415 msec
