                         Program Version 3.0.3 - RELEASE   -
|  1> ! NORI PBE0 def2-TZVP UseSym TightOPT Freq TightSCF Grid3 FinalGrid5 XYZFile
|  2> % pal
|  3>     nprocs 8
|  4> end
|  5> %method
|  6>     SymThresh 5.0e-2
|  7> end
|  8> % geom
|  9>     MaxIter 10
| 10> end
| 11> % maxcore 2000
| 12> % output
| 13>     printlevel mini
| 14>     print[ P_Basis ] 0
| 15>     print[ P_SCFInfo ] 1
| 16>     print[ P_SCFIterInfo ] 1
| 17>     print[ P_OrbEn ] 0
| 18>     print[ P_Cartesian ] 0
| 19> end
| 20> % elprop
| 21>     Dipole false
| 22> end
| 23> *xyz 1 1
| 24>  C        3.2676381928    -1.2576688131    -0.2948144381
| 25>  C        2.5418655522     0.0425756403     0.0128894386
| 26>  C        3.0452840016     1.2103099377    -0.8037949335
| 27>  C        2.6222620773     2.6602412984    -0.4679536104
| 28>  C        4.0467813986     3.1332180045    -0.8301985567
| 29>  C        4.4880948820     1.6898624571    -0.6065107122
| 30>  N        5.5325063967     1.1309258304    -1.5381922358
| 31>  H        2.8445782110    -2.0901491721     0.2682062282
| 32>  H        4.3268615680    -1.2118311312    -0.0115575603
| 33>  H        3.1991739277    -1.5184642217    -1.3553585682
| 34>  H        1.4710478467    -0.0766508144    -0.1757091499
| 35>  H        2.6381193328     0.2816478771     1.0777351513
| 36>  H        2.8704532712     1.0318791964    -1.8737408490
| 37>  H        1.7979820767     3.0844534760    -1.0363700872
| 38>  H        2.4181858567     2.7770376445     0.5972047249
| 39>  H        4.1077685389     3.4180059699    -1.8843699790
| 40>  H        4.5169535779     3.9057238823    -0.2242933630
| 41>  H        4.8549143857     1.5030368821     0.4046379353
| 42>  H        5.2585169415     1.2843204401    -2.5108986396
| 43>  H        5.6390261720     0.1228631289    -1.4005263518
| 44>  H        6.4440957921     1.5719924867    -1.3972444434
| 45> *
| 46>
| 47>                          ****END OF INPUT****
 Total Charge           Charge          ....    1
 Multiplicity           Mult            ....    1
 Number of Electrons    NEL             ....   56
FINAL SINGLE POINT ENERGY      -291.314064337402
FINAL SINGLE POINT ENERGY      -291.314066006799

CARTESIAN COORDINATES (ANGSTROEM)
---------------------------------
  C      2.475538    0.001557   -0.470798
  C      1.201945   -0.045735   -1.300511
  C     -0.022249    0.399822   -0.533914
  C     -1.443891    0.188892   -1.107116
  C     -1.945066   -0.121836    0.320142
  C     -0.490929   -0.427506    0.668587
  N      0.001177   -0.001469    2.028544
  H      3.346789   -0.273029   -1.066500
  H      2.446496   -0.710412    0.364051
  H      2.661659    1.003022   -0.070726
  H      1.310101    0.591826   -2.182394
  H      1.039153   -1.060857   -1.677873
  H      0.081664    1.449822   -0.226944
  H     -1.903747    1.028355   -1.623694
  H     -1.485709   -0.691737   -1.749946
  H     -2.300231    0.786069    0.816337
  H     -2.677031   -0.915202    0.462215
  H     -0.237591   -1.485179    0.572861
  H     -0.219144    0.983000    2.192344
  H      1.016289   -0.108516    2.096779
  H     -0.430105   -0.547312    2.777965

FINAL SINGLE POINT ENERGY      -291.314066548770
                    ***********************HURRAY********************
 Multiplicity           Mult            ....    1
 Number of Electrons    NEL             ....   56
 Basis Dimension        Dim             ....  301
FINAL SINGLE POINT ENERGY      -291.314066729024

VIBRATIONAL FREQUENCIES
-----------------------

   0:         0.00 cm**-1
   1:         0.00 cm**-1
   2:         0.00 cm**-1
   3:         0.00 cm**-1
   4:         0.00 cm**-1
   5:         0.00 cm**-1
   6:        90.96 cm**-1
   7:       118.78 cm**-1
   8:       186.83 cm**-1
   9:       211.84 cm**-1
  10:       242.53 cm**-1
  11:       301.91 cm**-1
  12:       324.69 cm**-1
  13:       409.01 cm**-1
  14:       472.87 cm**-1
  15:       603.16 cm**-1
  16:       747.54 cm**-1
  17:       796.24 cm**-1
  18:       797.77 cm**-1
  19:       902.65 cm**-1
  20:       926.73 cm**-1
  21:       945.12 cm**-1
  22:       956.41 cm**-1
  23:       978.62 cm**-1
  24:      1014.79 cm**-1
  25:      1025.77 cm**-1
  26:      1045.70 cm**-1
  27:      1118.55 cm**-1
  28:      1155.80 cm**-1
  29:      1188.58 cm**-1
  30:      1194.89 cm**-1
  31:      1225.13 cm**-1
  32:      1253.77 cm**-1
  33:      1269.83 cm**-1
  34:      1277.28 cm**-1
  35:      1289.10 cm**-1
  36:      1317.81 cm**-1
  37:      1350.01 cm**-1
  38:      1392.05 cm**-1
  39:      1405.39 cm**-1
  40:      1415.06 cm**-1
  41:      1475.36 cm**-1
  42:      1478.75 cm**-1
  43:      1487.07 cm**-1
  44:      1493.10 cm**-1
  45:      1498.86 cm**-1
  46:      1504.13 cm**-1
  47:      1651.39 cm**-1
  48:      1656.56 cm**-1
  49:      3018.03 cm**-1
  50:      3022.77 cm**-1
  51:      3055.29 cm**-1
  52:      3072.70 cm**-1
  53:      3083.00 cm**-1
  54:      3100.37 cm**-1
  55:      3108.25 cm**-1
  56:      3113.47 cm**-1
  57:      3139.78 cm**-1
  58:      3153.98 cm**-1
  59:      3170.46 cm**-1
  60:      3411.87 cm**-1
  61:      3497.38 cm**-1
  62:      3504.15 cm**-1

IR SPECTRUM
-----------

 Mode    freq (cm**-1)   T**2         TX         TY         TZ
-------------------------------------------------------------------
   6:        90.96    3.944332  ( -1.268928  -1.168233   0.984574)
   7:       118.78    8.855200  ( -2.195894   1.100863   1.679688)
   8:       186.83    4.599042  (  1.507366   0.142140  -1.518778)
   9:       211.84    1.336775  ( -0.637315  -0.550072   0.792480)
  10:       242.53    0.627022  ( -0.281820   0.721585  -0.164057)
  11:       301.91    6.512463  ( -1.238847  -0.797592   2.083643)
  12:       324.69    2.521603  (  1.481097  -0.551381   0.154703)
  13:       409.01    1.784539  ( -1.147093  -0.548056  -0.410306)
  14:       472.87    3.041761  ( -0.483026   0.144697  -1.669584)
  15:       603.16    2.853542  ( -0.066925  -1.163032  -1.223283)
  16:       747.54    0.676758  ( -0.146873  -0.256577  -0.767695)
  17:       796.24    2.166332  (  0.991325   0.844055  -0.686425)
  18:       797.77    4.200770  (  0.602703   1.539595  -1.211267)
  19:       902.65   14.324757  ( -3.294639   1.048005  -1.540063)
  20:       926.73   14.298726  ( -1.856445  -1.203388   3.066626)
  21:       945.12    7.519644  ( -2.030765   1.737431   0.613980)
  22:       956.41    1.260774  (  0.372265  -1.057323   0.065274)
  23:       978.62    2.389607  (  1.439306   0.290186   0.483527)
  24:      1014.79   10.162760  (  0.529646   0.643638  -3.077006)
  25:      1025.77    5.621900  (  0.987999   2.094335   0.509429)
  26:      1045.70    4.243245  ( -1.147717  -0.679201  -1.569929)
  27:      1118.55    6.925591  ( -2.391357   0.255013   1.068631)
  28:      1155.80    2.624512  ( -1.334668  -0.591404   0.702436)
  29:      1188.58    5.593831  ( -2.101865  -1.083867  -0.035015)
  30:      1194.89    5.576463  ( -2.128291   0.157838   1.010904)
  31:      1225.13    1.300978  ( -0.152205   0.528897  -0.999040)
  32:      1253.77    1.438760  ( -0.604273  -0.154888  -1.024512)
  33:      1269.83    0.352051  (  0.082989   0.037802  -0.586289)
  34:      1277.28    5.219948  (  0.129583  -0.584498   2.204885)
  35:      1289.10    1.112880  (  0.935905  -0.062558   0.482752)
  36:      1317.81    2.053262  ( -0.450595  -1.336214   0.254477)
  37:      1350.01    1.269866  ( -0.931973  -0.213806   0.596304)
  38:      1392.05    7.364166  ( -1.620348   0.413156  -2.137274)
  39:      1405.39    1.956443  ( -1.365378  -0.287516   0.097573)
  40:      1415.06   13.005246  (  1.694587  -1.359954   2.878219)
  41:      1475.36   17.764633  ( -2.287558  -0.734061  -3.463072)
  42:      1478.75    3.557035  ( -0.787769   0.101962   1.710573)
  43:      1487.07  139.463163  (  2.933780   4.788796  10.388625)
  44:      1493.10   12.364822  ( -1.759175  -0.291052   3.030745)
  45:      1498.86   14.247330  (  2.164719  -2.085382   2.283091)
  46:      1504.13   15.402687  (  0.002535  -0.695535   3.862501)
  47:      1651.39   43.885379  ( -4.075238   5.222731  -0.029855)
  48:      1656.56   29.761509  (  3.572145   3.300426  -2.471533)
  49:      3018.03   27.865315  (  0.431602  -2.198506   4.779708)
  50:      3022.77   16.676886  ( -0.163322  -1.932857  -3.593644)
  51:      3055.29   14.072476  (  0.838916   1.716015   3.228620)
  52:      3072.70    9.430188  ( -1.281940   1.203863   2.517446)
  53:      3083.00    8.922903  ( -1.390378  -2.632958   0.239339)
  54:      3100.37    7.318513  ( -0.551673  -0.592459  -2.581310)
  55:      3108.25   20.423886  (  1.476749   3.930625  -1.671313)
  56:      3113.47    6.325461  (  0.626016  -2.429832  -0.171695)
  57:      3139.78    6.531707  ( -1.463361   1.255692   1.677355)
  58:      3153.98    5.579686  (  1.986655   1.276640   0.055504)
  59:      3170.46    4.033355  (  0.356184  -1.936179   0.397113)
  60:      3411.87   31.695285  (  2.724476   0.493610   4.901925)
  61:      3497.38  100.903376  (  9.045866  -1.144462  -4.214961)
  62:      3504.15   78.576626  (  0.727945   8.339666  -2.914907)

--------------------------
THERMOCHEMISTRY AT 298.15K
--------------------------

Temperature         ... 298.15 K
Pressure            ... 1.00 atm
Total Mass          ... 100.18 AMU

Throughout the following assumptions are being made:
  (1) The electronic state is orbitally nondegenerate
  (2) There are no thermally accessible electronically excited states
  (3) Hindered rotations indicated by low frequency modes) are not
      treated as such but are treated as vibrations and this may
      case some error
  (4) All equations used are the standard statistical mechanics
      equations for an ideal gas
  (5) All vibrations are strinctly harmonic

------------
INNER ENERGY
------------

The inner energy is: U= E(el) + E(ZPE) + E(vib) + E(rot) + E(trans)
    E(el)   - is the total energy from the electronic structure calculation
              = E(kin-el) + E(nuc-el) + E(el-el) + E(nuc-nuc)
    E(ZPE)  - the the zero temperature vibrational energy from the frequency calculation
    E(vib)  - the the finite temperature correction to E(ZPE) due to population
              of excietd vibrational states
    E(rot)  - is the rotational thermal energy
    E(trans)- is the translational thermal energy

Summary of contributions to the inner energy U:
Electronic energy                ...   -291.31406673 Eh
Zero point energy                ...      0.19968115 Eh     125.30 kcal/mol
Thermal vibrational correction   ...      0.00538901 Eh       3.38 kcal/mol
Thermal rotational correction    ...      0.00141627 Eh       0.89 kcal/mol
Thermal translational correction ...      0.00141627 Eh       0.89 kcal/mol
-----------------------------------------------------------------------
Total thermal energy                   -291.10616402 Eh

Summary of corrections to the electronic energy:
(perhaps to be used in another calculation)
Total thermal correction                  0.00822156 Eh       5.16 kcal/mol
Non-thermal (ZPE) correction              0.19968115 Eh     125.30 kcal/mol
-----------------------------------------------------------------------
Total correction                          0.20790271 Eh     130.46 kcal/mol

--------
ENTHALPY
--------

The enthalpy is H = U + kB*T
                kB is Boltzmann's constant
Total free energy                 ...   -291.10616402 Eh
Thermal Enthalpy correction       ...      0.00094421 Eh       0.59 kcal/mol
-----------------------------------------------------------------------
Total Enthalpy                    ...   -291.10521981 Eh

-------
ENTROPY
-------

The entropy contributions are T*S = T*(S(el)+S(vib)+S(rot)+S(trans)
     S(el)   - electronic entropy
     S(vib)  - vibrational entropy
     S(rot)  - rotational entropy
     S(trans)- translational entropy
The entropies will be listed as mutliplied by the temperature to get
units of energy

Electronic entropy                ...      0.00000000 Eh      0.00 kcal/mol
Vibrational entropy               ...      0.00935307 Eh      5.87 kcal/mol
Rotational entropy                ...      0.01216908 Eh      7.64 kcal/mol
Translational entropy             ...      0.01887386 Eh     11.84 kcal/mol
-----------------------------------------------------------------------
Final entropy term                ...      0.04039600 Eh     25.35 kcal/mol

CAUTION: The rotational entropy is not quite correctly treated here
         because it includes a symmetry number that is not yet correctly
         implemented in ORCA!
For a nonlinear molecule the correct rotational entropy is:
    S(rot) = R*(ln(qrot/sn)+1.5)
    R    = 8.31441 J/mol/K = 1.987191683e-3 kcal/mol/K
    qrot = 264901.3650366
    sn is the rotational symmetry number. We have assumed 3 here
       if it is different for your molecule then you should correct
       the printed rotational entropy by manually evaluating the equation
       as given above

For convenience we print out the resulting values for sn=1 - 12:
 sn= 1  qrot/sn=  264901.3650 T*S(rot)=     8.29 kcal/mol T*S(tot)=    26.00 kcal/mol
 sn= 2  qrot/sn=  132450.6825 T*S(rot)=     7.88 kcal/mol T*S(tot)=    25.59 kcal/mol
 sn= 3  qrot/sn=   88300.4550 T*S(rot)=     7.64 kcal/mol T*S(tot)=    25.35 kcal/mol
 sn= 4  qrot/sn=   66225.3413 T*S(rot)=     7.47 kcal/mol T*S(tot)=    25.18 kcal/mol
 sn= 5  qrot/sn=   52980.2730 T*S(rot)=     7.33 kcal/mol T*S(tot)=    25.05 kcal/mol
 sn= 6  qrot/sn=   44150.2275 T*S(rot)=     7.23 kcal/mol T*S(tot)=    24.94 kcal/mol
 sn= 7  qrot/sn=   37843.0521 T*S(rot)=     7.13 kcal/mol T*S(tot)=    24.85 kcal/mol
 sn= 8  qrot/sn=   33112.6706 T*S(rot)=     7.06 kcal/mol T*S(tot)=    24.77 kcal/mol
 sn= 9  qrot/sn=   29433.4850 T*S(rot)=     6.99 kcal/mol T*S(tot)=    24.70 kcal/mol
 sn=10  qrot/sn=   26490.1365 T*S(rot)=     6.92 kcal/mol T*S(tot)=    24.64 kcal/mol
 sn=11  qrot/sn=   24081.9423 T*S(rot)=     6.87 kcal/mol T*S(tot)=    24.58 kcal/mol
 sn=12  qrot/sn=   22075.1138 T*S(rot)=     6.81 kcal/mol T*S(tot)=    24.53 kcal/mol

-------------------
GIBBS FREE ENTHALPY
-------------------

The Gibbs free enthalpy is G = H - T*S

Total enthalpy                    ...   -291.10521981 Eh
Total entropy correction          ...     -0.04039600 Eh    -25.35 kcal/mol
-----------------------------------------------------------------------
Final Gibbs free enthalpy         ...   -291.14561582 Eh

For completeness - the Gibbs free enthalpy minus the electronic energy
G-E(el)                           ...      0.16845091 Eh    105.70 kcal/mol

                             ****ORCA TERMINATED NORMALLY****
TOTAL RUN TIME: 0 days 1 hours 6 minutes 39 seconds 199 msec
