                         Program Version 3.0.3 - RELEASE   -
|  1> ! NORI PBE0 def2-TZVP UseSym TightOPT Freq TightSCF Grid3 FinalGrid5 XYZFile
|  2> % pal
|  3>     nprocs 8
|  4> end
|  5> %method
|  6>     SymThresh 5.0e-2
|  7> end
|  8> % geom
|  9>     MaxIter 10
| 10> end
| 11> % maxcore 2000
| 12> % output
| 13>     printlevel mini
| 14>     print[ P_Basis ] 0
| 15>     print[ P_SCFInfo ] 1
| 16>     print[ P_SCFIterInfo ] 1
| 17>     print[ P_OrbEn ] 0
| 18>     print[ P_Cartesian ] 0
| 19> end
| 20> % elprop
| 21>     Dipole false
| 22> end
| 23> *xyz 1 1
| 24>  C        3.4482295720    -0.1246818847    -1.2457477014
| 25>  C        2.4600823492     0.1832471114    -0.1344754035
| 26>  C        2.8499291056    -0.2141819884     1.2788832893
| 27>  C        1.8358765633     0.2196608119     2.3114838391
| 28>  C        3.5782253507    -1.5034029503     1.5425069155
| 29>  C        4.3044899916    -0.2060984896     1.6476653767
| 30>  N        4.7130636072     0.2700134495     2.9919333459
| 31>  H        3.0185092015     0.1654171961    -2.2052225865
| 32>  H        3.6830059370    -1.1892183420    -1.3152039599
| 33>  H        4.3836017373     0.4312740946    -1.1456251999
| 34>  H        1.5101186232    -0.3165911104    -0.3486131762
| 35>  H        2.2391226304     1.2559123645    -0.1301163542
| 36>  H        0.8556426996    -0.1794890459     2.0439532608
| 37>  H        1.7425245819     1.3082429707     2.3547902755
| 38>  H        2.0346302941    -0.1611364968     3.3202863082
| 39>  H        3.8630078419    -2.1492863307     0.7217753674
| 40>  H        3.3293649578    -2.0336935503     2.4563324328
| 41>  H        5.0565542266     0.0476915549     0.9129069120
| 42>  H        3.9353482605     0.1783698872     3.6504795593
| 43>  H        4.9799626665     1.2568899676     2.9722577608
| 44>  H        5.5042198022    -0.2648392192     3.3581697382
| 45> *
| 46>
| 47>                          ****END OF INPUT****
 Total Charge           Charge          ....    1
 Multiplicity           Mult            ....    1
 Number of Electrons    NEL             ....   56
FINAL SINGLE POINT ENERGY      -291.304148580024
FINAL SINGLE POINT ENERGY      -291.304151542071
FINAL SINGLE POINT ENERGY      -291.304152788724

CARTESIAN COORDINATES (ANGSTROEM)
---------------------------------
  C      1.665115   -0.002497   -1.839382
  C      0.315099    0.611982   -1.515062
  C     -0.395777    0.118890   -0.266423
  C     -1.688435    0.853307    0.001987
  C     -0.346774   -1.333093    0.123347
  C      0.437099   -0.329202    0.898415
  N      0.001279    0.001604    2.277339
  H      2.031406    0.401044   -2.783976
  H      1.613668   -1.087002   -1.958471
  H      2.425052    0.228123   -1.088220
  H     -0.369630    0.440254   -2.351976
  H      0.419425    1.699372   -1.432916
  H     -2.327937    0.789477   -0.880573
  H     -1.517450    1.914570    0.202088
  H     -2.283195    0.427722    0.818633
  H      0.224818   -2.039259   -0.464722
  H     -1.240360   -1.752387    0.574002
  H      1.516929   -0.328371    0.833817
  H     -1.008760    0.162700    2.300571
  H      0.452776    0.854457    2.615937
  H      0.217553   -0.752763    2.933466

FINAL SINGLE POINT ENERGY      -291.304153409965
                    ***********************HURRAY********************
 Multiplicity           Mult            ....    1
 Number of Electrons    NEL             ....   56
 Basis Dimension        Dim             ....  301
FINAL SINGLE POINT ENERGY      -291.304153682351

VIBRATIONAL FREQUENCIES
-----------------------

   0:         0.00 cm**-1
   1:         0.00 cm**-1
   2:         0.00 cm**-1
   3:         0.00 cm**-1
   4:         0.00 cm**-1
   5:         0.00 cm**-1
   6:        62.56 cm**-1
   7:       169.58 cm**-1
   8:       184.06 cm**-1
   9:       200.13 cm**-1
  10:       235.64 cm**-1
  11:       264.90 cm**-1
  12:       292.10 cm**-1
  13:       368.99 cm**-1
  14:       428.99 cm**-1
  15:       449.51 cm**-1
  16:       493.68 cm**-1
  17:       682.99 cm**-1
  18:       750.39 cm**-1
  19:       805.22 cm**-1
  20:       875.69 cm**-1
  21:       894.84 cm**-1
  22:       928.88 cm**-1
  23:       956.43 cm**-1
  24:      1008.01 cm**-1
  25:      1021.31 cm**-1
  26:      1067.08 cm**-1
  27:      1069.42 cm**-1
  28:      1083.16 cm**-1
  29:      1121.19 cm**-1
  30:      1151.66 cm**-1
  31:      1174.84 cm**-1
  32:      1187.21 cm**-1
  33:      1272.68 cm**-1
  34:      1316.74 cm**-1
  35:      1322.14 cm**-1
  36:      1390.57 cm**-1
  37:      1417.64 cm**-1
  38:      1419.54 cm**-1
  39:      1426.88 cm**-1
  40:      1472.61 cm**-1
  41:      1476.25 cm**-1
  42:      1481.72 cm**-1
  43:      1494.66 cm**-1
  44:      1503.36 cm**-1
  45:      1514.07 cm**-1
  46:      1514.83 cm**-1
  47:      1650.43 cm**-1
  48:      1658.72 cm**-1
  49:      3030.29 cm**-1
  50:      3047.73 cm**-1
  51:      3056.89 cm**-1
  52:      3084.52 cm**-1
  53:      3102.80 cm**-1
  54:      3127.44 cm**-1
  55:      3133.18 cm**-1
  56:      3143.02 cm**-1
  57:      3150.70 cm**-1
  58:      3217.01 cm**-1
  59:      3243.39 cm**-1
  60:      3408.79 cm**-1
  61:      3483.99 cm**-1
  62:      3492.59 cm**-1

IR SPECTRUM
-----------

 Mode    freq (cm**-1)   T**2         TX         TY         TZ
-------------------------------------------------------------------
   6:        62.56    1.221371  ( -0.985964   0.114402   0.485961)
   7:       169.58    3.335891  ( -1.170362   0.959845  -1.022175)
   8:       184.06    3.705757  ( -1.790466   0.504956  -0.494984)
   9:       200.13    7.928228  (  1.230121   2.417136  -0.756627)
  10:       235.64    0.972230  (  0.718188  -0.244878  -0.629660)
  11:       264.90    0.720438  ( -0.123517   0.717524   0.436280)
  12:       292.10   13.578306  ( -1.680157   1.327465  -2.998869)
  13:       368.99    0.574662  ( -0.268717  -0.492291   0.510002)
  14:       428.99    2.248180  ( -0.143792  -0.391724  -1.440159)
  15:       449.51    6.889210  ( -1.108150  -0.967176  -2.173887)
  16:       493.68    5.408259  ( -0.850891   1.119463  -1.852308)
  17:       682.99    0.048848  (  0.211579   0.051537   0.037763)
  18:       750.39    2.077283  ( -1.187967   0.444877  -0.684181)
  19:       805.22    8.191511  (  1.966724  -0.322892   2.054081)
  20:       875.69    9.500551  (  2.137449   2.034610   0.890071)
  21:       894.84    2.874771  (  0.001402   1.634625   0.450302)
  22:       928.88    5.280796  ( -1.986545  -0.622974  -0.972799)
  23:       956.43    2.511575  (  0.029796   1.574506   0.177815)
  24:      1008.01   18.034073  ( -2.567002   2.242775  -2.532693)
  25:      1021.31   11.585704  ( -0.737678  -1.486547   2.971820)
  26:      1067.08    4.517441  (  1.155650  -1.231630   1.290349)
  27:      1069.42    1.836897  ( -0.998561   0.305479  -0.863977)
  28:      1083.16    4.678134  ( -0.490645   0.494382  -2.047679)
  29:      1121.19    3.845530  ( -0.639768   0.763656  -1.689099)
  30:      1151.66    2.579157  (  1.298834   0.077417   0.941379)
  31:      1174.84    3.413299  ( -1.460610   1.034664   0.457590)
  32:      1187.21   12.247217  (  1.161403   3.128829  -1.052992)
  33:      1272.68    4.129632  ( -0.208442   1.060624  -1.720831)
  34:      1316.74    0.598607  (  0.682835   0.184536   0.313512)
  35:      1322.14    3.639185  (  1.776688   0.376169   0.584003)
  36:      1390.57    2.101472  ( -0.940682   0.113780  -1.097107)
  37:      1417.64    6.144752  (  2.196300  -0.699079  -0.912309)
  38:      1419.54    1.722918  ( -0.282536   0.295299  -1.247353)
  39:      1426.88    3.309164  ( -1.299268   1.268827  -0.105574)
  40:      1472.61    6.131033  ( -0.328561   0.723861  -2.345017)
  41:      1476.25    9.363141  ( -1.110182   2.812063  -0.472162)
  42:      1481.72   47.997920  (  0.393932   3.579940   5.918341)
  43:      1494.66   30.125844  (  1.592025  -0.599174  -5.218457)
  44:      1503.36   15.920086  ( -1.124064  -3.254304  -2.016451)
  45:      1514.07   62.342769  ( -4.762717  -1.229306   6.176415)
  46:      1514.83   35.689424  ( -1.094462  -0.579361   5.844306)
  47:      1650.43   29.542361  (  2.675736   4.724993  -0.239245)
  48:      1658.72   37.312295  ( -5.492980   2.031078  -1.736143)
  49:      3030.29   24.032804  (  2.223126  -0.221814  -4.363635)
  50:      3047.73    8.028181  (  1.206111  -2.470176   0.686810)
  51:      3056.89   19.294978  ( -3.301315   2.453249  -1.542034)
  52:      3084.52    2.339908  ( -1.018845  -0.903097  -0.697337)
  53:      3102.80   17.893177  (  0.617042   3.090934  -2.821093)
  54:      3127.44   20.528484  (  1.986605   2.922829   2.835305)
  55:      3133.18    3.234101  (  0.446395   1.418335   1.011513)
  56:      3143.02    7.192803  ( -0.321538  -1.993865   1.764630)
  57:      3150.70    2.636531  ( -0.687702  -0.482597   1.389495)
  58:      3217.01    0.768645  ( -0.276850   0.031431   0.831271)
  59:      3243.39    0.049562  ( -0.129179  -0.027702   0.179186)
  60:      3408.79   23.116758  ( -1.539470   1.218358   4.388894)
  61:      3483.99  114.587289  ( -8.582502   3.261584  -5.503637)
  62:      3492.59   87.688064  (  3.264937   8.768669  -0.372403)

--------------------------
THERMOCHEMISTRY AT 298.15K
--------------------------

Temperature         ... 298.15 K
Pressure            ... 1.00 atm
Total Mass          ... 100.18 AMU

Throughout the following assumptions are being made:
  (1) The electronic state is orbitally nondegenerate
  (2) There are no thermally accessible electronically excited states
  (3) Hindered rotations indicated by low frequency modes) are not
      treated as such but are treated as vibrations and this may
      case some error
  (4) All equations used are the standard statistical mechanics
      equations for an ideal gas
  (5) All vibrations are strinctly harmonic

------------
INNER ENERGY
------------

The inner energy is: U= E(el) + E(ZPE) + E(vib) + E(rot) + E(trans)
    E(el)   - is the total energy from the electronic structure calculation
              = E(kin-el) + E(nuc-el) + E(el-el) + E(nuc-nuc)
    E(ZPE)  - the the zero temperature vibrational energy from the frequency calculation
    E(vib)  - the the finite temperature correction to E(ZPE) due to population
              of excietd vibrational states
    E(rot)  - is the rotational thermal energy
    E(trans)- is the translational thermal energy

Summary of contributions to the inner energy U:
Electronic energy                ...   -291.30415368 Eh
Zero point energy                ...      0.19816330 Eh     124.35 kcal/mol
Thermal vibrational correction   ...      0.00591567 Eh       3.71 kcal/mol
Thermal rotational correction    ...      0.00141627 Eh       0.89 kcal/mol
Thermal translational correction ...      0.00141627 Eh       0.89 kcal/mol
-----------------------------------------------------------------------
Total thermal energy                   -291.09724218 Eh

Summary of corrections to the electronic energy:
(perhaps to be used in another calculation)
Total thermal correction                  0.00874821 Eh       5.49 kcal/mol
Non-thermal (ZPE) correction              0.19816330 Eh     124.35 kcal/mol
-----------------------------------------------------------------------
Total correction                          0.20691151 Eh     129.84 kcal/mol

--------
ENTHALPY
--------

The enthalpy is H = U + kB*T
                kB is Boltzmann's constant
Total free energy                 ...   -291.09724218 Eh
Thermal Enthalpy correction       ...      0.00094421 Eh       0.59 kcal/mol
-----------------------------------------------------------------------
Total Enthalpy                    ...   -291.09629797 Eh

-------
ENTROPY
-------

The entropy contributions are T*S = T*(S(el)+S(vib)+S(rot)+S(trans)
     S(el)   - electronic entropy
     S(vib)  - vibrational entropy
     S(rot)  - rotational entropy
     S(trans)- translational entropy
The entropies will be listed as mutliplied by the temperature to get
units of energy

Electronic entropy                ...      0.00000000 Eh      0.00 kcal/mol
Vibrational entropy               ...      0.01031995 Eh      6.48 kcal/mol
Rotational entropy                ...      0.01213450 Eh      7.61 kcal/mol
Translational entropy             ...      0.01887386 Eh     11.84 kcal/mol
-----------------------------------------------------------------------
Final entropy term                ...      0.04132831 Eh     25.93 kcal/mol

CAUTION: The rotational entropy is not quite correctly treated here
         because it includes a symmetry number that is not yet correctly
         implemented in ORCA!
For a nonlinear molecule the correct rotational entropy is:
    S(rot) = R*(ln(qrot/sn)+1.5)
    R    = 8.31441 J/mol/K = 1.987191683e-3 kcal/mol/K
    qrot = 255376.4760785
    sn is the rotational symmetry number. We have assumed 3 here
       if it is different for your molecule then you should correct
       the printed rotational entropy by manually evaluating the equation
       as given above

For convenience we print out the resulting values for sn=1 - 12:
 sn= 1  qrot/sn=  255376.4761 T*S(rot)=     8.27 kcal/mol T*S(tot)=    26.58 kcal/mol
 sn= 2  qrot/sn=  127688.2380 T*S(rot)=     7.85 kcal/mol T*S(tot)=    26.17 kcal/mol
 sn= 3  qrot/sn=   85125.4920 T*S(rot)=     7.61 kcal/mol T*S(tot)=    25.93 kcal/mol
 sn= 4  qrot/sn=   63844.1190 T*S(rot)=     7.44 kcal/mol T*S(tot)=    25.76 kcal/mol
 sn= 5  qrot/sn=   51075.2952 T*S(rot)=     7.31 kcal/mol T*S(tot)=    25.63 kcal/mol
 sn= 6  qrot/sn=   42562.7460 T*S(rot)=     7.20 kcal/mol T*S(tot)=    25.52 kcal/mol
 sn= 7  qrot/sn=   36482.3537 T*S(rot)=     7.11 kcal/mol T*S(tot)=    25.43 kcal/mol
 sn= 8  qrot/sn=   31922.0595 T*S(rot)=     7.03 kcal/mol T*S(tot)=    25.35 kcal/mol
 sn= 9  qrot/sn=   28375.1640 T*S(rot)=     6.96 kcal/mol T*S(tot)=    25.28 kcal/mol
 sn=10  qrot/sn=   25537.6476 T*S(rot)=     6.90 kcal/mol T*S(tot)=    25.22 kcal/mol
 sn=11  qrot/sn=   23216.0433 T*S(rot)=     6.84 kcal/mol T*S(tot)=    25.16 kcal/mol
 sn=12  qrot/sn=   21281.3730 T*S(rot)=     6.79 kcal/mol T*S(tot)=    25.11 kcal/mol

-------------------
GIBBS FREE ENTHALPY
-------------------

The Gibbs free enthalpy is G = H - T*S

Total enthalpy                    ...   -291.09629797 Eh
Total entropy correction          ...     -0.04132831 Eh    -25.93 kcal/mol
-----------------------------------------------------------------------
Final Gibbs free enthalpy         ...   -291.13762628 Eh

For completeness - the Gibbs free enthalpy minus the electronic energy
G-E(el)                           ...      0.16652740 Eh    104.50 kcal/mol

                             ****ORCA TERMINATED NORMALLY****
TOTAL RUN TIME: 0 days 1 hours 4 minutes 47 seconds 879 msec
