                         Program Version 3.0.3 - RELEASE   -
|  1> ! NORI PBE0 def2-TZVP UseSym TightOPT Freq TightSCF Grid3 FinalGrid5 XYZFile
|  2> % pal
|  3>     nprocs 8
|  4> end
|  5> %method
|  6>     SymThresh 5.0e-2
|  7> end
|  8> % geom
|  9>     MaxIter 10
| 10> end
| 11> % maxcore 2000
| 12> % output
| 13>     printlevel mini
| 14>     print[ P_Basis ] 0
| 15>     print[ P_SCFInfo ] 1
| 16>     print[ P_SCFIterInfo ] 1
| 17>     print[ P_OrbEn ] 0
| 18>     print[ P_Cartesian ] 0
| 19> end
| 20> % elprop
| 21>     Dipole false
| 22> end
| 23> *xyz 1 1
| 24>  C        3.3545661695     0.0384255973     1.2820146631
| 25>  C        2.3725423718     0.1749161944     0.1296742334
| 26>  C        2.9263807076     0.9988995876    -1.0033331586
| 27>  C        2.0793258733     1.7234695064    -2.0225530587
| 28>  C        0.5765119554     1.6946282499    -2.0321119308
| 29>  C        2.8178806701     2.4875344614    -0.9729117306
| 30>  N        3.9948533280     3.3019120629    -1.3704616211
| 31>  H        2.9333895615    -0.5744184907     2.0799743141
| 32>  H        3.6027582029     1.0115098843     1.7158709598
| 33>  H        4.2848566016    -0.4356122420     0.9600096917
| 34>  H        2.1142115225    -0.8130758095    -0.2620166494
| 35>  H        1.4366405785     0.6120951158     0.4864845013
| 36>  H        3.8630951014     0.6144956617    -1.4051445324
| 37>  H        2.5261031493     1.7554797965    -3.0147856391
| 38>  H        0.1570480149     1.7185485743    -1.0259761986
| 39>  H        0.2201320707     0.7853643568    -2.5195405477
| 40>  H        0.1753223933     2.5473429139    -2.5834083051
| 41>  H        2.2705637101     2.9724681867    -0.1732423324
| 42>  H        4.5094989218     2.8441173268    -2.1257457120
| 43>  H        4.6449140442     3.4272511534    -0.5898413066
| 44>  H        3.7185450515     4.2285379119    -1.7056156404
| 45> *
| 46>
| 47>                          ****END OF INPUT****
 Total Charge           Charge          ....    1
 Multiplicity           Mult            ....    1
 Number of Electrons    NEL             ....   56
FINAL SINGLE POINT ENERGY      -291.305758200335
FINAL SINGLE POINT ENERGY      -291.305759378084

CARTESIAN COORDINATES (ANGSTROEM)
---------------------------------
  C      2.423742    0.000647   -1.190531
  C      0.921106    0.079150   -1.407242
  C      0.188073    0.567242   -0.184738
  C     -1.269813    0.293718    0.099422
  C     -2.166754   -0.491191   -0.816725
  C     -0.204254   -0.390831    0.891022
  N     -0.002366    0.000673    2.309968
  H      2.929177   -0.336177   -2.096266
  H      2.678820   -0.704812   -0.394161
  H      2.840375    0.975798   -0.925659
  H      0.697401    0.761101   -2.232749
  H      0.535458   -0.898168   -1.709283
  H      0.529113    1.540134    0.167828
  H     -1.772564    1.109944    0.615106
  H     -1.649885   -1.334354   -1.275720
  H     -2.538149    0.148482   -1.619044
  H     -3.029860   -0.880990   -0.273787
  H     -0.030672   -1.452203    0.759061
  H     -0.168074    1.001869    2.432641
  H      0.953887   -0.191053    2.619964
  H     -0.644200   -0.495026    2.934319

FINAL SINGLE POINT ENERGY      -291.305760079400
                    ***********************HURRAY********************
 Multiplicity           Mult            ....    1
 Number of Electrons    NEL             ....   56
 Basis Dimension        Dim             ....  301
FINAL SINGLE POINT ENERGY      -291.305760202157

VIBRATIONAL FREQUENCIES
-----------------------

   0:         0.00 cm**-1
   1:         0.00 cm**-1
   2:         0.00 cm**-1
   3:         0.00 cm**-1
   4:         0.00 cm**-1
   5:         0.00 cm**-1
   6:        78.79 cm**-1
   7:       138.05 cm**-1
   8:       178.40 cm**-1
   9:       180.56 cm**-1
  10:       210.80 cm**-1
  11:       224.54 cm**-1
  12:       280.83 cm**-1
  13:       302.93 cm**-1
  14:       366.87 cm**-1
  15:       446.18 cm**-1
  16:       541.61 cm**-1
  17:       765.39 cm**-1
  18:       797.80 cm**-1
  19:       831.95 cm**-1
  20:       842.28 cm**-1
  21:       943.01 cm**-1
  22:       956.44 cm**-1
  23:       974.67 cm**-1
  24:      1038.75 cm**-1
  25:      1051.33 cm**-1
  26:      1067.54 cm**-1
  27:      1087.45 cm**-1
  28:      1113.22 cm**-1
  29:      1141.82 cm**-1
  30:      1181.29 cm**-1
  31:      1203.26 cm**-1
  32:      1206.86 cm**-1
  33:      1257.22 cm**-1
  34:      1290.97 cm**-1
  35:      1341.65 cm**-1
  36:      1363.78 cm**-1
  37:      1396.58 cm**-1
  38:      1412.85 cm**-1
  39:      1423.38 cm**-1
  40:      1473.80 cm**-1
  41:      1480.66 cm**-1
  42:      1486.25 cm**-1
  43:      1492.90 cm**-1
  44:      1495.14 cm**-1
  45:      1502.74 cm**-1
  46:      1515.64 cm**-1
  47:      1652.45 cm**-1
  48:      1658.66 cm**-1
  49:      3047.17 cm**-1
  50:      3064.62 cm**-1
  51:      3069.34 cm**-1
  52:      3096.86 cm**-1
  53:      3117.71 cm**-1
  54:      3125.70 cm**-1
  55:      3133.21 cm**-1
  56:      3141.77 cm**-1
  57:      3143.50 cm**-1
  58:      3155.09 cm**-1
  59:      3200.14 cm**-1
  60:      3408.46 cm**-1
  61:      3484.35 cm**-1
  62:      3498.76 cm**-1

IR SPECTRUM
-----------

 Mode    freq (cm**-1)   T**2         TX         TY         TZ
-------------------------------------------------------------------
   6:        78.79    1.451317  (  0.945856   0.273436  -0.694195)
   7:       138.05    5.334125  (  1.882364  -0.432432  -1.266425)
   8:       178.40    0.221453  ( -0.465365   0.060380   0.035261)
   9:       180.56    2.229424  ( -1.420541   0.186403   0.420404)
  10:       210.80    1.044970  ( -0.546987   0.811863  -0.294371)
  11:       224.54    8.320680  ( -2.337706  -1.466372   0.839978)
  12:       280.83    4.426779  (  0.941961  -1.363589   1.296192)
  13:       302.93    1.062034  ( -0.989250  -0.157081   0.242369)
  14:       366.87    1.422725  (  1.089397  -0.103977   0.474477)
  15:       446.18    5.241344  (  0.074342   0.443046   2.244889)
  16:       541.61    0.718056  ( -0.598463   0.404445   0.443083)
  17:       765.39    1.966346  ( -0.718209  -1.133920   0.405890)
  18:       797.80    7.009382  (  0.632608  -2.371218   0.993234)
  19:       831.95    1.963411  (  0.094195   0.319261  -1.361106)
  20:       842.28    1.472181  (  0.786850   0.837740  -0.388895)
  21:       943.01   12.700721  ( -3.117703  -1.545068   0.770331)
  22:       956.44   22.806227  ( -2.728555   3.478535  -1.805827)
  23:       974.67    8.011208  ( -1.937511   0.092294   2.061247)
  24:      1038.75    4.809777  (  0.331936   1.841627  -1.143681)
  25:      1051.33    1.054276  (  0.102085   0.369666  -0.952471)
  26:      1067.54    0.295677  (  0.267217   0.096833  -0.463568)
  27:      1087.45    9.258242  (  2.778975   0.541037  -1.114818)
  28:      1113.22    0.196702  (  0.213306   0.090228   0.378235)
  29:      1141.82    1.129695  (  1.033450   0.075156   0.236700)
  30:      1181.29   12.414489  (  3.300614   0.748089  -0.980204)
  31:      1203.26    0.944964  ( -0.897450  -0.034976  -0.371920)
  32:      1206.86    2.006574  ( -0.341911   0.198475   1.360250)
  33:      1257.22    1.351129  ( -0.572741   0.786187  -0.636402)
  34:      1290.97    0.385367  (  0.410282   0.437735  -0.159447)
  35:      1341.65    2.831732  ( -0.342548  -0.099386   1.644541)
  36:      1363.78    4.672954  ( -1.079851   0.750450  -1.715721)
  37:      1396.58    0.156932  (  0.364841   0.118412   0.099002)
  38:      1412.85    3.206970  (  1.683152  -0.515362   0.329197)
  39:      1423.38    5.400661  ( -1.085370  -1.474870  -1.430870)
  40:      1473.80   13.898544  ( -2.737862   0.279752   2.514834)
  41:      1480.66    5.268210  ( -0.848304  -2.036205  -0.634397)
  42:      1486.25   11.065151  ( -0.443980  -0.290688   3.283829)
  43:      1492.90   19.032063  ( -1.109877  -3.681132  -2.061432)
  44:      1495.14   24.347705  (  0.728879  -0.707814   4.828606)
  45:      1502.74   42.560145  (  1.956452   0.033681   6.223448)
  46:      1515.64   72.219204  ( -0.084867   4.667851   7.100927)
  47:      1652.45   31.144413  ( -5.462146  -0.596635   0.976423)
  48:      1658.66   48.840122  ( -1.332246   6.746496  -1.245001)
  49:      3047.17   13.294524  ( -2.945102   0.595779  -2.065417)
  50:      3064.62    3.635630  (  1.326181  -0.215007   1.353014)
  51:      3069.34   13.709844  (  2.779665   1.401184   2.004992)
  52:      3096.86    0.424496  ( -0.477168   0.427496  -0.118550)
  53:      3117.71    8.627681  ( -0.241735  -2.124187   2.014218)
  54:      3125.70   17.356101  ( -1.035925  -3.652287   1.715740)
  55:      3133.21    9.996285  (  1.281176   2.297785   1.753584)
  56:      3141.77    3.988736  (  1.076097   0.747227  -1.507449)
  57:      3143.50   10.061738  ( -0.417640   1.283726   2.870429)
  58:      3155.09   11.503664  (  1.772630  -2.470774  -1.502238)
  59:      3200.14    0.077788  (  0.056101  -0.224762   0.155315)
  60:      3408.46   35.135881  (  0.906817  -0.190531   5.854679)
  61:      3484.35   86.363692  ( -8.922345  -1.842358   1.833349)
  62:      3498.76   78.976335  ( -1.945835   8.615215  -0.983942)

--------------------------
THERMOCHEMISTRY AT 298.15K
--------------------------

Temperature         ... 298.15 K
Pressure            ... 1.00 atm
Total Mass          ... 100.18 AMU

Throughout the following assumptions are being made:
  (1) The electronic state is orbitally nondegenerate
  (2) There are no thermally accessible electronically excited states
  (3) Hindered rotations indicated by low frequency modes) are not
      treated as such but are treated as vibrations and this may
      case some error
  (4) All equations used are the standard statistical mechanics
      equations for an ideal gas
  (5) All vibrations are strinctly harmonic

------------
INNER ENERGY
------------

The inner energy is: U= E(el) + E(ZPE) + E(vib) + E(rot) + E(trans)
    E(el)   - is the total energy from the electronic structure calculation
              = E(kin-el) + E(nuc-el) + E(el-el) + E(nuc-nuc)
    E(ZPE)  - the the zero temperature vibrational energy from the frequency calculation
    E(vib)  - the the finite temperature correction to E(ZPE) due to population
              of excietd vibrational states
    E(rot)  - is the rotational thermal energy
    E(trans)- is the translational thermal energy

Summary of contributions to the inner energy U:
Electronic energy                ...   -291.30576020 Eh
Zero point energy                ...      0.19839189 Eh     124.49 kcal/mol
Thermal vibrational correction   ...      0.00611348 Eh       3.84 kcal/mol
Thermal rotational correction    ...      0.00141627 Eh       0.89 kcal/mol
Thermal translational correction ...      0.00141627 Eh       0.89 kcal/mol
-----------------------------------------------------------------------
Total thermal energy                   -291.09842229 Eh

Summary of corrections to the electronic energy:
(perhaps to be used in another calculation)
Total thermal correction                  0.00894603 Eh       5.61 kcal/mol
Non-thermal (ZPE) correction              0.19839189 Eh     124.49 kcal/mol
-----------------------------------------------------------------------
Total correction                          0.20733792 Eh     130.11 kcal/mol

--------
ENTHALPY
--------

The enthalpy is H = U + kB*T
                kB is Boltzmann's constant
Total free energy                 ...   -291.09842229 Eh
Thermal Enthalpy correction       ...      0.00094421 Eh       0.59 kcal/mol
-----------------------------------------------------------------------
Total Enthalpy                    ...   -291.09747808 Eh

-------
ENTROPY
-------

The entropy contributions are T*S = T*(S(el)+S(vib)+S(rot)+S(trans)
     S(el)   - electronic entropy
     S(vib)  - vibrational entropy
     S(rot)  - rotational entropy
     S(trans)- translational entropy
The entropies will be listed as mutliplied by the temperature to get
units of energy

Electronic entropy                ...      0.00000000 Eh      0.00 kcal/mol
Vibrational entropy               ...      0.01078143 Eh      6.77 kcal/mol
Rotational entropy                ...      0.01231385 Eh      7.73 kcal/mol
Translational entropy             ...      0.01887386 Eh     11.84 kcal/mol
-----------------------------------------------------------------------
Final entropy term                ...      0.04196914 Eh     26.34 kcal/mol

CAUTION: The rotational entropy is not quite correctly treated here
         because it includes a symmetry number that is not yet correctly
         implemented in ORCA!
For a nonlinear molecule the correct rotational entropy is:
    S(rot) = R*(ln(qrot/sn)+1.5)
    R    = 8.31441 J/mol/K = 1.987191683e-3 kcal/mol/K
    qrot = 308798.9122421
    sn is the rotational symmetry number. We have assumed 3 here
       if it is different for your molecule then you should correct
       the printed rotational entropy by manually evaluating the equation
       as given above

For convenience we print out the resulting values for sn=1 - 12:
 sn= 1  qrot/sn=  308798.9122 T*S(rot)=     8.38 kcal/mol T*S(tot)=    26.99 kcal/mol
 sn= 2  qrot/sn=  154399.4561 T*S(rot)=     7.97 kcal/mol T*S(tot)=    26.58 kcal/mol
 sn= 3  qrot/sn=  102932.9707 T*S(rot)=     7.73 kcal/mol T*S(tot)=    26.34 kcal/mol
 sn= 4  qrot/sn=   77199.7281 T*S(rot)=     7.56 kcal/mol T*S(tot)=    26.17 kcal/mol
 sn= 5  qrot/sn=   61759.7824 T*S(rot)=     7.42 kcal/mol T*S(tot)=    26.03 kcal/mol
 sn= 6  qrot/sn=   51466.4854 T*S(rot)=     7.32 kcal/mol T*S(tot)=    25.93 kcal/mol
 sn= 7  qrot/sn=   44114.1303 T*S(rot)=     7.23 kcal/mol T*S(tot)=    25.83 kcal/mol
 sn= 8  qrot/sn=   38599.8640 T*S(rot)=     7.15 kcal/mol T*S(tot)=    25.75 kcal/mol
 sn= 9  qrot/sn=   34310.9902 T*S(rot)=     7.08 kcal/mol T*S(tot)=    25.69 kcal/mol
 sn=10  qrot/sn=   30879.8912 T*S(rot)=     7.01 kcal/mol T*S(tot)=    25.62 kcal/mol
 sn=11  qrot/sn=   28072.6284 T*S(rot)=     6.96 kcal/mol T*S(tot)=    25.57 kcal/mol
 sn=12  qrot/sn=   25733.2427 T*S(rot)=     6.91 kcal/mol T*S(tot)=    25.51 kcal/mol

-------------------
GIBBS FREE ENTHALPY
-------------------

The Gibbs free enthalpy is G = H - T*S

Total enthalpy                    ...   -291.09747808 Eh
Total entropy correction          ...     -0.04196914 Eh    -26.34 kcal/mol
-----------------------------------------------------------------------
Final Gibbs free enthalpy         ...   -291.13944722 Eh

For completeness - the Gibbs free enthalpy minus the electronic energy
G-E(el)                           ...      0.16631299 Eh    104.36 kcal/mol

                             ****ORCA TERMINATED NORMALLY****
TOTAL RUN TIME: 0 days 0 hours 56 minutes 52 seconds 260 msec
