                         Program Version 3.0.3 - RELEASE   -
|  1> ! NORI PBE0 def2-TZVP UseSym TightOPT Freq TightSCF Grid3 FinalGrid5 XYZFile
|  2> % pal
|  3>     nprocs 8
|  4> end
|  5> %method
|  6>     SymThresh 5.0e-2
|  7> end
|  8> % geom
|  9>     MaxIter 10
| 10> end
| 11> % maxcore 2000
| 12> % output
| 13>     printlevel mini
| 14>     print[ P_Basis ] 0
| 15>     print[ P_SCFInfo ] 1
| 16>     print[ P_SCFIterInfo ] 1
| 17>     print[ P_OrbEn ] 0
| 18>     print[ P_Cartesian ] 0
| 19> end
| 20> % elprop
| 21>     Dipole false
| 22> end
| 23> *xyz 1 1
| 24>  C        3.3884174685     0.1050139197    -1.1430439867
| 25>  C        2.4619858399    -0.0621621627     0.0507027417
| 26>  C        2.9573734715    -1.0360939170     1.0962241063
| 27>  C        2.0975180855    -1.2251322191     2.3330047749
| 28>  C        2.5081155711    -2.5925522097     2.8600464702
| 29>  C        2.6078757502    -3.4353858007     1.6005518521
| 30>  N        3.0465027380    -2.4576365240     0.5273982228
| 31>  H        2.9951374844     0.8557213015    -1.8290288383
| 32>  H        3.5034935817    -0.8162100966    -1.7239650398
| 33>  H        4.3831847001     0.4325092103    -0.8323681032
| 34>  H        1.4569758361    -0.3624175819    -0.2709028985
| 35>  H        2.3338616639     0.8991825607     0.5562543865
| 36>  H        3.9809441677    -0.7889546461     1.3917096246
| 37>  H        1.0364957802    -1.2111759135     2.0631729710
| 38>  H        2.2680104312    -0.4228813934     3.0507186273
| 39>  H        3.4750889047    -2.5382690053     3.3665277774
| 40>  H        1.7913116863    -3.0186689051     3.5613713937
| 41>  H        3.3204992236    -4.2569320865     1.6486271181
| 42>  H        1.6384960698    -3.8294630235     1.2980119722
| 43>  H        3.9925945587    -2.6563999117     0.2088994422
| 44>  H        2.4465369870    -2.5333815955    -0.2935826146
| 45> *
| 46>
| 47>                          ****END OF INPUT****
 Total Charge           Charge          ....    1
 Multiplicity           Mult            ....    1
 Number of Electrons    NEL             ....   56
FINAL SINGLE POINT ENERGY      -291.346346830621
FINAL SINGLE POINT ENERGY      -291.346348652593

CARTESIAN COORDINATES (ANGSTROEM)
---------------------------------
  C      2.772948   -0.002690   -0.241229
  C      1.472891   -0.430744   -0.903672
  C      0.245872    0.296818   -0.401253
  C     -1.085368   -0.064609   -1.035498
  C     -2.112946    0.346914    0.008782
  C     -1.492093   -0.122640    1.312706
  N      0.002091    0.002867    1.084690
  H      3.618248   -0.531054   -0.682382
  H      2.794951   -0.223103    0.831153
  H      2.951473    1.067747   -0.368799
  H      1.315799   -1.511615   -0.797467
  H      1.527207   -0.245655   -1.980127
  H      0.398371    1.378771   -0.450905
  H     -1.132267   -1.141015   -1.229520
  H     -1.214732    0.449454   -1.987520
  H     -2.247287    1.431365    0.013493
  H     -3.091414   -0.106584   -0.145405
  H     -1.769211    0.455837    2.191998
  H     -1.699215   -1.174879    1.505061
  H      0.406709    0.735054    1.664704
  H      0.478095   -0.861441    1.342099

FINAL SINGLE POINT ENERGY      -291.346349407416
                    ***********************HURRAY********************
 Multiplicity           Mult            ....    1
 Number of Electrons    NEL             ....   56
 Basis Dimension        Dim             ....  301
FINAL SINGLE POINT ENERGY      -291.346349450241

VIBRATIONAL FREQUENCIES
-----------------------

   0:         0.00 cm**-1
   1:         0.00 cm**-1
   2:         0.00 cm**-1
   3:         0.00 cm**-1
   4:         0.00 cm**-1
   5:         0.00 cm**-1
   6:        42.06 cm**-1
   7:       109.82 cm**-1
   8:       180.79 cm**-1
   9:       214.69 cm**-1
  10:       266.31 cm**-1
  11:       397.15 cm**-1
  12:       420.81 cm**-1
  13:       552.94 cm**-1
  14:       613.09 cm**-1
  15:       762.71 cm**-1
  16:       802.08 cm**-1
  17:       831.27 cm**-1
  18:       845.19 cm**-1
  19:       907.99 cm**-1
  20:       934.88 cm**-1
  21:       942.78 cm**-1
  22:       966.31 cm**-1
  23:      1012.07 cm**-1
  24:      1037.19 cm**-1
  25:      1059.21 cm**-1
  26:      1074.70 cm**-1
  27:      1114.49 cm**-1
  28:      1154.97 cm**-1
  29:      1215.46 cm**-1
  30:      1234.06 cm**-1
  31:      1249.65 cm**-1
  32:      1290.86 cm**-1
  33:      1302.78 cm**-1
  34:      1327.73 cm**-1
  35:      1341.29 cm**-1
  36:      1346.77 cm**-1
  37:      1366.48 cm**-1
  38:      1390.17 cm**-1
  39:      1394.77 cm**-1
  40:      1413.19 cm**-1
  41:      1422.45 cm**-1
  42:      1472.74 cm**-1
  43:      1484.43 cm**-1
  44:      1492.07 cm**-1
  45:      1492.96 cm**-1
  46:      1498.87 cm**-1
  47:      1506.99 cm**-1
  48:      1650.53 cm**-1
  49:      3037.86 cm**-1
  50:      3044.93 cm**-1
  51:      3064.80 cm**-1
  52:      3083.72 cm**-1
  53:      3088.38 cm**-1
  54:      3097.75 cm**-1
  55:      3113.14 cm**-1
  56:      3119.48 cm**-1
  57:      3148.19 cm**-1
  58:      3149.43 cm**-1
  59:      3152.75 cm**-1
  60:      3175.71 cm**-1
  61:      3472.68 cm**-1
  62:      3534.69 cm**-1

IR SPECTRUM
-----------

 Mode    freq (cm**-1)   T**2         TX         TY         TZ
-------------------------------------------------------------------
   6:        42.06    4.048402  ( -0.132730   1.988875   0.274159)
   7:       109.82    2.731600  ( -1.049059  -1.023227   0.764252)
   8:       180.79    1.628062  (  0.820475  -0.124361  -0.969235)
   9:       214.69    1.828235  ( -0.930869   0.609457   0.768297)
  10:       266.31    0.585391  ( -0.746980   0.082021   0.143824)
  11:       397.15    0.466097  ( -0.226070  -0.147598  -0.627060)
  12:       420.81    2.641300  (  0.557458  -1.037326  -1.120043)
  13:       552.94    1.588840  ( -0.186334  -1.240328  -0.125322)
  14:       613.09    0.775074  (  0.493968  -0.510256   0.520297)
  15:       762.71    1.249681  ( -0.420127  -1.034659   0.051525)
  16:       802.08    4.223882  (  0.326133  -1.098096  -1.706372)
  17:       831.27    4.094146  ( -0.890468  -0.857931   1.601614)
  18:       845.19    4.349901  ( -0.859644   1.197925   1.475090)
  19:       907.99    4.084653  (  1.112752   0.601249   1.576368)
  20:       934.88    3.158729  (  0.430840  -1.568084  -0.717090)
  21:       942.78    5.345845  (  0.760428  -1.191565   1.829690)
  22:       966.31    5.277459  (  2.236926  -0.515107   0.091038)
  23:      1012.07   12.570537  (  2.819019   0.202300  -2.140734)
  24:      1037.19    8.456489  ( -2.513202  -0.032508   1.462616)
  25:      1059.21    0.244776  ( -0.202184  -0.070133  -0.446071)
  26:      1074.70    1.468192  ( -0.227768   0.589422  -1.033874)
  27:      1114.49    1.913252  (  0.321350  -0.759789   1.110273)
  28:      1154.97    4.757294  (  0.357954   1.193681  -1.790053)
  29:      1215.46    4.811179  (  2.095098   0.505460   0.407742)
  30:      1234.06    0.328254  (  0.540881   0.188659  -0.010469)
  31:      1249.65    1.691002  ( -0.775598  -0.399910   0.964117)
  32:      1290.86   11.094723  (  1.727581   1.360870  -2.501644)
  33:      1302.78    1.885649  ( -0.624130  -0.350303   1.171921)
  34:      1327.73   23.222843  (  3.193859   1.092109  -3.439390)
  35:      1341.29    2.154992  ( -1.004745   0.782645   0.730032)
  36:      1346.77   41.553940  (  4.372302  -0.691142  -4.686069)
  37:      1366.48    2.361345  ( -1.458822  -0.425099   0.229073)
  38:      1390.17    6.538527  ( -1.822170  -0.735797   1.636102)
  39:      1394.77    3.262682  ( -0.720409  -1.437837  -0.822386)
  40:      1413.19   10.639312  ( -1.880567   0.773159   2.550492)
  41:      1422.45    5.492767  ( -1.793385  -0.728450  -1.321324)
  42:      1472.74    2.502716  (  1.361959   0.777501   0.208033)
  43:      1484.43    9.172717  (  0.173533   2.200706   2.073523)
  44:      1492.07   12.470379  (  1.208863  -0.455311   3.286597)
  45:      1492.96   16.929045  (  2.189448  -3.432295  -0.595582)
  46:      1498.87   15.262018  (  0.458852   2.416616  -3.035035)
  47:      1506.99    7.376903  (  2.021437   1.411775  -1.139116)
  48:      1650.53   41.539342  (  4.683883  -1.210887   4.258442)
  49:      3037.86    7.513449  (  1.742620   2.098222  -0.272375)
  50:      3044.93   15.808017  (  1.021213   1.019793   3.704749)
  51:      3064.80    1.437662  (  0.328981  -1.057408  -0.459699)
  52:      3083.72    1.295857  ( -1.070013  -0.254914  -0.293170)
  53:      3088.38   12.163801  (  0.183535  -3.390901  -0.794923)
  54:      3097.75    1.437698  ( -0.876417   0.481563   0.661580)
  55:      3113.14    2.557968  (  0.144811   1.022424  -1.221330)
  56:      3119.48   17.049035  (  0.851841   2.723403  -2.984373)
  57:      3148.19    0.231223  (  0.144788   0.456273   0.045547)
  58:      3149.43    3.897661  (  0.923858  -1.615084  -0.660039)
  59:      3152.75    1.598102  (  0.484259   1.077562  -0.449950)
  60:      3175.71    0.639570  ( -0.092074   0.708902   0.358540)
  61:      3472.68   45.064242  ( -4.651407   1.786771  -4.498456)
  62:      3534.69   70.129366  (  0.531359   7.649416   3.366521)

--------------------------
THERMOCHEMISTRY AT 298.15K
--------------------------

Temperature         ... 298.15 K
Pressure            ... 1.00 atm
Total Mass          ... 100.18 AMU

Throughout the following assumptions are being made:
  (1) The electronic state is orbitally nondegenerate
  (2) There are no thermally accessible electronically excited states
  (3) Hindered rotations indicated by low frequency modes) are not
      treated as such but are treated as vibrations and this may
      case some error
  (4) All equations used are the standard statistical mechanics
      equations for an ideal gas
  (5) All vibrations are strinctly harmonic

------------
INNER ENERGY
------------

The inner energy is: U= E(el) + E(ZPE) + E(vib) + E(rot) + E(trans)
    E(el)   - is the total energy from the electronic structure calculation
              = E(kin-el) + E(nuc-el) + E(el-el) + E(nuc-nuc)
    E(ZPE)  - the the zero temperature vibrational energy from the frequency calculation
    E(vib)  - the the finite temperature correction to E(ZPE) due to population
              of excietd vibrational states
    E(rot)  - is the rotational thermal energy
    E(trans)- is the translational thermal energy

Summary of contributions to the inner energy U:
Electronic energy                ...   -291.34634945 Eh
Zero point energy                ...      0.20143848 Eh     126.40 kcal/mol
Thermal vibrational correction   ...      0.00492914 Eh       3.09 kcal/mol
Thermal rotational correction    ...      0.00141627 Eh       0.89 kcal/mol
Thermal translational correction ...      0.00141627 Eh       0.89 kcal/mol
-----------------------------------------------------------------------
Total thermal energy                   -291.13714929 Eh

Summary of corrections to the electronic energy:
(perhaps to be used in another calculation)
Total thermal correction                  0.00776168 Eh       4.87 kcal/mol
Non-thermal (ZPE) correction              0.20143848 Eh     126.40 kcal/mol
-----------------------------------------------------------------------
Total correction                          0.20920016 Eh     131.27 kcal/mol

--------
ENTHALPY
--------

The enthalpy is H = U + kB*T
                kB is Boltzmann's constant
Total free energy                 ...   -291.13714929 Eh
Thermal Enthalpy correction       ...      0.00094421 Eh       0.59 kcal/mol
-----------------------------------------------------------------------
Total Enthalpy                    ...   -291.13620508 Eh

-------
ENTROPY
-------

The entropy contributions are T*S = T*(S(el)+S(vib)+S(rot)+S(trans)
     S(el)   - electronic entropy
     S(vib)  - vibrational entropy
     S(rot)  - rotational entropy
     S(trans)- translational entropy
The entropies will be listed as mutliplied by the temperature to get
units of energy

Electronic entropy                ...      0.00000000 Eh      0.00 kcal/mol
Vibrational entropy               ...      0.00917633 Eh      5.76 kcal/mol
Rotational entropy                ...      0.01207985 Eh      7.58 kcal/mol
Translational entropy             ...      0.01887386 Eh     11.84 kcal/mol
-----------------------------------------------------------------------
Final entropy term                ...      0.04013004 Eh     25.18 kcal/mol

CAUTION: The rotational entropy is not quite correctly treated here
         because it includes a symmetry number that is not yet correctly
         implemented in ORCA!
For a nonlinear molecule the correct rotational entropy is:
    S(rot) = R*(ln(qrot/sn)+1.5)
    R    = 8.31441 J/mol/K = 1.987191683e-3 kcal/mol/K
    qrot = 241014.3017233
    sn is the rotational symmetry number. We have assumed 3 here
       if it is different for your molecule then you should correct
       the printed rotational entropy by manually evaluating the equation
       as given above

For convenience we print out the resulting values for sn=1 - 12:
 sn= 1  qrot/sn=  241014.3017 T*S(rot)=     8.23 kcal/mol T*S(tot)=    25.83 kcal/mol
 sn= 2  qrot/sn=  120507.1509 T*S(rot)=     7.82 kcal/mol T*S(tot)=    25.42 kcal/mol
 sn= 3  qrot/sn=   80338.1006 T*S(rot)=     7.58 kcal/mol T*S(tot)=    25.18 kcal/mol
 sn= 4  qrot/sn=   60253.5754 T*S(rot)=     7.41 kcal/mol T*S(tot)=    25.01 kcal/mol
 sn= 5  qrot/sn=   48202.8603 T*S(rot)=     7.28 kcal/mol T*S(tot)=    24.88 kcal/mol
 sn= 6  qrot/sn=   40169.0503 T*S(rot)=     7.17 kcal/mol T*S(tot)=    24.77 kcal/mol
 sn= 7  qrot/sn=   34430.6145 T*S(rot)=     7.08 kcal/mol T*S(tot)=    24.68 kcal/mol
 sn= 8  qrot/sn=   30126.7877 T*S(rot)=     7.00 kcal/mol T*S(tot)=    24.60 kcal/mol
 sn= 9  qrot/sn=   26779.3669 T*S(rot)=     6.93 kcal/mol T*S(tot)=    24.53 kcal/mol
 sn=10  qrot/sn=   24101.4302 T*S(rot)=     6.87 kcal/mol T*S(tot)=    24.47 kcal/mol
 sn=11  qrot/sn=   21910.3911 T*S(rot)=     6.81 kcal/mol T*S(tot)=    24.41 kcal/mol
 sn=12  qrot/sn=   20084.5251 T*S(rot)=     6.76 kcal/mol T*S(tot)=    24.36 kcal/mol

-------------------
GIBBS FREE ENTHALPY
-------------------

The Gibbs free enthalpy is G = H - T*S

Total enthalpy                    ...   -291.13620508 Eh
Total entropy correction          ...     -0.04013004 Eh    -25.18 kcal/mol
-----------------------------------------------------------------------
Final Gibbs free enthalpy         ...   -291.17633512 Eh

For completeness - the Gibbs free enthalpy minus the electronic energy
G-E(el)                           ...      0.17001433 Eh    106.69 kcal/mol

                             ****ORCA TERMINATED NORMALLY****
TOTAL RUN TIME: 0 days 1 hours 3 minutes 45 seconds 462 msec
