                         Program Version 3.0.3 - RELEASE   -
|  1> ! NORI PBE0 def2-TZVP UseSym TightOPT Freq TightSCF Grid3 FinalGrid5 XYZFile
|  2> % pal
|  3>     nprocs 8
|  4> end
|  5> %method
|  6>     SymThresh 5.0e-2
|  7> end
|  8> % geom
|  9>     MaxIter 10
| 10> end
| 11> % maxcore 2000
| 12> % output
| 13>     printlevel mini
| 14>     print[ P_Basis ] 0
| 15>     print[ P_SCFInfo ] 1
| 16>     print[ P_SCFIterInfo ] 1
| 17>     print[ P_OrbEn ] 0
| 18>     print[ P_Cartesian ] 0
| 19> end
| 20> % elprop
| 21>     Dipole false
| 22> end
| 23> *xyz 1 1
| 24>  C        1.1189255745    -0.3701884954     0.0734753097
| 25>  C        2.2367953966     0.3328631146     0.1849110890
| 26>  C        2.8967696112     1.0056081313    -0.9656376888
| 27>  C        3.2727416365     2.4688851850    -0.7999057797
| 28>  C        4.3608194320     2.6845370975    -1.8413784838
| 29>  C        5.2203635387     1.4350703347    -1.7272404519
| 30>  N        4.2621201236     0.3568326168    -1.2620201033
| 31>  H        0.6485091214    -0.8197852215     0.9393083676
| 32>  H        0.6214683381    -0.5082312120    -0.8814532816
| 33>  H        2.6990826322     0.4793127456     1.1600406484
| 34>  H        2.3109273731     0.8674389235    -1.8772285372
| 35>  H        2.4032441158     3.1090376134    -0.9447818054
| 36>  H        3.6507980929     2.6487011052     0.2118980451
| 37>  H        3.9262391013     2.7628579464    -2.8404885163
| 38>  H        4.9508021710     3.5835096863    -1.6670256814
| 39>  H        5.9901149599     1.5345378795    -0.9628544470
| 40>  H        5.6898553442     1.1174735866    -2.6562861268
| 41>  H        4.6066462893    -0.0947951672    -0.4149904174
| 42>  H        4.1533171478    -0.3845158705    -1.9521421392
| 43> *
| 44>
| 45>                          ****END OF INPUT****
 Total Charge           Charge          ....    1
 Multiplicity           Mult            ....    1
 Number of Electrons    NEL             ....   54
FINAL SINGLE POINT ENERGY      -290.111113813656

CARTESIAN COORDINATES (ANGSTROEM)
---------------------------------
  C      2.709107   -0.000425   -0.982663
  C      1.556541   -0.557275   -0.639511
  C      0.350484    0.226883   -0.261941
  C     -0.957582   -0.124159   -0.951946
  C     -2.022400    0.411432   -0.005951
  C     -1.508097    0.021395    1.371411
  N      0.000015    0.000339    1.220991
  H      3.557838   -0.603021   -1.282260
  H      2.843972    1.076700   -0.995596
  H      1.440657   -1.640011   -0.663254
  H      0.547223    1.297833   -0.348771
  H     -1.000113    0.319782   -1.945928
  H     -1.042031   -1.209235   -1.070294
  H     -2.103358    1.497488   -0.093349
  H     -3.010779   -0.008762   -0.189018
  H     -1.817903   -0.983377    1.655930
  H     -1.776788    0.709432    2.170729
  H      0.382436   -0.896656    1.519546
  H      0.453637    0.706225    1.798524

FINAL SINGLE POINT ENERGY      -290.111114788288
                    ***********************HURRAY********************
 Multiplicity           Mult            ....    1
 Number of Electrons    NEL             ....   54
 Basis Dimension        Dim             ....  289
FINAL SINGLE POINT ENERGY      -290.111115483454

VIBRATIONAL FREQUENCIES
-----------------------

   0:         0.00 cm**-1
   1:         0.00 cm**-1
   2:         0.00 cm**-1
   3:         0.00 cm**-1
   4:         0.00 cm**-1
   5:         0.00 cm**-1
   6:        47.95 cm**-1
   7:        94.97 cm**-1
   8:       189.82 cm**-1
   9:       289.90 cm**-1
  10:       332.19 cm**-1
  11:       436.86 cm**-1
  12:       560.31 cm**-1
  13:       627.70 cm**-1
  14:       668.56 cm**-1
  15:       799.01 cm**-1
  16:       828.73 cm**-1
  17:       842.48 cm**-1
  18:       910.42 cm**-1
  19:       941.71 cm**-1
  20:       954.82 cm**-1
  21:       983.96 cm**-1
  22:      1012.55 cm**-1
  23:      1018.32 cm**-1
  24:      1028.85 cm**-1
  25:      1048.47 cm**-1
  26:      1089.76 cm**-1
  27:      1150.03 cm**-1
  28:      1214.79 cm**-1
  29:      1241.58 cm**-1
  30:      1244.17 cm**-1
  31:      1302.87 cm**-1
  32:      1308.11 cm**-1
  33:      1327.67 cm**-1
  34:      1338.42 cm**-1
  35:      1354.41 cm**-1
  36:      1372.37 cm**-1
  37:      1377.33 cm**-1
  38:      1392.59 cm**-1
  39:      1463.82 cm**-1
  40:      1482.81 cm**-1
  41:      1492.42 cm**-1
  42:      1507.08 cm**-1
  43:      1650.92 cm**-1
  44:      1723.91 cm**-1
  45:      3067.87 cm**-1
  46:      3086.83 cm**-1
  47:      3102.99 cm**-1
  48:      3115.10 cm**-1
  49:      3148.25 cm**-1
  50:      3149.64 cm**-1
  51:      3154.37 cm**-1
  52:      3162.02 cm**-1
  53:      3176.93 cm**-1
  54:      3257.11 cm**-1
  55:      3470.89 cm**-1
  56:      3530.09 cm**-1

IR SPECTRUM
-----------

 Mode    freq (cm**-1)   T**2         TX         TY         TZ
-------------------------------------------------------------------
   6:        47.95    3.624990  (  0.067804   1.898632   0.124854)
   7:        94.97    1.702051  (  1.170220   0.457348  -0.351382)
   8:       189.82    0.106629  ( -0.136625   0.262706  -0.137653)
   9:       289.90    0.959522  ( -0.471998   0.513189   0.688024)
  10:       332.19    1.141332  ( -0.516904  -0.841187  -0.408101)
  11:       436.86    0.647096  (  0.490227  -0.560174  -0.304923)
  12:       560.31    2.228240  ( -0.200274   1.462785   0.219974)
  13:       627.70    1.938123  ( -0.611017  -0.169397   1.239389)
  14:       668.56   11.748184  (  1.131610  -0.214777   3.228237)
  15:       799.01    7.575436  ( -0.639834   1.897367   1.888398)
  16:       828.73   11.594084  ( -1.579200   0.062849   3.016001)
  17:       842.48    1.741226  (  0.527720  -0.895479  -0.812930)
  18:       910.42    4.285372  ( -1.602943  -0.439076  -1.234163)
  19:       941.71    3.061599  ( -0.134552  -0.855956  -1.520143)
  20:       954.82   11.704286  (  1.797704  -1.191605   2.655677)
  21:       983.96    6.943453  ( -2.376885   0.131686   1.129836)
  22:      1012.55   31.942626  (  3.445250   0.475621  -4.454959)
  23:      1018.32   52.554321  (  2.085427  -0.296322   6.936679)
  24:      1028.85    1.647421  ( -0.769410  -0.185515  -1.010452)
  25:      1048.47    4.129852  ( -1.983386   0.176439   0.406079)
  26:      1089.76    3.885505  (  0.702438   0.530152  -1.763810)
  27:      1150.03    2.842163  ( -0.637202  -0.888781   1.283045)
  28:      1214.79    9.154454  (  3.014885   0.234282   0.100181)
  29:      1241.58    0.837184  ( -0.586562   0.215820   0.668245)
  30:      1244.17    0.928552  ( -0.440159  -0.487555   0.705054)
  31:      1302.87    6.933997  ( -1.722922  -0.336780   1.962681)
  32:      1308.11   16.737460  (  2.570456   1.404260  -2.856268)
  33:      1327.67   24.797667  ( -3.651488  -1.273879   3.137121)
  34:      1338.42   11.990650  ( -2.019644   1.833383   2.133166)
  35:      1354.41   13.567363  ( -2.008940   0.907860   2.950816)
  36:      1372.37    3.668792  (  1.736407  -0.078156  -0.804721)
  37:      1377.33    1.003918  (  0.029689  -0.703679  -0.712652)
  38:      1392.59   20.908390  ( -3.458013  -0.026776   2.991625)
  39:      1463.82   21.657254  ( -3.874087  -1.597008   2.024418)
  40:      1482.81   11.211297  (  0.089948   2.627365   2.073682)
  41:      1492.42   12.996388  ( -2.101228   1.599316  -2.454265)
  42:      1507.08    5.872101  (  2.148000   0.620545  -0.934408)
  43:      1650.92   47.460000  (  4.035060  -1.707706   5.316205)
  44:      1723.91    1.532176  (  0.456318  -0.565698  -1.001966)
  45:      3067.87    2.121656  (  0.090002  -1.422455  -0.300294)
  46:      3086.83    4.793863  ( -0.781091   2.045250   0.026678)
  47:      3102.99    3.939993  (  0.344743  -1.913843  -0.397934)
  48:      3115.10    2.058555  (  0.211239   0.766061  -1.194606)
  49:      3148.25    1.396556  ( -0.203875  -1.106184   0.362419)
  50:      3149.64    0.155831  (  0.015722   0.135092   0.370586)
  51:      3154.37    1.583917  ( -0.389537  -1.196325   0.031394)
  52:      3162.02    0.975125  (  0.640964  -0.694723  -0.285746)
  53:      3176.93    0.476825  ( -0.008342   0.662894   0.193201)
  54:      3257.11    0.250836  (  0.442258   0.158601  -0.173463)
  55:      3470.89   50.906346  ( -4.145074   2.020373  -5.444520)
  56:      3530.09   71.955122  ( -0.845497  -7.976818  -2.758736)

--------------------------
THERMOCHEMISTRY AT 298.15K
--------------------------

Temperature         ... 298.15 K
Pressure            ... 1.00 atm
Total Mass          ... 98.17 AMU

Throughout the following assumptions are being made:
  (1) The electronic state is orbitally nondegenerate
  (2) There are no thermally accessible electronically excited states
  (3) Hindered rotations indicated by low frequency modes) are not
      treated as such but are treated as vibrations and this may
      case some error
  (4) All equations used are the standard statistical mechanics
      equations for an ideal gas
  (5) All vibrations are strinctly harmonic

------------
INNER ENERGY
------------

The inner energy is: U= E(el) + E(ZPE) + E(vib) + E(rot) + E(trans)
    E(el)   - is the total energy from the electronic structure calculation
              = E(kin-el) + E(nuc-el) + E(el-el) + E(nuc-nuc)
    E(ZPE)  - the the zero temperature vibrational energy from the frequency calculation
    E(vib)  - the the finite temperature correction to E(ZPE) due to population
              of excietd vibrational states
    E(rot)  - is the rotational thermal energy
    E(trans)- is the translational thermal energy

Summary of contributions to the inner energy U:
Electronic energy                ...   -290.11111548 Eh
Zero point energy                ...      0.17786739 Eh     111.61 kcal/mol
Thermal vibrational correction   ...      0.00442504 Eh       2.78 kcal/mol
Thermal rotational correction    ...      0.00141627 Eh       0.89 kcal/mol
Thermal translational correction ...      0.00141627 Eh       0.89 kcal/mol
-----------------------------------------------------------------------
Total thermal energy                   -289.92599051 Eh

Summary of corrections to the electronic energy:
(perhaps to be used in another calculation)
Total thermal correction                  0.00725759 Eh       4.55 kcal/mol
Non-thermal (ZPE) correction              0.17786739 Eh     111.61 kcal/mol
-----------------------------------------------------------------------
Total correction                          0.18512497 Eh     116.17 kcal/mol

--------
ENTHALPY
--------

The enthalpy is H = U + kB*T
                kB is Boltzmann's constant
Total free energy                 ...   -289.92599051 Eh
Thermal Enthalpy correction       ...      0.00094421 Eh       0.59 kcal/mol
-----------------------------------------------------------------------
Total Enthalpy                    ...   -289.92504630 Eh

-------
ENTROPY
-------

The entropy contributions are T*S = T*(S(el)+S(vib)+S(rot)+S(trans)
     S(el)   - electronic entropy
     S(vib)  - vibrational entropy
     S(rot)  - rotational entropy
     S(trans)- translational entropy
The entropies will be listed as mutliplied by the temperature to get
units of energy

Electronic entropy                ...      0.00000000 Eh      0.00 kcal/mol
Vibrational entropy               ...      0.00824510 Eh      5.17 kcal/mol
Rotational entropy                ...      0.01201712 Eh      7.54 kcal/mol
Translational entropy             ...      0.01884507 Eh     11.83 kcal/mol
-----------------------------------------------------------------------
Final entropy term                ...      0.03910729 Eh     24.54 kcal/mol

CAUTION: The rotational entropy is not quite correctly treated here
         because it includes a symmetry number that is not yet correctly
         implemented in ORCA!
For a nonlinear molecule the correct rotational entropy is:
    S(rot) = R*(ln(qrot/sn)+1.5)
    R    = 8.31441 J/mol/K = 1.987191683e-3 kcal/mol/K
    qrot = 225522.0457140
    sn is the rotational symmetry number. We have assumed 3 here
       if it is different for your molecule then you should correct
       the printed rotational entropy by manually evaluating the equation
       as given above

For convenience we print out the resulting values for sn=1 - 12:
 sn= 1  qrot/sn=  225522.0457 T*S(rot)=     8.19 kcal/mol T*S(tot)=    25.19 kcal/mol
 sn= 2  qrot/sn=  112761.0229 T*S(rot)=     7.78 kcal/mol T*S(tot)=    24.78 kcal/mol
 sn= 3  qrot/sn=   75174.0152 T*S(rot)=     7.54 kcal/mol T*S(tot)=    24.54 kcal/mol
 sn= 4  qrot/sn=   56380.5114 T*S(rot)=     7.37 kcal/mol T*S(tot)=    24.37 kcal/mol
 sn= 5  qrot/sn=   45104.4091 T*S(rot)=     7.24 kcal/mol T*S(tot)=    24.24 kcal/mol
 sn= 6  qrot/sn=   37587.0076 T*S(rot)=     7.13 kcal/mol T*S(tot)=    24.13 kcal/mol
 sn= 7  qrot/sn=   32217.4351 T*S(rot)=     7.04 kcal/mol T*S(tot)=    24.04 kcal/mol
 sn= 8  qrot/sn=   28190.2557 T*S(rot)=     6.96 kcal/mol T*S(tot)=    23.96 kcal/mol
 sn= 9  qrot/sn=   25058.0051 T*S(rot)=     6.89 kcal/mol T*S(tot)=    23.89 kcal/mol
 sn=10  qrot/sn=   22552.2046 T*S(rot)=     6.83 kcal/mol T*S(tot)=    23.83 kcal/mol
 sn=11  qrot/sn=   20502.0042 T*S(rot)=     6.77 kcal/mol T*S(tot)=    23.77 kcal/mol
 sn=12  qrot/sn=   18793.5038 T*S(rot)=     6.72 kcal/mol T*S(tot)=    23.72 kcal/mol

-------------------
GIBBS FREE ENTHALPY
-------------------

The Gibbs free enthalpy is G = H - T*S

Total enthalpy                    ...   -289.92504630 Eh
Total entropy correction          ...     -0.03910729 Eh    -24.54 kcal/mol
-----------------------------------------------------------------------
Final Gibbs free enthalpy         ...   -289.96415359 Eh

For completeness - the Gibbs free enthalpy minus the electronic energy
G-E(el)                           ...      0.14696189 Eh     92.22 kcal/mol

                             ****ORCA TERMINATED NORMALLY****
TOTAL RUN TIME: 0 days 0 hours 54 minutes 52 seconds 970 msec
