                         Program Version 3.0.3 - RELEASE   -
|  1> ! NORI PBE0 def2-TZVP UseSym TightOPT Freq TightSCF Grid3 FinalGrid5 XYZFile
|  2> % pal
|  3>     nprocs 8
|  4> end
|  5> %method
|  6>     SymThresh 5.0e-2
|  7> end
|  8> % geom
|  9>     MaxIter 10
| 10> end
| 11> % maxcore 2000
| 12> % output
| 13>     printlevel mini
| 14>     print[ P_Basis ] 0
| 15>     print[ P_SCFInfo ] 1
| 16>     print[ P_SCFIterInfo ] 1
| 17>     print[ P_OrbEn ] 0
| 18>     print[ P_Cartesian ] 0
| 19> end
| 20> % elprop
| 21>     Dipole false
| 22> end
| 23> *xyz 1 1
| 24>  C        1.1313744948     0.1255588510     0.5805542663
| 25>  C        2.2653519835     0.1743639205     0.1948911986
| 26>  C        3.6374503784     0.2305059478    -0.2615569600
| 27>  C        4.4970117077     1.3059965342     0.4164849113
| 28>  C        5.1083700143     0.5963855844     1.6168450558
| 29>  C        5.4888971516    -0.7552450926     1.0506579529
| 30>  N        4.3355951362    -1.0898767667     0.1351615654
| 31>  H        0.1182293783     0.0915117293     0.9164567385
| 32>  H        3.6712410253     0.2957114632    -1.3512052705
| 33>  H        3.8894304781     2.1680238566     0.6853847183
| 34>  H        5.2766296342     1.6394680326    -0.2721660857
| 35>  H        4.3782709296     0.4890531535     2.4235012389
| 36>  H        5.9770711682     1.1166623332     2.0187139277
| 37>  H        6.3845209237    -0.6960669171     0.4316634384
| 38>  H        5.6083207390    -1.5559907677     1.7788392278
| 39>  H        4.6409968633    -1.6081317883    -0.6876853456
| 40>  H        3.6495879937    -1.6731800739     0.6160994219
| 41> *
| 42>
| 43>                          ****END OF INPUT****
 Total Charge           Charge          ....    1
 Multiplicity           Mult            ....    1
 Number of Electrons    NEL             ....   52
FINAL SINGLE POINT ENERGY      -288.851535654282

CARTESIAN COORDINATES (ANGSTROEM)
---------------------------------
  C      2.497500   -0.000525   -1.082833
  C      1.472046    0.373106   -0.587242
  C      0.231053    0.814512    0.011988
  C     -1.024203    0.524056   -0.821527
  C     -1.482689   -0.847018   -0.344154
  C     -1.295610   -0.760937    1.155712
  N      0.000029    0.000167    1.304771
  H      3.411423   -0.322903   -1.531421
  H      0.304036    1.864214    0.303479
  H     -0.793963    0.558655   -1.884677
  H     -1.785180    1.279511   -0.612616
  H     -0.860618   -1.639030   -0.768913
  H     -2.519260   -1.060495   -0.602760
  H     -2.076304   -0.162838    1.626499
  H     -1.210085   -1.713135    1.676721
  H     -0.005823    0.604039    2.125810
  H      0.786035   -0.641887    1.413522

FINAL SINGLE POINT ENERGY      -288.851536023671
                    ***********************HURRAY********************
 Multiplicity           Mult            ....    1
 Number of Electrons    NEL             ....   52
 Basis Dimension        Dim             ....  277
FINAL SINGLE POINT ENERGY      -288.851536128827

VIBRATIONAL FREQUENCIES
-----------------------

   0:         0.00 cm**-1
   1:         0.00 cm**-1
   2:         0.00 cm**-1
   3:         0.00 cm**-1
   4:         0.00 cm**-1
   5:         0.00 cm**-1
   6:        32.81 cm**-1
   7:       159.53 cm**-1
   8:       205.93 cm**-1
   9:       278.07 cm**-1
  10:       454.60 cm**-1
  11:       525.82 cm**-1
  12:       570.93 cm**-1
  13:       684.46 cm**-1
  14:       727.91 cm**-1
  15:       767.05 cm**-1
  16:       786.69 cm**-1
  17:       830.85 cm**-1
  18:       851.61 cm**-1
  19:       898.14 cm**-1
  20:       931.73 cm**-1
  21:       948.44 cm**-1
  22:       997.55 cm**-1
  23:      1022.47 cm**-1
  24:      1068.20 cm**-1
  25:      1094.09 cm**-1
  26:      1190.50 cm**-1
  27:      1210.65 cm**-1
  28:      1257.80 cm**-1
  29:      1269.96 cm**-1
  30:      1316.12 cm**-1
  31:      1331.17 cm**-1
  32:      1359.68 cm**-1
  33:      1364.70 cm**-1
  34:      1390.62 cm**-1
  35:      1396.20 cm**-1
  36:      1482.48 cm**-1
  37:      1488.68 cm**-1
  38:      1504.54 cm**-1
  39:      1643.98 cm**-1
  40:      2251.01 cm**-1
  41:      3082.86 cm**-1
  42:      3091.64 cm**-1
  43:      3107.81 cm**-1
  44:      3109.35 cm**-1
  45:      3154.01 cm**-1
  46:      3166.10 cm**-1
  47:      3174.49 cm**-1
  48:      3453.22 cm**-1
  49:      3459.60 cm**-1
  50:      3524.72 cm**-1

IR SPECTRUM
-----------

 Mode    freq (cm**-1)   T**2         TX         TY         TZ
-------------------------------------------------------------------
   7:       159.53    2.188914  ( -1.423565   0.212629  -0.342293)
   8:       205.93    8.334254  ( -0.348262   2.819685   0.512194)
   9:       278.07    1.861556  ( -0.900811  -0.943887  -0.398966)
  10:       454.60    7.688667  ( -2.158643  -1.697312  -0.384784)
  11:       525.82   16.061704  ( -0.323292   1.733836  -3.598750)
  12:       570.93    7.619516  ( -0.598516   0.921930   2.532062)
  13:       684.46    0.979047  (  0.384692  -0.228219  -0.882596)
  14:       727.91   38.640510  ( -3.139828  -4.190786  -3.349523)
  15:       767.05   24.977080  ( -1.318911   3.586411  -3.221057)
  16:       786.69   10.883413  (  0.923744   1.647026  -2.705072)
  17:       830.85    5.200189  (  0.630950   0.070614  -2.190229)
  18:       851.61    7.091706  (  0.476094   2.205084  -1.415148)
  19:       898.14    7.824301  (  0.932117  -1.190182   2.353493)
  20:       931.73    1.125499  (  0.735199  -0.251842  -0.722190)
  21:       948.44    7.121976  (  0.521754   0.558753   2.556862)
  22:       997.55   20.794559  ( -4.079223  -0.483548   1.980072)
  23:      1022.47    8.625060  (  1.387290   2.474693  -0.759198)
  24:      1068.20    0.809684  (  0.880144  -0.159359  -0.098161)
  25:      1094.09    2.966723  (  0.134424  -0.207786   1.704546)
  26:      1190.50    2.271264  ( -0.377282   1.102468   0.955764)
  27:      1210.65    7.413437  ( -2.637213  -0.112641  -0.667724)
  28:      1257.80   23.578076  ( -3.321155  -0.779354   3.455520)
  29:      1269.96    0.703988  ( -0.727096  -0.403924   0.110296)
  30:      1316.12    2.768662  ( -1.250072   0.071947   1.095813)
  31:      1331.17    0.124041  (  0.120356   0.317639  -0.093066)
  32:      1359.68   33.139347  ( -1.433991  -5.019690   2.426051)
  33:      1364.70    6.142634  (  1.783275   1.431779  -0.955286)
  34:      1390.62   48.412549  ( -5.387227  -1.793906   4.021472)
  35:      1396.20    3.085919  (  0.859793   1.422870  -0.567553)
  36:      1482.48   11.983376  (  0.598389  -3.336849   0.700531)
  37:      1488.68   16.301168  ( -0.817971  -0.934015  -3.841837)
  38:      1504.54    5.572830  ( -2.280996  -0.093561   0.600944)
  39:      1643.98   56.610595  (  3.779709  -0.857965   6.448899)
  40:      2251.01   24.709683  ( -4.088624   1.006756   2.641833)
  41:      3082.86    0.028437  (  0.089457   0.120247   0.077300)
  42:      3091.64    5.493920  ( -1.253243   1.944598   0.376616)
  43:      3107.81    0.367420  (  0.041571   0.372557   0.476333)
  44:      3109.35    3.023638  (  1.174651  -0.509800  -1.176408)
  45:      3154.01    0.465064  ( -0.019383  -0.264080  -0.628451)
  46:      3166.10    0.990488  (  0.906601  -0.225026   0.343402)
  47:      3174.49    0.303361  (  0.405180  -0.373000   0.007875)
  48:      3453.22   90.329508  ( -7.805286   2.262132   4.928466)
  49:      3459.60   68.379090  ( -6.543259   1.595386  -4.797874)
  50:      3524.72   84.047424  ( -3.518152   6.566718   5.343055)

--------------------------
THERMOCHEMISTRY AT 298.15K
--------------------------

Temperature         ... 298.15 K
Pressure            ... 1.00 atm
Total Mass          ... 96.15 AMU

Throughout the following assumptions are being made:
  (1) The electronic state is orbitally nondegenerate
  (2) There are no thermally accessible electronically excited states
  (3) Hindered rotations indicated by low frequency modes) are not
      treated as such but are treated as vibrations and this may
      case some error
  (4) All equations used are the standard statistical mechanics
      equations for an ideal gas
  (5) All vibrations are strinctly harmonic

------------
INNER ENERGY
------------

The inner energy is: U= E(el) + E(ZPE) + E(vib) + E(rot) + E(trans)
    E(el)   - is the total energy from the electronic structure calculation
              = E(kin-el) + E(nuc-el) + E(el-el) + E(nuc-nuc)
    E(ZPE)  - the the zero temperature vibrational energy from the frequency calculation
    E(vib)  - the the finite temperature correction to E(ZPE) due to population
              of excietd vibrational states
    E(rot)  - is the rotational thermal energy
    E(trans)- is the translational thermal energy

Summary of contributions to the inner energy U:
Electronic energy                ...   -288.85153613 Eh
Zero point energy                ...      0.15397215 Eh      96.62 kcal/mol
Thermal vibrational correction   ...      0.00319817 Eh       2.01 kcal/mol
Thermal rotational correction    ...      0.00141627 Eh       0.89 kcal/mol
Thermal translational correction ...      0.00141627 Eh       0.89 kcal/mol
-----------------------------------------------------------------------
Total thermal energy                   -288.69153326 Eh

Summary of corrections to the electronic energy:
(perhaps to be used in another calculation)
Total thermal correction                  0.00603072 Eh       3.78 kcal/mol
Non-thermal (ZPE) correction              0.15397215 Eh      96.62 kcal/mol
-----------------------------------------------------------------------
Total correction                          0.16000287 Eh     100.40 kcal/mol

--------
ENTHALPY
--------

The enthalpy is H = U + kB*T
                kB is Boltzmann's constant
Total free energy                 ...   -288.69153326 Eh
Thermal Enthalpy correction       ...      0.00094421 Eh       0.59 kcal/mol
-----------------------------------------------------------------------
Total Enthalpy                    ...   -288.69058905 Eh

-------
ENTROPY
-------

The entropy contributions are T*S = T*(S(el)+S(vib)+S(rot)+S(trans)
     S(el)   - electronic entropy
     S(vib)  - vibrational entropy
     S(rot)  - rotational entropy
     S(trans)- translational entropy
The entropies will be listed as mutliplied by the temperature to get
units of energy

Electronic entropy                ...      0.00000000 Eh      0.00 kcal/mol
Vibrational entropy               ...      0.00497947 Eh      3.12 kcal/mol
Rotational entropy                ...      0.01193148 Eh      7.49 kcal/mol
Translational entropy             ...      0.01881568 Eh     11.81 kcal/mol
-----------------------------------------------------------------------
Final entropy term                ...      0.03572664 Eh     22.42 kcal/mol

CAUTION: The rotational entropy is not quite correctly treated here
         because it includes a symmetry number that is not yet correctly
         implemented in ORCA!
For a nonlinear molecule the correct rotational entropy is:
    S(rot) = R*(ln(qrot/sn)+1.5)
    R    = 8.31441 J/mol/K = 1.987191683e-3 kcal/mol/K
    qrot = 205966.8213826
    sn is the rotational symmetry number. We have assumed 3 here
       if it is different for your molecule then you should correct
       the printed rotational entropy by manually evaluating the equation
       as given above

For convenience we print out the resulting values for sn=1 - 12:
 sn= 1  qrot/sn=  205966.8214 T*S(rot)=     8.14 kcal/mol T*S(tot)=    23.07 kcal/mol
 sn= 2  qrot/sn=  102983.4107 T*S(rot)=     7.73 kcal/mol T*S(tot)=    22.66 kcal/mol
 sn= 3  qrot/sn=   68655.6071 T*S(rot)=     7.49 kcal/mol T*S(tot)=    22.42 kcal/mol
 sn= 4  qrot/sn=   51491.7053 T*S(rot)=     7.32 kcal/mol T*S(tot)=    22.25 kcal/mol
 sn= 5  qrot/sn=   41193.3643 T*S(rot)=     7.18 kcal/mol T*S(tot)=    22.12 kcal/mol
 sn= 6  qrot/sn=   34327.8036 T*S(rot)=     7.08 kcal/mol T*S(tot)=    22.01 kcal/mol
 sn= 7  qrot/sn=   29423.8316 T*S(rot)=     6.99 kcal/mol T*S(tot)=    21.92 kcal/mol
 sn= 8  qrot/sn=   25745.8527 T*S(rot)=     6.91 kcal/mol T*S(tot)=    21.84 kcal/mol
 sn= 9  qrot/sn=   22885.2024 T*S(rot)=     6.84 kcal/mol T*S(tot)=    21.77 kcal/mol
 sn=10  qrot/sn=   20596.6821 T*S(rot)=     6.77 kcal/mol T*S(tot)=    21.71 kcal/mol
 sn=11  qrot/sn=   18724.2565 T*S(rot)=     6.72 kcal/mol T*S(tot)=    21.65 kcal/mol
 sn=12  qrot/sn=   17163.9018 T*S(rot)=     6.67 kcal/mol T*S(tot)=    21.60 kcal/mol

-------------------
GIBBS FREE ENTHALPY
-------------------

The Gibbs free enthalpy is G = H - T*S

Total enthalpy                    ...   -288.69058905 Eh
Total entropy correction          ...     -0.03572664 Eh    -22.42 kcal/mol
-----------------------------------------------------------------------
Final Gibbs free enthalpy         ...   -288.72631569 Eh

For completeness - the Gibbs free enthalpy minus the electronic energy
G-E(el)                           ...      0.12522044 Eh     78.58 kcal/mol

                             ****ORCA TERMINATED NORMALLY****
TOTAL RUN TIME: 0 days 0 hours 45 minutes 6 seconds 377 msec
