                         Program Version 3.0.3 - RELEASE   -
|  1> ! NORI PBE0 def2-TZVP UseSym TightOPT Freq TightSCF Grid3 FinalGrid5 XYZFile
|  2> % pal
|  3>     nprocs 8
|  4> end
|  5> %method
|  6>     SymThresh 5.0e-2
|  7> end
|  8> % geom
|  9>     MaxIter 10
| 10> end
| 11> % maxcore 2000
| 12> % output
| 13>     printlevel mini
| 14>     print[ P_Basis ] 0
| 15>     print[ P_SCFInfo ] 1
| 16>     print[ P_SCFIterInfo ] 1
| 17>     print[ P_OrbEn ] 0
| 18>     print[ P_Cartesian ] 0
| 19> end
| 20> % elprop
| 21>     Dipole false
| 22> end
| 23> *xyz 1 1
| 24>  C        0.7507207267     0.5043531367    -0.1285380994
| 25>  C        2.2062004864     0.1533257811     0.1341013863
| 26>  C        3.1464793694     1.3040372458     0.4444313958
| 27>  C        4.5280807815     0.8346022722     0.8208978833
| 28>  C        3.0920387231     2.5155185713    -0.5157286859
| 29>  C        2.3946780475     3.3351385575     0.5695970219
| 30>  N        2.5530890596     2.2074874828     1.5648362886
| 31>  H        0.1984916927    -0.3985862582    -0.3902760094
| 32>  H        0.6294784450     1.2036242701    -0.9585529594
| 33>  H        0.2415481548     0.9201172330     0.7478644123
| 34>  H        2.6282087489    -0.3412463427    -0.7465988526
| 35>  H        2.2748032226    -0.5780904999     0.9474601832
| 36>  H        4.9737915752     0.3291072077    -0.0383088210
| 37>  H        4.4988901290     0.1204301742     1.6478630723
| 38>  H        5.1870036364     1.6653827704     1.0866587136
| 39>  H        2.5099239436     2.3613510739    -1.4214656938
| 40>  H        4.0770183662     2.8899119571    -0.7882668132
| 41>  H        1.3387362709     3.5340394983     0.4023294143
| 42>  H        2.8905160077     4.2395345101     0.9133247726
| 43>  H        3.2106175477     2.4016223485     2.3175832071
| 44>  H        1.6843750649     1.8655290101     1.9718181831
| 45> *
| 46>
| 47>                          ****END OF INPUT****
 Total Charge           Charge          ....    1
 Multiplicity           Mult            ....    1
 Number of Electrons    NEL             ....   56
FINAL SINGLE POINT ENERGY      -291.320372108289
FINAL SINGLE POINT ENERGY      -291.320374224992

CARTESIAN COORDINATES (ANGSTROEM)
---------------------------------
  C      2.073949    0.001966   -0.862902
  C      0.813478    0.849951   -0.926404
  C     -0.393940    0.349229   -0.153734
  C     -1.537892    1.330177   -0.170641
  C     -0.783726   -1.132080   -0.367144
  C     -0.271066   -1.461937    1.034398
  N      0.000604   -0.000413    1.311342
  H      2.844126    0.443603   -1.495725
  H      1.914292   -1.017222   -1.220057
  H      2.509098   -0.051470    0.141210
  H      0.482810    0.935663   -1.966140
  H      1.032206    1.872146   -0.598639
  H     -1.890262    1.442632   -1.197904
  H     -1.227674    2.316035    0.184060
  H     -2.384939    0.983096    0.426884
  H     -0.263282   -1.635326   -1.178540
  H     -1.855577   -1.278281   -0.491224
  H      0.658953   -2.024521    1.075089
  H     -0.982548   -1.874672    1.745658
  H     -0.616332    0.416918    2.005540
  H      0.964030    0.220746    1.557039

FINAL SINGLE POINT ENERGY      -291.320375218800
                    ***********************HURRAY********************
 Multiplicity           Mult            ....    1
 Number of Electrons    NEL             ....   56
 Basis Dimension        Dim             ....  301
FINAL SINGLE POINT ENERGY      -291.320375762024

VIBRATIONAL FREQUENCIES
-----------------------

   0:         0.00 cm**-1
   1:         0.00 cm**-1
   2:         0.00 cm**-1
   3:         0.00 cm**-1
   4:         0.00 cm**-1
   5:         0.00 cm**-1
   6:        45.01 cm**-1
   7:       110.69 cm**-1
   8:       238.10 cm**-1
   9:       241.33 cm**-1
  10:       248.15 cm**-1
  11:       312.83 cm**-1
  12:       359.91 cm**-1
  13:       394.48 cm**-1
  14:       471.68 cm**-1
  15:       610.91 cm**-1
  16:       741.26 cm**-1
  17:       765.70 cm**-1
  18:       791.44 cm**-1
  19:       835.28 cm**-1
  20:       867.01 cm**-1
  21:       916.49 cm**-1
  22:       945.27 cm**-1
  23:       982.07 cm**-1
  24:      1008.64 cm**-1
  25:      1016.57 cm**-1
  26:      1038.44 cm**-1
  27:      1074.89 cm**-1
  28:      1109.45 cm**-1
  29:      1157.26 cm**-1
  30:      1216.56 cm**-1
  31:      1229.40 cm**-1
  32:      1260.66 cm**-1
  33:      1286.68 cm**-1
  34:      1297.29 cm**-1
  35:      1312.17 cm**-1
  36:      1329.66 cm**-1
  37:      1348.86 cm**-1
  38:      1399.18 cm**-1
  39:      1417.98 cm**-1
  40:      1423.71 cm**-1
  41:      1463.25 cm**-1
  42:      1479.36 cm**-1
  43:      1484.61 cm**-1
  44:      1487.62 cm**-1
  45:      1490.67 cm**-1
  46:      1495.59 cm**-1
  47:      1510.00 cm**-1
  48:      1626.29 cm**-1
  49:      3041.61 cm**-1
  50:      3051.19 cm**-1
  51:      3055.13 cm**-1
  52:      3095.47 cm**-1
  53:      3119.84 cm**-1
  54:      3121.24 cm**-1
  55:      3128.07 cm**-1
  56:      3131.42 cm**-1
  57:      3144.01 cm**-1
  58:      3149.30 cm**-1
  59:      3175.31 cm**-1
  60:      3195.70 cm**-1
  61:      3470.12 cm**-1
  62:      3544.54 cm**-1

IR SPECTRUM
-----------

 Mode    freq (cm**-1)   T**2         TX         TY         TZ
-------------------------------------------------------------------
   6:        45.01    0.517031  (  0.613110  -0.343478  -0.152151)
   7:       110.69    1.159868  ( -0.612235   0.431000   0.774128)
   8:       238.10    1.202406  (  0.790966   0.355148  -0.671304)
   9:       241.33    3.469524  ( -1.262490  -0.039848   1.368962)
  10:       248.15    0.982138  ( -0.485286  -0.750800   0.427709)
  11:       312.83    2.607926  (  1.464084  -0.174349  -0.658775)
  12:       359.91    0.917816  (  0.780828  -0.554901  -0.014403)
  13:       394.48    1.110166  (  0.257786  -0.667160   0.773699)
  14:       471.68    0.875417  ( -0.856914  -0.310168   0.211920)
  15:       610.91    0.403029  ( -0.602675  -0.174336  -0.097051)
  16:       741.26    5.925310  ( -0.835704  -1.627240   1.605926)
  17:       765.70    4.947771  ( -1.867745   0.812742   0.893728)
  18:       791.44    5.328460  (  0.508214  -0.277127   2.234587)
  19:       835.28    7.724780  ( -2.728221   0.494566  -0.192338)
  20:       867.01    5.413110  ( -0.341907  -1.293993   1.903101)
  21:       916.49    1.627138  ( -0.431699  -1.020887  -0.631319)
  22:       945.27    8.119570  ( -1.030247  -2.654624   0.105507)
  23:       982.07    1.854863  (  0.100250  -1.270457  -0.480365)
  24:      1008.64    4.170804  ( -0.878159  -0.173195   1.835659)
  25:      1016.57    3.049822  ( -0.581323  -1.093979   1.230892)
  26:      1038.44    2.988357  ( -1.397369  -0.472439  -0.901397)
  27:      1074.89    1.071568  ( -0.124983   0.292350  -0.985129)
  28:      1109.45    1.024335  ( -0.362705   0.460779   0.824902)
  29:      1157.26   14.793771  (  1.399050  -0.371512   3.563483)
  30:      1216.56    6.739595  ( -1.127685  -1.159707   2.030517)
  31:      1229.40   13.554101  (  0.133153  -2.466312   2.730142)
  32:      1260.66   26.945152  (  1.464499  -3.518739   3.524041)
  33:      1286.68    9.136627  ( -1.858453  -0.981217   2.172555)
  34:      1297.29   29.368679  (  0.467829  -4.325586   3.230963)
  35:      1312.17    9.141749  (  0.345250  -2.481149   1.693060)
  36:      1329.66   18.294225  ( -0.930230  -3.281669   2.580610)
  37:      1348.86    0.439608  ( -0.616604  -0.236564   0.058699)
  38:      1399.18    4.628094  (  1.253052  -1.658573   0.554157)
  39:      1417.98   16.295881  (  3.430425  -2.115508   0.229541)
  40:      1423.71    5.280147  ( -2.131972   0.468362   0.717970)
  41:      1463.25    2.651976  (  1.233414  -0.942518  -0.492267)
  42:      1479.36   16.254124  (  0.966558  -0.002607   3.914062)
  43:      1484.61   15.282042  (  1.594863   3.368551  -1.179543)
  44:      1487.62    7.352230  ( -1.922891  -1.846217   0.496191)
  45:      1490.67    2.812591  ( -1.415424  -0.425256   0.792669)
  46:      1495.59    5.472256  ( -1.472278   0.569497  -1.726362)
  47:      1510.00   22.799052  ( -1.282060  -3.681142  -2.757638)
  48:      1626.29   74.880890  (  1.304829   2.745415   8.101914)
  49:      3041.61   16.573901  (  1.115466  -1.551369   3.594842)
  50:      3051.19    4.519711  (  0.248024  -1.485265   1.500727)
  51:      3055.13    7.937414  (  1.424925  -2.350419  -0.618493)
  52:      3095.47    0.927031  (  0.877035  -0.104603  -0.383274)
  53:      3119.84    3.502402  (  0.054622   1.075980   1.530256)
  54:      3121.24   11.310508  ( -0.962768  -1.589037  -2.803310)
  55:      3128.07    1.710810  (  0.315250  -0.789856   0.993758)
  56:      3131.42    6.790181  (  1.900350   1.656641  -0.659082)
  57:      3144.01    1.737777  (  0.391657  -1.052887  -0.689791)
  58:      3149.30    4.417020  ( -0.924323  -1.885996   0.075263)
  59:      3175.31    0.889900  (  0.703926  -0.443395  -0.444735)
  60:      3195.70    0.104263  ( -0.179386  -0.104737   0.247213)
  61:      3470.12   39.870297  ( -2.536377  -3.221210  -4.802176)
  62:      3544.54   76.568678  (  7.881043  -1.281251  -3.579976)

--------------------------
THERMOCHEMISTRY AT 298.15K
--------------------------

Temperature         ... 298.15 K
Pressure            ... 1.00 atm
Total Mass          ... 100.18 AMU

Throughout the following assumptions are being made:
  (1) The electronic state is orbitally nondegenerate
  (2) There are no thermally accessible electronically excited states
  (3) Hindered rotations indicated by low frequency modes) are not
      treated as such but are treated as vibrations and this may
      case some error
  (4) All equations used are the standard statistical mechanics
      equations for an ideal gas
  (5) All vibrations are strinctly harmonic

------------
INNER ENERGY
------------

The inner energy is: U= E(el) + E(ZPE) + E(vib) + E(rot) + E(trans)
    E(el)   - is the total energy from the electronic structure calculation
              = E(kin-el) + E(nuc-el) + E(el-el) + E(nuc-nuc)
    E(ZPE)  - the the zero temperature vibrational energy from the frequency calculation
    E(vib)  - the the finite temperature correction to E(ZPE) due to population
              of excietd vibrational states
    E(rot)  - is the rotational thermal energy
    E(trans)- is the translational thermal energy

Summary of contributions to the inner energy U:
Electronic energy                ...   -291.32037576 Eh
Zero point energy                ...      0.19880504 Eh     124.75 kcal/mol
Thermal vibrational correction   ...      0.00538366 Eh       3.38 kcal/mol
Thermal rotational correction    ...      0.00141627 Eh       0.89 kcal/mol
Thermal translational correction ...      0.00141627 Eh       0.89 kcal/mol
-----------------------------------------------------------------------
Total thermal energy                   -291.11335452 Eh

Summary of corrections to the electronic energy:
(perhaps to be used in another calculation)
Total thermal correction                  0.00821620 Eh       5.16 kcal/mol
Non-thermal (ZPE) correction              0.19880504 Eh     124.75 kcal/mol
-----------------------------------------------------------------------
Total correction                          0.20702124 Eh     129.91 kcal/mol

--------
ENTHALPY
--------

The enthalpy is H = U + kB*T
                kB is Boltzmann's constant
Total free energy                 ...   -291.11335452 Eh
Thermal Enthalpy correction       ...      0.00094421 Eh       0.59 kcal/mol
-----------------------------------------------------------------------
Total Enthalpy                    ...   -291.11241031 Eh

-------
ENTROPY
-------

The entropy contributions are T*S = T*(S(el)+S(vib)+S(rot)+S(trans)
     S(el)   - electronic entropy
     S(vib)  - vibrational entropy
     S(rot)  - rotational entropy
     S(trans)- translational entropy
The entropies will be listed as mutliplied by the temperature to get
units of energy

Electronic entropy                ...      0.00000000 Eh      0.00 kcal/mol
Vibrational entropy               ...      0.00972635 Eh      6.10 kcal/mol
Rotational entropy                ...      0.01201189 Eh      7.54 kcal/mol
Translational entropy             ...      0.01887386 Eh     11.84 kcal/mol
-----------------------------------------------------------------------
Final entropy term                ...      0.04061209 Eh     25.48 kcal/mol

CAUTION: The rotational entropy is not quite correctly treated here
         because it includes a symmetry number that is not yet correctly
         implemented in ORCA!
For a nonlinear molecule the correct rotational entropy is:
    S(rot) = R*(ln(qrot/sn)+1.5)
    R    = 8.31441 J/mol/K = 1.987191683e-3 kcal/mol/K
    qrot = 224275.6029186
    sn is the rotational symmetry number. We have assumed 3 here
       if it is different for your molecule then you should correct
       the printed rotational entropy by manually evaluating the equation
       as given above

For convenience we print out the resulting values for sn=1 - 12:
 sn= 1  qrot/sn=  224275.6029 T*S(rot)=     8.19 kcal/mol T*S(tot)=    26.14 kcal/mol
 sn= 2  qrot/sn=  112137.8015 T*S(rot)=     7.78 kcal/mol T*S(tot)=    25.72 kcal/mol
 sn= 3  qrot/sn=   74758.5343 T*S(rot)=     7.54 kcal/mol T*S(tot)=    25.48 kcal/mol
 sn= 4  qrot/sn=   56068.9007 T*S(rot)=     7.37 kcal/mol T*S(tot)=    25.31 kcal/mol
 sn= 5  qrot/sn=   44855.1206 T*S(rot)=     7.23 kcal/mol T*S(tot)=    25.18 kcal/mol
 sn= 6  qrot/sn=   37379.2672 T*S(rot)=     7.13 kcal/mol T*S(tot)=    25.07 kcal/mol
 sn= 7  qrot/sn=   32039.3718 T*S(rot)=     7.04 kcal/mol T*S(tot)=    24.98 kcal/mol
 sn= 8  qrot/sn=   28034.4504 T*S(rot)=     6.96 kcal/mol T*S(tot)=    24.90 kcal/mol
 sn= 9  qrot/sn=   24919.5114 T*S(rot)=     6.89 kcal/mol T*S(tot)=    24.83 kcal/mol
 sn=10  qrot/sn=   22427.5603 T*S(rot)=     6.82 kcal/mol T*S(tot)=    24.77 kcal/mol
 sn=11  qrot/sn=   20388.6912 T*S(rot)=     6.77 kcal/mol T*S(tot)=    24.71 kcal/mol
 sn=12  qrot/sn=   18689.6336 T*S(rot)=     6.72 kcal/mol T*S(tot)=    24.66 kcal/mol

-------------------
GIBBS FREE ENTHALPY
-------------------

The Gibbs free enthalpy is G = H - T*S

Total enthalpy                    ...   -291.11241031 Eh
Total entropy correction          ...     -0.04061209 Eh    -25.48 kcal/mol
-----------------------------------------------------------------------
Final Gibbs free enthalpy         ...   -291.15302241 Eh

For completeness - the Gibbs free enthalpy minus the electronic energy
G-E(el)                           ...      0.16735336 Eh    105.02 kcal/mol

                             ****ORCA TERMINATED NORMALLY****
TOTAL RUN TIME: 0 days 1 hours 7 minutes 46 seconds 955 msec
