                         Program Version 3.0.3 - RELEASE   -
|  1> ! NORI PBE0 def2-TZVP UseSym TightOPT Freq TightSCF Grid3 FinalGrid5 XYZFile
|  2> % pal
|  3>     nprocs 8
|  4> end
|  5> %method
|  6>     SymThresh 5.0e-2
|  7> end
|  8> % geom
|  9>     MaxIter 10
| 10> end
| 11> % maxcore 2000
| 12> % output
| 13>     printlevel mini
| 14>     print[ P_Basis ] 0
| 15>     print[ P_SCFInfo ] 1
| 16>     print[ P_SCFIterInfo ] 1
| 17>     print[ P_OrbEn ] 0
| 18>     print[ P_Cartesian ] 0
| 19> end
| 20> % elprop
| 21>     Dipole false
| 22> end
| 23> *xyz 1 1
| 24>  C        1.7322154696     1.7681666307    -1.0630925771
| 25>  C        1.8995693351     0.8513411830     0.1365110173
| 26>  C        3.2359395285     0.8639556240     0.8401656687
| 27>  C        3.4490360494    -0.1710022730     1.9182728993
| 28>  C        2.5560509070     0.0634371504     3.1284528330
| 29>  C        4.0524930812     2.0899299307     0.8984610657
| 30>  N        4.4348332513     1.0308343071    -0.0649288540
| 31>  H        0.7162217794     1.6743861473    -1.4474655353
| 32>  H        2.3881683866     1.5067752495    -1.9003292408
| 33>  H        1.8765223861     2.8226523892    -0.8174847370
| 34>  H        1.6867431676    -0.1836852117    -0.1482014109
| 35>  H        1.1602675179     1.1124202456     0.8983575869
| 36>  H        4.4984988806    -0.1518690608     2.2345408056
| 37>  H        3.2604585034    -1.1626435026     1.4955952332
| 38>  H        2.6985733072     1.0625106899     3.5473760043
| 39>  H        2.7968492997    -0.6596735618     3.9076467575
| 40>  H        1.4999767546    -0.0587721266     2.8849276158
| 41>  H        3.7117606488     3.0005185057     0.4242036957
| 42>  H        4.7565447940     2.2180994328     1.7113456008
| 43>  H        4.2669973025     1.2173784993    -1.0475404520
| 44>  H        5.2636396494     0.4798197514     0.1276460234
| 45> *
| 46>
| 47>                          ****END OF INPUT****
 Total Charge           Charge          ....    1
 Multiplicity           Mult            ....    1
 Number of Electrons    NEL             ....   56
FINAL SINGLE POINT ENERGY      -291.310082949086
FINAL SINGLE POINT ENERGY      -291.310084549987

CARTESIAN COORDINATES (ANGSTROEM)
---------------------------------
  C      2.445637   -0.002151   -0.053788
  C      1.106537   -0.446253   -0.617834
  C     -0.136415   -0.025704    0.129920
  C     -1.445120   -0.619952   -0.332243
  C     -1.845984   -0.133479   -1.718046
  C     -0.185575    1.252508    0.862445
  N      0.000898    0.001357    1.634663
  H      3.244343   -0.352611   -0.707823
  H      2.662376   -0.430885    0.930479
  H      2.544546    1.083776    0.004562
  H      1.081319   -1.536151   -0.712788
  H      0.991262   -0.052706   -1.631479
  H     -2.232901   -0.357703    0.383589
  H     -1.356620   -1.710468   -0.325776
  H     -1.906955    0.956352   -1.760412
  H     -2.827906   -0.530424   -1.976122
  H     -1.147136   -0.468665   -2.485140
  H      0.676531    1.905912    0.886980
  H     -1.143125    1.730447    1.027263
  H      0.918919   -0.165503    2.031644
  H     -0.772297   -0.339669    2.194385

FINAL SINGLE POINT ENERGY      -291.310085154836
                    ***********************HURRAY********************
 Multiplicity           Mult            ....    1
 Number of Electrons    NEL             ....   56
 Basis Dimension        Dim             ....  301
FINAL SINGLE POINT ENERGY      -291.310085455140

VIBRATIONAL FREQUENCIES
-----------------------

   0:         0.00 cm**-1
   1:         0.00 cm**-1
   2:         0.00 cm**-1
   3:         0.00 cm**-1
   4:         0.00 cm**-1
   5:         0.00 cm**-1
   6:        41.65 cm**-1
   7:        90.21 cm**-1
   8:       200.60 cm**-1
   9:       219.08 cm**-1
  10:       262.31 cm**-1
  11:       277.14 cm**-1
  12:       340.59 cm**-1
  13:       367.54 cm**-1
  14:       433.15 cm**-1
  15:       504.69 cm**-1
  16:       671.38 cm**-1
  17:       756.52 cm**-1
  18:       796.55 cm**-1
  19:       831.07 cm**-1
  20:       870.01 cm**-1
  21:       895.58 cm**-1
  22:       914.67 cm**-1
  23:       936.13 cm**-1
  24:      1004.69 cm**-1
  25:      1025.13 cm**-1
  26:      1038.95 cm**-1
  27:      1061.00 cm**-1
  28:      1098.99 cm**-1
  29:      1111.07 cm**-1
  30:      1130.73 cm**-1
  31:      1181.94 cm**-1
  32:      1245.10 cm**-1
  33:      1269.26 cm**-1
  34:      1292.55 cm**-1
  35:      1304.39 cm**-1
  36:      1362.28 cm**-1
  37:      1393.67 cm**-1
  38:      1405.76 cm**-1
  39:      1419.60 cm**-1
  40:      1427.70 cm**-1
  41:      1470.34 cm**-1
  42:      1480.21 cm**-1
  43:      1485.88 cm**-1
  44:      1492.05 cm**-1
  45:      1493.94 cm**-1
  46:      1501.45 cm**-1
  47:      1512.02 cm**-1
  48:      1615.15 cm**-1
  49:      3041.27 cm**-1
  50:      3044.53 cm**-1
  51:      3066.25 cm**-1
  52:      3067.47 cm**-1
  53:      3093.91 cm**-1
  54:      3104.38 cm**-1
  55:      3125.24 cm**-1
  56:      3144.47 cm**-1
  57:      3148.87 cm**-1
  58:      3155.77 cm**-1
  59:      3172.81 cm**-1
  60:      3271.21 cm**-1
  61:      3511.54 cm**-1
  62:      3619.81 cm**-1

IR SPECTRUM
-----------

 Mode    freq (cm**-1)   T**2         TX         TY         TZ
-------------------------------------------------------------------
   6:        41.65    0.793223  (  0.643054   0.533599  -0.308181)
   7:        90.21    0.675469  (  0.200823   0.520554  -0.603459)
   8:       200.60    0.631420  (  0.309386  -0.644222  -0.347388)
   9:       219.08    1.476213  ( -0.658979   0.464579   0.908914)
  10:       262.31    0.547353  (  0.701267  -0.181581  -0.150353)
  11:       277.14    5.665680  (  2.144177  -0.069291  -1.031205)
  12:       340.59    1.038691  (  0.951432  -0.363019  -0.041061)
  13:       367.54    0.559085  ( -0.286155  -0.373195  -0.581314)
  14:       433.15    0.391538  (  0.260348   0.566818  -0.049750)
  15:       504.69    1.676702  ( -0.772849   1.028074   0.149898)
  16:       671.38    0.229281  ( -0.178916   0.049297  -0.441407)
  17:       756.52    4.503417  (  0.811939   0.525596   1.888894)
  18:       796.55    4.401011  ( -0.995963   0.757324   1.683903)
  19:       831.07   18.008493  (  0.187030   1.290999  -4.038172)
  20:       870.01    2.756502  (  0.111443   0.044219  -1.655937)
  21:       895.58    1.690594  ( -1.291035   0.076595  -0.133997)
  22:       914.67    6.653196  ( -2.525218   0.524686  -0.034244)
  23:       936.13    9.588109  (  0.660532  -2.003378   2.266778)
  24:      1004.69   94.553929  ( -0.839551   7.354664   6.305395)
  25:      1025.13    8.000199  ( -2.805994   0.099105   0.341725)
  26:      1038.95    3.151792  ( -0.882416  -1.540065  -0.036505)
  27:      1061.00    0.456307  (  0.036026  -0.578721  -0.346542)
  28:      1098.99    2.504843  (  1.358569   0.569538   0.578585)
  29:      1111.07    0.848539  ( -0.658298  -0.585800   0.268368)
  30:      1130.73    6.341660  (  1.321932  -0.654240   2.041109)
  31:      1181.94    3.680785  (  0.259218  -0.246084  -1.884949)
  32:      1245.10    1.202533  ( -1.070483  -0.132201  -0.197790)
  33:      1269.26    2.812795  ( -1.295966   0.465612   0.957326)
  34:      1292.55    5.120577  ( -2.136946  -0.172626  -0.724042)
  35:      1304.39    1.470866  (  0.489335   0.568681   0.952901)
  36:      1362.28    1.190325  (  0.309783   1.033577   0.161488)
  37:      1393.67    0.930151  ( -0.786008  -0.024728  -0.558328)
  38:      1405.76    3.682800  ( -1.483694  -1.050285  -0.615106)
  39:      1419.60    6.668713  ( -1.567243   0.548624  -1.977744)
  40:      1427.70    2.642390  ( -1.342199  -0.734335   0.549220)
  41:      1470.34    8.478318  (  0.321996   2.719602   0.989141)
  42:      1480.21    4.986876  ( -0.930777   0.407664  -1.988552)
  43:      1485.88   13.588492  ( -2.067156   1.401562   2.711269)
  44:      1492.05   13.214635  (  3.069756  -0.892176  -1.730681)
  45:      1493.94    5.572885  ( -0.797794   1.764210   1.350546)
  46:      1501.45   11.728249  ( -1.952296  -2.802934  -0.245667)
  47:      1512.02   20.236931  ( -0.509457   4.360634  -0.980946)
  48:      1615.15   94.780429  (  0.133531   2.784086  -9.327994)
  49:      3041.27    8.548207  (  1.424601   0.545813  -2.494154)
  50:      3044.53   17.967649  ( -0.275669  -0.305448  -4.218810)
  51:      3066.25    6.223154  (  1.034678   1.944671  -1.170833)
  52:      3067.47    6.596723  ( -1.242395  -0.376405  -2.216190)
  53:      3093.91    3.804427  (  0.755953  -1.703789  -0.574515)
  54:      3104.38    1.777783  (  0.850940   0.534986  -0.876055)
  55:      3125.24   11.320843  ( -0.124013   2.976288  -1.564344)
  56:      3144.47    9.874463  ( -0.760706   2.752642   1.311011)
  57:      3148.87    2.833894  (  0.282190  -1.577210  -0.516404)
  58:      3155.77    5.179167  ( -2.072866  -0.028378   0.938928)
  59:      3172.81    0.431671  ( -0.081127   0.651631  -0.021593)
  60:      3271.21    2.523577  (  1.548835  -0.070944  -0.345912)
  61:      3511.54   75.711366  (  2.040300  -3.687689   7.612457)
  62:      3619.81  119.970012  ( 10.631710   1.194952  -2.347093)

--------------------------
THERMOCHEMISTRY AT 298.15K
--------------------------

Temperature         ... 298.15 K
Pressure            ... 1.00 atm
Total Mass          ... 100.18 AMU

Throughout the following assumptions are being made:
  (1) The electronic state is orbitally nondegenerate
  (2) There are no thermally accessible electronically excited states
  (3) Hindered rotations indicated by low frequency modes) are not
      treated as such but are treated as vibrations and this may
      case some error
  (4) All equations used are the standard statistical mechanics
      equations for an ideal gas
  (5) All vibrations are strinctly harmonic

------------
INNER ENERGY
------------

The inner energy is: U= E(el) + E(ZPE) + E(vib) + E(rot) + E(trans)
    E(el)   - is the total energy from the electronic structure calculation
              = E(kin-el) + E(nuc-el) + E(el-el) + E(nuc-nuc)
    E(ZPE)  - the the zero temperature vibrational energy from the frequency calculation
    E(vib)  - the the finite temperature correction to E(ZPE) due to population
              of excietd vibrational states
    E(rot)  - is the rotational thermal energy
    E(trans)- is the translational thermal energy

Summary of contributions to the inner energy U:
Electronic energy                ...   -291.31008546 Eh
Zero point energy                ...      0.19774539 Eh     124.09 kcal/mol
Thermal vibrational correction   ...      0.00575365 Eh       3.61 kcal/mol
Thermal rotational correction    ...      0.00141627 Eh       0.89 kcal/mol
Thermal translational correction ...      0.00141627 Eh       0.89 kcal/mol
-----------------------------------------------------------------------
Total thermal energy                   -291.10375387 Eh

Summary of corrections to the electronic energy:
(perhaps to be used in another calculation)
Total thermal correction                  0.00858620 Eh       5.39 kcal/mol
Non-thermal (ZPE) correction              0.19774539 Eh     124.09 kcal/mol
-----------------------------------------------------------------------
Total correction                          0.20633159 Eh     129.47 kcal/mol

--------
ENTHALPY
--------

The enthalpy is H = U + kB*T
                kB is Boltzmann's constant
Total free energy                 ...   -291.10375387 Eh
Thermal Enthalpy correction       ...      0.00094421 Eh       0.59 kcal/mol
-----------------------------------------------------------------------
Total Enthalpy                    ...   -291.10280966 Eh

-------
ENTROPY
-------

The entropy contributions are T*S = T*(S(el)+S(vib)+S(rot)+S(trans)
     S(el)   - electronic entropy
     S(vib)  - vibrational entropy
     S(rot)  - rotational entropy
     S(trans)- translational entropy
The entropies will be listed as mutliplied by the temperature to get
units of energy

Electronic entropy                ...      0.00000000 Eh      0.00 kcal/mol
Vibrational entropy               ...      0.01059950 Eh      6.65 kcal/mol
Rotational entropy                ...      0.01215569 Eh      7.63 kcal/mol
Translational entropy             ...      0.01887386 Eh     11.84 kcal/mol
-----------------------------------------------------------------------
Final entropy term                ...      0.04162905 Eh     26.12 kcal/mol

CAUTION: The rotational entropy is not quite correctly treated here
         because it includes a symmetry number that is not yet correctly
         implemented in ORCA!
For a nonlinear molecule the correct rotational entropy is:
    S(rot) = R*(ln(qrot/sn)+1.5)
    R    = 8.31441 J/mol/K = 1.987191683e-3 kcal/mol/K
    qrot = 261171.4310910
    sn is the rotational symmetry number. We have assumed 3 here
       if it is different for your molecule then you should correct
       the printed rotational entropy by manually evaluating the equation
       as given above

For convenience we print out the resulting values for sn=1 - 12:
 sn= 1  qrot/sn=  261171.4311 T*S(rot)=     8.28 kcal/mol T*S(tot)=    26.77 kcal/mol
 sn= 2  qrot/sn=  130585.7155 T*S(rot)=     7.87 kcal/mol T*S(tot)=    26.36 kcal/mol
 sn= 3  qrot/sn=   87057.1437 T*S(rot)=     7.63 kcal/mol T*S(tot)=    26.12 kcal/mol
 sn= 4  qrot/sn=   65292.8578 T*S(rot)=     7.46 kcal/mol T*S(tot)=    25.95 kcal/mol
 sn= 5  qrot/sn=   52234.2862 T*S(rot)=     7.33 kcal/mol T*S(tot)=    25.82 kcal/mol
 sn= 6  qrot/sn=   43528.5718 T*S(rot)=     7.22 kcal/mol T*S(tot)=    25.71 kcal/mol
 sn= 7  qrot/sn=   37310.2044 T*S(rot)=     7.13 kcal/mol T*S(tot)=    25.62 kcal/mol
 sn= 8  qrot/sn=   32646.4289 T*S(rot)=     7.05 kcal/mol T*S(tot)=    25.54 kcal/mol
 sn= 9  qrot/sn=   29019.0479 T*S(rot)=     6.98 kcal/mol T*S(tot)=    25.47 kcal/mol
 sn=10  qrot/sn=   26117.1431 T*S(rot)=     6.91 kcal/mol T*S(tot)=    25.41 kcal/mol
 sn=11  qrot/sn=   23742.8574 T*S(rot)=     6.86 kcal/mol T*S(tot)=    25.35 kcal/mol
 sn=12  qrot/sn=   21764.2859 T*S(rot)=     6.81 kcal/mol T*S(tot)=    25.30 kcal/mol

-------------------
GIBBS FREE ENTHALPY
-------------------

The Gibbs free enthalpy is G = H - T*S

Total enthalpy                    ...   -291.10280966 Eh
Total entropy correction          ...     -0.04162905 Eh    -26.12 kcal/mol
-----------------------------------------------------------------------
Final Gibbs free enthalpy         ...   -291.14443871 Eh

For completeness - the Gibbs free enthalpy minus the electronic energy
G-E(el)                           ...      0.16564674 Eh    103.94 kcal/mol

                             ****ORCA TERMINATED NORMALLY****
TOTAL RUN TIME: 0 days 1 hours 1 minutes 40 seconds 31 msec
