                         Program Version 3.0.3 - RELEASE   -
|  1> ! NORI PBE0 def2-TZVP UseSym TightOPT Freq TightSCF Grid3 FinalGrid5 XYZFile
|  2> % pal
|  3>     nprocs 8
|  4> end
|  5> %method
|  6>     SymThresh 5.0e-2
|  7> end
|  8> % geom
|  9>     MaxIter 10
| 10> end
| 11> % maxcore 2000
| 12> % output
| 13>     printlevel mini
| 14>     print[ P_Basis ] 0
| 15>     print[ P_SCFInfo ] 1
| 16>     print[ P_SCFIterInfo ] 1
| 17>     print[ P_OrbEn ] 0
| 18>     print[ P_Cartesian ] 0
| 19> end
| 20> % elprop
| 21>     Dipole false
| 22> end
| 23> *xyz 1 1
| 24>  C        1.2538814658    -0.4046519119    -0.4670278786
| 25>  C        2.2548615509     0.2600095699     0.0878742986
| 26>  C        3.0781430037    -0.2389835812     1.2075890781
| 27>  N        3.2589589871    -1.7083095235     1.3226056568
| 28>  C        4.4181267808    -0.8406270969     0.9626244697
| 29>  C        5.4554190409    -0.7551236254     1.9486309565
| 30>  N        6.2668735101    -0.6773268977     2.7577405839
| 31>  H        0.6917522318     0.0266910923    -1.2857880985
| 32>  H        0.9272834056    -1.3848907146    -0.1310890277
| 33>  H        2.5234136552     1.2578737505    -0.2455212625
| 34>  H        2.9540688378     0.2285832581     2.1813949922
| 35>  H        3.2578266366    -2.1364540398     2.2450972541
| 36>  H        2.8756508702    -2.2873207468     0.5796176447
| 37>  H        4.7350800236    -0.9642395329    -0.0684486673
| 38> *
| 39>
| 40>                          ****END OF INPUT****
 Total Charge           Charge          ....    1
 Multiplicity           Mult            ....    1
 Number of Electrons    NEL             ....   50
FINAL SINGLE POINT ENERGY      -303.645814781976

CARTESIAN COORDINATES (ANGSTROEM)
---------------------------------
  C     -2.875166    0.052447    0.342288
  C     -1.887798    0.229536   -0.521193
  C     -0.488827    0.524124   -0.151151
  N     -0.000151    0.000669    1.149723
  C      0.539085   -0.553124   -0.126738
  C      1.917566   -0.262044   -0.392880
  N      3.015901   -0.000793   -0.604089
  H     -3.879534   -0.157616   -0.003331
  H     -2.749236    0.128152    1.418844
  H     -2.061152    0.190920   -1.592714
  H     -0.106176    1.521870   -0.352674
  H      0.619340    0.577109    1.713923
  H     -0.627305   -0.600789    1.678153
  H      0.209784   -1.569534   -0.319663

FINAL SINGLE POINT ENERGY      -303.645815704936
                    ***********************HURRAY********************
 Multiplicity           Mult            ....    1
 Number of Electrons    NEL             ....   50
 Basis Dimension        Dim             ....  259
FINAL SINGLE POINT ENERGY      -303.645816524761

VIBRATIONAL FREQUENCIES
-----------------------

   0:         0.00 cm**-1
   1:         0.00 cm**-1
   2:         0.00 cm**-1
   3:         0.00 cm**-1
   4:         0.00 cm**-1
   5:         0.00 cm**-1
   6:        76.80 cm**-1
   7:       131.11 cm**-1
   8:       172.77 cm**-1
   9:       270.50 cm**-1
  10:       295.59 cm**-1
  11:       473.60 cm**-1
  12:       538.87 cm**-1
  13:       568.98 cm**-1
  14:       649.19 cm**-1
  15:       788.97 cm**-1
  16:       865.54 cm**-1
  17:       904.22 cm**-1
  18:       944.69 cm**-1
  19:      1003.19 cm**-1
  20:      1019.04 cm**-1
  21:      1019.99 cm**-1
  22:      1062.30 cm**-1
  23:      1092.41 cm**-1
  24:      1106.92 cm**-1
  25:      1151.22 cm**-1
  26:      1185.23 cm**-1
  27:      1238.97 cm**-1
  28:      1316.95 cm**-1
  29:      1346.71 cm**-1
  30:      1440.83 cm**-1
  31:      1467.40 cm**-1
  32:      1607.61 cm**-1
  33:      1724.37 cm**-1
  34:      2400.87 cm**-1
  35:      3155.70 cm**-1
  36:      3169.07 cm**-1
  37:      3188.72 cm**-1
  38:      3191.46 cm**-1
  39:      3256.27 cm**-1
  40:      3480.21 cm**-1
  41:      3586.77 cm**-1

IR SPECTRUM
-----------

 Mode    freq (cm**-1)   T**2         TX         TY         TZ
-------------------------------------------------------------------
   6:        76.80    4.824834  (  0.038759   2.194296   0.091634)
   7:       131.11   13.423608  ( -0.621219   0.471294  -3.579885)
   8:       172.77    3.862594  ( -0.893485   1.665246   0.539660)
   9:       270.50    5.894608  (  2.420492  -0.141696  -0.125500)
  10:       295.59    0.984503  ( -0.211616   0.683469   0.687453)
  11:       473.60    1.321834  (  1.109609   0.235778  -0.187110)
  12:       538.87    2.834710  ( -0.807168   1.048051   1.041527)
  13:       568.98    1.166918  (  0.704534   0.734871   0.361269)
  14:       649.19   19.026886  ( -0.765178   4.152303  -1.095341)
  15:       788.97    4.768939  (  1.954629  -0.956491  -0.183004)
  16:       865.54    4.630563  ( -1.190942   0.742915  -1.631041)
  17:       904.22   26.928199  ( -1.981976   1.345714   4.603154)
  18:       944.69    9.616286  ( -1.953610   1.570504   1.825708)
  19:      1003.19   64.545039  ( -1.587129   7.851962  -0.610541)
  20:      1019.04   29.473939  ( -2.150404   4.962061  -0.477128)
  21:      1019.99    8.729079  (  1.697086  -2.293637   0.766947)
  22:      1062.30   54.052803  ( -5.802933   4.261000  -1.490854)
  23:      1092.41    1.851950  (  0.160421   0.356608  -1.303475)
  24:      1106.92    9.590325  ( -2.694013   1.223086   0.914702)
  25:      1151.22    3.969083  (  1.651068   0.682017   0.881993)
  26:      1185.23    4.038281  ( -2.005378  -0.129370   0.001375)
  27:      1238.97    1.526997  ( -0.377298   0.136066  -1.168816)
  28:      1316.95    2.875529  ( -1.513210   0.681610   0.348041)
  29:      1346.71   15.043175  (  3.769745   0.871612  -0.269245)
  30:      1440.83    5.239359  (  0.924120   0.823308  -1.925493)
  31:      1467.40   17.256093  ( -3.284124  -0.557013   2.482007)
  32:      1607.61   76.848281  (  0.923358  -0.703370   8.689129)
  33:      1724.37    0.609332  ( -0.628530  -0.010729  -0.462782)
  34:      2400.87    8.605584  ( -2.742987  -0.695385   0.773333)
  35:      3155.70    6.907413  ( -2.261958  -0.377779  -1.283839)
  36:      3169.07    6.465398  ( -0.610461   2.319919  -0.843038)
  37:      3188.72    5.735418  ( -0.479682  -0.000603  -2.346343)
  38:      3191.46   17.696401  ( -0.246103   4.075082   1.014664)
  39:      3256.27    2.695527  (  1.601911   0.322262   0.159862)
  40:      3480.21  107.970518  ( -0.678136   0.447966  10.359053)
  41:      3586.77  145.682116  (  9.054085   7.822629   1.584973)

--------------------------
THERMOCHEMISTRY AT 298.15K
--------------------------

Temperature         ... 298.15 K
Pressure            ... 1.00 atm
Total Mass          ... 95.12 AMU

Throughout the following assumptions are being made:
  (1) The electronic state is orbitally nondegenerate
  (2) There are no thermally accessible electronically excited states
  (3) Hindered rotations indicated by low frequency modes) are not
      treated as such but are treated as vibrations and this may
      case some error
  (4) All equations used are the standard statistical mechanics
      equations for an ideal gas
  (5) All vibrations are strinctly harmonic

------------
INNER ENERGY
------------

The inner energy is: U= E(el) + E(ZPE) + E(vib) + E(rot) + E(trans)
    E(el)   - is the total energy from the electronic structure calculation
              = E(kin-el) + E(nuc-el) + E(el-el) + E(nuc-nuc)
    E(ZPE)  - the the zero temperature vibrational energy from the frequency calculation
    E(vib)  - the the finite temperature correction to E(ZPE) due to population
              of excietd vibrational states
    E(rot)  - is the rotational thermal energy
    E(trans)- is the translational thermal energy

Summary of contributions to the inner energy U:
Electronic energy                ...   -303.64581652 Eh
Zero point energy                ...      0.11594293 Eh      72.76 kcal/mol
Thermal vibrational correction   ...      0.00421430 Eh       2.64 kcal/mol
Thermal rotational correction    ...      0.00141627 Eh       0.89 kcal/mol
Thermal translational correction ...      0.00141627 Eh       0.89 kcal/mol
-----------------------------------------------------------------------
Total thermal energy                   -303.52282675 Eh

Summary of corrections to the electronic energy:
(perhaps to be used in another calculation)
Total thermal correction                  0.00704684 Eh       4.42 kcal/mol
Non-thermal (ZPE) correction              0.11594293 Eh      72.76 kcal/mol
-----------------------------------------------------------------------
Total correction                          0.12298978 Eh      77.18 kcal/mol

--------
ENTHALPY
--------

The enthalpy is H = U + kB*T
                kB is Boltzmann's constant
Total free energy                 ...   -303.52282675 Eh
Thermal Enthalpy correction       ...      0.00094421 Eh       0.59 kcal/mol
-----------------------------------------------------------------------
Total Enthalpy                    ...   -303.52188254 Eh

-------
ENTROPY
-------

The entropy contributions are T*S = T*(S(el)+S(vib)+S(rot)+S(trans)
     S(el)   - electronic entropy
     S(vib)  - vibrational entropy
     S(rot)  - rotational entropy
     S(trans)- translational entropy
The entropies will be listed as mutliplied by the temperature to get
units of energy

Electronic entropy                ...      0.00000000 Eh      0.00 kcal/mol
Vibrational entropy               ...      0.00751976 Eh      4.72 kcal/mol
Rotational entropy                ...      0.01192510 Eh      7.48 kcal/mol
Translational entropy             ...      0.01880046 Eh     11.80 kcal/mol
-----------------------------------------------------------------------
Final entropy term                ...      0.03824532 Eh     24.00 kcal/mol

CAUTION: The rotational entropy is not quite correctly treated here
         because it includes a symmetry number that is not yet correctly
         implemented in ORCA!
For a nonlinear molecule the correct rotational entropy is:
    S(rot) = R*(ln(qrot/sn)+1.5)
    R    = 8.31441 J/mol/K = 1.987191683e-3 kcal/mol/K
    qrot = 204579.9927549
    sn is the rotational symmetry number. We have assumed 3 here
       if it is different for your molecule then you should correct
       the printed rotational entropy by manually evaluating the equation
       as given above

For convenience we print out the resulting values for sn=1 - 12:
 sn= 1  qrot/sn=  204579.9928 T*S(rot)=     8.13 kcal/mol T*S(tot)=    24.65 kcal/mol
 sn= 2  qrot/sn=  102289.9964 T*S(rot)=     7.72 kcal/mol T*S(tot)=    24.24 kcal/mol
 sn= 3  qrot/sn=   68193.3309 T*S(rot)=     7.48 kcal/mol T*S(tot)=    24.00 kcal/mol
 sn= 4  qrot/sn=   51144.9982 T*S(rot)=     7.31 kcal/mol T*S(tot)=    23.83 kcal/mol
 sn= 5  qrot/sn=   40915.9986 T*S(rot)=     7.18 kcal/mol T*S(tot)=    23.70 kcal/mol
 sn= 6  qrot/sn=   34096.6655 T*S(rot)=     7.07 kcal/mol T*S(tot)=    23.59 kcal/mol
 sn= 7  qrot/sn=   29225.7133 T*S(rot)=     6.98 kcal/mol T*S(tot)=    23.50 kcal/mol
 sn= 8  qrot/sn=   25572.4991 T*S(rot)=     6.90 kcal/mol T*S(tot)=    23.42 kcal/mol
 sn= 9  qrot/sn=   22731.1103 T*S(rot)=     6.83 kcal/mol T*S(tot)=    23.35 kcal/mol
 sn=10  qrot/sn=   20457.9993 T*S(rot)=     6.77 kcal/mol T*S(tot)=    23.29 kcal/mol
 sn=11  qrot/sn=   18598.1812 T*S(rot)=     6.71 kcal/mol T*S(tot)=    23.23 kcal/mol
 sn=12  qrot/sn=   17048.3327 T*S(rot)=     6.66 kcal/mol T*S(tot)=    23.18 kcal/mol

-------------------
GIBBS FREE ENTHALPY
-------------------

The Gibbs free enthalpy is G = H - T*S

Total enthalpy                    ...   -303.52188254 Eh
Total entropy correction          ...     -0.03824532 Eh    -24.00 kcal/mol
-----------------------------------------------------------------------
Final Gibbs free enthalpy         ...   -303.56012786 Eh

For completeness - the Gibbs free enthalpy minus the electronic energy
G-E(el)                           ...      0.08568867 Eh     53.77 kcal/mol

                             ****ORCA TERMINATED NORMALLY****
TOTAL RUN TIME: 0 days 0 hours 26 minutes 41 seconds 368 msec
