                         Program Version 3.0.3 - RELEASE   -
|  1> ! NORI PBE0 def2-TZVP UseSym TightOPT Freq TightSCF Grid3 FinalGrid5 XYZFile
|  2> % pal
|  3>     nprocs 8
|  4> end
|  5> %method
|  6>     SymThresh 5.0e-2
|  7> end
|  8> % geom
|  9>     MaxIter 10
| 10> end
| 11> % maxcore 2000
| 12> % output
| 13>     printlevel mini
| 14>     print[ P_Basis ] 0
| 15>     print[ P_SCFInfo ] 1
| 16>     print[ P_SCFIterInfo ] 1
| 17>     print[ P_OrbEn ] 0
| 18>     print[ P_Cartesian ] 0
| 19> end
| 20> % elprop
| 21>     Dipole false
| 22> end
| 23> *xyz 1 1
| 24>  C        0.9920764300     0.0307107228    -0.0952271110
| 25>  C        2.1855540944     0.0896993328    -0.0071320183
| 26>  C        3.5981088522     0.1790758483     0.1221504302
| 27>  N        4.4143067806    -0.6070949614    -0.8688595818
| 28>  C        4.4176051137     0.8809450525    -0.9097765212
| 29>  C        5.6560917494     1.5053672067    -0.5491121012
| 30>  N        6.6511239488     1.9889994988    -0.2405318220
| 31>  H       -0.0733128256    -0.0226585531    -0.1710232072
| 32>  H        4.0229600254     0.1288205984     1.1210829323
| 33>  H        5.2561346497    -1.0751063611    -0.5396581543
| 34>  H        3.9077847795    -1.0956286169    -1.6038088107
| 35>  H        3.8958964018     1.2887702323    -1.7696840348
| 36> *
| 37>
| 38>                          ****END OF INPUT****
 Total Charge           Charge          ....    1
 Multiplicity           Mult            ....    1
 Number of Electrons    NEL             ....   48
FINAL SINGLE POINT ENERGY      -302.384847481369

CARTESIAN COORDINATES (ANGSTROEM)
---------------------------------
  C     -3.036083    0.028999   -0.560137
  C     -1.891339    0.254580   -0.287369
  C     -0.530483    0.538123    0.008848
  N      0.000090   -0.000141    1.310951
  C      0.492975   -0.548753    0.017840
  C      1.860938   -0.257366   -0.295032
  N      2.953606    0.000410   -0.537471
  H     -4.058101   -0.169351   -0.804226
  H     -0.164287    1.541828   -0.189002
  H      0.635059    0.582511    1.852634
  H     -0.625235   -0.584634    1.861077
  H      0.150371   -1.559568   -0.179268

FINAL SINGLE POINT ENERGY      -302.384847741377
                    ***********************HURRAY********************
 Multiplicity           Mult            ....    1
 Number of Electrons    NEL             ....   48
 Basis Dimension        Dim             ....  247
FINAL SINGLE POINT ENERGY      -302.384847951931

VIBRATIONAL FREQUENCIES
-----------------------

   0:         0.00 cm**-1
   1:         0.00 cm**-1
   2:         0.00 cm**-1
   3:         0.00 cm**-1
   4:         0.00 cm**-1
   5:         0.00 cm**-1
   6:       114.27 cm**-1
   7:       135.25 cm**-1
   8:       216.33 cm**-1
   9:       232.98 cm**-1
  10:       462.46 cm**-1
  11:       484.69 cm**-1
  12:       505.95 cm**-1
  13:       554.97 cm**-1
  14:       752.09 cm**-1
  15:       760.29 cm**-1
  16:       786.55 cm**-1
  17:       852.63 cm**-1
  18:       882.56 cm**-1
  19:       954.52 cm**-1
  20:      1028.10 cm**-1
  21:      1077.70 cm**-1
  22:      1111.69 cm**-1
  23:      1137.60 cm**-1
  24:      1180.02 cm**-1
  25:      1229.66 cm**-1
  26:      1343.44 cm**-1
  27:      1446.87 cm**-1
  28:      1610.79 cm**-1
  29:      2260.58 cm**-1
  30:      2401.79 cm**-1
  31:      3180.71 cm**-1
  32:      3196.72 cm**-1
  33:      3442.63 cm**-1
  34:      3472.07 cm**-1
  35:      3583.73 cm**-1

IR SPECTRUM
-----------

 Mode    freq (cm**-1)   T**2         TX         TY         TZ
-------------------------------------------------------------------
   6:       114.27    5.679507  ( -0.659035  -0.011812  -2.290205)
   7:       135.25    0.765959  (  0.353009  -0.701183   0.386892)
   8:       216.33    8.687413  ( -0.772254   2.841181   0.136836)
   9:       232.98   14.896814  (  1.893892   0.353265  -3.344427)
  10:       462.46   10.964440  ( -0.811811   2.648425   1.814180)
  11:       484.69   17.036093  ( -0.785836   3.127172  -2.576694)
  12:       505.95    6.143572  ( -0.418574   0.297843   2.424801)
  13:       554.97    0.579406  ( -0.401646   0.642436  -0.073232)
  14:       752.09   34.184382  ( -1.093998   5.270489   2.282432)
  15:       760.29   13.284184  (  3.142481  -0.666916   1.721690)
  16:       786.55   31.511687  (  0.601142   2.309818  -5.080852)
  17:       852.63    0.769207  (  0.202660   0.004391   0.853298)
  18:       882.56   35.234854  (  0.306271   0.143333   5.926256)
  19:       954.52   11.702634  ( -2.375068   2.326027   0.807020)
  20:      1028.10   51.845539  (  2.844610  -6.606802   0.322326)
  21:      1077.70   46.952828  (  6.260126  -2.776408  -0.234965)
  22:      1111.69    0.530248  (  0.698304   0.065678  -0.195721)
  23:      1137.60    1.063583  ( -0.678158   0.154980  -0.761358)
  24:      1180.02   11.964767  (  3.422593   0.464084  -0.187746)
  25:      1229.66    5.443826  ( -1.828268   0.296845  -1.418853)
  26:      1343.44   32.104526  (  5.495750   1.313910   0.418211)
  27:      1446.87   11.073466  (  2.724349  -0.177376   1.902610)
  28:      1610.79   82.921993  (  0.943325  -0.047701   9.057033)
  29:      2260.58   87.452617  ( -8.931100  -0.920765  -2.615390)
  30:      2401.79   11.921967  ( -3.212697  -0.742771   1.024127)
  31:      3180.71   12.068304  ( -0.686381   3.101513  -1.406343)
  32:      3196.72   22.988007  ( -0.332033   4.691303   0.932435)
  33:      3442.63  110.532908  ( 10.021141   1.529881   2.787312)
  34:      3472.07  143.099472  (  0.438108   0.258560  11.951597)
  35:      3583.73  152.595960  (  9.083437   8.366899  -0.286593)

--------------------------
THERMOCHEMISTRY AT 298.15K
--------------------------

Temperature         ... 298.15 K
Pressure            ... 1.00 atm
Total Mass          ... 93.11 AMU

Throughout the following assumptions are being made:
  (1) The electronic state is orbitally nondegenerate
  (2) There are no thermally accessible electronically excited states
  (3) Hindered rotations indicated by low frequency modes) are not
      treated as such but are treated as vibrations and this may
      case some error
  (4) All equations used are the standard statistical mechanics
      equations for an ideal gas
  (5) All vibrations are strinctly harmonic

------------
INNER ENERGY
------------

The inner energy is: U= E(el) + E(ZPE) + E(vib) + E(rot) + E(trans)
    E(el)   - is the total energy from the electronic structure calculation
              = E(kin-el) + E(nuc-el) + E(el-el) + E(nuc-nuc)
    E(ZPE)  - the the zero temperature vibrational energy from the frequency calculation
    E(vib)  - the the finite temperature correction to E(ZPE) due to population
              of excietd vibrational states
    E(rot)  - is the rotational thermal energy
    E(trans)- is the translational thermal energy

Summary of contributions to the inner energy U:
Electronic energy                ...   -302.38484795 Eh
Zero point energy                ...      0.09203712 Eh      57.75 kcal/mol
Thermal vibrational correction   ...      0.00390895 Eh       2.45 kcal/mol
Thermal rotational correction    ...      0.00141627 Eh       0.89 kcal/mol
Thermal translational correction ...      0.00141627 Eh       0.89 kcal/mol
-----------------------------------------------------------------------
Total thermal energy                   -302.28606933 Eh

Summary of corrections to the electronic energy:
(perhaps to be used in another calculation)
Total thermal correction                  0.00674149 Eh       4.23 kcal/mol
Non-thermal (ZPE) correction              0.09203712 Eh      57.75 kcal/mol
-----------------------------------------------------------------------
Total correction                          0.09877862 Eh      61.98 kcal/mol

--------
ENTHALPY
--------

The enthalpy is H = U + kB*T
                kB is Boltzmann's constant
Total free energy                 ...   -302.28606933 Eh
Thermal Enthalpy correction       ...      0.00094421 Eh       0.59 kcal/mol
-----------------------------------------------------------------------
Total Enthalpy                    ...   -302.28512512 Eh

-------
ENTROPY
-------

The entropy contributions are T*S = T*(S(el)+S(vib)+S(rot)+S(trans)
     S(el)   - electronic entropy
     S(vib)  - vibrational entropy
     S(rot)  - rotational entropy
     S(trans)- translational entropy
The entropies will be listed as mutliplied by the temperature to get
units of energy

Electronic entropy                ...      0.00000000 Eh      0.00 kcal/mol
Vibrational entropy               ...      0.00668878 Eh      4.20 kcal/mol
Rotational entropy                ...      0.01194520 Eh      7.50 kcal/mol
Translational entropy             ...      0.01877012 Eh     11.78 kcal/mol
-----------------------------------------------------------------------
Final entropy term                ...      0.03740410 Eh     23.47 kcal/mol

CAUTION: The rotational entropy is not quite correctly treated here
         because it includes a symmetry number that is not yet correctly
         implemented in ORCA!
For a nonlinear molecule the correct rotational entropy is:
    S(rot) = R*(ln(qrot/sn)+1.5)
    R    = 8.31441 J/mol/K = 1.987191683e-3 kcal/mol/K
    qrot = 208981.2948582
    sn is the rotational symmetry number. We have assumed 3 here
       if it is different for your molecule then you should correct
       the printed rotational entropy by manually evaluating the equation
       as given above

For convenience we print out the resulting values for sn=1 - 12:
 sn= 1  qrot/sn=  208981.2949 T*S(rot)=     8.15 kcal/mol T*S(tot)=    24.12 kcal/mol
 sn= 2  qrot/sn=  104490.6474 T*S(rot)=     7.74 kcal/mol T*S(tot)=    23.71 kcal/mol
 sn= 3  qrot/sn=   69660.4316 T*S(rot)=     7.50 kcal/mol T*S(tot)=    23.47 kcal/mol
 sn= 4  qrot/sn=   52245.3237 T*S(rot)=     7.33 kcal/mol T*S(tot)=    23.30 kcal/mol
 sn= 5  qrot/sn=   41796.2590 T*S(rot)=     7.19 kcal/mol T*S(tot)=    23.17 kcal/mol
 sn= 6  qrot/sn=   34830.2158 T*S(rot)=     7.09 kcal/mol T*S(tot)=    23.06 kcal/mol
 sn= 7  qrot/sn=   29854.4707 T*S(rot)=     6.99 kcal/mol T*S(tot)=    22.97 kcal/mol
 sn= 8  qrot/sn=   26122.6619 T*S(rot)=     6.91 kcal/mol T*S(tot)=    22.89 kcal/mol
 sn= 9  qrot/sn=   23220.1439 T*S(rot)=     6.84 kcal/mol T*S(tot)=    22.82 kcal/mol
 sn=10  qrot/sn=   20898.1295 T*S(rot)=     6.78 kcal/mol T*S(tot)=    22.76 kcal/mol
 sn=11  qrot/sn=   18998.2995 T*S(rot)=     6.73 kcal/mol T*S(tot)=    22.70 kcal/mol
 sn=12  qrot/sn=   17415.1079 T*S(rot)=     6.67 kcal/mol T*S(tot)=    22.65 kcal/mol

-------------------
GIBBS FREE ENTHALPY
-------------------

The Gibbs free enthalpy is G = H - T*S

Total enthalpy                    ...   -302.28512512 Eh
Total entropy correction          ...     -0.03740410 Eh    -23.47 kcal/mol
-----------------------------------------------------------------------
Final Gibbs free enthalpy         ...   -302.32252922 Eh

For completeness - the Gibbs free enthalpy minus the electronic energy
G-E(el)                           ...      0.06231873 Eh     39.11 kcal/mol

                             ****ORCA TERMINATED NORMALLY****
TOTAL RUN TIME: 0 days 0 hours 18 minutes 28 seconds 112 msec
