                         Program Version 3.0.3 - RELEASE   -
|  1> ! NORI PBE0 def2-TZVP UseSym TightOPT Freq TightSCF Grid3 FinalGrid5 XYZFile
|  2> % pal
|  3>     nprocs 8
|  4> end
|  5> %method
|  6>     SymThresh 5.0e-2
|  7> end
|  8> % geom
|  9>     MaxIter 10
| 10> end
| 11> % maxcore 2000
| 12> % output
| 13>     printlevel mini
| 14>     print[ P_Basis ] 0
| 15>     print[ P_SCFInfo ] 1
| 16>     print[ P_SCFIterInfo ] 1
| 17>     print[ P_OrbEn ] 0
| 18>     print[ P_Cartesian ] 0
| 19> end
| 20> % elprop
| 21>     Dipole false
| 22> end
| 23> *xyz 1 1
| 24>  C        1.1438680943    -0.4720897242     0.0577591225
| 25>  C        2.5983736453    -0.0422780084    -0.0848710022
| 26>  C        3.0182868201     0.7942833999     1.0830779303
| 27>  N        4.2321040435     1.6532671467     0.9248436808
| 28>  C        2.8805961767     2.2709684283     1.0694820916
| 29>  C        2.6702609420     3.0084736671     2.2817646813
| 30>  N        2.5088710885     3.5744150230     3.2680481946
| 31>  H        0.8597856006    -1.0917107263    -0.7926708543
| 32>  H        0.4691814293     0.3857776931     0.0865395514
| 33>  H        0.9898667279    -1.0616521895     0.9637147874
| 34>  H        2.7386847837     0.5225257890    -1.0137918506
| 35>  H        3.2504809414    -0.9187623156    -0.1346677227
| 36>  H        2.9941109894     0.3304542498     2.0646537220
| 37>  H        4.8760379874     1.7496479054     1.7060385340
| 38>  H        4.6707478447     1.6991310096     0.0089860711
| 39>  H        2.5271028852     2.7406686520     0.1566630627
| 40> *
| 41>
| 42>                          ****END OF INPUT****
 Total Charge           Charge          ....    1
 Multiplicity           Mult            ....    1
 Number of Electrons    NEL             ....   52
FINAL SINGLE POINT ENERGY      -304.885303364470

CARTESIAN COORDINATES (ANGSTROEM)
---------------------------------
  C     -2.250893    0.231722   -1.586342
  C     -1.983520    0.124387   -0.090211
  C     -0.557193    0.458569    0.216520
  N     -0.000191   -0.000051    1.526309
  C      0.495729   -0.585530    0.245424
  C      1.857439   -0.276542   -0.083479
  N      2.941007   -0.000144   -0.345246
  H     -3.296045   -0.000464   -1.789131
  H     -1.636265   -0.466062   -2.158462
  H     -2.058065    1.241337   -1.953923
  H     -2.210794   -0.887374    0.265255
  H     -2.626807    0.816026    0.461454
  H     -0.216086    1.461307   -0.022556
  H      0.632115    0.611289    2.036673
  H     -0.582424   -0.590122    2.114528
  H      0.192220   -1.618540    0.103374

FINAL SINGLE POINT ENERGY      -304.885303852263
                    ***********************HURRAY********************
 Multiplicity           Mult            ....    1
 Number of Electrons    NEL             ....   52
 Basis Dimension        Dim             ....  271
FINAL SINGLE POINT ENERGY      -304.885304009139

VIBRATIONAL FREQUENCIES
-----------------------

   0:         0.00 cm**-1
   1:         0.00 cm**-1
   2:         0.00 cm**-1
   3:         0.00 cm**-1
   4:         0.00 cm**-1
   5:         0.00 cm**-1
   6:        93.59 cm**-1
   7:       121.03 cm**-1
   8:       160.26 cm**-1
   9:       220.67 cm**-1
  10:       251.95 cm**-1
  11:       361.27 cm**-1
  12:       427.28 cm**-1
  13:       515.35 cm**-1
  14:       548.68 cm**-1
  15:       774.61 cm**-1
  16:       792.93 cm**-1
  17:       836.82 cm**-1
  18:       889.80 cm**-1
  19:       946.71 cm**-1
  20:       967.29 cm**-1
  21:      1019.79 cm**-1
  22:      1038.48 cm**-1
  23:      1066.77 cm**-1
  24:      1130.84 cm**-1
  25:      1137.29 cm**-1
  26:      1183.83 cm**-1
  27:      1216.71 cm**-1
  28:      1244.38 cm**-1
  29:      1308.21 cm**-1
  30:      1340.86 cm**-1
  31:      1364.35 cm**-1
  32:      1419.37 cm**-1
  33:      1459.48 cm**-1
  34:      1477.31 cm**-1
  35:      1492.08 cm**-1
  36:      1498.99 cm**-1
  37:      1619.21 cm**-1
  38:      2401.76 cm**-1
  39:      3046.19 cm**-1
  40:      3067.44 cm**-1
  41:      3099.96 cm**-1
  42:      3144.47 cm**-1
  43:      3160.44 cm**-1
  44:      3184.34 cm**-1
  45:      3192.70 cm**-1
  46:      3484.95 cm**-1
  47:      3592.11 cm**-1

IR SPECTRUM
-----------

 Mode    freq (cm**-1)   T**2         TX         TY         TZ
-------------------------------------------------------------------
   6:        93.59    2.569032  ( -0.002907  -0.889198   1.333548)
   7:       121.03    7.184800  ( -0.240795  -0.587914  -2.604069)
   8:       160.26    4.404322  (  0.977537  -1.854916   0.089622)
   9:       220.67    2.061751  (  0.730909  -0.634383  -1.060699)
  10:       251.95    3.593708  ( -0.777316  -0.668737   1.594453)
  11:       361.27    0.790769  ( -0.307665   0.426855  -0.716872)
  12:       427.28    1.333243  ( -0.917690   0.221665  -0.664796)
  13:       515.35    1.147110  ( -0.556161   0.457290   0.792894)
  14:       548.68    1.803540  ( -0.680440   0.495154   1.046597)
  15:       774.61    3.260011  (  0.463782   1.711629  -0.339477)
  16:       792.93    5.601205  ( -1.522416   1.033583  -1.488341)
  17:       836.82    2.051626  (  0.937146  -0.287937   1.044258)
  18:       889.80   31.751338  ( -0.804283   0.707901   5.532029)
  19:       946.71    8.736807  ( -2.131945   1.584646   1.296347)
  20:       967.29   11.088115  ( -2.057314  -2.486202  -0.821202)
  21:      1019.79   31.588573  (  3.955017  -3.984558  -0.264030)
  22:      1038.48   41.694851  ( -4.089099   4.875903  -1.095302)
  23:      1066.77   20.854473  ( -3.776467   2.135298  -1.425928)
  24:      1130.84    3.642218  ( -1.268835   0.682444   1.251617)
  25:      1137.29    6.189371  ( -2.478063  -0.114793  -0.188138)
  26:      1183.83    2.796583  ( -1.646241  -0.233181   0.179170)
  27:      1216.71    1.431749  (  1.052373  -0.283171   0.494038)
  28:      1244.38    4.742386  (  1.951113  -0.246905   0.935192)
  29:      1308.21    1.766107  ( -0.870693   0.429854  -0.907318)
  30:      1340.86    9.210454  ( -2.960597  -0.136506   0.653211)
  31:      1364.35    4.661891  (  1.550172   1.501393   0.068404)
  32:      1419.37    2.058633  (  0.161613   0.093538   1.422591)
  33:      1459.48    4.018206  ( -0.254527  -0.509830   1.921847)
  34:      1477.31    5.254757  ( -0.937533   0.719192  -1.964320)
  35:      1492.08   15.461631  ( -0.894765   3.826968   0.123873)
  36:      1498.99   11.680748  (  3.007361   1.246857  -1.040133)
  37:      1619.21   81.806512  (  0.609944  -0.081711   9.023736)
  38:      2401.76    7.822449  ( -2.545248  -0.747101   0.886569)
  39:      3046.19    8.705841  (  0.590033  -1.722092   2.322090)
  40:      3067.44    5.089223  (  0.723030   0.377248  -2.103363)
  41:      3099.96    0.746543  ( -0.066175   0.859774   0.054341)
  42:      3144.47    7.909419  (  0.818864  -2.668249  -0.345436)
  43:      3160.44    1.414667  (  0.984358   0.291634  -0.600546)
  44:      3184.34    7.074590  ( -0.234018   2.465621   0.969813)
  45:      3192.70    8.974417  ( -0.248482   2.966093  -0.339063)
  46:      3484.95  133.255589  (  0.186667   0.800455  11.514340)
  47:      3592.11  136.270068  (  8.417817   8.084192  -0.237216)

--------------------------
THERMOCHEMISTRY AT 298.15K
--------------------------

Temperature         ... 298.15 K
Pressure            ... 1.00 atm
Total Mass          ... 97.14 AMU

Throughout the following assumptions are being made:
  (1) The electronic state is orbitally nondegenerate
  (2) There are no thermally accessible electronically excited states
  (3) Hindered rotations indicated by low frequency modes) are not
      treated as such but are treated as vibrations and this may
      case some error
  (4) All equations used are the standard statistical mechanics
      equations for an ideal gas
  (5) All vibrations are strinctly harmonic

------------
INNER ENERGY
------------

The inner energy is: U= E(el) + E(ZPE) + E(vib) + E(rot) + E(trans)
    E(el)   - is the total energy from the electronic structure calculation
              = E(kin-el) + E(nuc-el) + E(el-el) + E(nuc-nuc)
    E(ZPE)  - the the zero temperature vibrational energy from the frequency calculation
    E(vib)  - the the finite temperature correction to E(ZPE) due to population
              of excietd vibrational states
    E(rot)  - is the rotational thermal energy
    E(trans)- is the translational thermal energy

Summary of contributions to the inner energy U:
Electronic energy                ...   -304.88530401 Eh
Zero point energy                ...      0.13965288 Eh      87.63 kcal/mol
Thermal vibrational correction   ...      0.00474070 Eh       2.97 kcal/mol
Thermal rotational correction    ...      0.00141627 Eh       0.89 kcal/mol
Thermal translational correction ...      0.00141627 Eh       0.89 kcal/mol
-----------------------------------------------------------------------
Total thermal energy                   -304.73807788 Eh

Summary of corrections to the electronic energy:
(perhaps to be used in another calculation)
Total thermal correction                  0.00757324 Eh       4.75 kcal/mol
Non-thermal (ZPE) correction              0.13965288 Eh      87.63 kcal/mol
-----------------------------------------------------------------------
Total correction                          0.14722612 Eh      92.39 kcal/mol

--------
ENTHALPY
--------

The enthalpy is H = U + kB*T
                kB is Boltzmann's constant
Total free energy                 ...   -304.73807788 Eh
Thermal Enthalpy correction       ...      0.00094421 Eh       0.59 kcal/mol
-----------------------------------------------------------------------
Total Enthalpy                    ...   -304.73713368 Eh

-------
ENTROPY
-------

The entropy contributions are T*S = T*(S(el)+S(vib)+S(rot)+S(trans)
     S(el)   - electronic entropy
     S(vib)  - vibrational entropy
     S(rot)  - rotational entropy
     S(trans)- translational entropy
The entropies will be listed as mutliplied by the temperature to get
units of energy

Electronic entropy                ...      0.00000000 Eh      0.00 kcal/mol
Vibrational entropy               ...      0.00837909 Eh      5.26 kcal/mol
Rotational entropy                ...      0.01218670 Eh      7.65 kcal/mol
Translational entropy             ...      0.01883016 Eh     11.82 kcal/mol
-----------------------------------------------------------------------
Final entropy term                ...      0.03939595 Eh     24.72 kcal/mol

CAUTION: The rotational entropy is not quite correctly treated here
         because it includes a symmetry number that is not yet correctly
         implemented in ORCA!
For a nonlinear molecule the correct rotational entropy is:
    S(rot) = R*(ln(qrot/sn)+1.5)
    R    = 8.31441 J/mol/K = 1.987191683e-3 kcal/mol/K
    qrot = 269891.3793304
    sn is the rotational symmetry number. We have assumed 3 here
       if it is different for your molecule then you should correct
       the printed rotational entropy by manually evaluating the equation
       as given above

For convenience we print out the resulting values for sn=1 - 12:
 sn= 1  qrot/sn=  269891.3793 T*S(rot)=     8.30 kcal/mol T*S(tot)=    25.37 kcal/mol
 sn= 2  qrot/sn=  134945.6897 T*S(rot)=     7.89 kcal/mol T*S(tot)=    24.96 kcal/mol
 sn= 3  qrot/sn=   89963.7931 T*S(rot)=     7.65 kcal/mol T*S(tot)=    24.72 kcal/mol
 sn= 4  qrot/sn=   67472.8448 T*S(rot)=     7.48 kcal/mol T*S(tot)=    24.55 kcal/mol
 sn= 5  qrot/sn=   53978.2759 T*S(rot)=     7.34 kcal/mol T*S(tot)=    24.42 kcal/mol
 sn= 6  qrot/sn=   44981.8966 T*S(rot)=     7.24 kcal/mol T*S(tot)=    24.31 kcal/mol
 sn= 7  qrot/sn=   38555.9113 T*S(rot)=     7.15 kcal/mol T*S(tot)=    24.22 kcal/mol
 sn= 8  qrot/sn=   33736.4224 T*S(rot)=     7.07 kcal/mol T*S(tot)=    24.14 kcal/mol
 sn= 9  qrot/sn=   29987.9310 T*S(rot)=     7.00 kcal/mol T*S(tot)=    24.07 kcal/mol
 sn=10  qrot/sn=   26989.1379 T*S(rot)=     6.93 kcal/mol T*S(tot)=    24.01 kcal/mol
 sn=11  qrot/sn=   24535.5799 T*S(rot)=     6.88 kcal/mol T*S(tot)=    23.95 kcal/mol
 sn=12  qrot/sn=   22490.9483 T*S(rot)=     6.83 kcal/mol T*S(tot)=    23.90 kcal/mol

-------------------
GIBBS FREE ENTHALPY
-------------------

The Gibbs free enthalpy is G = H - T*S

Total enthalpy                    ...   -304.73713368 Eh
Total entropy correction          ...     -0.03939595 Eh    -24.72 kcal/mol
-----------------------------------------------------------------------
Final Gibbs free enthalpy         ...   -304.77652962 Eh

For completeness - the Gibbs free enthalpy minus the electronic energy
G-E(el)                           ...      0.10877438 Eh     68.26 kcal/mol

                             ****ORCA TERMINATED NORMALLY****
TOTAL RUN TIME: 0 days 0 hours 27 minutes 28 seconds 745 msec
