                         Program Version 3.0.3 - RELEASE   -
|  1> ! NORI PBE0 def2-TZVP UseSym TightOPT Freq TightSCF Grid3 FinalGrid5 XYZFile
|  2> % pal
|  3>     nprocs 8
|  4> end
|  5> %method
|  6>     SymThresh 5.0e-2
|  7> end
|  8> % geom
|  9>     MaxIter 10
| 10> end
| 11> % maxcore 2000
| 12> % output
| 13>     printlevel mini
| 14>     print[ P_Basis ] 0
| 15>     print[ P_SCFInfo ] 1
| 16>     print[ P_SCFIterInfo ] 1
| 17>     print[ P_OrbEn ] 0
| 18>     print[ P_Cartesian ] 0
| 19> end
| 20> % elprop
| 21>     Dipole false
| 22> end
| 23> *xyz 1 1
| 24>  C        2.4126833515    -1.3176814539     0.7068059265
| 25>  C        2.5350297239    -0.0012723593    -0.0473702308
| 26>  C        3.0479070314     1.0960835835     0.8442340111
| 27>  N        3.1030986075     2.4791641973     0.1821729782
| 28>  C        2.5922588866     3.0892378525     1.4686089318
| 29>  C        2.1677191109     1.6975200004     1.9613364777
| 30>  C        2.4672948695     1.3385343310     3.3955553452
| 31>  H        2.0561644269    -2.1009226123     0.0380734674
| 32>  H        1.7037692582    -1.2429427908     1.5338480205
| 33>  H        3.3761079281    -1.6376810077     1.1092515364
| 34>  H        1.5566065859     0.2878838357    -0.4496646543
| 35>  H        3.2132546854    -0.1223258318    -0.8988990114
| 36>  H        4.0578221587     0.8876649761     1.2066495265
| 37>  H        2.4306021067     2.5531195221    -0.5809353133
| 38>  H        4.0082224954     2.7998173205    -0.1567389268
| 39>  H        1.8379387133     3.8553390541     1.3031063578
| 40>  H        3.4371345178     3.5036597419     2.0175266214
| 41>  H        1.1127109559     1.5206779736     1.7304003911
| 42>  H        3.5211965344     1.5021715724     3.6349180713
| 43>  H        2.2334981837     0.2915289048     3.5938558438
| 44>  H        1.8673098683     1.9428731900     4.0779446300
| 45> *
| 46>
| 47>                          ****END OF INPUT****
 Total Charge           Charge          ....    1
 Multiplicity           Mult            ....    1
 Number of Electrons    NEL             ....   56
FINAL SINGLE POINT ENERGY      -291.319479172004
FINAL SINGLE POINT ENERGY      -291.319481504468

CARTESIAN COORDINATES (ANGSTROEM)
---------------------------------
  C      1.980705    0.001234   -1.646038
  C      1.705844    0.268349   -0.172779
  C      0.388679   -0.316424    0.258668
  N      0.000290   -0.000120    1.708933
  C     -1.426544    0.216022    1.254822
  C     -0.951902    0.296028   -0.203460
  C     -1.762974   -0.432717   -1.245637
  H      2.947831    0.417765   -1.927208
  H      1.226082    0.461506   -2.286692
  H      2.005344   -1.069439   -1.859928
  H      1.699613    1.349396    0.012704
  H      2.508292   -0.160417    0.437551
  H      0.376634   -1.405740    0.166699
  H      0.443493    0.859248    2.032673
  H      0.162010   -0.725590    2.405303
  H     -1.891626    1.083209    1.718364
  H     -2.001581   -0.682943    1.474254
  H     -0.795913    1.339528   -0.493835
  H     -1.917395   -1.479030   -0.969863
  H     -1.266624   -0.407692   -2.216847
  H     -2.742898    0.033273   -1.366984

FINAL SINGLE POINT ENERGY      -291.319482327346
                    ***********************HURRAY********************
 Multiplicity           Mult            ....    1
 Number of Electrons    NEL             ....   56
 Basis Dimension        Dim             ....  301
FINAL SINGLE POINT ENERGY      -291.319482398267

VIBRATIONAL FREQUENCIES
-----------------------

   0:         0.00 cm**-1
   1:         0.00 cm**-1
   2:         0.00 cm**-1
   3:         0.00 cm**-1
   4:         0.00 cm**-1
   5:         0.00 cm**-1
   6:        83.36 cm**-1
   7:       107.48 cm**-1
   8:       185.47 cm**-1
   9:       219.26 cm**-1
  10:       223.03 cm**-1
  11:       296.93 cm**-1
  12:       323.04 cm**-1
  13:       408.85 cm**-1
  14:       470.79 cm**-1
  15:       639.57 cm**-1
  16:       760.92 cm**-1
  17:       812.11 cm**-1
  18:       845.95 cm**-1
  19:       871.21 cm**-1
  20:       914.72 cm**-1
  21:       934.32 cm**-1
  22:       941.50 cm**-1
  23:       978.67 cm**-1
  24:      1025.98 cm**-1
  25:      1048.46 cm**-1
  26:      1094.50 cm**-1
  27:      1141.49 cm**-1
  28:      1153.31 cm**-1
  29:      1180.69 cm**-1
  30:      1208.87 cm**-1
  31:      1255.98 cm**-1
  32:      1264.45 cm**-1
  33:      1291.02 cm**-1
  34:      1313.72 cm**-1
  35:      1324.93 cm**-1
  36:      1338.50 cm**-1
  37:      1350.14 cm**-1
  38:      1389.40 cm**-1
  39:      1406.82 cm**-1
  40:      1418.26 cm**-1
  41:      1424.07 cm**-1
  42:      1480.26 cm**-1
  43:      1484.85 cm**-1
  44:      1489.36 cm**-1
  45:      1494.16 cm**-1
  46:      1496.09 cm**-1
  47:      1501.17 cm**-1
  48:      1642.58 cm**-1
  49:      3033.71 cm**-1
  50:      3057.96 cm**-1
  51:      3064.47 cm**-1
  52:      3073.49 cm**-1
  53:      3077.21 cm**-1
  54:      3102.34 cm**-1
  55:      3116.41 cm**-1
  56:      3135.48 cm**-1
  57:      3139.29 cm**-1
  58:      3146.69 cm**-1
  59:      3154.31 cm**-1
  60:      3188.19 cm**-1
  61:      3465.12 cm**-1
  62:      3537.93 cm**-1

IR SPECTRUM
-----------

 Mode    freq (cm**-1)   T**2         TX         TY         TZ
-------------------------------------------------------------------
   6:        83.36    0.213737  ( -0.011036  -0.461748  -0.020087)
   7:       107.48    1.270824  ( -0.187839   1.057975   0.340923)
   8:       185.47    1.462505  (  0.099592   1.022873  -0.637430)
   9:       219.26    0.614526  ( -0.409830  -0.601872   0.290372)
  10:       223.03    0.498238  (  0.108610  -0.688620   0.110657)
  11:       296.93    0.039598  (  0.113937   0.075705  -0.144515)
  12:       323.04    0.681051  (  0.685405   0.389506   0.244042)
  13:       408.85    1.651913  ( -1.012419   0.153188   0.776823)
  14:       470.79    0.983226  (  0.271945   0.014536  -0.953447)
  15:       639.57    3.320881  (  0.197506  -1.655431   0.735813)
  16:       760.92    0.330107  ( -0.172518   0.181306  -0.517178)
  17:       812.11    8.312909  ( -2.224135   1.246184   1.346536)
  18:       845.95    3.285832  (  0.723566  -1.289474  -1.048590)
  19:       871.21   10.480404  (  0.805366   1.552641  -2.724169)
  20:       914.72    3.301042  ( -1.814240   0.062840   0.075016)
  21:       934.32    5.219624  (  0.486867   1.858342  -1.236587)
  22:       941.50    9.837187  ( -2.784005  -0.287491  -1.415575)
  23:       978.67    3.706004  ( -0.883283  -0.546084   1.620990)
  24:      1025.98    1.492176  ( -1.112850   0.488686   0.122172)
  25:      1048.46    0.243296  ( -0.002721   0.460875  -0.175733)
  26:      1094.50    8.501878  (  1.629891  -0.271444  -2.402426)
  27:      1141.49    1.008859  ( -0.956813  -0.044719   0.302273)
  28:      1153.31    7.421372  (  2.322328  -0.443482  -1.353325)
  29:      1180.69    0.754320  ( -0.655570  -0.039761   0.568302)
  30:      1208.87    0.113408  ( -0.022491  -0.329794   0.064324)
  31:      1255.98   52.068639  (  5.662668  -1.081263  -4.339781)
  32:      1264.45    4.380685  ( -1.597646   0.931862   0.979718)
  33:      1291.02   14.158990  ( -2.526016   1.421880   2.399268)
  34:      1313.72    9.199677  (  1.831763  -2.049713  -1.281794)
  35:      1324.93    0.716976  (  0.666190  -0.119063   0.508911)
  36:      1338.50    0.960865  ( -0.404788   0.740574   0.498560)
  37:      1350.14   15.790173  (  3.446001  -0.977591  -1.720338)
  38:      1389.40    1.517678  (  0.478234   0.466699  -1.034970)
  39:      1406.82    0.447870  ( -0.302267  -0.536445   0.262167)
  40:      1418.26    4.571552  (  1.736792   1.186400  -0.384138)
  41:      1424.07   11.501311  (  0.250329   1.179991   3.169585)
  42:      1480.26    3.404721  ( -0.738592   1.035143   1.337042)
  43:      1484.85   13.314320  ( -2.961791   1.283965   1.701044)
  44:      1489.36    7.978743  ( -1.921001   1.492231  -1.435877)
  45:      1494.16   15.465344  (  0.588185  -2.854067   2.640773)
  46:      1496.09    3.536545  ( -1.297331   0.844917   1.067517)
  47:      1501.17   20.626367  ( -2.703478  -3.340463   1.469313)
  48:      1642.58   57.945153  ( -3.080591  -1.487546  -6.800170)
  49:      3033.71   11.961006  (  0.365213   1.920718   2.852800)
  50:      3057.96    2.498548  (  0.780694   1.320111   0.382587)
  51:      3064.47    8.219929  (  0.653660   1.111166   2.560853)
  52:      3073.49    2.671783  ( -0.470060  -1.564269  -0.062355)
  53:      3077.21    4.063570  (  1.709797  -0.386189   0.995502)
  54:      3102.34    4.763646  (  0.191694   2.173320   0.059839)
  55:      3116.41    2.158649  ( -1.087948  -0.573185   0.804039)
  56:      3135.48    5.089550  (  0.070422  -2.026563   0.988754)
  57:      3139.29   15.769344  ( -2.006332   3.308057  -0.894839)
  58:      3146.69    4.943931  ( -1.530999  -0.765952   1.418904)
  59:      3154.31    4.079454  (  1.806758   0.760957   0.485823)
  60:      3188.19    0.457439  (  0.496450  -0.307953  -0.340795)
  61:      3465.12   55.407549  ( -3.288545  -0.873422  -6.620435)
  62:      3537.93   75.076340  (  1.451695   8.085781  -2.754827)

--------------------------
THERMOCHEMISTRY AT 298.15K
--------------------------

Temperature         ... 298.15 K
Pressure            ... 1.00 atm
Total Mass          ... 100.18 AMU

Throughout the following assumptions are being made:
  (1) The electronic state is orbitally nondegenerate
  (2) There are no thermally accessible electronically excited states
  (3) Hindered rotations indicated by low frequency modes) are not
      treated as such but are treated as vibrations and this may
      case some error
  (4) All equations used are the standard statistical mechanics
      equations for an ideal gas
  (5) All vibrations are strinctly harmonic

------------
INNER ENERGY
------------

The inner energy is: U= E(el) + E(ZPE) + E(vib) + E(rot) + E(trans)
    E(el)   - is the total energy from the electronic structure calculation
              = E(kin-el) + E(nuc-el) + E(el-el) + E(nuc-nuc)
    E(ZPE)  - the the zero temperature vibrational energy from the frequency calculation
    E(vib)  - the the finite temperature correction to E(ZPE) due to population
              of excietd vibrational states
    E(rot)  - is the rotational thermal energy
    E(trans)- is the translational thermal energy

Summary of contributions to the inner energy U:
Electronic energy                ...   -291.31948240 Eh
Zero point energy                ...      0.19940536 Eh     125.13 kcal/mol
Thermal vibrational correction   ...      0.00541185 Eh       3.40 kcal/mol
Thermal rotational correction    ...      0.00141627 Eh       0.89 kcal/mol
Thermal translational correction ...      0.00141627 Eh       0.89 kcal/mol
-----------------------------------------------------------------------
Total thermal energy                   -291.11183265 Eh

Summary of corrections to the electronic energy:
(perhaps to be used in another calculation)
Total thermal correction                  0.00824439 Eh       5.17 kcal/mol
Non-thermal (ZPE) correction              0.19940536 Eh     125.13 kcal/mol
-----------------------------------------------------------------------
Total correction                          0.20764975 Eh     130.30 kcal/mol

--------
ENTHALPY
--------

The enthalpy is H = U + kB*T
                kB is Boltzmann's constant
Total free energy                 ...   -291.11183265 Eh
Thermal Enthalpy correction       ...      0.00094421 Eh       0.59 kcal/mol
-----------------------------------------------------------------------
Total Enthalpy                    ...   -291.11088844 Eh

-------
ENTROPY
-------

The entropy contributions are T*S = T*(S(el)+S(vib)+S(rot)+S(trans)
     S(el)   - electronic entropy
     S(vib)  - vibrational entropy
     S(rot)  - rotational entropy
     S(trans)- translational entropy
The entropies will be listed as mutliplied by the temperature to get
units of energy

Electronic entropy                ...      0.00000000 Eh      0.00 kcal/mol
Vibrational entropy               ...      0.00953613 Eh      5.98 kcal/mol
Rotational entropy                ...      0.01217779 Eh      7.64 kcal/mol
Translational entropy             ...      0.01887386 Eh     11.84 kcal/mol
-----------------------------------------------------------------------
Final entropy term                ...      0.04058779 Eh     25.47 kcal/mol

CAUTION: The rotational entropy is not quite correctly treated here
         because it includes a symmetry number that is not yet correctly
         implemented in ORCA!
For a nonlinear molecule the correct rotational entropy is:
    S(rot) = R*(ln(qrot/sn)+1.5)
    R    = 8.31441 J/mol/K = 1.987191683e-3 kcal/mol/K
    qrot = 267358.5832180
    sn is the rotational symmetry number. We have assumed 3 here
       if it is different for your molecule then you should correct
       the printed rotational entropy by manually evaluating the equation
       as given above

For convenience we print out the resulting values for sn=1 - 12:
 sn= 1  qrot/sn=  267358.5832 T*S(rot)=     8.29 kcal/mol T*S(tot)=    26.12 kcal/mol
 sn= 2  qrot/sn=  133679.2916 T*S(rot)=     7.88 kcal/mol T*S(tot)=    25.71 kcal/mol
 sn= 3  qrot/sn=   89119.5277 T*S(rot)=     7.64 kcal/mol T*S(tot)=    25.47 kcal/mol
 sn= 4  qrot/sn=   66839.6458 T*S(rot)=     7.47 kcal/mol T*S(tot)=    25.30 kcal/mol
 sn= 5  qrot/sn=   53471.7166 T*S(rot)=     7.34 kcal/mol T*S(tot)=    25.17 kcal/mol
 sn= 6  qrot/sn=   44559.7639 T*S(rot)=     7.23 kcal/mol T*S(tot)=    25.06 kcal/mol
 sn= 7  qrot/sn=   38194.0833 T*S(rot)=     7.14 kcal/mol T*S(tot)=    24.97 kcal/mol
 sn= 8  qrot/sn=   33419.8229 T*S(rot)=     7.06 kcal/mol T*S(tot)=    24.89 kcal/mol
 sn= 9  qrot/sn=   29706.5092 T*S(rot)=     6.99 kcal/mol T*S(tot)=    24.82 kcal/mol
 sn=10  qrot/sn=   26735.8583 T*S(rot)=     6.93 kcal/mol T*S(tot)=    24.76 kcal/mol
 sn=11  qrot/sn=   24305.3257 T*S(rot)=     6.87 kcal/mol T*S(tot)=    24.70 kcal/mol
 sn=12  qrot/sn=   22279.8819 T*S(rot)=     6.82 kcal/mol T*S(tot)=    24.65 kcal/mol

-------------------
GIBBS FREE ENTHALPY
-------------------

The Gibbs free enthalpy is G = H - T*S

Total enthalpy                    ...   -291.11088844 Eh
Total entropy correction          ...     -0.04058779 Eh    -25.47 kcal/mol
-----------------------------------------------------------------------
Final Gibbs free enthalpy         ...   -291.15147623 Eh

For completeness - the Gibbs free enthalpy minus the electronic energy
G-E(el)                           ...      0.16800617 Eh    105.43 kcal/mol

                             ****ORCA TERMINATED NORMALLY****
TOTAL RUN TIME: 0 days 0 hours 52 minutes 56 seconds 691 msec
