                         Program Version 3.0.3 - RELEASE   -
|  1> ! NORI PBE0 def2-TZVP UseSym TightOPT Freq TightSCF Grid3 FinalGrid5 XYZFile
|  2> % pal
|  3>     nprocs 8
|  4> end
|  5> %method
|  6>     SymThresh 5.0e-2
|  7> end
|  8> % geom
|  9>     MaxIter 10
| 10> end
| 11> % maxcore 2000
| 12> % output
| 13>     printlevel mini
| 14>     print[ P_Basis ] 0
| 15>     print[ P_SCFInfo ] 1
| 16>     print[ P_SCFIterInfo ] 1
| 17>     print[ P_OrbEn ] 0
| 18>     print[ P_Cartesian ] 0
| 19> end
| 20> % elprop
| 21>     Dipole false
| 22> end
| 23> *xyz 1 1
| 24>  C        1.2313798564     0.6979828235     1.1431890963
| 25>  C        2.3212129256     0.1600719130     0.2330930635
| 26>  C        2.9324035336     1.1728928308    -0.7039245168
| 27>  N        3.9982573212     0.5183033198    -1.5200361493
| 28>  C        2.1648535581     2.2337647640    -1.4223639191
| 29>  C        3.1724810213     2.6151258051    -0.3751422364
| 30>  C        4.4294544361     3.3545089625    -0.7450562410
| 31>  H        0.8301371991    -0.1164317443     1.7463590814
| 32>  H        0.3994928490     1.1224080884     0.5787111988
| 33>  H        1.6074882469     1.4553359677     1.8326280441
| 34>  H        3.1202478077    -0.2701808800     0.8515401428
| 35>  H        1.9107488905    -0.6635459280    -0.3658568436
| 36>  H        4.5178773929     1.2048490941    -2.0708947331
| 37>  H        3.5980694826    -0.1715019198    -2.1607505403
| 38>  H        4.6675815740     0.0327170219    -0.9165456541
| 39>  H        1.1080676219     2.3180979810    -1.2050768389
| 40>  H        2.4210175490     2.4492500310    -2.4554209360
| 41>  H        2.7586350857     2.9026754425     0.5845864872
| 42>  H        4.7590640969     3.1632506350    -1.7729775673
| 43>  H        5.2543505714     3.1314634577    -0.0640984875
| 44>  H        4.2483389802     4.4298523343    -0.6966924506
| 45> *
| 46>
| 47>                          ****END OF INPUT****
 Total Charge           Charge          ....    1
 Multiplicity           Mult            ....    1
 Number of Electrons    NEL             ....   56
FINAL SINGLE POINT ENERGY      -291.308671212475
FINAL SINGLE POINT ENERGY      -291.308675878826
FINAL SINGLE POINT ENERGY      -291.308679416503
FINAL SINGLE POINT ENERGY      -291.308681712013
FINAL SINGLE POINT ENERGY      -291.308683924779
FINAL SINGLE POINT ENERGY      -291.308684993360

CARTESIAN COORDINATES (ANGSTROEM)
---------------------------------
  C      1.992886    0.016496   -1.505333
  C      1.644741   -0.102864   -0.031800
  C      0.194848    0.142391    0.308397
  N     -0.001767    0.006197    1.782927
  C     -0.665896    1.175534   -0.340966
  C     -0.970890   -0.283654   -0.531994
  C     -2.225399   -0.891546    0.035600
  H      3.058780   -0.167442   -1.640472
  H      1.784802    1.014102   -1.894994
  H      1.459183   -0.715127   -2.113652
  H      1.919863   -1.106687    0.318520
  H      2.259616    0.607158    0.536595
  H     -0.994346    0.024099    2.026152
  H      0.468413    0.760732    2.288640
  H      0.384193   -0.881227    2.116333
  H     -0.233565    1.743037   -1.154126
  H     -1.350741    1.745775    0.279328
  H     -0.674375   -0.701305   -1.487638
  H     -2.594302   -0.374209    0.929092
  H     -2.098661   -1.951012    0.270584
  H     -3.031884   -0.813652   -0.695338

FINAL SINGLE POINT ENERGY      -291.308685432030
                    ***********************HURRAY********************
 Multiplicity           Mult            ....    1
 Number of Electrons    NEL             ....   56
 Basis Dimension        Dim             ....  301
FINAL SINGLE POINT ENERGY      -291.308685705520

VIBRATIONAL FREQUENCIES
-----------------------

   0:         0.00 cm**-1
   1:         0.00 cm**-1
   2:         0.00 cm**-1
   3:         0.00 cm**-1
   4:         0.00 cm**-1
   5:         0.00 cm**-1
   6:        66.28 cm**-1
   7:       171.61 cm**-1
   8:       181.50 cm**-1
   9:       196.05 cm**-1
  10:       219.78 cm**-1
  11:       255.44 cm**-1
  12:       283.70 cm**-1
  13:       367.97 cm**-1
  14:       417.60 cm**-1
  15:       452.96 cm**-1
  16:       498.91 cm**-1
  17:       658.41 cm**-1
  18:       775.30 cm**-1
  19:       818.14 cm**-1
  20:       879.28 cm**-1
  21:       897.64 cm**-1
  22:       908.37 cm**-1
  23:       966.18 cm**-1
  24:      1005.41 cm**-1
  25:      1024.31 cm**-1
  26:      1068.47 cm**-1
  27:      1083.02 cm**-1
  28:      1087.38 cm**-1
  29:      1131.41 cm**-1
  30:      1146.86 cm**-1
  31:      1185.77 cm**-1
  32:      1200.29 cm**-1
  33:      1241.61 cm**-1
  34:      1322.65 cm**-1
  35:      1327.16 cm**-1
  36:      1383.70 cm**-1
  37:      1412.54 cm**-1
  38:      1422.02 cm**-1
  39:      1437.91 cm**-1
  40:      1472.09 cm**-1
  41:      1477.88 cm**-1
  42:      1479.79 cm**-1
  43:      1496.94 cm**-1
  44:      1499.32 cm**-1
  45:      1511.32 cm**-1
  46:      1519.42 cm**-1
  47:      1641.89 cm**-1
  48:      1657.05 cm**-1
  49:      3015.75 cm**-1
  50:      3032.25 cm**-1
  51:      3053.22 cm**-1
  52:      3071.73 cm**-1
  53:      3107.10 cm**-1
  54:      3139.27 cm**-1
  55:      3146.30 cm**-1
  56:      3148.96 cm**-1
  57:      3153.44 cm**-1
  58:      3188.78 cm**-1
  59:      3245.12 cm**-1
  60:      3405.91 cm**-1
  61:      3484.42 cm**-1
  62:      3494.00 cm**-1

IR SPECTRUM
-----------

 Mode    freq (cm**-1)   T**2         TX         TY         TZ
-------------------------------------------------------------------
   6:        66.28    0.423615  ( -0.074090   0.624620  -0.167261)
   7:       171.61    3.549225  ( -1.034939  -1.276958  -0.920600)
   8:       181.50    1.685851  ( -0.386330  -1.199400  -0.313112)
   9:       196.05    0.699295  (  0.748115   0.223689   0.299304)
  10:       219.78    2.935298  (  0.117854   0.521164   1.627819)
  11:       255.44    0.824348  ( -0.210016  -0.883137   0.017643)
  12:       283.70    9.975903  ( -2.749440  -1.002459  -1.188091)
  13:       367.97    5.748632  (  1.919934  -1.348661   0.493558)
  14:       417.60    2.108150  (  1.311136   0.623720  -0.006799)
  15:       452.96    4.195206  (  0.011902  -1.515324   1.377991)
  16:       498.91    7.579008  ( -1.262046  -0.718825  -2.338704)
  17:       658.41    1.329883  (  0.847328  -0.387223  -0.679688)
  18:       775.30    0.861575  ( -0.025347  -0.696791   0.612711)
  19:       818.14    1.077905  (  0.395668   0.227564   0.932506)
  20:       879.28    2.131341  (  0.025309  -1.427604   0.304380)
  21:       897.64    4.761267  (  1.482550   1.468114   0.638712)
  22:       908.37    4.273894  (  2.022216  -0.429406  -0.012117)
  23:       966.18    9.307668  ( -2.838252   0.999812  -0.502362)
  24:      1005.41    3.553942  ( -0.113812   1.280797  -1.378603)
  25:      1024.31   20.205831  (  4.437862   0.109325   0.706583)
  26:      1068.47    4.958937  ( -1.123896   0.455713  -1.867651)
  27:      1083.02    2.977798  (  1.376507  -0.768341   0.701910)
  28:      1087.38   13.094792  ( -2.334657  -2.198197  -1.676932)
  29:      1131.41    4.745042  (  1.258894  -1.396836  -1.099579)
  30:      1146.86    2.215121  ( -0.600026  -0.720082  -1.156102)
  31:      1185.77    3.351696  ( -0.774921  -1.591400  -0.467590)
  32:      1200.29    4.090908  ( -0.582929  -1.878273   0.472433)
  33:      1241.61   14.251284  (  3.138304  -0.729015  -1.967453)
  34:      1322.65    0.711842  (  0.758497  -0.369447   0.005764)
  35:      1327.16    0.384811  (  0.051014  -0.607307  -0.115702)
  36:      1383.70    6.766583  (  0.987529   0.078188   2.405256)
  37:      1412.54    1.386988  (  0.005508   0.903173   0.755801)
  38:      1422.02    3.338118  ( -1.405919  -0.296882   1.128436)
  39:      1437.91    2.986424  ( -0.376443   1.104778  -1.274434)
  40:      1472.09    5.661701  ( -1.490312  -1.217563  -1.399361)
  41:      1477.88    0.921324  (  0.185632   0.682903  -0.648466)
  42:      1479.79   85.178489  (  0.121894   2.327765  -8.930014)
  43:      1496.94   18.484931  ( -3.750369  -0.714708   1.977083)
  44:      1499.32   19.005194  (  0.774608  -4.276944   0.336045)
  45:      1511.32   69.878445  ( -0.402548   2.327108   8.018788)
  46:      1519.42   33.625155  ( -2.803113   2.037810   4.649198)
  47:      1641.89   37.290533  ( -0.107230   6.077609   0.584551)
  48:      1657.05   30.880438  ( -5.527174  -0.542299   0.191558)
  49:      3015.75   21.662447  (  2.249442  -1.075901   3.929999)
  50:      3032.25   20.310240  (  1.058464  -0.344395  -4.367068)
  51:      3053.22    9.727964  (  0.757619   2.988286   0.473419)
  52:      3071.73    6.936135  ( -0.672159   0.415360  -2.512332)
  53:      3107.10   12.316084  (  0.709999   2.908929   1.830333)
  54:      3139.27    1.459685  (  0.276091  -1.089620   0.442931)
  55:      3146.30    2.189785  ( -0.493584  -0.893595   1.071283)
  56:      3148.96    9.858952  (  0.615141   2.962040   0.840757)
  57:      3153.44    5.007015  ( -2.100717   0.540359  -0.549559)
  58:      3188.78    0.366554  ( -0.132272   0.490019   0.330059)
  59:      3245.12    0.040211  (  0.053065   0.072501  -0.179273)
  60:      3405.91   20.217650  ( -0.709758  -1.083282   4.305856)
  61:      3484.42   66.945892  (  2.847490  -7.638365  -0.702191)
  62:      3494.00   96.194250  ( -8.881980  -3.369704  -2.439218)

--------------------------
THERMOCHEMISTRY AT 298.15K
--------------------------

Temperature         ... 298.15 K
Pressure            ... 1.00 atm
Total Mass          ... 100.18 AMU

Throughout the following assumptions are being made:
  (1) The electronic state is orbitally nondegenerate
  (2) There are no thermally accessible electronically excited states
  (3) Hindered rotations indicated by low frequency modes) are not
      treated as such but are treated as vibrations and this may
      case some error
  (4) All equations used are the standard statistical mechanics
      equations for an ideal gas
  (5) All vibrations are strinctly harmonic

------------
INNER ENERGY
------------

The inner energy is: U= E(el) + E(ZPE) + E(vib) + E(rot) + E(trans)
    E(el)   - is the total energy from the electronic structure calculation
              = E(kin-el) + E(nuc-el) + E(el-el) + E(nuc-nuc)
    E(ZPE)  - the the zero temperature vibrational energy from the frequency calculation
    E(vib)  - the the finite temperature correction to E(ZPE) due to population
              of excietd vibrational states
    E(rot)  - is the rotational thermal energy
    E(trans)- is the translational thermal energy

Summary of contributions to the inner energy U:
Electronic energy                ...   -291.30868571 Eh
Zero point energy                ...      0.19805839 Eh     124.28 kcal/mol
Thermal vibrational correction   ...      0.00596425 Eh       3.74 kcal/mol
Thermal rotational correction    ...      0.00141627 Eh       0.89 kcal/mol
Thermal translational correction ...      0.00141627 Eh       0.89 kcal/mol
-----------------------------------------------------------------------
Total thermal energy                   -291.10183052 Eh

Summary of corrections to the electronic energy:
(perhaps to be used in another calculation)
Total thermal correction                  0.00879679 Eh       5.52 kcal/mol
Non-thermal (ZPE) correction              0.19805839 Eh     124.28 kcal/mol
-----------------------------------------------------------------------
Total correction                          0.20685519 Eh     129.80 kcal/mol

--------
ENTHALPY
--------

The enthalpy is H = U + kB*T
                kB is Boltzmann's constant
Total free energy                 ...   -291.10183052 Eh
Thermal Enthalpy correction       ...      0.00094421 Eh       0.59 kcal/mol
-----------------------------------------------------------------------
Total Enthalpy                    ...   -291.10088631 Eh

-------
ENTROPY
-------

The entropy contributions are T*S = T*(S(el)+S(vib)+S(rot)+S(trans)
     S(el)   - electronic entropy
     S(vib)  - vibrational entropy
     S(rot)  - rotational entropy
     S(trans)- translational entropy
The entropies will be listed as mutliplied by the temperature to get
units of energy

Electronic entropy                ...      0.00000000 Eh      0.00 kcal/mol
Vibrational entropy               ...      0.01040496 Eh      6.53 kcal/mol
Rotational entropy                ...      0.01213370 Eh      7.61 kcal/mol
Translational entropy             ...      0.01887386 Eh     11.84 kcal/mol
-----------------------------------------------------------------------
Final entropy term                ...      0.04141252 Eh     25.99 kcal/mol

CAUTION: The rotational entropy is not quite correctly treated here
         because it includes a symmetry number that is not yet correctly
         implemented in ORCA!
For a nonlinear molecule the correct rotational entropy is:
    S(rot) = R*(ln(qrot/sn)+1.5)
    R    = 8.31441 J/mol/K = 1.987191683e-3 kcal/mol/K
    qrot = 255160.2957857
    sn is the rotational symmetry number. We have assumed 3 here
       if it is different for your molecule then you should correct
       the printed rotational entropy by manually evaluating the equation
       as given above

For convenience we print out the resulting values for sn=1 - 12:
 sn= 1  qrot/sn=  255160.2958 T*S(rot)=     8.26 kcal/mol T*S(tot)=    26.64 kcal/mol
 sn= 2  qrot/sn=  127580.1479 T*S(rot)=     7.85 kcal/mol T*S(tot)=    26.23 kcal/mol
 sn= 3  qrot/sn=   85053.4319 T*S(rot)=     7.61 kcal/mol T*S(tot)=    25.99 kcal/mol
 sn= 4  qrot/sn=   63790.0739 T*S(rot)=     7.44 kcal/mol T*S(tot)=    25.82 kcal/mol
 sn= 5  qrot/sn=   51032.0592 T*S(rot)=     7.31 kcal/mol T*S(tot)=    25.68 kcal/mol
 sn= 6  qrot/sn=   42526.7160 T*S(rot)=     7.20 kcal/mol T*S(tot)=    25.58 kcal/mol
 sn= 7  qrot/sn=   36451.4708 T*S(rot)=     7.11 kcal/mol T*S(tot)=    25.48 kcal/mol
 sn= 8  qrot/sn=   31895.0370 T*S(rot)=     7.03 kcal/mol T*S(tot)=    25.41 kcal/mol
 sn= 9  qrot/sn=   28351.1440 T*S(rot)=     6.96 kcal/mol T*S(tot)=    25.34 kcal/mol
 sn=10  qrot/sn=   25516.0296 T*S(rot)=     6.90 kcal/mol T*S(tot)=    25.27 kcal/mol
 sn=11  qrot/sn=   23196.3905 T*S(rot)=     6.84 kcal/mol T*S(tot)=    25.22 kcal/mol
 sn=12  qrot/sn=   21263.3580 T*S(rot)=     6.79 kcal/mol T*S(tot)=    25.17 kcal/mol

-------------------
GIBBS FREE ENTHALPY
-------------------

The Gibbs free enthalpy is G = H - T*S

Total enthalpy                    ...   -291.10088631 Eh
Total entropy correction          ...     -0.04141252 Eh    -25.99 kcal/mol
-----------------------------------------------------------------------
Final Gibbs free enthalpy         ...   -291.14229884 Eh

For completeness - the Gibbs free enthalpy minus the electronic energy
G-E(el)                           ...      0.16638687 Eh    104.41 kcal/mol

                             ****ORCA TERMINATED NORMALLY****
TOTAL RUN TIME: 0 days 1 hours 0 minutes 58 seconds 539 msec
