                         Program Version 3.0.3 - RELEASE   -
|  1> ! NORI PBE0 def2-TZVP UseSym TightOPT Freq TightSCF Grid3 FinalGrid5 XYZFile
|  2> % pal
|  3>     nprocs 8
|  4> end
|  5> %method
|  6>     SymThresh 5.0e-2
|  7> end
|  8> % geom
|  9>     MaxIter 10
| 10> end
| 11> % maxcore 2000
| 12> % output
| 13>     printlevel mini
| 14>     print[ P_Basis ] 0
| 15>     print[ P_SCFInfo ] 1
| 16>     print[ P_SCFIterInfo ] 1
| 17>     print[ P_OrbEn ] 0
| 18>     print[ P_Cartesian ] 0
| 19> end
| 20> % elprop
| 21>     Dipole false
| 22> end
| 23> *xyz 1 1
| 24>  C        2.2240759284     0.7339469904     1.2730643166
| 25>  C        2.2342460317     0.0262402449     0.1526011356
| 26>  C        3.0081866662     0.4074276091    -1.0746744601
| 27>  N        4.2463762645    -0.4968626844    -1.2202087700
| 28>  C        5.4596066784     0.3062922008    -0.8213889688
| 29>  C        4.9586370865     1.7081063604    -0.9239275629
| 30>  C        3.6449213191     1.7599329262    -1.0709703091
| 31>  H        1.6342825458     0.4166886451     2.1246424239
| 32>  H        2.7855267458     1.6559857279     1.3787444845
| 33>  H        1.6347411817    -0.8774594135     0.0705984959
| 34>  H        2.3960082819     0.2333638179    -1.9645183948
| 35>  H        4.3401368303    -0.7916778833    -2.1914141083
| 36>  H        4.1426633622    -1.3377258112    -0.6525623114
| 37>  H        6.2818527414     0.0664603024    -1.4969186479
| 38>  H        5.7544218494     0.0283092746     0.1930765633
| 39>  H        5.6287152791     2.5549819777    -0.8614345018
| 40>  H        3.0484512076     2.6582497149    -1.1534093846
| 41> *
| 42>
| 43>                          ****END OF INPUT****
 Total Charge           Charge          ....    1
 Multiplicity           Mult            ....    1
 Number of Electrons    NEL             ....   52
FINAL SINGLE POINT ENERGY      -288.875895359662
FINAL SINGLE POINT ENERGY      -288.875896841578
FINAL SINGLE POINT ENERGY      -288.875898678217
FINAL SINGLE POINT ENERGY      -288.875899300554

CARTESIAN COORDINATES (ANGSTROEM)
---------------------------------
  C      1.728871   -0.011141   -1.564126
  C      1.498761    0.695069   -0.466530
  C      0.140200    0.881765    0.142658
  N     -0.001232    0.001958    1.398768
  C     -0.865787   -1.181012    1.041377
  C     -1.560160   -0.704550   -0.190926
  C     -1.025256    0.408762   -0.665614
  H      2.730779   -0.101493   -1.965924
  H      0.933599   -0.508847   -2.108911
  H      2.316139    1.206668    0.036066
  H      0.026163    1.916492    0.478587
  H     -0.451266    0.538358    2.139661
  H      0.915990   -0.285883    1.739539
  H     -1.526701   -1.405198    1.879584
  H     -0.226959   -2.049585    0.863987
  H     -2.389347   -1.249977   -0.620789
  H     -1.340653    0.938840   -1.553899

FINAL SINGLE POINT ENERGY      -288.875899749070
                    ***********************HURRAY********************
 Multiplicity           Mult            ....    1
 Number of Electrons    NEL             ....   52
 Basis Dimension        Dim             ....  277
FINAL SINGLE POINT ENERGY      -288.875900023519

VIBRATIONAL FREQUENCIES
-----------------------

   0:         0.00 cm**-1
   1:         0.00 cm**-1
   2:         0.00 cm**-1
   3:         0.00 cm**-1
   4:         0.00 cm**-1
   5:         0.00 cm**-1
   6:        77.84 cm**-1
   7:       102.67 cm**-1
   8:       217.97 cm**-1
   9:       323.39 cm**-1
  10:       391.82 cm**-1
  11:       556.87 cm**-1
  12:       622.86 cm**-1
  13:       726.60 cm**-1
  14:       740.30 cm**-1
  15:       780.89 cm**-1
  16:       813.47 cm**-1
  17:       906.66 cm**-1
  18:       924.17 cm**-1
  19:       954.96 cm**-1
  20:       993.13 cm**-1
  21:      1001.49 cm**-1
  22:      1028.89 cm**-1
  23:      1030.18 cm**-1
  24:      1033.50 cm**-1
  25:      1060.87 cm**-1
  26:      1116.62 cm**-1
  27:      1140.03 cm**-1
  28:      1213.09 cm**-1
  29:      1263.52 cm**-1
  30:      1323.38 cm**-1
  31:      1329.27 cm**-1
  32:      1332.26 cm**-1
  33:      1375.27 cm**-1
  34:      1383.82 cm**-1
  35:      1411.81 cm**-1
  36:      1447.07 cm**-1
  37:      1494.14 cm**-1
  38:      1633.30 cm**-1
  39:      1715.07 cm**-1
  40:      1717.63 cm**-1
  41:      3083.44 cm**-1
  42:      3087.10 cm**-1
  43:      3141.14 cm**-1
  44:      3163.76 cm**-1
  45:      3170.99 cm**-1
  46:      3238.14 cm**-1
  47:      3256.58 cm**-1
  48:      3260.03 cm**-1
  49:      3464.72 cm**-1
  50:      3527.58 cm**-1

IR SPECTRUM
-----------

 Mode    freq (cm**-1)   T**2         TX         TY         TZ
-------------------------------------------------------------------
   6:        77.84    0.209717  (  0.158355  -0.404115   0.146055)
   7:       102.67    3.374279  ( -1.270637   1.270210   0.382529)
   8:       217.97    0.342932  ( -0.037374   0.225494  -0.539154)
   9:       323.39    2.379763  (  1.243768  -0.869268  -0.277812)
  10:       391.82    0.332716  (  0.340103  -0.067329  -0.460991)
  11:       556.87    8.519704  (  2.678937  -0.893534  -0.737967)
  12:       622.86    9.285122  (  0.432375  -2.930151   0.715814)
  13:       726.60   34.148153  ( -3.741372   3.424989   2.901680)
  14:       740.30    4.047399  ( -0.693936   0.761400   1.728040)
  15:       780.89   11.758170  ( -1.575030  -0.328292   3.028147)
  16:       813.47    8.677054  ( -1.720349   2.320658  -0.576193)
  17:       906.66    4.283980  (  1.292712  -0.099933   1.613347)
  18:       924.17    3.651391  (  1.311773  -0.169475  -1.379101)
  19:       954.96    7.414030  (  1.155655   0.793033  -2.334436)
  20:       993.13    2.145680  (  1.026585  -0.883607  -0.557711)
  21:      1001.49    2.728078  ( -1.003171  -1.263279  -0.354755)
  22:      1028.89   42.076847  ( -0.044982   4.597775  -4.575510)
  23:      1030.18   32.428710  (  1.388877   4.848340  -2.644490)
  24:      1033.50    3.292740  ( -1.661227   0.722713   0.103680)
  25:      1060.87   22.523651  (  4.011865  -1.671243  -1.906709)
  26:      1116.62    2.329020  ( -0.346216   1.116624  -0.980972)
  27:      1140.03    2.270777  ( -0.942139   0.532205  -1.048766)
  28:      1213.09    2.344297  ( -0.939583   1.125014  -0.442521)
  29:      1263.52   22.557054  (  1.613065   3.111765  -3.204995)
  30:      1323.38    3.704529  ( -1.096462   0.293979   1.554309)
  31:      1329.27   12.205891  (  1.931840   1.039770  -2.718964)
  32:      1332.26    1.597676  (  0.558777  -0.086826  -1.130445)
  33:      1375.27    7.564314  ( -0.437653   2.489160   1.084830)
  34:      1383.82    2.111454  (  0.048370  -1.438532   0.199347)
  35:      1411.81   42.212163  (  3.107926   4.178973  -3.884475)
  36:      1447.07   24.890652  ( -0.608236   3.242172   3.742863)
  37:      1494.14   11.358560  ( -0.223295   3.056189  -1.403000)
  38:      1633.30   74.150398  (  2.525199   1.256092   8.136093)
  39:      1715.07    0.148182  (  0.252421   0.194196  -0.216226)
  40:      1717.63    0.740117  ( -0.810654   0.263279  -0.116793)
  41:      3083.44    1.348501  ( -0.000178  -1.002057  -0.586841)
  42:      3087.10    1.400613  (  0.232116  -0.802269   0.838510)
  43:      3141.14    0.096692  ( -0.117379   0.285741   0.035584)
  44:      3163.76    1.370687  ( -1.117281  -0.337868  -0.090643)
  45:      3170.99    0.266500  ( -0.004720   0.332641   0.394750)
  46:      3238.14    5.768584  (  0.899357   1.977858  -1.023631)
  47:      3256.58    8.184510  ( -1.898023   0.046110  -2.140068)
  48:      3260.03    0.316435  ( -0.522787   0.188601   0.086938)
  49:      3464.72   56.539378  ( -2.885864  -1.442775  -6.791875)
  50:      3527.58   74.371633  (  6.859240  -4.541252  -2.588337)

--------------------------
THERMOCHEMISTRY AT 298.15K
--------------------------

Temperature         ... 298.15 K
Pressure            ... 1.00 atm
Total Mass          ... 96.15 AMU

Throughout the following assumptions are being made:
  (1) The electronic state is orbitally nondegenerate
  (2) There are no thermally accessible electronically excited states
  (3) Hindered rotations indicated by low frequency modes) are not
      treated as such but are treated as vibrations and this may
      case some error
  (4) All equations used are the standard statistical mechanics
      equations for an ideal gas
  (5) All vibrations are strinctly harmonic

------------
INNER ENERGY
------------

The inner energy is: U= E(el) + E(ZPE) + E(vib) + E(rot) + E(trans)
    E(el)   - is the total energy from the electronic structure calculation
              = E(kin-el) + E(nuc-el) + E(el-el) + E(nuc-nuc)
    E(ZPE)  - the the zero temperature vibrational energy from the frequency calculation
    E(vib)  - the the finite temperature correction to E(ZPE) due to population
              of excietd vibrational states
    E(rot)  - is the rotational thermal energy
    E(trans)- is the translational thermal energy

Summary of contributions to the inner energy U:
Electronic energy                ...   -288.87590002 Eh
Zero point energy                ...      0.15395461 Eh      96.61 kcal/mol
Thermal vibrational correction   ...      0.00393361 Eh       2.47 kcal/mol
Thermal rotational correction    ...      0.00141627 Eh       0.89 kcal/mol
Thermal translational correction ...      0.00141627 Eh       0.89 kcal/mol
-----------------------------------------------------------------------
Total thermal energy                   -288.71517927 Eh

Summary of corrections to the electronic energy:
(perhaps to be used in another calculation)
Total thermal correction                  0.00676615 Eh       4.25 kcal/mol
Non-thermal (ZPE) correction              0.15395461 Eh      96.61 kcal/mol
-----------------------------------------------------------------------
Total correction                          0.16072076 Eh     100.85 kcal/mol

--------
ENTHALPY
--------

The enthalpy is H = U + kB*T
                kB is Boltzmann's constant
Total free energy                 ...   -288.71517927 Eh
Thermal Enthalpy correction       ...      0.00094421 Eh       0.59 kcal/mol
-----------------------------------------------------------------------
Total Enthalpy                    ...   -288.71423506 Eh

-------
ENTROPY
-------

The entropy contributions are T*S = T*(S(el)+S(vib)+S(rot)+S(trans)
     S(el)   - electronic entropy
     S(vib)  - vibrational entropy
     S(rot)  - rotational entropy
     S(trans)- translational entropy
The entropies will be listed as mutliplied by the temperature to get
units of energy

Electronic entropy                ...      0.00000000 Eh      0.00 kcal/mol
Vibrational entropy               ...      0.00700776 Eh      4.40 kcal/mol
Rotational entropy                ...      0.01186364 Eh      7.44 kcal/mol
Translational entropy             ...      0.01881568 Eh     11.81 kcal/mol
-----------------------------------------------------------------------
Final entropy term                ...      0.03768708 Eh     23.65 kcal/mol

CAUTION: The rotational entropy is not quite correctly treated here
         because it includes a symmetry number that is not yet correctly
         implemented in ORCA!
For a nonlinear molecule the correct rotational entropy is:
    S(rot) = R*(ln(qrot/sn)+1.5)
    R    = 8.31441 J/mol/K = 1.987191683e-3 kcal/mol/K
    qrot = 191687.4935182
    sn is the rotational symmetry number. We have assumed 3 here
       if it is different for your molecule then you should correct
       the printed rotational entropy by manually evaluating the equation
       as given above

For convenience we print out the resulting values for sn=1 - 12:
 sn= 1  qrot/sn=  191687.4935 T*S(rot)=     8.10 kcal/mol T*S(tot)=    24.30 kcal/mol
 sn= 2  qrot/sn=   95843.7468 T*S(rot)=     7.68 kcal/mol T*S(tot)=    23.89 kcal/mol
 sn= 3  qrot/sn=   63895.8312 T*S(rot)=     7.44 kcal/mol T*S(tot)=    23.65 kcal/mol
 sn= 4  qrot/sn=   47921.8734 T*S(rot)=     7.27 kcal/mol T*S(tot)=    23.48 kcal/mol
 sn= 5  qrot/sn=   38337.4987 T*S(rot)=     7.14 kcal/mol T*S(tot)=    23.35 kcal/mol
 sn= 6  qrot/sn=   31947.9156 T*S(rot)=     7.03 kcal/mol T*S(tot)=    23.24 kcal/mol
 sn= 7  qrot/sn=   27383.9276 T*S(rot)=     6.94 kcal/mol T*S(tot)=    23.15 kcal/mol
 sn= 8  qrot/sn=   23960.9367 T*S(rot)=     6.86 kcal/mol T*S(tot)=    23.07 kcal/mol
 sn= 9  qrot/sn=   21298.6104 T*S(rot)=     6.79 kcal/mol T*S(tot)=    23.00 kcal/mol
 sn=10  qrot/sn=   19168.7494 T*S(rot)=     6.73 kcal/mol T*S(tot)=    22.94 kcal/mol
 sn=11  qrot/sn=   17426.1358 T*S(rot)=     6.67 kcal/mol T*S(tot)=    22.88 kcal/mol
 sn=12  qrot/sn=   15973.9578 T*S(rot)=     6.62 kcal/mol T*S(tot)=    22.83 kcal/mol

-------------------
GIBBS FREE ENTHALPY
-------------------

The Gibbs free enthalpy is G = H - T*S

Total enthalpy                    ...   -288.71423506 Eh
Total entropy correction          ...     -0.03768708 Eh    -23.65 kcal/mol
-----------------------------------------------------------------------
Final Gibbs free enthalpy         ...   -288.75192214 Eh

For completeness - the Gibbs free enthalpy minus the electronic energy
G-E(el)                           ...      0.12397789 Eh     77.80 kcal/mol

                             ****ORCA TERMINATED NORMALLY****
TOTAL RUN TIME: 0 days 0 hours 42 minutes 17 seconds 936 msec
