                         Program Version 3.0.3 - RELEASE   -
|  1> ! NORI PBE0 def2-TZVP UseSym TightOPT Freq TightSCF Grid3 FinalGrid5 XYZFile
|  2> % pal
|  3>     nprocs 8
|  4> end
|  5> %method
|  6>     SymThresh 5.0e-2
|  7> end
|  8> % geom
|  9>     MaxIter 10
| 10> end
| 11> % maxcore 2000
| 12> % output
| 13>     printlevel mini
| 14>     print[ P_Basis ] 0
| 15>     print[ P_SCFInfo ] 1
| 16>     print[ P_SCFIterInfo ] 1
| 17>     print[ P_OrbEn ] 0
| 18>     print[ P_Cartesian ] 0
| 19> end
| 20> % elprop
| 21>     Dipole false
| 22> end
| 23> *xyz 1 1
| 24>  C        0.8598305792     0.0297601204    -0.5066605763
| 25>  C        2.0186936305     0.0238778994    -0.2019327306
| 26>  C        3.4166375787     0.0155195705     0.1680340707
| 27>  N        3.7391299805    -1.2400913511     0.9820681138
| 28>  C        4.7710905460    -0.8693276556     2.0153156431
| 29>  C        4.6100987458     0.6129074085     2.0986657669
| 30>  C        3.8780606859     1.0951727364     1.1089195987
| 31>  H       -0.1721618842     0.0414313290    -0.7817964327
| 32>  H        4.0443491571    -0.0145531047    -0.7313673501
| 33>  H        4.0331808027    -2.0115042238     0.3830706812
| 34>  H        2.8735454610    -1.5290884219     1.4418939003
| 35>  H        5.7573997453    -1.1694555100     1.6514348393
| 36>  H        4.5650137809    -1.4082748596     2.9407048233
| 37>  H        5.0834875231     1.1911755305     2.8804160011
| 38>  H        3.6344736674     2.1319205320     0.9238436513
| 39> *
| 40>
| 41>                          ****END OF INPUT****
 Total Charge           Charge          ....    1
 Multiplicity           Mult            ....    1
 Number of Electrons    NEL             ....   50
FINAL SINGLE POINT ENERGY      -287.617066952802
FINAL SINGLE POINT ENERGY      -287.617067307808
FINAL SINGLE POINT ENERGY      -287.617067499903

CARTESIAN COORDINATES (ANGSTROEM)
---------------------------------
  C      2.649789   -0.001212   -1.048590
  C      1.554594    0.279988   -0.652246
  C      0.232418    0.616268   -0.173105
  N     -0.000250    0.000974    1.209083
  C     -1.448205   -0.406117    1.297037
  C     -1.834491   -0.495987   -0.142670
  C     -0.932047    0.049956   -0.939858
  H      3.624537   -0.247735   -1.408934
  H      0.136589    1.703785   -0.061181
  H      0.281969    0.635812    1.955925
  H      0.597769   -0.825235    1.273443
  H     -1.999957    0.367761    1.837586
  H     -1.526654   -1.340319    1.854204
  H     -2.771887   -0.938258   -0.451514
  H     -0.982449    0.139591   -2.015750

FINAL SINGLE POINT ENERGY      -287.617067626102
                    ***********************HURRAY********************
 Multiplicity           Mult            ....    1
 Number of Electrons    NEL             ....   50
 Basis Dimension        Dim             ....  265
FINAL SINGLE POINT ENERGY      -287.617067774440

VIBRATIONAL FREQUENCIES
-----------------------

   0:         0.00 cm**-1
   1:         0.00 cm**-1
   2:         0.00 cm**-1
   3:         0.00 cm**-1
   4:         0.00 cm**-1
   5:         0.00 cm**-1
   6:        88.85 cm**-1
   7:       152.64 cm**-1
   8:       214.69 cm**-1
   9:       372.98 cm**-1
  10:       498.96 cm**-1
  11:       518.78 cm**-1
  12:       607.91 cm**-1
  13:       729.09 cm**-1
  14:       749.44 cm**-1
  15:       772.97 cm**-1
  16:       777.74 cm**-1
  17:       853.43 cm**-1
  18:       889.97 cm**-1
  19:       930.94 cm**-1
  20:       982.47 cm**-1
  21:       994.24 cm**-1
  22:      1026.39 cm**-1
  23:      1057.63 cm**-1
  24:      1088.81 cm**-1
  25:      1139.43 cm**-1
  26:      1198.51 cm**-1
  27:      1266.66 cm**-1
  28:      1309.89 cm**-1
  29:      1330.73 cm**-1
  30:      1354.90 cm**-1
  31:      1382.77 cm**-1
  32:      1405.99 cm**-1
  33:      1496.42 cm**-1
  34:      1639.65 cm**-1
  35:      1714.05 cm**-1
  36:      2254.00 cm**-1
  37:      3046.89 cm**-1
  38:      3082.33 cm**-1
  39:      3141.79 cm**-1
  40:      3242.47 cm**-1
  41:      3262.89 cm**-1
  42:      3449.24 cm**-1
  43:      3452.77 cm**-1
  44:      3516.99 cm**-1

IR SPECTRUM
-----------

 Mode    freq (cm**-1)   T**2         TX         TY         TZ
-------------------------------------------------------------------
   6:        88.85    1.058486  ( -0.042614  -0.944821  -0.404948)
   7:       152.64    2.074504  ( -1.364650   0.238579  -0.394098)
   8:       214.69    8.402687  (  0.106550  -2.837464  -0.583207)
   9:       372.98    6.627369  ( -1.230240  -2.195728  -0.540980)
  10:       498.96   20.518527  (  0.422367  -1.356219   4.301256)
  11:       518.78    3.837460  (  1.785562   0.612506   0.523513)
  12:       607.91   13.866885  (  1.394525  -2.968438  -1.763678)
  13:       729.09   37.158224  ( -2.346342  -5.132955  -2.303405)
  14:       749.44   36.334667  (  2.532535  -5.467222  -0.174392)
  15:       772.97   12.866616  ( -1.687551   3.021278  -0.943751)
  16:       777.74   24.360203  ( -0.891238   1.608412  -4.580274)
  17:       853.43    5.648722  (  0.179024  -1.938093   1.363989)
  18:       889.97    6.660544  (  0.748526   2.274074  -0.963765)
  19:       930.94    4.572953  (  0.399203  -0.572207   2.021428)
  20:       982.47    1.014509  (  0.379536  -0.077628   0.929750)
  21:       994.24    4.061401  ( -0.909703  -1.570396  -0.876184)
  22:      1026.39   43.452848  ( -5.125761   1.248432   3.952320)
  23:      1057.63   10.905368  (  1.292799   2.951903  -0.721324)
  24:      1088.81    7.895251  ( -0.917964   1.907782  -1.847420)
  25:      1139.43    2.393687  ( -1.246684  -0.702561  -0.588111)
  26:      1198.51    0.241097  ( -0.403751  -0.005994   0.279367)
  27:      1266.66   12.397994  (  2.019426   0.525486  -2.836155)
  28:      1309.89   11.520943  (  3.072430  -0.370911  -1.394110)
  29:      1330.73    8.510118  (  0.620422   2.398803  -1.539785)
  30:      1354.90    3.195644  ( -0.852251  -1.364885   0.778717)
  31:      1382.77   23.049135  (  3.852468   0.087265  -2.863566)
  32:      1405.99   70.719274  (  6.150680   2.828427  -4.988829)
  33:      1496.42    9.676629  ( -1.298694  -0.145950   2.822892)
  34:      1639.65   58.329905  ( -4.980826   1.780035  -5.509333)
  35:      1714.05    0.796053  (  0.824486   0.315174  -0.130157)
  36:      2254.00   33.608829  (  5.140009  -0.791716  -2.561703)
  37:      3046.89    0.567174  (  0.347049   0.198287  -0.638289)
  38:      3082.33    1.262995  (  0.170432  -0.093242  -1.106912)
  39:      3141.79    0.155295  ( -0.179910   0.330324   0.117533)
  40:      3242.47    8.855081  (  2.341698   1.224431  -1.368321)
  41:      3262.89   11.852492  ( -1.340060  -0.399210  -3.146008)
  42:      3449.24   41.753649  ( -2.535233   2.050580  -5.578652)
  43:      3452.77  118.930311  ( 10.420995  -2.521671  -1.993576)
  44:      3516.99   87.136918  (  1.026602  -7.691300  -5.189114)

--------------------------
THERMOCHEMISTRY AT 298.15K
--------------------------

Temperature         ... 298.15 K
Pressure            ... 1.00 atm
Total Mass          ... 94.14 AMU

Throughout the following assumptions are being made:
  (1) The electronic state is orbitally nondegenerate
  (2) There are no thermally accessible electronically excited states
  (3) Hindered rotations indicated by low frequency modes) are not
      treated as such but are treated as vibrations and this may
      case some error
  (4) All equations used are the standard statistical mechanics
      equations for an ideal gas
  (5) All vibrations are strinctly harmonic

------------
INNER ENERGY
------------

The inner energy is: U= E(el) + E(ZPE) + E(vib) + E(rot) + E(trans)
    E(el)   - is the total energy from the electronic structure calculation
              = E(kin-el) + E(nuc-el) + E(el-el) + E(nuc-nuc)
    E(ZPE)  - the the zero temperature vibrational energy from the frequency calculation
    E(vib)  - the the finite temperature correction to E(ZPE) due to population
              of excietd vibrational states
    E(rot)  - is the rotational thermal energy
    E(trans)- is the translational thermal energy

Summary of contributions to the inner energy U:
Electronic energy                ...   -287.61706777 Eh
Zero point energy                ...      0.12984709 Eh      81.48 kcal/mol
Thermal vibrational correction   ...      0.00366837 Eh       2.30 kcal/mol
Thermal rotational correction    ...      0.00141627 Eh       0.89 kcal/mol
Thermal translational correction ...      0.00141627 Eh       0.89 kcal/mol
-----------------------------------------------------------------------
Total thermal energy                   -287.48071977 Eh

Summary of corrections to the electronic energy:
(perhaps to be used in another calculation)
Total thermal correction                  0.00650092 Eh       4.08 kcal/mol
Non-thermal (ZPE) correction              0.12984709 Eh      81.48 kcal/mol
-----------------------------------------------------------------------
Total correction                          0.13634800 Eh      85.56 kcal/mol

--------
ENTHALPY
--------

The enthalpy is H = U + kB*T
                kB is Boltzmann's constant
Total free energy                 ...   -287.48071977 Eh
Thermal Enthalpy correction       ...      0.00094421 Eh       0.59 kcal/mol
-----------------------------------------------------------------------
Total Enthalpy                    ...   -287.47977556 Eh

-------
ENTROPY
-------

The entropy contributions are T*S = T*(S(el)+S(vib)+S(rot)+S(trans)
     S(el)   - electronic entropy
     S(vib)  - vibrational entropy
     S(rot)  - rotational entropy
     S(trans)- translational entropy
The entropies will be listed as mutliplied by the temperature to get
units of energy

Electronic entropy                ...      0.00000000 Eh      0.00 kcal/mol
Vibrational entropy               ...      0.00627301 Eh      3.94 kcal/mol
Rotational entropy                ...      0.01186534 Eh      7.45 kcal/mol
Translational entropy             ...      0.01878567 Eh     11.79 kcal/mol
-----------------------------------------------------------------------
Final entropy term                ...      0.03692403 Eh     23.17 kcal/mol

CAUTION: The rotational entropy is not quite correctly treated here
         because it includes a symmetry number that is not yet correctly
         implemented in ORCA!
For a nonlinear molecule the correct rotational entropy is:
    S(rot) = R*(ln(qrot/sn)+1.5)
    R    = 8.31441 J/mol/K = 1.987191683e-3 kcal/mol/K
    qrot = 192032.6987468
    sn is the rotational symmetry number. We have assumed 3 here
       if it is different for your molecule then you should correct
       the printed rotational entropy by manually evaluating the equation
       as given above

For convenience we print out the resulting values for sn=1 - 12:
 sn= 1  qrot/sn=  192032.6987 T*S(rot)=     8.10 kcal/mol T*S(tot)=    23.82 kcal/mol
 sn= 2  qrot/sn=   96016.3494 T*S(rot)=     7.69 kcal/mol T*S(tot)=    23.41 kcal/mol
 sn= 3  qrot/sn=   64010.8996 T*S(rot)=     7.45 kcal/mol T*S(tot)=    23.17 kcal/mol
 sn= 4  qrot/sn=   48008.1747 T*S(rot)=     7.28 kcal/mol T*S(tot)=    23.00 kcal/mol
 sn= 5  qrot/sn=   38406.5397 T*S(rot)=     7.14 kcal/mol T*S(tot)=    22.87 kcal/mol
 sn= 6  qrot/sn=   32005.4498 T*S(rot)=     7.03 kcal/mol T*S(tot)=    22.76 kcal/mol
 sn= 7  qrot/sn=   27433.2427 T*S(rot)=     6.94 kcal/mol T*S(tot)=    22.67 kcal/mol
 sn= 8  qrot/sn=   24004.0873 T*S(rot)=     6.86 kcal/mol T*S(tot)=    22.59 kcal/mol
 sn= 9  qrot/sn=   21336.9665 T*S(rot)=     6.79 kcal/mol T*S(tot)=    22.52 kcal/mol
 sn=10  qrot/sn=   19203.2699 T*S(rot)=     6.73 kcal/mol T*S(tot)=    22.46 kcal/mol
 sn=11  qrot/sn=   17457.5181 T*S(rot)=     6.68 kcal/mol T*S(tot)=    22.40 kcal/mol
 sn=12  qrot/sn=   16002.7249 T*S(rot)=     6.62 kcal/mol T*S(tot)=    22.35 kcal/mol

-------------------
GIBBS FREE ENTHALPY
-------------------

The Gibbs free enthalpy is G = H - T*S

Total enthalpy                    ...   -287.47977556 Eh
Total entropy correction          ...     -0.03692403 Eh    -23.17 kcal/mol
-----------------------------------------------------------------------
Final Gibbs free enthalpy         ...   -287.51669959 Eh

For completeness - the Gibbs free enthalpy minus the electronic energy
G-E(el)                           ...      0.10036818 Eh     62.98 kcal/mol

                             ****ORCA TERMINATED NORMALLY****
TOTAL RUN TIME: 0 days 0 hours 43 minutes 5 seconds 493 msec
