                         Program Version 3.0.3 - RELEASE   -
|  1> ! NORI PBE0 def2-TZVP UseSym TightOPT Freq TightSCF Grid3 FinalGrid5 XYZFile
|  2> % pal
|  3>     nprocs 8
|  4> end
|  5> %method
|  6>     SymThresh 5.0e-2
|  7> end
|  8> % geom
|  9>     MaxIter 10
| 10> end
| 11> % maxcore 2000
| 12> % output
| 13>     printlevel mini
| 14>     print[ P_Basis ] 0
| 15>     print[ P_SCFInfo ] 1
| 16>     print[ P_SCFIterInfo ] 1
| 17>     print[ P_OrbEn ] 0
| 18>     print[ P_Cartesian ] 0
| 19> end
| 20> % elprop
| 21>     Dipole false
| 22> end
| 23> *xyz 1 1
| 24>  C        0.8712494840    -0.3088101993    -0.3345304104
| 25>  C        2.3133810859    -0.0151578604     0.0439124167
| 26>  C        2.7820121181    -0.6824619787     1.3207448194
| 27>  N        4.2249444025    -0.2475537468     1.5344381180
| 28>  C        2.0423669814    -0.5144808434     2.6617141829
| 29>  C        2.4052739131    -1.9720069354     3.0154869424
| 30>  C        2.7232174285    -2.2079682264     1.5243690447
| 31>  H        0.6273503163     0.2036580258    -1.2653139151
| 32>  H        0.1695963408     0.0453015147     0.4224675617
| 33>  H        0.6978717268    -1.3736716458    -0.4964375677
| 34>  H        2.4393302265     1.0709618776     0.1471846949
| 35>  H        2.9704049735    -0.3299322750    -0.7779218089
| 36>  H        4.8100938775    -0.5326439326     0.7458158991
| 37>  H        4.6114632165    -0.6639222662     2.3840763579
| 38>  H        4.2879775197     0.7691902367     1.6210642039
| 39>  H        0.9737788274    -0.3955619958     2.4860085087
| 40>  H        2.3651785789     0.2913641239     3.3263150500
| 41>  H        3.2819657829    -2.0545387096     3.6631779256
| 42>  H        1.6177568353    -2.5820371142     3.4523673035
| 43>  H        3.6062882454    -2.7926842826     1.2543976993
| 44>  H        1.8700481191    -2.6229637665     0.9893329733
| 45> *
| 46>
| 47>                          ****END OF INPUT****
 Total Charge           Charge          ....    1
 Multiplicity           Mult            ....    1
 Number of Electrons    NEL             ....   56
FINAL SINGLE POINT ENERGY      -291.313717285633
FINAL SINGLE POINT ENERGY      -291.313720561951
FINAL SINGLE POINT ENERGY      -291.313721902116
FINAL SINGLE POINT ENERGY      -291.313722479078

CARTESIAN COORDINATES (ANGSTROEM)
---------------------------------
  C      1.887179   -0.009349   -1.526160
  C      1.578456   -0.011913   -0.038471
  C      0.101499   -0.000671    0.298967
  N      0.001570   -0.003546    1.818297
  C     -0.857844    1.083578   -0.228116
  C     -1.966953    0.016378   -0.334523
  C     -0.873988   -1.068004   -0.233167
  H      2.967015   -0.022259   -1.675043
  H      1.501651    0.882765   -2.021753
  H      1.479979   -0.887646   -2.029099
  H      2.052786    0.862340    0.426715
  H      2.036971   -0.898067    0.420114
  H      0.451619   -0.833799    2.209748
  H     -0.974460    0.001853    2.121475
  H      0.461907    0.819180    2.213659
  H     -0.530548    1.426494   -1.208713
  H     -1.025280    1.963494    0.397911
  H     -2.653568    0.019451    0.515977
  H     -2.569640    0.023097   -1.239922
  H     -1.054623   -1.948423    0.388487
  H     -0.552024   -1.411229   -1.215399

FINAL SINGLE POINT ENERGY      -291.313723101597
                    ***********************HURRAY********************
 Multiplicity           Mult            ....    1
 Number of Electrons    NEL             ....   56
 Basis Dimension        Dim             ....  301
FINAL SINGLE POINT ENERGY      -291.313723363436

VIBRATIONAL FREQUENCIES
-----------------------

   0:         0.00 cm**-1
   1:         0.00 cm**-1
   2:         0.00 cm**-1
   3:         0.00 cm**-1
   4:         0.00 cm**-1
   5:         0.00 cm**-1
   6:        78.48 cm**-1
   7:       133.15 cm**-1
   8:       231.99 cm**-1
   9:       245.13 cm**-1
  10:       249.79 cm**-1
  11:       286.10 cm**-1
  12:       359.95 cm**-1
  13:       390.80 cm**-1
  14:       467.07 cm**-1
  15:       596.12 cm**-1
  16:       698.73 cm**-1
  17:       752.13 cm**-1
  18:       796.90 cm**-1
  19:       829.33 cm**-1
  20:       894.77 cm**-1
  21:       921.17 cm**-1
  22:       927.23 cm**-1
  23:       955.49 cm**-1
  24:       997.88 cm**-1
  25:      1015.20 cm**-1
  26:      1015.55 cm**-1
  27:      1086.15 cm**-1
  28:      1105.28 cm**-1
  29:      1158.37 cm**-1
  30:      1198.56 cm**-1
  31:      1228.33 cm**-1
  32:      1252.21 cm**-1
  33:      1259.06 cm**-1
  34:      1262.91 cm**-1
  35:      1276.83 cm**-1
  36:      1347.47 cm**-1
  37:      1352.07 cm**-1
  38:      1378.54 cm**-1
  39:      1420.83 cm**-1
  40:      1460.86 cm**-1
  41:      1467.66 cm**-1
  42:      1479.64 cm**-1
  43:      1480.02 cm**-1
  44:      1496.91 cm**-1
  45:      1497.50 cm**-1
  46:      1512.73 cm**-1
  47:      1647.62 cm**-1
  48:      1653.70 cm**-1
  49:      3016.33 cm**-1
  50:      3056.09 cm**-1
  51:      3071.82 cm**-1
  52:      3076.56 cm**-1
  53:      3082.04 cm**-1
  54:      3086.24 cm**-1
  55:      3147.79 cm**-1
  56:      3150.05 cm**-1
  57:      3153.70 cm**-1
  58:      3155.73 cm**-1
  59:      3166.50 cm**-1
  60:      3413.44 cm**-1
  61:      3503.12 cm**-1
  62:      3505.88 cm**-1

IR SPECTRUM
-----------

 Mode    freq (cm**-1)   T**2         TX         TY         TZ
-------------------------------------------------------------------
   6:        78.48    0.571412  ( -0.006834  -0.755868  -0.005412)
   7:       133.15    4.135381  (  1.069448  -0.015365   1.729574)
   8:       231.99    0.000078  ( -0.002821   0.008372   0.000162)
   9:       245.13    0.141636  ( -0.026948  -0.375375  -0.001898)
  10:       249.79    3.876572  (  1.968372  -0.015246  -0.043008)
  11:       286.10    2.224173  ( -0.005847  -1.491350  -0.003885)
  12:       359.95    8.689191  ( -2.713100   0.021586  -1.152307)
  13:       390.80    3.976749  ( -0.013741  -1.994125  -0.005009)
  14:       467.07    5.871227  (  0.526750  -0.010681   2.365089)
  15:       596.12    0.844577  ( -0.699359   0.006466  -0.596181)
  16:       698.73    2.171416  ( -0.441571  -0.001256   1.405856)
  17:       752.13    0.471498  (  0.006083   0.686630   0.000507)
  18:       796.90    2.466915  (  0.013543   1.570581   0.002689)
  19:       829.33    5.469761  ( -0.083229   0.007701  -2.337258)
  20:       894.77    0.728831  ( -0.070278   0.002018  -0.850816)
  21:       921.17    1.634079  (  0.028039   1.277993   0.005137)
  22:       927.23    6.432323  (  2.535630  -0.029473   0.045086)
  23:       955.49    2.906964  (  0.009308   1.704945   0.006301)
  24:       997.88    4.097895  (  2.009983  -0.012064  -0.240249)
  25:      1015.20    2.979297  (  0.481033   1.646627   0.191115)
  26:      1015.55   11.530351  ( -3.148746   0.271702  -1.241743)
  27:      1086.15    0.405024  ( -0.585389   0.004761  -0.249642)
  28:      1105.28    3.011115  ( -0.013429  -1.735201  -0.003603)
  29:      1158.37   15.470755  (  1.789245  -0.003273  -3.502763)
  30:      1198.56    5.570690  (  0.016896   2.360159   0.007467)
  31:      1228.33    2.094819  (  0.011551   1.447299   0.003370)
  32:      1252.21    1.540234  (  0.982491  -0.002407  -0.758247)
  33:      1259.06    1.186842  (  0.000470   1.089324   0.014656)
  34:      1262.91    5.044448  (  0.955841   0.002624  -2.032439)
  35:      1276.83    0.257406  ( -0.002696  -0.507325  -0.004464)
  36:      1347.47    0.035945  (  0.044130   0.184266   0.006620)
  37:      1352.07   26.860989  ( -5.168312   0.043606  -0.384234)
  38:      1378.54    7.555642  ( -0.212802   0.006942  -2.740494)
  39:      1420.83    4.155997  (  1.261858  -0.007041  -1.601144)
  40:      1460.86   13.203475  (  0.025228   3.633546   0.013493)
  41:      1467.66   22.297397  (  0.114199   0.008043  -4.720624)
  42:      1479.64  136.243625  ( -1.206917  -0.028494  11.609744)
  43:      1480.02    3.339135  (  0.617178  -0.026868   1.719740)
  44:      1496.91   16.082894  (  3.943942  -0.209537   0.695925)
  45:      1497.50   21.152819  (  0.190193   4.594816   0.065682)
  46:      1512.73   23.606712  ( -1.995529  -0.002758   4.429962)
  47:      1647.62   34.662321  (  0.052517   5.887225   0.012275)
  48:      1653.70   34.001841  ( -5.822011   0.049079   0.321898)
  49:      3016.33   19.487338  ( -1.753955   0.040712  -4.050842)
  50:      3056.09    9.373041  ( -0.032673  -3.061282  -0.022985)
  51:      3071.82    7.159851  (  0.765605  -0.009399   2.563906)
  52:      3076.56    9.361257  ( -2.758019  -0.011022   1.324563)
  53:      3082.04   17.783750  ( -0.001620  -4.216542  -0.067214)
  54:      3086.24    7.775703  ( -0.695506  -0.074594   2.699335)
  55:      3147.79   12.996884  (  0.048267   3.604744   0.019304)
  56:      3150.05    4.733605  ( -2.165520   0.015851   0.209469)
  57:      3153.70    2.239496  ( -1.372294   0.042812  -0.595374)
  58:      3155.73    0.060488  ( -0.018856   0.245208  -0.002312)
  59:      3166.50    4.509187  ( -0.566130   0.010952  -2.046598)
  60:      3413.44   28.048347  (  0.143550   0.013560  -5.294106)
  61:      3503.12   66.335039  ( -0.037535  -8.144517  -0.021698)
  62:      3505.88   67.283103  (  8.146333  -0.041751   0.958446)

--------------------------
THERMOCHEMISTRY AT 298.15K
--------------------------

Temperature         ... 298.15 K
Pressure            ... 1.00 atm
Total Mass          ... 100.18 AMU

Throughout the following assumptions are being made:
  (1) The electronic state is orbitally nondegenerate
  (2) There are no thermally accessible electronically excited states
  (3) Hindered rotations indicated by low frequency modes) are not
      treated as such but are treated as vibrations and this may
      case some error
  (4) All equations used are the standard statistical mechanics
      equations for an ideal gas
  (5) All vibrations are strinctly harmonic

------------
INNER ENERGY
------------

The inner energy is: U= E(el) + E(ZPE) + E(vib) + E(rot) + E(trans)
    E(el)   - is the total energy from the electronic structure calculation
              = E(kin-el) + E(nuc-el) + E(el-el) + E(nuc-nuc)
    E(ZPE)  - the the zero temperature vibrational energy from the frequency calculation
    E(vib)  - the the finite temperature correction to E(ZPE) due to population
              of excietd vibrational states
    E(rot)  - is the rotational thermal energy
    E(trans)- is the translational thermal energy

Summary of contributions to the inner energy U:
Electronic energy                ...   -291.31372336 Eh
Zero point energy                ...      0.19922913 Eh     125.02 kcal/mol
Thermal vibrational correction   ...      0.00535060 Eh       3.36 kcal/mol
Thermal rotational correction    ...      0.00141627 Eh       0.89 kcal/mol
Thermal translational correction ...      0.00141627 Eh       0.89 kcal/mol
-----------------------------------------------------------------------
Total thermal energy                   -291.10631109 Eh

Summary of corrections to the electronic energy:
(perhaps to be used in another calculation)
Total thermal correction                  0.00818315 Eh       5.13 kcal/mol
Non-thermal (ZPE) correction              0.19922913 Eh     125.02 kcal/mol
-----------------------------------------------------------------------
Total correction                          0.20741228 Eh     130.15 kcal/mol

--------
ENTHALPY
--------

The enthalpy is H = U + kB*T
                kB is Boltzmann's constant
Total free energy                 ...   -291.10631109 Eh
Thermal Enthalpy correction       ...      0.00094421 Eh       0.59 kcal/mol
-----------------------------------------------------------------------
Total Enthalpy                    ...   -291.10536688 Eh

-------
ENTROPY
-------

The entropy contributions are T*S = T*(S(el)+S(vib)+S(rot)+S(trans)
     S(el)   - electronic entropy
     S(vib)  - vibrational entropy
     S(rot)  - rotational entropy
     S(trans)- translational entropy
The entropies will be listed as mutliplied by the temperature to get
units of energy

Electronic entropy                ...      0.00000000 Eh      0.00 kcal/mol
Vibrational entropy               ...      0.00917096 Eh      5.75 kcal/mol
Rotational entropy                ...      0.01205441 Eh      7.56 kcal/mol
Translational entropy             ...      0.01887386 Eh     11.84 kcal/mol
-----------------------------------------------------------------------
Final entropy term                ...      0.04009922 Eh     25.16 kcal/mol

CAUTION: The rotational entropy is not quite correctly treated here
         because it includes a symmetry number that is not yet correctly
         implemented in ORCA!
For a nonlinear molecule the correct rotational entropy is:
    S(rot) = R*(ln(qrot/sn)+1.5)
    R    = 8.31441 J/mol/K = 1.987191683e-3 kcal/mol/K
    qrot = 234606.6514668
    sn is the rotational symmetry number. We have assumed 3 here
       if it is different for your molecule then you should correct
       the printed rotational entropy by manually evaluating the equation
       as given above

For convenience we print out the resulting values for sn=1 - 12:
 sn= 1  qrot/sn=  234606.6515 T*S(rot)=     8.22 kcal/mol T*S(tot)=    25.81 kcal/mol
 sn= 2  qrot/sn=  117303.3257 T*S(rot)=     7.80 kcal/mol T*S(tot)=    25.40 kcal/mol
 sn= 3  qrot/sn=   78202.2172 T*S(rot)=     7.56 kcal/mol T*S(tot)=    25.16 kcal/mol
 sn= 4  qrot/sn=   58651.6629 T*S(rot)=     7.39 kcal/mol T*S(tot)=    24.99 kcal/mol
 sn= 5  qrot/sn=   46921.3303 T*S(rot)=     7.26 kcal/mol T*S(tot)=    24.86 kcal/mol
 sn= 6  qrot/sn=   39101.1086 T*S(rot)=     7.15 kcal/mol T*S(tot)=    24.75 kcal/mol
 sn= 7  qrot/sn=   33515.2359 T*S(rot)=     7.06 kcal/mol T*S(tot)=    24.66 kcal/mol
 sn= 8  qrot/sn=   29325.8314 T*S(rot)=     6.98 kcal/mol T*S(tot)=    24.58 kcal/mol
 sn= 9  qrot/sn=   26067.4057 T*S(rot)=     6.91 kcal/mol T*S(tot)=    24.51 kcal/mol
 sn=10  qrot/sn=   23460.6651 T*S(rot)=     6.85 kcal/mol T*S(tot)=    24.45 kcal/mol
 sn=11  qrot/sn=   21327.8774 T*S(rot)=     6.79 kcal/mol T*S(tot)=    24.39 kcal/mol
 sn=12  qrot/sn=   19550.5543 T*S(rot)=     6.74 kcal/mol T*S(tot)=    24.34 kcal/mol

-------------------
GIBBS FREE ENTHALPY
-------------------

The Gibbs free enthalpy is G = H - T*S

Total enthalpy                    ...   -291.10536688 Eh
Total entropy correction          ...     -0.04009922 Eh    -25.16 kcal/mol
-----------------------------------------------------------------------
Final Gibbs free enthalpy         ...   -291.14546610 Eh

For completeness - the Gibbs free enthalpy minus the electronic energy
G-E(el)                           ...      0.16825726 Eh    105.58 kcal/mol

                             ****ORCA TERMINATED NORMALLY****
TOTAL RUN TIME: 0 days 0 hours 58 minutes 37 seconds 76 msec
