                         Program Version 3.0.3 - RELEASE   -
|  1> ! NORI PBE0 def2-TZVP UseSym TightOPT Freq TightSCF Grid3 FinalGrid5 XYZFile
|  2> % pal
|  3>     nprocs 8
|  4> end
|  5> %method
|  6>     SymThresh 5.0e-2
|  7> end
|  8> % geom
|  9>     MaxIter 10
| 10> end
| 11> % maxcore 2000
| 12> % output
| 13>     printlevel mini
| 14>     print[ P_Basis ] 0
| 15>     print[ P_SCFInfo ] 1
| 16>     print[ P_SCFIterInfo ] 1
| 17>     print[ P_OrbEn ] 0
| 18>     print[ P_Cartesian ] 0
| 19> end
| 20> % elprop
| 21>     Dipole false
| 22> end
| 23> *xyz 1 1
| 24>  C        2.1305489760     1.7772410541     0.0649742906
| 25>  C        2.4036323970     0.2830269523     0.0051356210
| 26>  C        3.2281766373    -0.1018445408    -1.2107787052
| 27>  N        3.3934756818    -1.6160500399    -1.2856263048
| 28>  C        4.7606841244    -1.9185682773    -1.8411500727
| 29>  C        5.4865066692    -0.6405181245    -1.5783933378
| 30>  C        4.6591284867     0.3377403816    -1.2454731133
| 31>  H        1.4944716908     2.0061871277     0.9201775601
| 32>  H        1.6147803493     2.1249524042    -0.8332213347
| 33>  H        3.0491965352     2.3549265643     0.1771397502
| 34>  H        2.9315114487    -0.0394449168     0.9109519952
| 35>  H        1.4512491771    -0.2577911437    -0.0278690253
| 36>  H        2.7055607322     0.2039623241    -2.1257795956
| 37>  H        3.3291976745    -1.9788560582    -0.3330430256
| 38>  H        2.6476285784    -2.0543669560    -1.8242990776
| 39>  H        5.1702387930    -2.7964776302    -1.3408746126
| 40>  H        4.6660467189    -2.1407630913    -2.9075390581
| 41>  H        6.5588254549    -0.5611574180    -1.6951175240
| 42>  H        4.9419498744     1.3623113885    -1.0480544296
| 43> *
| 44>
| 45>                          ****END OF INPUT****
 Total Charge           Charge          ....    1
 Multiplicity           Mult            ....    1
 Number of Electrons    NEL             ....   54
FINAL SINGLE POINT ENERGY      -290.112773730782
FINAL SINGLE POINT ENERGY      -290.112775401961
FINAL SINGLE POINT ENERGY      -290.112777074087

CARTESIAN COORDINATES (ANGSTROEM)
---------------------------------
  C      2.054831    0.000336   -1.879286
  C      1.588209   -0.411458   -0.492020
  C      0.369768    0.373677   -0.038558
  N      0.000289    0.003833    1.394695
  C     -1.500369    0.037202    1.523260
  C     -1.932291   -0.084526    0.099277
  C     -0.925771    0.104504   -0.739529
  H      2.951368   -0.556291   -2.151725
  H      2.301114    1.063738   -1.917541
  H      1.299255   -0.204084   -2.639772
  H      1.347275   -1.481247   -0.479143
  H      2.400829   -0.249798    0.225636
  H      0.597305    1.446488   -0.037881
  H      0.331782   -0.947852    1.561197
  H      0.463484    0.605398    2.074603
  H     -1.827758   -0.770896    2.178578
  H     -1.793700    0.988802    1.975331
  H     -2.963455   -0.269900   -0.168069
  H     -0.996027    0.106254   -1.818262

FINAL SINGLE POINT ENERGY      -290.112777664218
                    ***********************HURRAY********************
 Multiplicity           Mult            ....    1
 Number of Electrons    NEL             ....   54
 Basis Dimension        Dim             ....  289
FINAL SINGLE POINT ENERGY      -290.112777968372

VIBRATIONAL FREQUENCIES
-----------------------

   0:         0.00 cm**-1
   1:         0.00 cm**-1
   2:         0.00 cm**-1
   3:         0.00 cm**-1
   4:         0.00 cm**-1
   5:         0.00 cm**-1
   6:        82.78 cm**-1
   7:       116.80 cm**-1
   8:       202.38 cm**-1
   9:       234.55 cm**-1
  10:       304.56 cm**-1
  11:       393.65 cm**-1
  12:       497.17 cm**-1
  13:       621.46 cm**-1
  14:       741.05 cm**-1
  15:       764.56 cm**-1
  16:       801.02 cm**-1
  17:       855.40 cm**-1
  18:       889.63 cm**-1
  19:       925.40 cm**-1
  20:       955.52 cm**-1
  21:       984.96 cm**-1
  22:       995.87 cm**-1
  23:      1009.41 cm**-1
  24:      1053.85 cm**-1
  25:      1081.57 cm**-1
  26:      1126.39 cm**-1
  27:      1136.78 cm**-1
  28:      1153.39 cm**-1
  29:      1219.06 cm**-1
  30:      1271.18 cm**-1
  31:      1282.56 cm**-1
  32:      1323.57 cm**-1
  33:      1334.42 cm**-1
  34:      1373.48 cm**-1
  35:      1381.80 cm**-1
  36:      1388.78 cm**-1
  37:      1414.97 cm**-1
  38:      1423.46 cm**-1
  39:      1480.44 cm**-1
  40:      1494.16 cm**-1
  41:      1497.46 cm**-1
  42:      1497.91 cm**-1
  43:      1638.99 cm**-1
  44:      1711.44 cm**-1
  45:      3032.01 cm**-1
  46:      3051.09 cm**-1
  47:      3065.88 cm**-1
  48:      3079.60 cm**-1
  49:      3080.75 cm**-1
  50:      3139.33 cm**-1
  51:      3141.16 cm**-1
  52:      3154.63 cm**-1
  53:      3241.33 cm**-1
  54:      3259.82 cm**-1
  55:      3453.87 cm**-1
  56:      3523.76 cm**-1

IR SPECTRUM
-----------

 Mode    freq (cm**-1)   T**2         TX         TY         TZ
-------------------------------------------------------------------
   6:        82.78    0.427554  ( -0.151410  -0.500483  -0.392613)
   7:       116.80    1.435146  (  0.470282   1.101040  -0.041133)
   8:       202.38    0.860695  (  0.261838  -0.357362  -0.815124)
   9:       234.55    1.152315  ( -0.139265  -0.831726  -0.664194)
  10:       304.56    0.914492  ( -0.250538   0.680094   0.623855)
  11:       393.65    1.612248  ( -0.662266  -0.099803   1.078745)
  12:       497.17    4.483635  (  0.015167   2.116725   0.053681)
  13:       621.46   10.625183  (  0.429211   2.827902   1.563308)
  14:       741.05   40.476460  ( -1.982616   6.040288  -0.246207)
  15:       764.56    4.988025  (  0.514216   2.027067  -0.783968)
  16:       801.02    2.566707  (  1.047588   1.136236   0.422176)
  17:       855.40    2.007504  (  0.052109  -1.278019   0.609472)
  18:       889.63    4.007426  (  0.174102   1.967044  -0.328409)
  19:       925.40    2.972344  ( -0.676914  -0.239150  -1.567463)
  20:       955.52    3.933547  (  0.503557  -1.804702  -0.650405)
  21:       984.96    1.894627  (  1.228076  -0.618763  -0.059897)
  22:       995.87    8.723616  (  1.235614  -0.562004  -2.623171)
  23:      1009.41   18.261954  (  3.910124  -1.356587  -1.064217)
  24:      1053.85    7.448572  ( -1.683149  -1.941603   0.919653)
  25:      1081.57    2.687058  (  0.543037   1.115244  -1.071634)
  26:      1126.39    7.274509  (  1.040683  -1.455185  -2.018396)
  27:      1136.78   11.440411  ( -2.747782  -0.478228   1.913479)
  28:      1153.39    1.899132  ( -0.311832   0.544275  -1.227052)
  29:      1219.06    1.140624  ( -0.691779  -0.089119   0.808779)
  30:      1271.18   13.958317  (  1.761895  -0.106177  -3.292836)
  31:      1282.56    7.048360  (  1.853920  -0.199012  -1.889903)
  32:      1323.57    7.285103  (  1.629192   1.404646  -1.630278)
  33:      1334.42    1.115165  (  0.567619  -0.002056  -0.890488)
  34:      1373.48   10.434614  ( -2.020498  -1.251248   2.187825)
  35:      1381.80    3.362969  (  0.754605  -0.110086  -1.667760)
  36:      1388.78    4.094495  ( -0.784140  -0.243936   1.849355)
  37:      1414.97   27.296035  (  4.383474   0.457867  -2.805629)
  38:      1423.46   30.457692  ( -3.224661  -1.169878   4.323267)
  39:      1480.44    3.776652  ( -1.284251  -0.506725   1.367692)
  40:      1494.16   13.014431  (  2.439402   1.466066   2.216844)
  41:      1497.46    8.473142  ( -1.542258   0.430679   2.430864)
  42:      1497.91   11.292038  ( -0.902344   3.229592   0.218059)
  43:      1638.99   58.440188  ( -4.411923   2.810547  -5.574581)
  44:      1711.44    0.317274  (  0.515494   0.199679  -0.108023)
  45:      3032.01   10.974223  (  0.581703  -1.576431   2.854945)
  46:      3051.09    2.173982  (  0.294215   1.365352  -0.472476)
  47:      3065.88    8.188726  (  0.119264  -1.548527   2.403449)
  48:      3079.60    4.088943  (  0.295729   1.015680   1.723334)
  49:      3080.75    6.432535  ( -1.906554  -1.672007   0.044503)
  50:      3139.33    0.102145  (  0.138855  -0.107184  -0.267163)
  51:      3141.16   11.983030  ( -1.933098  -2.486259  -1.436898)
  52:      3154.63    4.446415  (  1.837626  -0.905597   0.499441)
  53:      3241.33    4.904203  (  1.824100   0.335619  -1.210051)
  54:      3259.82    5.985890  (  1.573011   0.304790   1.848954)
  55:      3453.87   47.377828  (  4.086622  -3.280744   4.462518)
  56:      3523.76   75.020766  (  1.388395   7.274581   4.491503)

--------------------------
THERMOCHEMISTRY AT 298.15K
--------------------------

Temperature         ... 298.15 K
Pressure            ... 1.00 atm
Total Mass          ... 98.17 AMU

Throughout the following assumptions are being made:
  (1) The electronic state is orbitally nondegenerate
  (2) There are no thermally accessible electronically excited states
  (3) Hindered rotations indicated by low frequency modes) are not
      treated as such but are treated as vibrations and this may
      case some error
  (4) All equations used are the standard statistical mechanics
      equations for an ideal gas
  (5) All vibrations are strinctly harmonic

------------
INNER ENERGY
------------

The inner energy is: U= E(el) + E(ZPE) + E(vib) + E(rot) + E(trans)
    E(el)   - is the total energy from the electronic structure calculation
              = E(kin-el) + E(nuc-el) + E(el-el) + E(nuc-nuc)
    E(ZPE)  - the the zero temperature vibrational energy from the frequency calculation
    E(vib)  - the the finite temperature correction to E(ZPE) due to population
              of excietd vibrational states
    E(rot)  - is the rotational thermal energy
    E(trans)- is the translational thermal energy

Summary of contributions to the inner energy U:
Electronic energy                ...   -290.11277797 Eh
Zero point energy                ...      0.17743526 Eh     111.34 kcal/mol
Thermal vibrational correction   ...      0.00447488 Eh       2.81 kcal/mol
Thermal rotational correction    ...      0.00141627 Eh       0.89 kcal/mol
Thermal translational correction ...      0.00141627 Eh       0.89 kcal/mol
-----------------------------------------------------------------------
Total thermal energy                   -289.92803529 Eh

Summary of corrections to the electronic energy:
(perhaps to be used in another calculation)
Total thermal correction                  0.00730742 Eh       4.59 kcal/mol
Non-thermal (ZPE) correction              0.17743526 Eh     111.34 kcal/mol
-----------------------------------------------------------------------
Total correction                          0.18474268 Eh     115.93 kcal/mol

--------
ENTHALPY
--------

The enthalpy is H = U + kB*T
                kB is Boltzmann's constant
Total free energy                 ...   -289.92803529 Eh
Thermal Enthalpy correction       ...      0.00094421 Eh       0.59 kcal/mol
-----------------------------------------------------------------------
Total Enthalpy                    ...   -289.92709108 Eh

-------
ENTROPY
-------

The entropy contributions are T*S = T*(S(el)+S(vib)+S(rot)+S(trans)
     S(el)   - electronic entropy
     S(vib)  - vibrational entropy
     S(rot)  - rotational entropy
     S(trans)- translational entropy
The entropies will be listed as mutliplied by the temperature to get
units of energy

Electronic entropy                ...      0.00000000 Eh      0.00 kcal/mol
Vibrational entropy               ...      0.00785411 Eh      4.93 kcal/mol
Rotational entropy                ...      0.01200585 Eh      7.53 kcal/mol
Translational entropy             ...      0.01884507 Eh     11.83 kcal/mol
-----------------------------------------------------------------------
Final entropy term                ...      0.03870503 Eh     24.29 kcal/mol

CAUTION: The rotational entropy is not quite correctly treated here
         because it includes a symmetry number that is not yet correctly
         implemented in ORCA!
For a nonlinear molecule the correct rotational entropy is:
    S(rot) = R*(ln(qrot/sn)+1.5)
    R    = 8.31441 J/mol/K = 1.987191683e-3 kcal/mol/K
    qrot = 222846.7246301
    sn is the rotational symmetry number. We have assumed 3 here
       if it is different for your molecule then you should correct
       the printed rotational entropy by manually evaluating the equation
       as given above

For convenience we print out the resulting values for sn=1 - 12:
 sn= 1  qrot/sn=  222846.7246 T*S(rot)=     8.18 kcal/mol T*S(tot)=    24.94 kcal/mol
 sn= 2  qrot/sn=  111423.3623 T*S(rot)=     7.77 kcal/mol T*S(tot)=    24.53 kcal/mol
 sn= 3  qrot/sn=   74282.2415 T*S(rot)=     7.53 kcal/mol T*S(tot)=    24.29 kcal/mol
 sn= 4  qrot/sn=   55711.6812 T*S(rot)=     7.36 kcal/mol T*S(tot)=    24.12 kcal/mol
 sn= 5  qrot/sn=   44569.3449 T*S(rot)=     7.23 kcal/mol T*S(tot)=    23.99 kcal/mol
 sn= 6  qrot/sn=   37141.1208 T*S(rot)=     7.12 kcal/mol T*S(tot)=    23.88 kcal/mol
 sn= 7  qrot/sn=   31835.2464 T*S(rot)=     7.03 kcal/mol T*S(tot)=    23.79 kcal/mol
 sn= 8  qrot/sn=   27855.8406 T*S(rot)=     6.95 kcal/mol T*S(tot)=    23.71 kcal/mol
 sn= 9  qrot/sn=   24760.7472 T*S(rot)=     6.88 kcal/mol T*S(tot)=    23.64 kcal/mol
 sn=10  qrot/sn=   22284.6725 T*S(rot)=     6.82 kcal/mol T*S(tot)=    23.57 kcal/mol
 sn=11  qrot/sn=   20258.7931 T*S(rot)=     6.76 kcal/mol T*S(tot)=    23.52 kcal/mol
 sn=12  qrot/sn=   18570.5604 T*S(rot)=     6.71 kcal/mol T*S(tot)=    23.47 kcal/mol

-------------------
GIBBS FREE ENTHALPY
-------------------

The Gibbs free enthalpy is G = H - T*S

Total enthalpy                    ...   -289.92709108 Eh
Total entropy correction          ...     -0.03870503 Eh    -24.29 kcal/mol
-----------------------------------------------------------------------
Final Gibbs free enthalpy         ...   -289.96579611 Eh

For completeness - the Gibbs free enthalpy minus the electronic energy
G-E(el)                           ...      0.14698186 Eh     92.23 kcal/mol

                             ****ORCA TERMINATED NORMALLY****
TOTAL RUN TIME: 0 days 0 hours 46 minutes 52 seconds 180 msec
