                         Program Version 3.0.3 - RELEASE   -
|  1> ! NORI PBE0 def2-TZVP UseSym TightOPT Freq TightSCF Grid3 FinalGrid5 XYZFile
|  2> % pal
|  3>     nprocs 8
|  4> end
|  5> %method
|  6>     SymThresh 5.0e-2
|  7> end
|  8> % geom
|  9>     MaxIter 10
| 10> end
| 11> % maxcore 2000
| 12> % output
| 13>     printlevel mini
| 14>     print[ P_Basis ] 0
| 15>     print[ P_SCFInfo ] 1
| 16>     print[ P_SCFIterInfo ] 1
| 17>     print[ P_OrbEn ] 0
| 18>     print[ P_Cartesian ] 0
| 19> end
| 20> % elprop
| 21>     Dipole false
| 22> end
| 23> *xyz 1 1
| 24>  C        3.0882487797    -1.6039959368     1.2471183965
| 25>  C        2.9121372948    -0.5526246778     0.1641538895
| 26>  C        3.4343373265     0.8319390512     0.5321513118
| 27>  C        4.9172305645     0.8750433001     0.7973241930
| 28>  C        5.5639625052     2.0304768960     1.5085571076
| 29>  C        5.4353502507     0.7121545968     2.1859869109
| 30>  N        6.6618609209    -0.0939974767     2.3990295973
| 31>  H        2.6371840593    -2.5514599866     0.9491781201
| 32>  H        2.6166258874    -1.2988730014     2.1853888482
| 33>  H        4.1446801956    -1.8139737781     1.4493649152
| 34>  H        3.3970435978    -0.8871073518    -0.7591496128
| 35>  H        1.8500248100    -0.4592320315    -0.0754543880
| 36>  H        2.9014226400     1.2140157758     1.4109852365
| 37>  H        3.2187088036     1.5314441556    -0.2809514197
| 38>  H        5.5294324695     0.4281755017     0.0150432458
| 39>  H        4.9392923361     2.8312106714     1.8849176661
| 40>  H        6.5432300978     2.3526655697     1.1723416084
| 41>  H        4.7475900759     0.5830842844     3.0116364176
| 42>  H        7.3111694471     0.0178510964     1.6171167213
| 43>  H        6.4385554456    -1.0905324016     2.4735568451
| 44>  H        7.1555424919     0.1864157431     3.2508743897
| 45> *
| 46>
| 47>                          ****END OF INPUT****
 Total Charge           Charge          ....    1
 Multiplicity           Mult            ....    1
 Number of Electrons    NEL             ....   56
FINAL SINGLE POINT ENERGY      -291.302033538140
FINAL SINGLE POINT ENERGY      -291.302035790063
FINAL SINGLE POINT ENERGY      -291.302037749120

CARTESIAN COORDINATES (ANGSTROEM)
---------------------------------
  C      2.174488    0.004857   -1.050449
  C      1.013608    0.529709   -1.878919
  C     -0.354444    0.000584   -1.463324
  C     -0.750934    0.364091   -0.055772
  C     -1.868984   -0.342545    0.658819
  C     -0.456976   -0.569286    1.069227
  N     -0.001211   -0.004472    2.362784
  H      3.128010    0.358903   -1.444855
  H      2.206419   -1.088587   -1.049458
  H      2.124039    0.344849   -0.009533
  H      1.002319    1.624734   -1.848592
  H      1.172411    0.263960   -2.927263
  H     -0.385233   -1.089978   -1.572470
  H     -1.118150    0.394657   -2.139969
  H     -0.663146    1.423977    0.180442
  H     -2.368922   -1.166682    0.165048
  H     -2.513402    0.243736    1.305094
  H      0.027006   -1.517933    0.876076
  H     -0.448969    0.896606    2.543953
  H      1.010987    0.149960    2.361125
  H     -0.227869   -0.623238    3.145947

FINAL SINGLE POINT ENERGY      -291.302038122962
                    ***********************HURRAY********************
 Multiplicity           Mult            ....    1
 Number of Electrons    NEL             ....   56
 Basis Dimension        Dim             ....  301
FINAL SINGLE POINT ENERGY      -291.302038315702

VIBRATIONAL FREQUENCIES
-----------------------

   0:         0.00 cm**-1
   1:         0.00 cm**-1
   2:         0.00 cm**-1
   3:         0.00 cm**-1
   4:         0.00 cm**-1
   5:         0.00 cm**-1
   6:        69.39 cm**-1
   7:        90.40 cm**-1
   8:       160.66 cm**-1
   9:       199.65 cm**-1
  10:       250.15 cm**-1
  11:       274.63 cm**-1
  12:       307.44 cm**-1
  13:       381.04 cm**-1
  14:       401.51 cm**-1
  15:       487.11 cm**-1
  16:       755.81 cm**-1
  17:       775.29 cm**-1
  18:       810.51 cm**-1
  19:       866.35 cm**-1
  20:       895.57 cm**-1
  21:       907.70 cm**-1
  22:       923.31 cm**-1
  23:       981.97 cm**-1
  24:      1015.73 cm**-1
  25:      1046.34 cm**-1
  26:      1079.01 cm**-1
  27:      1098.47 cm**-1
  28:      1108.88 cm**-1
  29:      1122.04 cm**-1
  30:      1178.49 cm**-1
  31:      1184.99 cm**-1
  32:      1201.93 cm**-1
  33:      1250.87 cm**-1
  34:      1271.28 cm**-1
  35:      1303.06 cm**-1
  36:      1347.02 cm**-1
  37:      1380.49 cm**-1
  38:      1389.01 cm**-1
  39:      1408.17 cm**-1
  40:      1442.89 cm**-1
  41:      1475.30 cm**-1
  42:      1480.66 cm**-1
  43:      1489.63 cm**-1
  44:      1493.02 cm**-1
  45:      1499.79 cm**-1
  46:      1517.18 cm**-1
  47:      1652.30 cm**-1
  48:      1658.20 cm**-1
  49:      3027.39 cm**-1
  50:      3041.47 cm**-1
  51:      3052.74 cm**-1
  52:      3085.50 cm**-1
  53:      3095.38 cm**-1
  54:      3110.21 cm**-1
  55:      3128.97 cm**-1
  56:      3136.22 cm**-1
  57:      3152.04 cm**-1
  58:      3212.67 cm**-1
  59:      3241.28 cm**-1
  60:      3405.59 cm**-1
  61:      3480.16 cm**-1
  62:      3496.42 cm**-1

IR SPECTRUM
-----------

 Mode    freq (cm**-1)   T**2         TX         TY         TZ
-------------------------------------------------------------------
   6:        69.39    3.433656  (  0.905030  -1.572361  -0.377170)
   7:        90.40   11.121178  (  2.304579   0.375536  -2.380980)
   8:       160.66    6.346383  ( -1.648579  -0.632321   1.796870)
   9:       199.65    0.173278  (  0.152200  -0.360148  -0.142851)
  10:       250.15    1.183978  (  0.594923   0.488595  -0.768973)
  11:       274.63    1.742191  ( -0.921368   0.797223  -0.507649)
  12:       307.44    2.529466  ( -0.124776  -0.748066   1.397961)
  13:       381.04    6.386797  (  0.941112  -0.391348   2.312564)
  14:       401.51    3.527142  ( -1.336635  -0.679796   1.130676)
  15:       487.11    1.278165  ( -0.069147  -0.621281  -0.942016)
  16:       755.81    1.659126  (  0.583824   0.356057   1.091558)
  17:       775.29    0.551304  ( -0.341886   0.179498   0.634191)
  18:       810.51   11.933758  (  0.872870  -3.104027   1.239706)
  19:       866.35    5.574325  ( -1.928735  -0.130293   1.355482)
  20:       895.57    5.946606  ( -2.060608  -0.140046   1.296491)
  21:       907.70    0.984682  ( -0.840176  -0.331587   0.410897)
  22:       923.31   11.128492  ( -3.103268   1.167445  -0.367819)
  23:       981.97    9.900433  ( -1.001413   2.293820  -1.906829)
  24:      1015.73   13.966984  ( -1.616618  -2.882419   1.745048)
  25:      1046.34    1.454280  (  0.182217   0.426695  -1.113107)
  26:      1079.01    6.865068  ( -0.432534   1.492998  -2.109251)
  27:      1098.47    3.934488  (  1.520237  -0.946066   0.853420)
  28:      1108.88    1.324984  (  1.150096   0.028666  -0.037970)
  29:      1122.04    9.696342  ( -2.113043  -1.128706   1.989325)
  30:      1178.49   14.868441  (  2.987826   1.107490  -2.171360)
  31:      1184.99    0.595495  (  0.096639   0.287539   0.709561)
  32:      1201.93    2.084913  (  0.656055  -0.372384  -1.231192)
  33:      1250.87    1.128934  ( -0.343975   0.395889  -0.924060)
  34:      1271.28    4.442562  (  1.280069   1.503735  -0.736727)
  35:      1303.06    0.485429  (  0.359909   0.452956  -0.388234)
  36:      1347.02    4.287808  ( -1.161589   0.453464  -1.653146)
  37:      1380.49    1.114153  ( -0.767787  -0.024650   0.723912)
  38:      1389.01    0.327578  ( -0.205507  -0.074484  -0.528958)
  39:      1408.17    6.414379  (  2.306571  -0.793818   0.681148)
  40:      1442.89    6.592445  (  1.276071   1.658628  -1.487628)
  41:      1475.30    6.091545  ( -0.998512  -2.256934   0.027732)
  42:      1480.66    6.424227  (  2.386396  -0.268046   0.810859)
  43:      1489.63   18.273813  ( -1.173068   1.097134  -3.961568)
  44:      1493.02    7.682456  (  0.796438  -1.669547  -2.064160)
  45:      1499.79   70.938097  (  4.183991   4.219278   5.969088)
  46:      1517.18   80.139547  (  0.119220   3.907741   8.053254)
  47:      1652.30   29.320043  ( -4.291750  -2.196099   2.465375)
  48:      1658.20   44.510813  ( -3.742832   5.410449  -1.108633)
  49:      3027.39   50.553911  ( -1.020304   0.164952  -7.034606)
  50:      3041.47    5.208878  ( -1.555759  -1.451513  -0.825593)
  51:      3052.74   18.677927  (  0.726308   3.673309  -2.158055)
  52:      3085.50    8.870593  (  1.109890  -2.280762  -1.561045)
  53:      3095.38   11.287387  (  1.466433  -1.645912   2.535337)
  54:      3110.21   37.394275  (  1.184573  -4.048477  -4.427290)
  55:      3128.97    7.874663  (  0.011028  -2.279443  -1.636668)
  56:      3136.22   13.121882  (  2.316477   2.191216  -1.718833)
  57:      3152.04    2.296719  (  0.304818   0.521812   1.389790)
  58:      3212.67    0.314216  (  0.115563  -0.541142  -0.089595)
  59:      3241.28    0.376150  (  0.265555   0.547394   0.077396)
  60:      3405.59   30.759204  (  2.621139   0.539982   4.857700)
  61:      3480.16   99.251259  (  7.355470   3.834049  -5.518005)
  62:      3496.42   81.724221  ( -4.387430   7.893429  -0.410430)

--------------------------
THERMOCHEMISTRY AT 298.15K
--------------------------

Temperature         ... 298.15 K
Pressure            ... 1.00 atm
Total Mass          ... 100.18 AMU

Throughout the following assumptions are being made:
  (1) The electronic state is orbitally nondegenerate
  (2) There are no thermally accessible electronically excited states
  (3) Hindered rotations indicated by low frequency modes) are not
      treated as such but are treated as vibrations and this may
      case some error
  (4) All equations used are the standard statistical mechanics
      equations for an ideal gas
  (5) All vibrations are strinctly harmonic

------------
INNER ENERGY
------------

The inner energy is: U= E(el) + E(ZPE) + E(vib) + E(rot) + E(trans)
    E(el)   - is the total energy from the electronic structure calculation
              = E(kin-el) + E(nuc-el) + E(el-el) + E(nuc-nuc)
    E(ZPE)  - the the zero temperature vibrational energy from the frequency calculation
    E(vib)  - the the finite temperature correction to E(ZPE) due to population
              of excietd vibrational states
    E(rot)  - is the rotational thermal energy
    E(trans)- is the translational thermal energy

Summary of contributions to the inner energy U:
Electronic energy                ...   -291.30203832 Eh
Zero point energy                ...      0.19888241 Eh     124.80 kcal/mol
Thermal vibrational correction   ...      0.00579426 Eh       3.64 kcal/mol
Thermal rotational correction    ...      0.00141627 Eh       0.89 kcal/mol
Thermal translational correction ...      0.00141627 Eh       0.89 kcal/mol
-----------------------------------------------------------------------
Total thermal energy                   -291.09452910 Eh

Summary of corrections to the electronic energy:
(perhaps to be used in another calculation)
Total thermal correction                  0.00862680 Eh       5.41 kcal/mol
Non-thermal (ZPE) correction              0.19888241 Eh     124.80 kcal/mol
-----------------------------------------------------------------------
Total correction                          0.20750921 Eh     130.21 kcal/mol

--------
ENTHALPY
--------

The enthalpy is H = U + kB*T
                kB is Boltzmann's constant
Total free energy                 ...   -291.09452910 Eh
Thermal Enthalpy correction       ...      0.00094421 Eh       0.59 kcal/mol
-----------------------------------------------------------------------
Total Enthalpy                    ...   -291.09358489 Eh

-------
ENTROPY
-------

The entropy contributions are T*S = T*(S(el)+S(vib)+S(rot)+S(trans)
     S(el)   - electronic entropy
     S(vib)  - vibrational entropy
     S(rot)  - rotational entropy
     S(trans)- translational entropy
The entropies will be listed as mutliplied by the temperature to get
units of energy

Electronic entropy                ...      0.00000000 Eh      0.00 kcal/mol
Vibrational entropy               ...      0.01045678 Eh      6.56 kcal/mol
Rotational entropy                ...      0.01226680 Eh      7.70 kcal/mol
Translational entropy             ...      0.01887386 Eh     11.84 kcal/mol
-----------------------------------------------------------------------
Final entropy term                ...      0.04159744 Eh     26.10 kcal/mol

CAUTION: The rotational entropy is not quite correctly treated here
         because it includes a symmetry number that is not yet correctly
         implemented in ORCA!
For a nonlinear molecule the correct rotational entropy is:
    S(rot) = R*(ln(qrot/sn)+1.5)
    R    = 8.31441 J/mol/K = 1.987191683e-3 kcal/mol/K
    qrot = 293787.4140383
    sn is the rotational symmetry number. We have assumed 3 here
       if it is different for your molecule then you should correct
       the printed rotational entropy by manually evaluating the equation
       as given above

For convenience we print out the resulting values for sn=1 - 12:
 sn= 1  qrot/sn=  293787.4140 T*S(rot)=     8.35 kcal/mol T*S(tot)=    26.75 kcal/mol
 sn= 2  qrot/sn=  146893.7070 T*S(rot)=     7.94 kcal/mol T*S(tot)=    26.34 kcal/mol
 sn= 3  qrot/sn=   97929.1380 T*S(rot)=     7.70 kcal/mol T*S(tot)=    26.10 kcal/mol
 sn= 4  qrot/sn=   73446.8535 T*S(rot)=     7.53 kcal/mol T*S(tot)=    25.93 kcal/mol
 sn= 5  qrot/sn=   58757.4828 T*S(rot)=     7.39 kcal/mol T*S(tot)=    25.80 kcal/mol
 sn= 6  qrot/sn=   48964.5690 T*S(rot)=     7.29 kcal/mol T*S(tot)=    25.69 kcal/mol
 sn= 7  qrot/sn=   41969.6306 T*S(rot)=     7.20 kcal/mol T*S(tot)=    25.60 kcal/mol
 sn= 8  qrot/sn=   36723.4268 T*S(rot)=     7.12 kcal/mol T*S(tot)=    25.52 kcal/mol
 sn= 9  qrot/sn=   32643.0460 T*S(rot)=     7.05 kcal/mol T*S(tot)=    25.45 kcal/mol
 sn=10  qrot/sn=   29378.7414 T*S(rot)=     6.98 kcal/mol T*S(tot)=    25.39 kcal/mol
 sn=11  qrot/sn=   26707.9467 T*S(rot)=     6.93 kcal/mol T*S(tot)=    25.33 kcal/mol
 sn=12  qrot/sn=   24482.2845 T*S(rot)=     6.88 kcal/mol T*S(tot)=    25.28 kcal/mol

-------------------
GIBBS FREE ENTHALPY
-------------------

The Gibbs free enthalpy is G = H - T*S

Total enthalpy                    ...   -291.09358489 Eh
Total entropy correction          ...     -0.04159744 Eh    -26.10 kcal/mol
-----------------------------------------------------------------------
Final Gibbs free enthalpy         ...   -291.13518233 Eh

For completeness - the Gibbs free enthalpy minus the electronic energy
G-E(el)                           ...      0.16685598 Eh    104.70 kcal/mol

                             ****ORCA TERMINATED NORMALLY****
TOTAL RUN TIME: 0 days 0 hours 51 minutes 11 seconds 405 msec
