                         Program Version 3.0.3 - RELEASE   -
|  1> ! NORI PBE0 def2-TZVP UseSym TightOPT Freq TightSCF Grid3 FinalGrid5 XYZFile
|  2> % pal
|  3>     nprocs 8
|  4> end
|  5> %method
|  6>     SymThresh 5.0e-2
|  7> end
|  8> % geom
|  9>     MaxIter 10
| 10> end
| 11> % maxcore 2000
| 12> % output
| 13>     printlevel mini
| 14>     print[ P_Basis ] 0
| 15>     print[ P_SCFInfo ] 1
| 16>     print[ P_SCFIterInfo ] 1
| 17>     print[ P_OrbEn ] 0
| 18>     print[ P_Cartesian ] 0
| 19> end
| 20> % elprop
| 21>     Dipole false
| 22> end
| 23> *xyz 1 1
| 24>  C        4.4005718800     0.4496106571     1.7740667182
| 25>  C        3.6953490773     0.1331189949     0.4949579578
| 26>  C        2.7710485902     0.9173993012    -0.0465349573
| 27>  C        4.1239684114    -1.1449221641    -0.1416772701
| 28>  C        3.5689264977    -2.4748544990     0.3081429706
| 29>  C        3.2137411778    -1.9187833088    -1.0257801102
| 30>  N        3.7897227593    -2.5664173391    -2.2308372796
| 31>  H        4.2464842698    -0.3412470665     2.5151753320
| 32>  H        4.0485651134     1.3895045291     2.1964175628
| 33>  H        5.4810772646     0.5295736989     1.6162645044
| 34>  H        2.2833519961     0.6861049325    -0.9868853073
| 35>  H        2.4708105971     1.8401598823     0.4344079362
| 36>  H        5.1817288817    -1.1802029078    -0.4036454083
| 37>  H        4.2454731791    -3.3210956946     0.3647446642
| 38>  H        2.7775653958    -2.4809585889     1.0472695682
| 39>  H        2.2080196050    -1.5716652992    -1.2203242383
| 40>  H        4.7425374755    -2.8903664849    -2.0507739451
| 41>  H        3.8314735459    -1.9152507446    -3.0194355187
| 42>  H        3.2387142824    -3.3794678985    -2.5192131796
| 43> *
| 44>
| 45>                          ****END OF INPUT****
 Total Charge           Charge          ....    1
 Multiplicity           Mult            ....    1
 Number of Electrons    NEL             ....   54
FINAL SINGLE POINT ENERGY      -290.072891004529

CARTESIAN COORDINATES (ANGSTROEM)
---------------------------------
  C      0.854089   -0.000527   -2.382558
  C      0.066545   -0.489412   -1.209914
  C     -0.899266   -1.395840   -1.301563
  C      0.462095    0.120080    0.091884
  C     -0.051573    1.474683    0.516297
  C     -0.498727    0.241456    1.219421
  N      0.000509   -0.000027    2.596241
  H      0.757848    1.083479   -2.497661
  H      0.523618   -0.475015   -3.305510
  H      1.920545   -0.211474   -2.253240
  H     -1.448267   -1.757052   -0.438942
  H     -1.174281   -1.823377   -2.258117
  H      1.500480   -0.059529    0.371571
  H      0.633931    2.149663    1.017639
  H     -0.792326    1.963800   -0.103840
  H     -1.517862   -0.105448    1.114452
  H      0.965415    0.322962    2.696469
  H     -0.014612   -0.996685    2.828472
  H     -0.562986    0.496701    3.291683

FINAL SINGLE POINT ENERGY      -290.072891962355
                    ***********************HURRAY********************
 Multiplicity           Mult            ....    1
 Number of Electrons    NEL             ....   54
 Basis Dimension        Dim             ....  289
FINAL SINGLE POINT ENERGY      -290.072892310336

VIBRATIONAL FREQUENCIES
-----------------------

   0:         0.00 cm**-1
   1:         0.00 cm**-1
   2:         0.00 cm**-1
   3:         0.00 cm**-1
   4:         0.00 cm**-1
   5:         0.00 cm**-1
   6:        61.61 cm**-1
   7:       152.03 cm**-1
   8:       176.08 cm**-1
   9:       193.79 cm**-1
  10:       223.20 cm**-1
  11:       305.14 cm**-1
  12:       379.47 cm**-1
  13:       415.38 cm**-1
  14:       481.86 cm**-1
  15:       539.64 cm**-1
  16:       712.90 cm**-1
  17:       765.98 cm**-1
  18:       814.67 cm**-1
  19:       897.12 cm**-1
  20:       924.42 cm**-1
  21:       931.16 cm**-1
  22:       956.30 cm**-1
  23:       981.86 cm**-1
  24:      1016.38 cm**-1
  25:      1032.35 cm**-1
  26:      1058.84 cm**-1
  27:      1086.55 cm**-1
  28:      1099.52 cm**-1
  29:      1131.25 cm**-1
  30:      1179.16 cm**-1
  31:      1185.08 cm**-1
  32:      1246.61 cm**-1
  33:      1263.37 cm**-1
  34:      1367.07 cm**-1
  35:      1410.88 cm**-1
  36:      1437.97 cm**-1
  37:      1443.75 cm**-1
  38:      1469.38 cm**-1
  39:      1482.12 cm**-1
  40:      1497.22 cm**-1
  41:      1518.60 cm**-1
  42:      1653.51 cm**-1
  43:      1659.05 cm**-1
  44:      1734.92 cm**-1
  45:      3045.13 cm**-1
  46:      3101.45 cm**-1
  47:      3115.27 cm**-1
  48:      3150.88 cm**-1
  49:      3158.02 cm**-1
  50:      3163.38 cm**-1
  51:      3221.60 cm**-1
  52:      3244.81 cm**-1
  53:      3249.39 cm**-1
  54:      3408.60 cm**-1
  55:      3484.39 cm**-1
  56:      3496.52 cm**-1

IR SPECTRUM
-----------

 Mode    freq (cm**-1)   T**2         TX         TY         TZ
-------------------------------------------------------------------
   6:        61.61    3.320529  ( -1.819460  -0.058792  -0.081485)
   7:       152.03    7.950536  (  0.349406   2.642027   0.920947)
   8:       176.08    0.387690  ( -0.566820  -0.247882   0.070423)
   9:       193.79    1.718601  ( -0.712606   1.064327   0.279290)
  10:       223.20    3.207136  (  1.518015  -0.794428  -0.521201)
  11:       305.14    9.276527  (  0.598735  -1.077849  -2.785011)
  12:       379.47    7.176324  ( -0.606601  -0.576017   2.544909)
  13:       415.38    0.925443  ( -0.775918  -0.166137   0.543869)
  14:       481.86    0.710962  (  0.743008  -0.120588   0.379946)
  15:       539.64   11.131897  ( -1.956233   2.635791  -0.598044)
  16:       712.90    0.546822  (  0.727701   0.071318   0.110393)
  17:       765.98    3.986883  (  0.561731   1.876290   0.388431)
  18:       814.67   10.129240  (  2.259655  -0.437456  -2.198142)
  19:       897.12    7.621007  ( -0.946427   2.533793   0.552428)
  20:       924.42    8.756164  ( -1.637755  -2.326304   0.813776)
  21:       931.16    0.865621  (  0.348289   0.042828  -0.861674)
  22:       956.30   41.576614  ( -4.695605   4.388701  -0.516923)
  23:       981.86   10.379525  ( -1.994947  -0.980951   2.331833)
  24:      1016.38    1.801271  (  0.501278   1.230892  -0.186804)
  25:      1032.35    3.503016  (  1.817922   0.261608   0.360191)
  26:      1058.84    3.294090  (  1.485517  -0.704537  -0.768737)
  27:      1086.55    3.677076  (  0.500066   1.598996  -0.932857)
  28:      1099.52   17.554268  (  2.206746  -2.507437  -2.529288)
  29:      1131.25    2.535030  ( -1.189865  -0.891940   0.568941)
  30:      1179.16    7.421004  ( -0.881960   2.570235   0.192462)
  31:      1185.08    6.092211  ( -0.506158  -1.481370  -1.908287)
  32:      1246.61    1.530518  ( -0.010768   0.438321  -1.156839)
  33:      1263.37    8.178799  (  0.509365  -1.669324  -2.265547)
  34:      1367.07    1.249238  (  0.065561   0.391646  -1.044774)
  35:      1410.88    8.169584  ( -1.468456  -0.896053   2.282610)
  36:      1437.97    4.972749  (  0.960648  -1.262898  -1.566842)
  37:      1443.75    3.275448  (  1.189944  -0.709620  -1.164440)
  38:      1469.38   12.525991  ( -2.437847   2.506969  -0.545893)
  39:      1482.12   20.917216  ( -2.888569  -1.702399  -3.110502)
  40:      1497.22   61.484362  (  0.823667  -4.259347   6.531761)
  41:      1518.60   88.312719  ( -4.464090  -0.645931  -8.244234)
  42:      1653.51   32.573353  ( -1.677079   5.257168   1.457031)
  43:      1659.05   48.802986  (  6.293224   2.786251  -1.197963)
  44:      1734.92   13.549880  ( -2.525193  -2.666466  -0.251475)
  45:      3045.13    7.479083  (  2.078820   1.526604  -0.909434)
  46:      3101.45    6.626884  ( -1.605514   1.963290  -0.441250)
  47:      3115.27    7.672978  ( -1.784517  -0.616254  -2.026995)
  48:      3150.88    3.192420  (  0.561330  -0.099975   1.693320)
  49:      3158.02    5.416750  ( -0.652073  -1.160808  -1.908946)
  50:      3163.38    4.696935  (  0.965679   0.561851  -1.857074)
  51:      3221.60    1.071935  ( -0.932940  -0.323325  -0.311479)
  52:      3244.81    1.060521  (  0.833707  -0.575190   0.186037)
  53:      3249.39    5.042298  ( -0.922019  -0.470581   1.992670)
  54:      3408.60   42.491792  (  0.297720  -1.176122   6.404677)
  55:      3484.39   94.499261  ( -4.132944   8.411013   2.583194)
  56:      3496.52   82.988871  (  7.919235   4.336887  -1.210784)

--------------------------
THERMOCHEMISTRY AT 298.15K
--------------------------

Temperature         ... 298.15 K
Pressure            ... 1.00 atm
Total Mass          ... 98.17 AMU

Throughout the following assumptions are being made:
  (1) The electronic state is orbitally nondegenerate
  (2) There are no thermally accessible electronically excited states
  (3) Hindered rotations indicated by low frequency modes) are not
      treated as such but are treated as vibrations and this may
      case some error
  (4) All equations used are the standard statistical mechanics
      equations for an ideal gas
  (5) All vibrations are strinctly harmonic

------------
INNER ENERGY
------------

The inner energy is: U= E(el) + E(ZPE) + E(vib) + E(rot) + E(trans)
    E(el)   - is the total energy from the electronic structure calculation
              = E(kin-el) + E(nuc-el) + E(el-el) + E(nuc-nuc)
    E(ZPE)  - the the zero temperature vibrational energy from the frequency calculation
    E(vib)  - the the finite temperature correction to E(ZPE) due to population
              of excietd vibrational states
    E(rot)  - is the rotational thermal energy
    E(trans)- is the translational thermal energy

Summary of contributions to the inner energy U:
Electronic energy                ...   -290.07289231 Eh
Zero point energy                ...      0.17479394 Eh     109.68 kcal/mol
Thermal vibrational correction   ...      0.00541207 Eh       3.40 kcal/mol
Thermal rotational correction    ...      0.00141627 Eh       0.89 kcal/mol
Thermal translational correction ...      0.00141627 Eh       0.89 kcal/mol
-----------------------------------------------------------------------
Total thermal energy                   -289.88985376 Eh

Summary of corrections to the electronic energy:
(perhaps to be used in another calculation)
Total thermal correction                  0.00824461 Eh       5.17 kcal/mol
Non-thermal (ZPE) correction              0.17479394 Eh     109.68 kcal/mol
-----------------------------------------------------------------------
Total correction                          0.18303855 Eh     114.86 kcal/mol

--------
ENTHALPY
--------

The enthalpy is H = U + kB*T
                kB is Boltzmann's constant
Total free energy                 ...   -289.88985376 Eh
Thermal Enthalpy correction       ...      0.00094421 Eh       0.59 kcal/mol
-----------------------------------------------------------------------
Total Enthalpy                    ...   -289.88890955 Eh

-------
ENTROPY
-------

The entropy contributions are T*S = T*(S(el)+S(vib)+S(rot)+S(trans)
     S(el)   - electronic entropy
     S(vib)  - vibrational entropy
     S(rot)  - rotational entropy
     S(trans)- translational entropy
The entropies will be listed as mutliplied by the temperature to get
units of energy

Electronic entropy                ...      0.00000000 Eh      0.00 kcal/mol
Vibrational entropy               ...      0.00959598 Eh      6.02 kcal/mol
Rotational entropy                ...      0.01213813 Eh      7.62 kcal/mol
Translational entropy             ...      0.01884507 Eh     11.83 kcal/mol
-----------------------------------------------------------------------
Final entropy term                ...      0.04057917 Eh     25.46 kcal/mol

CAUTION: The rotational entropy is not quite correctly treated here
         because it includes a symmetry number that is not yet correctly
         implemented in ORCA!
For a nonlinear molecule the correct rotational entropy is:
    S(rot) = R*(ln(qrot/sn)+1.5)
    R    = 8.31441 J/mol/K = 1.987191683e-3 kcal/mol/K
    qrot = 256358.3169876
    sn is the rotational symmetry number. We have assumed 3 here
       if it is different for your molecule then you should correct
       the printed rotational entropy by manually evaluating the equation
       as given above

For convenience we print out the resulting values for sn=1 - 12:
 sn= 1  qrot/sn=  256358.3170 T*S(rot)=     8.27 kcal/mol T*S(tot)=    26.11 kcal/mol
 sn= 2  qrot/sn=  128179.1585 T*S(rot)=     7.86 kcal/mol T*S(tot)=    25.70 kcal/mol
 sn= 3  qrot/sn=   85452.7723 T*S(rot)=     7.62 kcal/mol T*S(tot)=    25.46 kcal/mol
 sn= 4  qrot/sn=   64089.5792 T*S(rot)=     7.45 kcal/mol T*S(tot)=    25.29 kcal/mol
 sn= 5  qrot/sn=   51271.6634 T*S(rot)=     7.31 kcal/mol T*S(tot)=    25.16 kcal/mol
 sn= 6  qrot/sn=   42726.3862 T*S(rot)=     7.21 kcal/mol T*S(tot)=    25.05 kcal/mol
 sn= 7  qrot/sn=   36622.6167 T*S(rot)=     7.11 kcal/mol T*S(tot)=    24.96 kcal/mol
 sn= 8  qrot/sn=   32044.7896 T*S(rot)=     7.04 kcal/mol T*S(tot)=    24.88 kcal/mol
 sn= 9  qrot/sn=   28484.2574 T*S(rot)=     6.97 kcal/mol T*S(tot)=    24.81 kcal/mol
 sn=10  qrot/sn=   25635.8317 T*S(rot)=     6.90 kcal/mol T*S(tot)=    24.75 kcal/mol
 sn=11  qrot/sn=   23305.3015 T*S(rot)=     6.85 kcal/mol T*S(tot)=    24.69 kcal/mol
 sn=12  qrot/sn=   21363.1931 T*S(rot)=     6.80 kcal/mol T*S(tot)=    24.64 kcal/mol

-------------------
GIBBS FREE ENTHALPY
-------------------

The Gibbs free enthalpy is G = H - T*S

Total enthalpy                    ...   -289.88890955 Eh
Total entropy correction          ...     -0.04057917 Eh    -25.46 kcal/mol
-----------------------------------------------------------------------
Final Gibbs free enthalpy         ...   -289.92948873 Eh

For completeness - the Gibbs free enthalpy minus the electronic energy
G-E(el)                           ...      0.14340358 Eh     89.99 kcal/mol

                             ****ORCA TERMINATED NORMALLY****
TOTAL RUN TIME: 0 days 0 hours 45 minutes 22 seconds 935 msec
