                         Program Version 3.0.3 - RELEASE   -
|  1> ! NORI PBE0 def2-TZVP UseSym TightOPT Freq TightSCF Grid3 FinalGrid5 XYZFile
|  2> % pal
|  3>     nprocs 8
|  4> end
|  5> %method
|  6>     SymThresh 5.0e-2
|  7> end
|  8> % geom
|  9>     MaxIter 10
| 10> end
| 11> % maxcore 2000
| 12> % output
| 13>     printlevel mini
| 14>     print[ P_Basis ] 0
| 15>     print[ P_SCFInfo ] 1
| 16>     print[ P_SCFIterInfo ] 1
| 17>     print[ P_OrbEn ] 0
| 18>     print[ P_Cartesian ] 0
| 19> end
| 20> % elprop
| 21>     Dipole false
| 22> end
| 23> *xyz 1 1
| 24>  C        1.0689825470    -0.1046361081    -0.0583933598
| 25>  C        2.5817708862     0.0570826342     0.0191830679
| 26>  C        3.2683488712    -1.2825001145     0.2385503338
| 27>  C        3.0795592742     0.8200571532    -1.1941971677
| 28>  C        4.4970779584     0.8130206020    -1.6897236045
| 29>  C        3.4276441198     0.1328047562    -2.4717564193
| 30>  N        2.9926059924     0.7523664257    -3.7487994558
| 31>  H        0.5613595195     0.8572893846    -0.1648918928
| 32>  H        0.6847866095    -0.5790332169     0.8461314493
| 33>  H        0.7828554049    -0.7405665469    -0.9030452751
| 34>  H        2.8126667313     0.6962871491     0.8793400270
| 35>  H        3.0387637436    -1.9977056987    -0.5577488306
| 36>  H        2.9101124110    -1.7270897665     1.1681210437
| 37>  H        4.3532581778    -1.1938757633     0.3265549036
| 38>  H        2.5786709769     1.7790512077    -1.3221050709
| 39>  H        4.9065539138     1.7450645639    -2.0639174813
| 40>  H        5.2273283267     0.1692427387    -1.2167748687
| 41>  H        3.4105176502    -0.9468987029    -2.5459724468
| 42>  H        3.0026578412     1.7724479049    -3.6768872782
| 43>  H        2.0395292310     0.4721237769    -3.9937786472
| 44>  H        3.6096598135     0.4924876206    -4.5231590266
| 45> *
| 46>
| 47>                          ****END OF INPUT****
 Total Charge           Charge          ....    1
 Multiplicity           Mult            ....    1
 Number of Electrons    NEL             ....   56
FINAL SINGLE POINT ENERGY      -291.302238846042
FINAL SINGLE POINT ENERGY      -291.302242707528
FINAL SINGLE POINT ENERGY      -291.302248648447
FINAL SINGLE POINT ENERGY      -291.302251639371
FINAL SINGLE POINT ENERGY      -291.302255363024

CARTESIAN COORDINATES (ANGSTROEM)
---------------------------------
  C      1.884281   -0.020862   -1.289351
  C      0.378196    0.206550   -1.333080
  C     -0.349742   -1.015320   -1.873528
  C     -0.108690    0.670361    0.027260
  C     -1.518930    0.539752    0.527835
  C     -0.434690   -0.293579    1.117453
  N      0.017011    0.019402    2.496753
  H      2.418702    0.864918   -0.936364
  H      2.267456   -0.261800   -2.282026
  H      2.136791   -0.858880   -0.631226
  H      0.178203    1.041781   -2.014206
  H     -0.167333   -1.906623   -1.265165
  H      0.013757   -1.242646   -2.876611
  H     -1.427868   -0.862523   -1.953283
  H      0.390720    1.578067    0.364133
  H     -1.926307    1.358796    1.110847
  H     -2.253514    0.015194   -0.068961
  H     -0.411716   -1.361037    0.941542
  H      0.008301    1.028822    2.659151
  H      0.972330   -0.308504    2.660847
  H     -0.591206   -0.410082    3.199228

FINAL SINGLE POINT ENERGY      -291.302256185141
                    ***********************HURRAY********************
 Multiplicity           Mult            ....    1
 Number of Electrons    NEL             ....   56
 Basis Dimension        Dim             ....  301
FINAL SINGLE POINT ENERGY      -291.302256682755

VIBRATIONAL FREQUENCIES
-----------------------

   0:         0.00 cm**-1
   1:         0.00 cm**-1
   2:         0.00 cm**-1
   3:         0.00 cm**-1
   4:         0.00 cm**-1
   5:         0.00 cm**-1
   6:        50.04 cm**-1
   7:       152.00 cm**-1
   8:       188.98 cm**-1
   9:       221.21 cm**-1
  10:       232.95 cm**-1
  11:       264.25 cm**-1
  12:       318.27 cm**-1
  13:       351.56 cm**-1
  14:       390.53 cm**-1
  15:       462.97 cm**-1
  16:       532.87 cm**-1
  17:       737.06 cm**-1
  18:       805.24 cm**-1
  19:       879.79 cm**-1
  20:       899.67 cm**-1
  21:       914.95 cm**-1
  22:       930.29 cm**-1
  23:       966.49 cm**-1
  24:       975.29 cm**-1
  25:      1022.49 cm**-1
  26:      1064.92 cm**-1
  27:      1086.55 cm**-1
  28:      1104.56 cm**-1
  29:      1142.99 cm**-1
  30:      1167.75 cm**-1
  31:      1174.84 cm**-1
  32:      1186.03 cm**-1
  33:      1220.02 cm**-1
  34:      1259.33 cm**-1
  35:      1337.26 cm**-1
  36:      1355.21 cm**-1
  37:      1373.37 cm**-1
  38:      1402.36 cm**-1
  39:      1421.14 cm**-1
  40:      1436.09 cm**-1
  41:      1474.87 cm**-1
  42:      1488.41 cm**-1
  43:      1495.92 cm**-1
  44:      1500.09 cm**-1
  45:      1504.96 cm**-1
  46:      1517.35 cm**-1
  47:      1652.81 cm**-1
  48:      1659.28 cm**-1
  49:      3038.97 cm**-1
  50:      3045.92 cm**-1
  51:      3054.12 cm**-1
  52:      3111.20 cm**-1
  53:      3122.55 cm**-1
  54:      3125.28 cm**-1
  55:      3138.13 cm**-1
  56:      3141.82 cm**-1
  57:      3155.09 cm**-1
  58:      3216.17 cm**-1
  59:      3246.84 cm**-1
  60:      3408.36 cm**-1
  61:      3484.75 cm**-1
  62:      3496.79 cm**-1

IR SPECTRUM
-----------

 Mode    freq (cm**-1)   T**2         TX         TY         TZ
-------------------------------------------------------------------
   6:        50.04    2.995186  ( -0.882815  -1.477438   0.181664)
   7:       152.00   10.776902  (  2.390788  -1.259790  -1.863857)
   8:       188.98    1.194014  ( -0.963344  -0.485955   0.172713)
   9:       221.21    1.461357  (  0.674877   0.974326   0.237880)
  10:       232.95    0.375146  (  0.320893  -0.472983  -0.220139)
  11:       264.25    0.286659  (  0.082494   0.428445   0.310305)
  12:       318.27    8.528144  ( -1.056077  -0.832501   2.592255)
  13:       351.56    2.356889  ( -1.068512   0.428719  -1.015564)
  14:       390.53    3.023613  ( -0.748886   0.397268  -1.518210)
  15:       462.97    0.932974  ( -0.906447  -0.017254  -0.333211)
  16:       532.87    3.390721  ( -0.782822  -0.091515   1.664192)
  17:       737.06    2.893662  ( -0.793368   1.413304   0.516527)
  18:       805.24    9.764884  ( -0.729748  -2.435558   1.816703)
  19:       879.79    4.112709  ( -2.014631   0.155724   0.172400)
  20:       899.67    0.495388  ( -0.571697   0.405155   0.066333)
  21:       914.95    8.945477  (  1.809322  -2.161081   1.000778)
  22:       930.29    1.826895  ( -1.213182  -0.588044  -0.096380)
  23:       966.49    3.980635  ( -0.234876   1.763880  -0.902328)
  24:       975.29    7.875598  ( -0.254512   2.545551  -1.153687)
  25:      1022.49    3.431972  ( -1.261936  -1.201803  -0.628617)
  26:      1064.92    5.192191  ( -1.999342  -0.083255   1.089905)
  27:      1086.55   22.713313  ( -2.433823  -1.494294   3.815351)
  28:      1104.56    4.911037  ( -1.769705   1.327250   0.132625)
  29:      1142.99    0.645616  (  0.340687  -0.483072   0.544233)
  30:      1167.75    5.479883  ( -2.055667  -0.474253   1.014494)
  31:      1174.84   12.045122  ( -3.048991   0.043392   1.657376)
  32:      1186.03    1.398745  (  0.726984   0.262110   0.895286)
  33:      1220.02    2.258995  ( -0.301971   0.911724   1.156100)
  34:      1259.33    1.763103  (  1.067837  -0.711663  -0.341119)
  35:      1337.26    1.121499  ( -0.205857   0.431737  -0.944841)
  36:      1355.21    4.103145  (  1.270518  -1.099999  -1.130899)
  37:      1373.37    5.272687  ( -0.112390  -0.793030   2.152013)
  38:      1402.36    9.324547  ( -2.581461  -0.805450  -1.418399)
  39:      1421.14    8.531022  ( -1.110246   1.954646   1.864869)
  40:      1436.09    7.721527  (  1.673863   1.862330  -1.204755)
  41:      1474.87    0.622858  (  0.003697  -0.582697   0.532267)
  42:      1488.41    5.090517  ( -1.189783  -1.808495   0.635829)
  43:      1495.92   51.570620  (  4.149021   1.184886   5.740409)
  44:      1500.09    6.825303  ( -1.272502   1.346261   1.842179)
  45:      1504.96   33.918407  (  2.262034  -2.135696   4.923455)
  46:      1517.35   82.440072  (  0.726697   3.844451   8.193423)
  47:      1652.81   30.756084  ( -5.247463   0.032663   1.794198)
  48:      1659.28   48.500665  ( -0.840360   6.851692  -0.921292)
  49:      3038.97   11.221165  (  2.877248  -0.502765   1.640073)
  50:      3045.92    7.170082  (  2.302295   1.351254   0.208883)
  51:      3054.12   14.361013  (  0.071250  -3.300088   1.861547)
  52:      3111.20   18.735269  (  1.393633   3.915276  -1.209823)
  53:      3122.55   21.317548  (  2.598639  -2.231541   3.095940)
  54:      3125.28    8.743349  ( -0.371338  -2.746208  -1.031405)
  55:      3138.13    7.951786  ( -1.097640  -0.897194  -2.437625)
  56:      3141.82   12.633304  (  2.300079  -0.559475  -2.651401)
  57:      3155.09    2.791725  (  0.142269  -0.515347  -1.583004)
  58:      3216.17    0.494881  (  0.014244  -0.503156  -0.491440)
  59:      3246.84    0.268306  (  0.229248   0.364770   0.287566)
  60:      3408.36   37.119269  (  1.286677  -0.412258   5.940856)
  61:      3484.75   90.179630  (  8.814089   2.002787  -2.912096)
  62:      3496.79   80.934164  ( -2.314947   8.681138  -0.461544)

--------------------------
THERMOCHEMISTRY AT 298.15K
--------------------------

Temperature         ... 298.15 K
Pressure            ... 1.00 atm
Total Mass          ... 100.18 AMU

Throughout the following assumptions are being made:
  (1) The electronic state is orbitally nondegenerate
  (2) There are no thermally accessible electronically excited states
  (3) Hindered rotations indicated by low frequency modes) are not
      treated as such but are treated as vibrations and this may
      case some error
  (4) All equations used are the standard statistical mechanics
      equations for an ideal gas
  (5) All vibrations are strinctly harmonic

------------
INNER ENERGY
------------

The inner energy is: U= E(el) + E(ZPE) + E(vib) + E(rot) + E(trans)
    E(el)   - is the total energy from the electronic structure calculation
              = E(kin-el) + E(nuc-el) + E(el-el) + E(nuc-nuc)
    E(ZPE)  - the the zero temperature vibrational energy from the frequency calculation
    E(vib)  - the the finite temperature correction to E(ZPE) due to population
              of excietd vibrational states
    E(rot)  - is the rotational thermal energy
    E(trans)- is the translational thermal energy

Summary of contributions to the inner energy U:
Electronic energy                ...   -291.30225668 Eh
Zero point energy                ...      0.19844897 Eh     124.53 kcal/mol
Thermal vibrational correction   ...      0.00585911 Eh       3.68 kcal/mol
Thermal rotational correction    ...      0.00141627 Eh       0.89 kcal/mol
Thermal translational correction ...      0.00141627 Eh       0.89 kcal/mol
-----------------------------------------------------------------------
Total thermal energy                   -291.09511606 Eh

Summary of corrections to the electronic energy:
(perhaps to be used in another calculation)
Total thermal correction                  0.00869165 Eh       5.45 kcal/mol
Non-thermal (ZPE) correction              0.19844897 Eh     124.53 kcal/mol
-----------------------------------------------------------------------
Total correction                          0.20714062 Eh     129.98 kcal/mol

--------
ENTHALPY
--------

The enthalpy is H = U + kB*T
                kB is Boltzmann's constant
Total free energy                 ...   -291.09511606 Eh
Thermal Enthalpy correction       ...      0.00094421 Eh       0.59 kcal/mol
-----------------------------------------------------------------------
Total Enthalpy                    ...   -291.09417185 Eh

-------
ENTROPY
-------

The entropy contributions are T*S = T*(S(el)+S(vib)+S(rot)+S(trans)
     S(el)   - electronic entropy
     S(vib)  - vibrational entropy
     S(rot)  - rotational entropy
     S(trans)- translational entropy
The entropies will be listed as mutliplied by the temperature to get
units of energy

Electronic entropy                ...      0.00000000 Eh      0.00 kcal/mol
Vibrational entropy               ...      0.01041597 Eh      6.54 kcal/mol
Rotational entropy                ...      0.01219527 Eh      7.65 kcal/mol
Translational entropy             ...      0.01887386 Eh     11.84 kcal/mol
-----------------------------------------------------------------------
Final entropy term                ...      0.04148510 Eh     26.03 kcal/mol

CAUTION: The rotational entropy is not quite correctly treated here
         because it includes a symmetry number that is not yet correctly
         implemented in ORCA!
For a nonlinear molecule the correct rotational entropy is:
    S(rot) = R*(ln(qrot/sn)+1.5)
    R    = 8.31441 J/mol/K = 1.987191683e-3 kcal/mol/K
    qrot = 272352.3545729
    sn is the rotational symmetry number. We have assumed 3 here
       if it is different for your molecule then you should correct
       the printed rotational entropy by manually evaluating the equation
       as given above

For convenience we print out the resulting values for sn=1 - 12:
 sn= 1  qrot/sn=  272352.3546 T*S(rot)=     8.30 kcal/mol T*S(tot)=    26.68 kcal/mol
 sn= 2  qrot/sn=  136176.1773 T*S(rot)=     7.89 kcal/mol T*S(tot)=    26.27 kcal/mol
 sn= 3  qrot/sn=   90784.1182 T*S(rot)=     7.65 kcal/mol T*S(tot)=    26.03 kcal/mol
 sn= 4  qrot/sn=   68088.0886 T*S(rot)=     7.48 kcal/mol T*S(tot)=    25.86 kcal/mol
 sn= 5  qrot/sn=   54470.4709 T*S(rot)=     7.35 kcal/mol T*S(tot)=    25.73 kcal/mol
 sn= 6  qrot/sn=   45392.0591 T*S(rot)=     7.24 kcal/mol T*S(tot)=    25.62 kcal/mol
 sn= 7  qrot/sn=   38907.4792 T*S(rot)=     7.15 kcal/mol T*S(tot)=    25.53 kcal/mol
 sn= 8  qrot/sn=   34044.0443 T*S(rot)=     7.07 kcal/mol T*S(tot)=    25.45 kcal/mol
 sn= 9  qrot/sn=   30261.3727 T*S(rot)=     7.00 kcal/mol T*S(tot)=    25.38 kcal/mol
 sn=10  qrot/sn=   27235.2355 T*S(rot)=     6.94 kcal/mol T*S(tot)=    25.32 kcal/mol
 sn=11  qrot/sn=   24759.3050 T*S(rot)=     6.88 kcal/mol T*S(tot)=    25.26 kcal/mol
 sn=12  qrot/sn=   22696.0295 T*S(rot)=     6.83 kcal/mol T*S(tot)=    25.21 kcal/mol

-------------------
GIBBS FREE ENTHALPY
-------------------

The Gibbs free enthalpy is G = H - T*S

Total enthalpy                    ...   -291.09417185 Eh
Total entropy correction          ...     -0.04148510 Eh    -26.03 kcal/mol
-----------------------------------------------------------------------
Final Gibbs free enthalpy         ...   -291.13565695 Eh

For completeness - the Gibbs free enthalpy minus the electronic energy
G-E(el)                           ...      0.16659973 Eh    104.54 kcal/mol

                             ****ORCA TERMINATED NORMALLY****
TOTAL RUN TIME: 0 days 0 hours 53 minutes 45 seconds 624 msec
