                         Program Version 3.0.3 - RELEASE   -
|  1> ! NORI PBE0 def2-TZVP UseSym TightOPT Freq TightSCF Grid3 FinalGrid5 XYZFile
|  2> % pal
|  3>     nprocs 8
|  4> end
|  5> %method
|  6>     SymThresh 5.0e-2
|  7> end
|  8> % geom
|  9>     MaxIter 10
| 10> end
| 11> % maxcore 2000
| 12> % output
| 13>     printlevel mini
| 14>     print[ P_Basis ] 0
| 15>     print[ P_SCFInfo ] 1
| 16>     print[ P_SCFIterInfo ] 1
| 17>     print[ P_OrbEn ] 0
| 18>     print[ P_Cartesian ] 0
| 19> end
| 20> % elprop
| 21>     Dipole false
| 22> end
| 23> *xyz 1 1
| 24>  C        0.8981647975     0.0704936487    -0.0104473873
| 25>  C        2.4161776887     0.0844883797    -0.0521084877
| 26>  C        3.0152682895    -1.2472411195     0.3925557879
| 27>  C        4.5165203600    -1.2080806594     0.3680868990
| 28>  C        5.2966276625    -0.4060256735     1.4227894547
| 29>  C        6.2045117787    -1.6222277674     1.6186463402
| 30>  N        5.2015233357    -2.4861463644     0.8813460422
| 31>  H        0.4938333005     1.0312103904    -0.3309745024
| 32>  H        0.5299952009    -0.1228428783     1.0000737826
| 33>  H        0.4894538621    -0.6982474074    -0.6701451792
| 34>  H        2.7951074418     0.8871080025     0.5894589839
| 35>  H        2.7589137029     0.3110900882    -1.0670662332
| 36>  H        2.6577345141    -2.0476019286    -0.2656271665
| 37>  H        2.6713487059    -1.4820026334     1.4082255996
| 38>  H        4.9022274857    -1.0370522806    -0.6390838350
| 39>  H        4.6910801418    -0.1852074999     2.3024009302
| 40>  H        5.7796125159     0.5054657357     1.0813801065
| 41>  H        7.1268900265    -1.5893987625     1.0425340157
| 42>  H        6.4048546741    -1.9789709367     2.6257989384
| 43>  H        5.5676738828    -3.1323527653     0.1841930726
| 44>  H        4.5911206325    -3.0061475684     1.5116428378
| 45> *
| 46>
| 47>                          ****END OF INPUT****
 Total Charge           Charge          ....    1
 Multiplicity           Mult            ....    1
 Number of Electrons    NEL             ....   56
FINAL SINGLE POINT ENERGY      -291.315189542873
FINAL SINGLE POINT ENERGY      -291.315190557732

CARTESIAN COORDINATES (ANGSTROEM)
---------------------------------
  C      1.647228    0.000610   -2.832956
  C      0.543038    0.394730   -1.866982
  C      0.884681    0.031615   -0.424611
  C     -0.225555    0.410461    0.513478
  C     -1.543445   -0.382525    0.528291
  C     -1.451363   -0.429406    2.054923
  N      0.000328   -0.001651    1.978026
  H      1.380628    0.271133   -3.855166
  H      1.828664   -1.076593   -2.811786
  H      2.585652    0.504729   -2.590268
  H     -0.392333   -0.097351   -2.154866
  H      0.359485    1.472499   -1.932525
  H      1.807873    0.542429   -0.126660
  H      1.071393   -1.047840   -0.353419
  H     -0.400353    1.488205    0.522233
  H     -1.437194   -1.365656    0.067787
  H     -2.415513    0.116052    0.113531
  H     -2.018494    0.349201    2.561385
  H     -1.581627   -1.380233    2.566258
  H      0.306717    0.722573    2.625468
  H      0.646080   -0.788028    2.046900

FINAL SINGLE POINT ENERGY      -291.315191172854
                    ***********************HURRAY********************
 Multiplicity           Mult            ....    1
 Number of Electrons    NEL             ....   56
 Basis Dimension        Dim             ....  301
FINAL SINGLE POINT ENERGY      -291.315191310923

VIBRATIONAL FREQUENCIES
-----------------------

   0:         0.00 cm**-1
   1:         0.00 cm**-1
   2:         0.00 cm**-1
   3:         0.00 cm**-1
   4:         0.00 cm**-1
   5:         0.00 cm**-1
   6:        77.75 cm**-1
   7:        99.15 cm**-1
   8:       113.98 cm**-1
   9:       168.68 cm**-1
  10:       247.58 cm**-1
  11:       317.93 cm**-1
  12:       379.77 cm**-1
  13:       431.73 cm**-1
  14:       667.61 cm**-1
  15:       751.07 cm**-1
  16:       777.96 cm**-1
  17:       829.77 cm**-1
  18:       858.71 cm**-1
  19:       877.94 cm**-1
  20:       913.44 cm**-1
  21:       938.13 cm**-1
  22:       961.83 cm**-1
  23:      1006.87 cm**-1
  24:      1024.74 cm**-1
  25:      1058.31 cm**-1
  26:      1068.59 cm**-1
  27:      1109.85 cm**-1
  28:      1155.85 cm**-1
  29:      1201.25 cm**-1
  30:      1232.22 cm**-1
  31:      1253.43 cm**-1
  32:      1271.57 cm**-1
  33:      1285.68 cm**-1
  34:      1298.00 cm**-1
  35:      1312.61 cm**-1
  36:      1325.99 cm**-1
  37:      1338.78 cm**-1
  38:      1359.06 cm**-1
  39:      1385.83 cm**-1
  40:      1398.47 cm**-1
  41:      1416.59 cm**-1
  42:      1477.42 cm**-1
  43:      1484.59 cm**-1
  44:      1489.09 cm**-1
  45:      1492.96 cm**-1
  46:      1501.30 cm**-1
  47:      1503.62 cm**-1
  48:      1642.56 cm**-1
  49:      3023.58 cm**-1
  50:      3044.47 cm**-1
  51:      3057.59 cm**-1
  52:      3065.78 cm**-1
  53:      3087.98 cm**-1
  54:      3106.00 cm**-1
  55:      3116.13 cm**-1
  56:      3126.41 cm**-1
  57:      3130.52 cm**-1
  58:      3146.06 cm**-1
  59:      3180.88 cm**-1
  60:      3196.74 cm**-1
  61:      3463.64 cm**-1
  62:      3537.37 cm**-1

IR SPECTRUM
-----------

 Mode    freq (cm**-1)   T**2         TX         TY         TZ
-------------------------------------------------------------------
   6:        77.75    0.081490  (  0.000660   0.282555   0.040643)
   7:        99.15    0.457098  ( -0.037047   0.673439  -0.046955)
   8:       113.98    0.516475  (  0.538656   0.416368  -0.230138)
   9:       168.68    2.707944  (  0.304281  -1.467643  -0.679251)
  10:       247.58    0.054611  (  0.140364  -0.109563  -0.151344)
  11:       317.93    1.151907  ( -0.778006  -0.147933   0.724382)
  12:       379.77    2.064273  ( -0.458205  -0.140309   1.354487)
  13:       431.73    0.790973  (  0.099353   0.454634   0.757898)
  14:       667.61    4.325963  (  0.237007  -2.013883  -0.462674)
  15:       751.07    3.186043  (  0.964109   1.491051  -0.182494)
  16:       777.96    3.636759  ( -0.750059  -0.995048   1.443624)
  17:       829.77    2.872406  (  0.594126   0.987167  -1.242949)
  18:       858.71   15.801362  (  0.624729  -1.342969  -3.688836)
  19:       877.94    0.965610  ( -0.063414   0.551374   0.810911)
  20:       913.44    1.515748  (  0.424360  -0.598493   0.988672)
  21:       938.13   10.546945  (  3.103068   0.948095   0.137953)
  22:       961.83    5.062738  ( -0.410765   0.610995  -2.126193)
  23:      1006.87    0.708971  ( -0.541408  -0.549951   0.336752)
  24:      1024.74    0.725844  ( -0.796273   0.029395   0.301546)
  25:      1058.31    1.889113  (  0.715376   0.109169  -1.168517)
  26:      1068.59    0.603651  (  0.546784  -0.503356  -0.226521)
  27:      1109.85    9.176119  ( -0.053133  -0.368703   3.006219)
  28:      1155.85    6.682746  ( -0.095195  -0.765112   2.467446)
  29:      1201.25    1.281465  ( -0.193861   1.115251  -0.009906)
  30:      1232.22    1.599206  (  0.672175   0.053584  -1.069820)
  31:      1253.43   22.272271  (  2.213434   0.626504  -4.120737)
  32:      1271.57   47.855067  (  3.168124   2.756196  -5.497403)
  33:      1285.68    3.789917  (  1.290295   0.517311  -1.362881)
  34:      1298.00    1.858252  ( -0.539646   1.143785  -0.508714)
  35:      1312.61   12.316740  (  1.182485   1.317917  -3.030110)
  36:      1325.99   22.779850  ( -2.894360  -2.759152   2.605689)
  37:      1338.78    1.272844  ( -0.746216   0.648924   0.543050)
  38:      1359.06    0.067088  (  0.062153  -0.011779  -0.251170)
  39:      1385.83    5.339404  (  1.443153   0.692465  -1.666495)
  40:      1398.47   13.375093  (  1.052092   0.003494  -3.502597)
  41:      1416.59    2.607989  ( -1.398638   0.665465   0.457119)
  42:      1477.42    2.893721  (  0.475714  -0.503347   1.553724)
  43:      1484.59    1.416179  ( -1.106731  -0.191815   0.393106)
  44:      1489.09   12.927131  ( -0.632323  -1.387940  -3.255906)
  45:      1492.96   12.246728  (  1.436459   3.154759   0.480423)
  46:      1501.30   12.686172  (  3.156307  -1.501233   0.685712)
  47:      1503.62    6.229134  ( -1.745486  -1.407316   1.096301)
  48:      1642.56   54.556910  (  5.310823  -1.331442   4.957755)
  49:      3023.58    8.544556  (  0.731141  -1.621925   2.319342)
  50:      3044.47   15.748435  (  3.415811  -1.845461   0.821552)
  51:      3057.59   17.498656  ( -3.614893   1.595880   1.372726)
  52:      3065.78    1.285748  (  1.109452  -0.004902   0.234178)
  53:      3087.98   10.774446  (  1.797718   2.741230   0.168257)
  54:      3106.00    0.344212  (  0.216104   0.279545  -0.468365)
  55:      3116.13    4.637912  ( -0.072063   2.061216   0.619762)
  56:      3126.41    1.837633  ( -0.536417   0.120984   1.239053)
  57:      3130.52   23.830075  ( -2.000538  -4.423568  -0.509875)
  58:      3146.06    9.550907  ( -1.569885   1.072126  -2.436578)
  59:      3180.88    0.162171  ( -0.238035   0.117480   0.302835)
  60:      3196.74    0.247616  ( -0.395371  -0.029631   0.300699)
  61:      3463.64   53.296778  ( -5.348785   0.486120  -4.944791)
  62:      3537.37   76.986014  ( -1.370955   7.747082   3.884484)

--------------------------
THERMOCHEMISTRY AT 298.15K
--------------------------

Temperature         ... 298.15 K
Pressure            ... 1.00 atm
Total Mass          ... 100.18 AMU

Throughout the following assumptions are being made:
  (1) The electronic state is orbitally nondegenerate
  (2) There are no thermally accessible electronically excited states
  (3) Hindered rotations indicated by low frequency modes) are not
      treated as such but are treated as vibrations and this may
      case some error
  (4) All equations used are the standard statistical mechanics
      equations for an ideal gas
  (5) All vibrations are strinctly harmonic

------------
INNER ENERGY
------------

The inner energy is: U= E(el) + E(ZPE) + E(vib) + E(rot) + E(trans)
    E(el)   - is the total energy from the electronic structure calculation
              = E(kin-el) + E(nuc-el) + E(el-el) + E(nuc-nuc)
    E(ZPE)  - the the zero temperature vibrational energy from the frequency calculation
    E(vib)  - the the finite temperature correction to E(ZPE) due to population
              of excietd vibrational states
    E(rot)  - is the rotational thermal energy
    E(trans)- is the translational thermal energy

Summary of contributions to the inner energy U:
Electronic energy                ...   -291.31519131 Eh
Zero point energy                ...      0.20000365 Eh     125.50 kcal/mol
Thermal vibrational correction   ...      0.00531572 Eh       3.34 kcal/mol
Thermal rotational correction    ...      0.00141627 Eh       0.89 kcal/mol
Thermal translational correction ...      0.00141627 Eh       0.89 kcal/mol
-----------------------------------------------------------------------
Total thermal energy                   -291.10703940 Eh

Summary of corrections to the electronic energy:
(perhaps to be used in another calculation)
Total thermal correction                  0.00814826 Eh       5.11 kcal/mol
Non-thermal (ZPE) correction              0.20000365 Eh     125.50 kcal/mol
-----------------------------------------------------------------------
Total correction                          0.20815191 Eh     130.62 kcal/mol

--------
ENTHALPY
--------

The enthalpy is H = U + kB*T
                kB is Boltzmann's constant
Total free energy                 ...   -291.10703940 Eh
Thermal Enthalpy correction       ...      0.00094421 Eh       0.59 kcal/mol
-----------------------------------------------------------------------
Total Enthalpy                    ...   -291.10609519 Eh

-------
ENTROPY
-------

The entropy contributions are T*S = T*(S(el)+S(vib)+S(rot)+S(trans)
     S(el)   - electronic entropy
     S(vib)  - vibrational entropy
     S(rot)  - rotational entropy
     S(trans)- translational entropy
The entropies will be listed as mutliplied by the temperature to get
units of energy

Electronic entropy                ...      0.00000000 Eh      0.00 kcal/mol
Vibrational entropy               ...      0.00977481 Eh      6.13 kcal/mol
Rotational entropy                ...      0.01220963 Eh      7.66 kcal/mol
Translational entropy             ...      0.01887386 Eh     11.84 kcal/mol
-----------------------------------------------------------------------
Final entropy term                ...      0.04085830 Eh     25.64 kcal/mol

CAUTION: The rotational entropy is not quite correctly treated here
         because it includes a symmetry number that is not yet correctly
         implemented in ORCA!
For a nonlinear molecule the correct rotational entropy is:
    S(rot) = R*(ln(qrot/sn)+1.5)
    R    = 8.31441 J/mol/K = 1.987191683e-3 kcal/mol/K
    qrot = 276526.5058245
    sn is the rotational symmetry number. We have assumed 3 here
       if it is different for your molecule then you should correct
       the printed rotational entropy by manually evaluating the equation
       as given above

For convenience we print out the resulting values for sn=1 - 12:
 sn= 1  qrot/sn=  276526.5058 T*S(rot)=     8.31 kcal/mol T*S(tot)=    26.29 kcal/mol
 sn= 2  qrot/sn=  138263.2529 T*S(rot)=     7.90 kcal/mol T*S(tot)=    25.88 kcal/mol
 sn= 3  qrot/sn=   92175.5019 T*S(rot)=     7.66 kcal/mol T*S(tot)=    25.64 kcal/mol
 sn= 4  qrot/sn=   69131.6265 T*S(rot)=     7.49 kcal/mol T*S(tot)=    25.47 kcal/mol
 sn= 5  qrot/sn=   55305.3012 T*S(rot)=     7.36 kcal/mol T*S(tot)=    25.34 kcal/mol
 sn= 6  qrot/sn=   46087.7510 T*S(rot)=     7.25 kcal/mol T*S(tot)=    25.23 kcal/mol
 sn= 7  qrot/sn=   39503.7865 T*S(rot)=     7.16 kcal/mol T*S(tot)=    25.14 kcal/mol
 sn= 8  qrot/sn=   34565.8132 T*S(rot)=     7.08 kcal/mol T*S(tot)=    25.06 kcal/mol
 sn= 9  qrot/sn=   30725.1673 T*S(rot)=     7.01 kcal/mol T*S(tot)=    24.99 kcal/mol
 sn=10  qrot/sn=   27652.6506 T*S(rot)=     6.95 kcal/mol T*S(tot)=    24.93 kcal/mol
 sn=11  qrot/sn=   25138.7733 T*S(rot)=     6.89 kcal/mol T*S(tot)=    24.87 kcal/mol
 sn=12  qrot/sn=   23043.8755 T*S(rot)=     6.84 kcal/mol T*S(tot)=    24.82 kcal/mol

-------------------
GIBBS FREE ENTHALPY
-------------------

The Gibbs free enthalpy is G = H - T*S

Total enthalpy                    ...   -291.10609519 Eh
Total entropy correction          ...     -0.04085830 Eh    -25.64 kcal/mol
-----------------------------------------------------------------------
Final Gibbs free enthalpy         ...   -291.14695349 Eh

For completeness - the Gibbs free enthalpy minus the electronic energy
G-E(el)                           ...      0.16823782 Eh    105.57 kcal/mol

                             ****ORCA TERMINATED NORMALLY****
TOTAL RUN TIME: 0 days 0 hours 47 minutes 41 seconds 868 msec
