                         Program Version 3.0.3 - RELEASE   -
|  1> ! NORI PBE0 def2-TZVP UseSym TightOPT Freq TightSCF Grid3 FinalGrid5 XYZFile
|  2> % pal
|  3>     nprocs 8
|  4> end
|  5> %method
|  6>     SymThresh 5.0e-2
|  7> end
|  8> % geom
|  9>     MaxIter 10
| 10> end
| 11> % maxcore 2000
| 12> % output
| 13>     printlevel mini
| 14>     print[ P_Basis ] 0
| 15>     print[ P_SCFInfo ] 1
| 16>     print[ P_SCFIterInfo ] 1
| 17>     print[ P_OrbEn ] 0
| 18>     print[ P_Cartesian ] 0
| 19> end
| 20> % elprop
| 21>     Dipole false
| 22> end
| 23> *xyz 1 1
| 24>  C        1.8573045841     2.3622816636     1.8660221056
| 25>  C        2.4745718764     1.6270740945     0.9539987419
| 26>  C        3.1766695875     0.3376037301     1.2544515543
| 27>  C        4.6546920663     0.4830497761     0.9917450798
| 28>  C        5.5333498478     1.3166772413     1.9358823704
| 29>  C        6.5442873073     0.1677809759     1.9425686137
| 30>  N        5.4991997234    -0.7536043309     1.3443273857
| 31>  H        1.3580921989     3.2854743073     1.5987010167
| 32>  H        1.8082667385     2.0622658264     2.9081546432
| 33>  H        2.4854341798     1.9502859538    -0.0845006623
| 34>  H        3.0105782596     0.0605576346     2.3011869787
| 35>  H        2.7750597621    -0.4660300954     0.6246117237
| 36>  H        4.8575861557     0.7049938462    -0.0575804938
| 37>  H        5.0603747068     1.4749335652     2.9053001522
| 38>  H        5.8864333214     2.2695223612     1.5521619004
| 39>  H        7.3573587538     0.2824573588     1.2282771948
| 40>  H        6.9282196207    -0.1963805105     2.8920196622
| 41>  H        5.7941620820    -1.3534922780     0.5755222383
| 42>  H        5.0393992280    -1.3339411205     2.0457097944
| 43> *
| 44>
| 45>                          ****END OF INPUT****
 Total Charge           Charge          ....    1
 Multiplicity           Mult            ....    1
 Number of Electrons    NEL             ....   54
FINAL SINGLE POINT ENERGY      -290.080032556360
FINAL SINGLE POINT ENERGY      -290.080034995337
FINAL SINGLE POINT ENERGY      -290.080036235376

CARTESIAN COORDINATES (ANGSTROEM)
---------------------------------
  C      0.903113    0.002144   -2.798839
  C      0.706102    0.822358   -1.778062
  C      1.043545    0.486134   -0.357142
  C     -0.215491    0.415718    0.470314
  C     -1.183059   -0.765784    0.308872
  C     -1.225402   -0.886197    1.834414
  N     -0.002621    0.004700    1.936984
  H      0.650876    0.294260   -3.810920
  H      1.341462   -0.982358   -2.668120
  H      0.282333    1.808876   -1.951208
  H      1.567407   -0.475588   -0.318969
  H      1.710205    1.250152    0.062217
  H     -0.739004    1.373406    0.492554
  H     -0.709369   -1.620946   -0.174116
  H     -2.126904   -0.554665   -0.186084
  H     -2.066970   -0.377868    2.300902
  H     -1.073532   -1.859299    2.295223
  H     -0.023667    0.743629    2.637885
  H      0.860651   -0.525110    2.055854

FINAL SINGLE POINT ENERGY      -290.080036521767
                    ***********************HURRAY********************
 Multiplicity           Mult            ....    1
 Number of Electrons    NEL             ....   54
 Basis Dimension        Dim             ....  289
FINAL SINGLE POINT ENERGY      -290.080036658078

VIBRATIONAL FREQUENCIES
-----------------------

   0:         0.00 cm**-1
   1:         0.00 cm**-1
   2:         0.00 cm**-1
   3:         0.00 cm**-1
   4:         0.00 cm**-1
   5:         0.00 cm**-1
   6:        74.39 cm**-1
   7:        87.80 cm**-1
   8:       118.37 cm**-1
   9:       202.95 cm**-1
  10:       363.85 cm**-1
  11:       389.97 cm**-1
  12:       440.08 cm**-1
  13:       606.06 cm**-1
  14:       694.12 cm**-1
  15:       779.24 cm**-1
  16:       829.79 cm**-1
  17:       858.89 cm**-1
  18:       898.55 cm**-1
  19:       932.76 cm**-1
  20:       940.64 cm**-1
  21:       986.88 cm**-1
  22:       998.15 cm**-1
  23:      1005.15 cm**-1
  24:      1027.66 cm**-1
  25:      1048.47 cm**-1
  26:      1061.58 cm**-1
  27:      1135.52 cm**-1
  28:      1194.59 cm**-1
  29:      1227.87 cm**-1
  30:      1241.71 cm**-1
  31:      1270.48 cm**-1
  32:      1284.57 cm**-1
  33:      1300.05 cm**-1
  34:      1318.26 cm**-1
  35:      1329.93 cm**-1
  36:      1336.47 cm**-1
  37:      1357.94 cm**-1
  38:      1395.47 cm**-1
  39:      1454.04 cm**-1
  40:      1473.75 cm**-1
  41:      1488.52 cm**-1
  42:      1503.05 cm**-1
  43:      1642.54 cm**-1
  44:      1726.11 cm**-1
  45:      3029.71 cm**-1
  46:      3079.51 cm**-1
  47:      3110.91 cm**-1
  48:      3119.41 cm**-1
  49:      3127.03 cm**-1
  50:      3157.77 cm**-1
  51:      3165.40 cm**-1
  52:      3184.58 cm**-1
  53:      3197.85 cm**-1
  54:      3252.99 cm**-1
  55:      3463.68 cm**-1
  56:      3536.72 cm**-1

IR SPECTRUM
-----------

 Mode    freq (cm**-1)   T**2         TX         TY         TZ
-------------------------------------------------------------------
   6:        74.39    0.190813  (  0.027245   0.190970   0.391921)
   7:        87.80    1.071442  (  0.867451  -0.534241   0.183187)
   8:       118.37    1.940441  (  0.396036  -1.319132  -0.208536)
   9:       202.95    1.128056  ( -0.417849   0.738960   0.638275)
  10:       363.85    1.561207  ( -0.036833  -0.307265   1.210553)
  11:       389.97    2.293381  ( -0.951702  -0.212042   1.158742)
  12:       440.08    0.046729  ( -0.121009  -0.179049  -0.005166)
  13:       606.06    9.916514  ( -2.124584  -2.322553  -0.091680)
  14:       694.12   10.023318  ( -3.084016   0.345477   0.626743)
  15:       779.24    7.697849  ( -1.618627  -1.266500   1.863833)
  16:       829.79    7.470562  ( -1.118808  -1.725412   1.800496)
  17:       858.89   14.970618  (  1.076583  -0.874567  -3.612024)
  18:       898.55    2.786803  ( -1.359909   0.728136   0.638177)
  19:       932.76    3.699359  (  1.298832   1.345728  -0.448787)
  20:       940.64    4.870550  ( -1.691026  -0.876936  -1.114434)
  21:       986.88   12.810074  (  0.812261   0.475681  -3.453120)
  22:       998.15   46.946105  ( -6.202650  -2.875134   0.454793)
  23:      1005.15    0.698136  ( -0.584348   0.407634  -0.436471)
  24:      1027.66    8.520252  ( -2.417709  -1.525196   0.590520)
  25:      1048.47   15.701089  ( -2.281862  -0.102260   3.237860)
  26:      1061.58    0.343180  ( -0.570486  -0.039969  -0.126994)
  27:      1135.52    0.633995  ( -0.258289  -0.745057   0.110330)
  28:      1194.59    2.186192  (  0.106327  -1.387882   0.498670)
  29:      1227.87    0.189235  (  0.152772  -0.016604  -0.406964)
  30:      1241.71   19.295678  (  1.845714   1.506328  -3.690527)
  31:      1270.48   49.802281  ( -2.744929  -3.886315   5.211929)
  32:      1284.57    5.342957  (  1.213408   1.622831  -1.112213)
  33:      1300.05    6.598334  ( -0.558636   2.251386  -1.103413)
  34:      1318.26   15.169300  ( -1.450186  -1.486990   3.294711)
  35:      1329.93   11.032476  (  2.126619   1.582279  -2.001589)
  36:      1336.47    7.571633  ( -0.814740  -2.480038   0.870198)
  37:      1357.94    0.825356  ( -0.135584  -0.852814   0.282278)
  38:      1395.47   14.197187  (  1.405149   0.837304  -3.394358)
  39:      1454.04    5.939117  ( -0.005650   1.731038   1.715399)
  40:      1473.75   10.773313  (  2.717308  -1.668347   0.778569)
  41:      1488.52   12.056041  (  0.682262  -1.753886  -2.917952)
  42:      1503.05    7.711599  ( -2.021009  -1.803252   0.612702)
  43:      1642.54   55.906834  (  5.050358   0.333999   5.503559)
  44:      1726.11    1.980129  ( -0.065880   0.974527   1.012959)
  45:      3029.71   11.026181  ( -1.599795   0.523557  -2.862294)
  46:      3079.51    3.850341  ( -0.048383   1.959839  -0.083844)
  47:      3110.91    0.121874  ( -0.133334  -0.225912   0.230348)
  48:      3119.41    3.303050  ( -0.711152   1.601571   0.481958)
  49:      3127.03    1.887544  (  0.650356  -0.066664  -1.208361)
  50:      3157.77    3.856795  (  0.743633  -1.714110   0.604675)
  51:      3165.40    1.235258  ( -0.244502   1.024033  -0.356137)
  52:      3184.58    0.080790  (  0.130788   0.019361  -0.251615)
  53:      3197.85    0.293977  ( -0.448585  -0.130441   0.275197)
  54:      3252.99    1.007306  ( -0.337502   0.889067  -0.320870)
  55:      3463.68   57.682710  ( -4.752096  -1.216183  -5.798379)
  56:      3536.72   78.902144  ( -4.327307   6.648271   3.997131)

--------------------------
THERMOCHEMISTRY AT 298.15K
--------------------------

Temperature         ... 298.15 K
Pressure            ... 1.00 atm
Total Mass          ... 98.17 AMU

Throughout the following assumptions are being made:
  (1) The electronic state is orbitally nondegenerate
  (2) There are no thermally accessible electronically excited states
  (3) Hindered rotations indicated by low frequency modes) are not
      treated as such but are treated as vibrations and this may
      case some error
  (4) All equations used are the standard statistical mechanics
      equations for an ideal gas
  (5) All vibrations are strinctly harmonic

------------
INNER ENERGY
------------

The inner energy is: U= E(el) + E(ZPE) + E(vib) + E(rot) + E(trans)
    E(el)   - is the total energy from the electronic structure calculation
              = E(kin-el) + E(nuc-el) + E(el-el) + E(nuc-nuc)
    E(ZPE)  - the the zero temperature vibrational energy from the frequency calculation
    E(vib)  - the the finite temperature correction to E(ZPE) due to population
              of excietd vibrational states
    E(rot)  - is the rotational thermal energy
    E(trans)- is the translational thermal energy

Summary of contributions to the inner energy U:
Electronic energy                ...   -290.08003666 Eh
Zero point energy                ...      0.17644813 Eh     110.72 kcal/mol
Thermal vibrational correction   ...      0.00475583 Eh       2.98 kcal/mol
Thermal rotational correction    ...      0.00141627 Eh       0.89 kcal/mol
Thermal translational correction ...      0.00141627 Eh       0.89 kcal/mol
-----------------------------------------------------------------------
Total thermal energy                   -289.89600016 Eh

Summary of corrections to the electronic energy:
(perhaps to be used in another calculation)
Total thermal correction                  0.00758837 Eh       4.76 kcal/mol
Non-thermal (ZPE) correction              0.17644813 Eh     110.72 kcal/mol
-----------------------------------------------------------------------
Total correction                          0.18403650 Eh     115.48 kcal/mol

--------
ENTHALPY
--------

The enthalpy is H = U + kB*T
                kB is Boltzmann's constant
Total free energy                 ...   -289.89600016 Eh
Thermal Enthalpy correction       ...      0.00094421 Eh       0.59 kcal/mol
-----------------------------------------------------------------------
Total Enthalpy                    ...   -289.89505595 Eh

-------
ENTROPY
-------

The entropy contributions are T*S = T*(S(el)+S(vib)+S(rot)+S(trans)
     S(el)   - electronic entropy
     S(vib)  - vibrational entropy
     S(rot)  - rotational entropy
     S(trans)- translational entropy
The entropies will be listed as mutliplied by the temperature to get
units of energy

Electronic entropy                ...      0.00000000 Eh      0.00 kcal/mol
Vibrational entropy               ...      0.00882023 Eh      5.53 kcal/mol
Rotational entropy                ...      0.01211043 Eh      7.60 kcal/mol
Translational entropy             ...      0.01884507 Eh     11.83 kcal/mol
-----------------------------------------------------------------------
Final entropy term                ...      0.03977572 Eh     24.96 kcal/mol

CAUTION: The rotational entropy is not quite correctly treated here
         because it includes a symmetry number that is not yet correctly
         implemented in ORCA!
For a nonlinear molecule the correct rotational entropy is:
    S(rot) = R*(ln(qrot/sn)+1.5)
    R    = 8.31441 J/mol/K = 1.987191683e-3 kcal/mol/K
    qrot = 248946.8272055
    sn is the rotational symmetry number. We have assumed 3 here
       if it is different for your molecule then you should correct
       the printed rotational entropy by manually evaluating the equation
       as given above

For convenience we print out the resulting values for sn=1 - 12:
 sn= 1  qrot/sn=  248946.8272 T*S(rot)=     8.25 kcal/mol T*S(tot)=    25.61 kcal/mol
 sn= 2  qrot/sn=  124473.4136 T*S(rot)=     7.84 kcal/mol T*S(tot)=    25.20 kcal/mol
 sn= 3  qrot/sn=   82982.2757 T*S(rot)=     7.60 kcal/mol T*S(tot)=    24.96 kcal/mol
 sn= 4  qrot/sn=   62236.7068 T*S(rot)=     7.43 kcal/mol T*S(tot)=    24.79 kcal/mol
 sn= 5  qrot/sn=   49789.3654 T*S(rot)=     7.30 kcal/mol T*S(tot)=    24.66 kcal/mol
 sn= 6  qrot/sn=   41491.1379 T*S(rot)=     7.19 kcal/mol T*S(tot)=    24.55 kcal/mol
 sn= 7  qrot/sn=   35563.8325 T*S(rot)=     7.10 kcal/mol T*S(tot)=    24.46 kcal/mol
 sn= 8  qrot/sn=   31118.3534 T*S(rot)=     7.02 kcal/mol T*S(tot)=    24.38 kcal/mol
 sn= 9  qrot/sn=   27660.7586 T*S(rot)=     6.95 kcal/mol T*S(tot)=    24.31 kcal/mol
 sn=10  qrot/sn=   24894.6827 T*S(rot)=     6.89 kcal/mol T*S(tot)=    24.25 kcal/mol
 sn=11  qrot/sn=   22631.5297 T*S(rot)=     6.83 kcal/mol T*S(tot)=    24.19 kcal/mol
 sn=12  qrot/sn=   20745.5689 T*S(rot)=     6.78 kcal/mol T*S(tot)=    24.14 kcal/mol

-------------------
GIBBS FREE ENTHALPY
-------------------

The Gibbs free enthalpy is G = H - T*S

Total enthalpy                    ...   -289.89505595 Eh
Total entropy correction          ...     -0.03977572 Eh    -24.96 kcal/mol
-----------------------------------------------------------------------
Final Gibbs free enthalpy         ...   -289.93483167 Eh

For completeness - the Gibbs free enthalpy minus the electronic energy
G-E(el)                           ...      0.14520499 Eh     91.12 kcal/mol

                             ****ORCA TERMINATED NORMALLY****
TOTAL RUN TIME: 0 days 0 hours 44 minutes 18 seconds 712 msec
