                         Program Version 3.0.3 - RELEASE   -
|  1> ! NORI PBE0 def2-TZVP UseSym TightOPT Freq TightSCF Grid3 FinalGrid5 XYZFile
|  2> % pal
|  3>     nprocs 8
|  4> end
|  5> %method
|  6>     SymThresh 5.0e-2
|  7> end
|  8> % geom
|  9>     MaxIter 10
| 10> end
| 11> % maxcore 2000
| 12> % output
| 13>     printlevel mini
| 14>     print[ P_Basis ] 0
| 15>     print[ P_SCFInfo ] 1
| 16>     print[ P_SCFIterInfo ] 1
| 17>     print[ P_OrbEn ] 0
| 18>     print[ P_Cartesian ] 0
| 19> end
| 20> % elprop
| 21>     Dipole false
| 22> end
| 23> *xyz 1 1
| 24>  C        0.9979407995    -0.3153302963    -0.7547767523
| 25>  C        2.4714028849    -0.2860170282    -0.5964070680
| 26>  C        3.2585409442    -1.3603374779    -0.5889783534
| 27>  C        4.7313895232    -1.3157902348    -0.4924415893
| 28>  C        5.5250907160    -0.0250711550    -0.2464496209
| 29>  C        6.3640175667    -0.7821065348     0.7851662404
| 30>  N        5.3133490707    -1.8662876373     0.8433675593
| 31>  H        0.5142651544     0.1969501181     0.0821121275
| 32>  H        0.6090262907    -1.3311860552    -0.8204688599
| 33>  H        0.7050823756     0.2308186474    -1.6566769966
| 34>  H        2.9204500660     0.7013609206    -0.5072467594
| 35>  H        2.8215005860    -2.3481495018    -0.7209576706
| 36>  H        5.2054883541    -1.9237810709    -1.2673641865
| 37>  H        4.9236571959     0.7579419424     0.2132214035
| 38>  H        6.0536953668     0.3816615707    -1.1042414024
| 39>  H        6.5536896322    -0.3255395547     1.7532737376
| 40>  H        7.2817767546    -1.2072343260     0.3842239545
| 41>  H        5.6344899745    -2.8327805431     0.8600227179
| 42>  H        4.6473167440    -1.7273617831     1.6031615187
| 43> *
| 44>
| 45>                          ****END OF INPUT****
 Total Charge           Charge          ....    1
 Multiplicity           Mult            ....    1
 Number of Electrons    NEL             ....   54
FINAL SINGLE POINT ENERGY      -290.087884845952
FINAL SINGLE POINT ENERGY      -290.087886163759

CARTESIAN COORDINATES (ANGSTROEM)
---------------------------------
  C      1.805089   -0.001632   -2.663928
  C      0.746335   -0.090922   -1.630321
  C      0.692449    0.653973   -0.527444
  C     -0.401195    0.598704    0.463404
  C     -1.542204   -0.427276    0.406982
  C     -1.359536   -0.656749    1.908818
  N     -0.000005    0.000227    1.843935
  H      2.272455   -0.978764   -2.816611
  H      2.576530    0.723462   -2.404502
  H      1.367829    0.281341   -3.626275
  H     -0.048440   -0.808437   -1.825777
  H      1.460561    1.403304   -0.345832
  H     -0.783429    1.595565    0.698644
  H     -1.284617   -1.311390   -0.174893
  H     -2.508723   -0.050273    0.083565
  H     -1.319190   -1.674362    2.289434
  H     -2.011455   -0.048042    2.532591
  H      0.245365    0.648838    2.590079
  H      0.757324   -0.673570    1.731281

FINAL SINGLE POINT ENERGY      -290.087886845849
                    ***********************HURRAY********************
 Multiplicity           Mult            ....    1
 Number of Electrons    NEL             ....   54
 Basis Dimension        Dim             ....  289
FINAL SINGLE POINT ENERGY      -290.087887094752

VIBRATIONAL FREQUENCIES
-----------------------

   0:         0.00 cm**-1
   1:         0.00 cm**-1
   2:         0.00 cm**-1
   3:         0.00 cm**-1
   4:         0.00 cm**-1
   5:         0.00 cm**-1
   6:        84.59 cm**-1
   7:       122.12 cm**-1
   8:       164.88 cm**-1
   9:       210.41 cm**-1
  10:       214.16 cm**-1
  11:       356.55 cm**-1
  12:       396.85 cm**-1
  13:       554.59 cm**-1
  14:       668.46 cm**-1
  15:       756.90 cm**-1
  16:       793.91 cm**-1
  17:       830.56 cm**-1
  18:       851.90 cm**-1
  19:       912.84 cm**-1
  20:       950.54 cm**-1
  21:       970.25 cm**-1
  22:      1002.80 cm**-1
  23:      1009.06 cm**-1
  24:      1043.16 cm**-1
  25:      1071.57 cm**-1
  26:      1107.23 cm**-1
  27:      1148.26 cm**-1
  28:      1170.94 cm**-1
  29:      1228.60 cm**-1
  30:      1253.87 cm**-1
  31:      1284.00 cm**-1
  32:      1296.28 cm**-1
  33:      1316.43 cm**-1
  34:      1334.64 cm**-1
  35:      1335.35 cm**-1
  36:      1354.54 cm**-1
  37:      1396.42 cm**-1
  38:      1406.99 cm**-1
  39:      1463.02 cm**-1
  40:      1474.37 cm**-1
  41:      1486.44 cm**-1
  42:      1503.45 cm**-1
  43:      1641.41 cm**-1
  44:      1735.66 cm**-1
  45:      3050.89 cm**-1
  46:      3092.73 cm**-1
  47:      3109.96 cm**-1
  48:      3120.91 cm**-1
  49:      3126.66 cm**-1
  50:      3146.25 cm**-1
  51:      3156.27 cm**-1
  52:      3165.64 cm**-1
  53:      3184.96 cm**-1
  54:      3198.16 cm**-1
  55:      3460.35 cm**-1
  56:      3539.52 cm**-1

IR SPECTRUM
-----------

 Mode    freq (cm**-1)   T**2         TX         TY         TZ
-------------------------------------------------------------------
   6:        84.59    4.212185  ( -1.344846   1.285367   0.866836)
   7:       122.12    1.431097  (  0.081299  -1.080895  -0.506117)
   8:       164.88    0.705363  (  0.717393  -0.428506  -0.084215)
   9:       210.41    3.196381  ( -0.713162   1.629021  -0.184580)
  10:       214.16    1.860099  (  0.171309  -0.352382  -1.306361)
  11:       356.55    0.812462  ( -0.451933  -0.645267   0.438005)
  12:       396.85    2.680227  ( -0.683016   1.068495  -1.035391)
  13:       554.59    3.461424  (  0.164369  -0.499472  -1.784638)
  14:       668.46    2.401165  (  0.313413   1.407431  -0.567518)
  15:       756.90   14.584989  ( -0.719350  -1.085945   3.590020)
  16:       793.91    0.708393  (  0.557268  -0.630592  -0.014150)
  17:       830.56   32.766999  ( -1.164055  -0.914596   5.529511)
  18:       851.90   14.011430  ( -0.777577   1.489044   3.345078)
  19:       912.84   14.423968  ( -1.739719  -0.123062   3.373752)
  20:       950.54   14.502944  ( -2.977732  -0.701768  -2.267946)
  21:       970.25    7.069501  ( -0.509170   2.535634  -0.617095)
  22:      1002.80   42.091267  ( -2.473942   4.221608  -4.260153)
  23:      1009.06    1.670082  (  0.319232   0.453938  -1.167096)
  24:      1043.16    0.942453  (  0.482992   0.836737  -0.095098)
  25:      1071.57    1.301362  ( -0.660047   0.832573  -0.415358)
  26:      1107.23    2.573132  ( -1.083962   0.408632  -1.109585)
  27:      1148.26    2.012226  (  0.582934  -0.361100   1.241781)
  28:      1170.94    0.653276  ( -0.136213  -0.454546   0.654302)
  29:      1228.60   11.807785  (  1.643930   1.415937  -2.664658)
  30:      1253.87   65.116388  (  3.125753   2.870957  -6.863211)
  31:      1284.00   17.352203  ( -1.958776  -3.065626   2.029123)
  32:      1296.28   11.494968  (  0.294177   2.676279  -2.060572)
  33:      1316.43    4.998173  (  0.087198  -2.101666  -0.757345)
  34:      1334.64   12.259500  (  0.353682  -1.289318  -3.236058)
  35:      1335.35   11.200825  (  1.760082   0.861958  -2.712925)
  36:      1354.54    1.650016  ( -0.849088   0.759911   0.592959)
  37:      1396.42   31.738987  ( -2.334737  -0.307334   5.117962)
  38:      1406.99   24.904742  ( -2.737047   0.165456   4.169645)
  39:      1463.02   12.458411  ( -1.782588   2.465185  -1.789875)
  40:      1474.37   23.937746  ( -1.042665  -3.242415  -3.512455)
  41:      1486.44   12.279967  ( -1.272594  -1.531914  -2.883351)
  42:      1503.45   10.391684  (  2.580978   1.183452  -1.526328)
  43:      1641.41   52.738018  (  5.469519  -0.920042   4.687846)
  44:      1735.66   49.381204  ( -3.378974   0.993119   6.080909)
  45:      3050.89    0.489983  ( -0.670447  -0.127754   0.155444)
  46:      3092.73    2.713404  ( -0.770034   0.661252   1.297381)
  47:      3109.96    0.893094  ( -0.613995   0.693720  -0.186698)
  48:      3120.91    1.540216  ( -0.287381   0.937586   0.760633)
  49:      3126.66    1.816877  ( -0.486815  -0.042504   1.256217)
  50:      3146.25    0.338043  ( -0.293049  -0.452803  -0.217106)
  51:      3156.27    0.006660  ( -0.042373  -0.052722   0.045665)
  52:      3165.64   13.885876  (  3.076953   1.980677  -0.703671)
  53:      3184.96    0.176504  ( -0.041046   0.184485   0.375213)
  54:      3198.16    0.371920  (  0.468537   0.238712  -0.308885)
  55:      3460.35   51.105643  ( -5.619000   0.191592  -4.415402)
  56:      3539.52   78.868692  (  2.429304  -6.760227  -5.221735)

--------------------------
THERMOCHEMISTRY AT 298.15K
--------------------------

Temperature         ... 298.15 K
Pressure            ... 1.00 atm
Total Mass          ... 98.17 AMU

Throughout the following assumptions are being made:
  (1) The electronic state is orbitally nondegenerate
  (2) There are no thermally accessible electronically excited states
  (3) Hindered rotations indicated by low frequency modes) are not
      treated as such but are treated as vibrations and this may
      case some error
  (4) All equations used are the standard statistical mechanics
      equations for an ideal gas
  (5) All vibrations are strinctly harmonic

------------
INNER ENERGY
------------

The inner energy is: U= E(el) + E(ZPE) + E(vib) + E(rot) + E(trans)
    E(el)   - is the total energy from the electronic structure calculation
              = E(kin-el) + E(nuc-el) + E(el-el) + E(nuc-nuc)
    E(ZPE)  - the the zero temperature vibrational energy from the frequency calculation
    E(vib)  - the the finite temperature correction to E(ZPE) due to population
              of excietd vibrational states
    E(rot)  - is the rotational thermal energy
    E(trans)- is the translational thermal energy

Summary of contributions to the inner energy U:
Electronic energy                ...   -290.08788709 Eh
Zero point energy                ...      0.17600270 Eh     110.44 kcal/mol
Thermal vibrational correction   ...      0.00490845 Eh       3.08 kcal/mol
Thermal rotational correction    ...      0.00141627 Eh       0.89 kcal/mol
Thermal translational correction ...      0.00141627 Eh       0.89 kcal/mol
-----------------------------------------------------------------------
Total thermal energy                   -289.90414341 Eh

Summary of corrections to the electronic energy:
(perhaps to be used in another calculation)
Total thermal correction                  0.00774099 Eh       4.86 kcal/mol
Non-thermal (ZPE) correction              0.17600270 Eh     110.44 kcal/mol
-----------------------------------------------------------------------
Total correction                          0.18374369 Eh     115.30 kcal/mol

--------
ENTHALPY
--------

The enthalpy is H = U + kB*T
                kB is Boltzmann's constant
Total free energy                 ...   -289.90414341 Eh
Thermal Enthalpy correction       ...      0.00094421 Eh       0.59 kcal/mol
-----------------------------------------------------------------------
Total Enthalpy                    ...   -289.90319920 Eh

-------
ENTROPY
-------

The entropy contributions are T*S = T*(S(el)+S(vib)+S(rot)+S(trans)
     S(el)   - electronic entropy
     S(vib)  - vibrational entropy
     S(rot)  - rotational entropy
     S(trans)- translational entropy
The entropies will be listed as mutliplied by the temperature to get
units of energy

Electronic entropy                ...      0.00000000 Eh      0.00 kcal/mol
Vibrational entropy               ...      0.00871987 Eh      5.47 kcal/mol
Rotational entropy                ...      0.01213980 Eh      7.62 kcal/mol
Translational entropy             ...      0.01884507 Eh     11.83 kcal/mol
-----------------------------------------------------------------------
Final entropy term                ...      0.03970474 Eh     24.92 kcal/mol

CAUTION: The rotational entropy is not quite correctly treated here
         because it includes a symmetry number that is not yet correctly
         implemented in ORCA!
For a nonlinear molecule the correct rotational entropy is:
    S(rot) = R*(ln(qrot/sn)+1.5)
    R    = 8.31441 J/mol/K = 1.987191683e-3 kcal/mol/K
    qrot = 256813.5047610
    sn is the rotational symmetry number. We have assumed 3 here
       if it is different for your molecule then you should correct
       the printed rotational entropy by manually evaluating the equation
       as given above

For convenience we print out the resulting values for sn=1 - 12:
 sn= 1  qrot/sn=  256813.5048 T*S(rot)=     8.27 kcal/mol T*S(tot)=    25.57 kcal/mol
 sn= 2  qrot/sn=  128406.7524 T*S(rot)=     7.86 kcal/mol T*S(tot)=    25.16 kcal/mol
 sn= 3  qrot/sn=   85604.5016 T*S(rot)=     7.62 kcal/mol T*S(tot)=    24.92 kcal/mol
 sn= 4  qrot/sn=   64203.3762 T*S(rot)=     7.45 kcal/mol T*S(tot)=    24.74 kcal/mol
 sn= 5  qrot/sn=   51362.7010 T*S(rot)=     7.32 kcal/mol T*S(tot)=    24.61 kcal/mol
 sn= 6  qrot/sn=   42802.2508 T*S(rot)=     7.21 kcal/mol T*S(tot)=    24.50 kcal/mol
 sn= 7  qrot/sn=   36687.6435 T*S(rot)=     7.12 kcal/mol T*S(tot)=    24.41 kcal/mol
 sn= 8  qrot/sn=   32101.6881 T*S(rot)=     7.04 kcal/mol T*S(tot)=    24.33 kcal/mol
 sn= 9  qrot/sn=   28534.8339 T*S(rot)=     6.97 kcal/mol T*S(tot)=    24.26 kcal/mol
 sn=10  qrot/sn=   25681.3505 T*S(rot)=     6.90 kcal/mol T*S(tot)=    24.20 kcal/mol
 sn=11  qrot/sn=   23346.6823 T*S(rot)=     6.85 kcal/mol T*S(tot)=    24.15 kcal/mol
 sn=12  qrot/sn=   21401.1254 T*S(rot)=     6.80 kcal/mol T*S(tot)=    24.09 kcal/mol

-------------------
GIBBS FREE ENTHALPY
-------------------

The Gibbs free enthalpy is G = H - T*S

Total enthalpy                    ...   -289.90319920 Eh
Total entropy correction          ...     -0.03970474 Eh    -24.92 kcal/mol
-----------------------------------------------------------------------
Final Gibbs free enthalpy         ...   -289.94290394 Eh

For completeness - the Gibbs free enthalpy minus the electronic energy
G-E(el)                           ...      0.14498316 Eh     90.98 kcal/mol

                             ****ORCA TERMINATED NORMALLY****
TOTAL RUN TIME: 0 days 0 hours 42 minutes 0 seconds 373 msec
