                         Program Version 3.0.3 - RELEASE   -
|  1> ! NORI PBE0 def2-TZVP UseSym TightOPT Freq TightSCF Grid3 FinalGrid5 XYZFile
|  2> % pal
|  3>     nprocs 8
|  4> end
|  5> %method
|  6>     SymThresh 5.0e-2
|  7> end
|  8> % geom
|  9>     MaxIter 10
| 10> end
| 11> % maxcore 2000
| 12> % output
| 13>     printlevel mini
| 14>     print[ P_Basis ] 0
| 15>     print[ P_SCFInfo ] 1
| 16>     print[ P_SCFIterInfo ] 1
| 17>     print[ P_OrbEn ] 0
| 18>     print[ P_Cartesian ] 0
| 19> end
| 20> % elprop
| 21>     Dipole false
| 22> end
| 23> *xyz 1 1
| 24>  C        1.0861161047    -0.0580098736    -0.0493739853
| 25>  C        2.6057511726    -0.1004187070     0.0595018526
| 26>  C        3.0531683180    -0.5510842766     1.4445721029
| 27>  C        3.2003082342    -0.9177460692    -1.0675232486
| 28>  C        4.7122997001    -1.1512877830    -1.2172931457
| 29>  C        4.4131918826    -2.6288223109    -1.4802343830
| 30>  N        3.0105817225    -2.4388094592    -0.9442049643
| 31>  H        0.7580672143     0.3221019150    -1.0192583908
| 32>  H        0.6656338379     0.5901759353     0.7201064616
| 33>  H        0.6421771461    -1.0489805374     0.0966121523
| 34>  H        2.9942702507     0.9114236051    -0.1132338757
| 35>  H        2.6276879460    -1.5231986480     1.7232227335
| 36>  H        2.6914954246     0.1523914216     2.1950543173
| 37>  H        4.1387268771    -0.6017646782     1.5510847682
| 38>  H        2.7507819121    -0.6371914901    -2.0221209746
| 39>  H        5.2634175278    -0.9919298841    -0.2914257421
| 40>  H        5.1996719455    -0.6068892270    -2.0220458297
| 41>  H        4.9700795319    -3.3877994596    -0.9361705166
| 42>  H        4.3524886212    -2.8916347911    -2.5342957334
| 43>  H        2.2478491534    -2.8630507399    -1.4680537181
| 44>  H        2.9282554769    -2.7158149422     0.0342601194
| 45> *
| 46>
| 47>                          ****END OF INPUT****
 Total Charge           Charge          ....    1
 Multiplicity           Mult            ....    1
 Number of Electrons    NEL             ....   56
FINAL SINGLE POINT ENERGY      -291.315189375668
FINAL SINGLE POINT ENERGY      -291.315192189293
FINAL SINGLE POINT ENERGY      -291.315194666229
FINAL SINGLE POINT ENERGY      -291.315195825084
FINAL SINGLE POINT ENERGY      -291.315196843443

CARTESIAN COORDINATES (ANGSTROEM)
---------------------------------
  C      2.138646   -0.007939   -0.963736
  C      0.623966   -0.107856   -1.106507
  C      0.169458   -1.556839   -1.228029
  C     -0.068070    0.659885   -0.000793
  C     -1.597642    0.713145    0.144504
  C     -1.421768    0.440466    1.639745
  N      0.009498    0.013160    1.393164
  H      2.476689    1.030150   -0.930445
  H      2.634046   -0.490503   -1.806953
  H      2.494256   -0.514006   -0.059377
  H      0.327482    0.420748   -2.021527
  H      0.495999   -2.170434   -0.379210
  H      0.624195   -2.010305   -2.109453
  H     -0.911458   -1.662087   -1.336771
  H      0.370584    1.653756    0.107596
  H     -2.104827   -0.098924   -0.374472
  H     -2.067356    1.656676   -0.121032
  H     -2.016079   -0.339461    2.110069
  H     -1.418062    1.334580    2.260078
  H      0.718682    0.362580    2.034444
  H      0.106901   -0.999790    1.320081

FINAL SINGLE POINT ENERGY      -291.315197173355
                    ***********************HURRAY********************
 Multiplicity           Mult            ....    1
 Number of Electrons    NEL             ....   56
 Basis Dimension        Dim             ....  301
FINAL SINGLE POINT ENERGY      -291.315197337024

VIBRATIONAL FREQUENCIES
-----------------------

   0:         0.00 cm**-1
   1:         0.00 cm**-1
   2:         0.00 cm**-1
   3:         0.00 cm**-1
   4:         0.00 cm**-1
   5:         0.00 cm**-1
   6:        62.12 cm**-1
   7:       103.80 cm**-1
   8:       200.48 cm**-1
   9:       233.38 cm**-1
  10:       248.59 cm**-1
  11:       280.30 cm**-1
  12:       353.07 cm**-1
  13:       440.07 cm**-1
  14:       545.98 cm**-1
  15:       631.17 cm**-1
  16:       754.38 cm**-1
  17:       817.36 cm**-1
  18:       860.74 cm**-1
  19:       873.56 cm**-1
  20:       925.58 cm**-1
  21:       940.51 cm**-1
  22:       949.91 cm**-1
  23:       968.67 cm**-1
  24:       998.20 cm**-1
  25:      1036.44 cm**-1
  26:      1053.60 cm**-1
  27:      1096.05 cm**-1
  28:      1140.09 cm**-1
  29:      1177.39 cm**-1
  30:      1211.83 cm**-1
  31:      1232.09 cm**-1
  32:      1259.14 cm**-1
  33:      1277.16 cm**-1
  34:      1297.16 cm**-1
  35:      1317.18 cm**-1
  36:      1325.84 cm**-1
  37:      1347.08 cm**-1
  38:      1372.06 cm**-1
  39:      1391.21 cm**-1
  40:      1407.71 cm**-1
  41:      1429.78 cm**-1
  42:      1468.63 cm**-1
  43:      1485.75 cm**-1
  44:      1492.04 cm**-1
  45:      1497.41 cm**-1
  46:      1501.43 cm**-1
  47:      1510.82 cm**-1
  48:      1639.15 cm**-1
  49:      3029.19 cm**-1
  50:      3038.83 cm**-1
  51:      3049.99 cm**-1
  52:      3109.13 cm**-1
  53:      3113.69 cm**-1
  54:      3116.88 cm**-1
  55:      3123.85 cm**-1
  56:      3125.92 cm**-1
  57:      3146.35 cm**-1
  58:      3148.56 cm**-1
  59:      3182.24 cm**-1
  60:      3196.62 cm**-1
  61:      3459.94 cm**-1
  62:      3538.64 cm**-1

IR SPECTRUM
-----------

 Mode    freq (cm**-1)   T**2         TX         TY         TZ
-------------------------------------------------------------------
   6:        62.12    2.516313  (  0.961927   1.254094  -0.135122)
   7:       103.80    1.852259  ( -1.072562  -0.780390   0.304733)
   8:       200.48    4.686357  ( -0.722930   0.811638   1.872157)
   9:       233.38    3.176810  ( -0.266591   0.963743   1.475446)
  10:       248.59    0.748923  (  0.414424  -0.110578  -0.751630)
  11:       280.30    4.760002  (  0.133320  -1.134132  -1.859025)
  12:       353.07    0.266336  (  0.511475  -0.006288   0.068477)
  13:       440.07    0.245043  ( -0.294893   0.392676   0.062344)
  14:       545.98    4.405423  (  0.108630  -0.802521  -1.936384)
  15:       631.17    3.808216  ( -0.567224  -1.723650  -0.717984)
  16:       754.38    2.951172  ( -0.935598  -1.096105   0.935084)
  17:       817.36    0.791796  ( -0.494116  -0.726870   0.138944)
  18:       860.74   12.953919  (  0.103949   0.700892   3.528720)
  19:       873.56    1.694534  ( -1.042875  -0.752023  -0.203487)
  20:       925.58    3.721922  (  1.822310   0.180315  -0.607122)
  21:       940.51    9.774781  ( -2.839385   1.261901  -0.346818)
  22:       949.91    5.304404  (  0.141898  -0.647704   2.205617)
  23:       968.67    0.765556  ( -0.484677  -0.534489   0.494941)
  24:       998.20    0.577117  (  0.469176   0.597323  -0.014023)
  25:      1036.44    0.889643  ( -0.363531   0.869230   0.043905)
  26:      1053.60    3.049291  (  0.408568  -0.647492  -1.569433)
  27:      1096.05    0.601232  ( -0.423594   0.643569   0.087288)
  28:      1140.09    3.808560  ( -1.033271   1.632748   0.273942)
  29:      1177.39    4.907512  ( -1.413223   0.388392   1.661164)
  30:      1211.83    0.618173  (  0.463678  -0.432448  -0.464934)
  31:      1232.09   13.578946  ( -1.884223   0.564875   3.116018)
  32:      1259.14   41.041053  (  2.614412   0.157704  -5.846455)
  33:      1277.16   47.618187  ( -4.218478  -0.458159   5.441757)
  34:      1297.16    3.663995  ( -0.820827  -1.339784   1.093260)
  35:      1317.18   21.535288  (  2.796052   0.558820  -3.661298)
  36:      1325.84    3.895252  ( -1.716691  -0.618581   0.752053)
  37:      1347.08    1.535801  (  0.593187  -0.605127  -0.904296)
  38:      1372.06    0.872265  (  0.412195  -0.622302  -0.561338)
  39:      1391.21    6.308246  (  0.452648  -0.182465  -2.463750)
  40:      1407.71   11.704831  ( -2.463165  -2.239154  -0.789835)
  41:      1429.78    9.924999  (  1.353330  -2.844695  -0.034735)
  42:      1468.63    0.482911  ( -0.165850   0.527385   0.421035)
  43:      1485.75    4.186602  ( -1.388620   0.321811  -1.467915)
  44:      1492.04    5.528246  (  1.225398   1.944460   0.495704)
  45:      1497.41   19.579057  ( -0.867892   1.335350   4.128276)
  46:      1501.43   13.234604  ( -1.278891  -1.151170   3.205284)
  47:      1510.82   24.035940  (  3.624344  -1.846215   2.737071)
  48:      1639.15   41.862046  ( -3.667634   3.635182  -3.898199)
  49:      3029.19   16.623983  ( -0.958207  -1.905003   3.475167)
  50:      3038.83    6.521130  ( -1.607046  -0.587135  -1.895733)
  51:      3049.99   10.152150  ( -1.700813   1.615389  -2.156364)
  52:      3109.13    2.501319  (  0.811989   0.831196   1.072896)
  53:      3113.69    6.179604  ( -2.101495  -1.310151  -0.216393)
  54:      3116.88   17.664433  (  0.854512  -2.877042   2.942256)
  55:      3123.85    2.842052  ( -1.452044  -0.464781  -0.719444)
  56:      3125.92    3.213755  ( -0.207167  -0.526531  -1.701059)
  57:      3146.35    4.934557  ( -1.107473  -1.609766  -1.056746)
  58:      3148.56    6.570988  ( -2.117814   0.905800   1.124889)
  59:      3182.24    0.319116  ( -0.026619  -0.409098  -0.388647)
  60:      3196.62    0.297099  ( -0.475397   0.018231   0.266016)
  61:      3459.94   42.354117  (  4.110626  -4.693982   1.850246)
  62:      3538.64   88.316505  (  3.609311   6.358107   5.904562)

--------------------------
THERMOCHEMISTRY AT 298.15K
--------------------------

Temperature         ... 298.15 K
Pressure            ... 1.00 atm
Total Mass          ... 100.18 AMU

Throughout the following assumptions are being made:
  (1) The electronic state is orbitally nondegenerate
  (2) There are no thermally accessible electronically excited states
  (3) Hindered rotations indicated by low frequency modes) are not
      treated as such but are treated as vibrations and this may
      case some error
  (4) All equations used are the standard statistical mechanics
      equations for an ideal gas
  (5) All vibrations are strinctly harmonic

------------
INNER ENERGY
------------

The inner energy is: U= E(el) + E(ZPE) + E(vib) + E(rot) + E(trans)
    E(el)   - is the total energy from the electronic structure calculation
              = E(kin-el) + E(nuc-el) + E(el-el) + E(nuc-nuc)
    E(ZPE)  - the the zero temperature vibrational energy from the frequency calculation
    E(vib)  - the the finite temperature correction to E(ZPE) due to population
              of excietd vibrational states
    E(rot)  - is the rotational thermal energy
    E(trans)- is the translational thermal energy

Summary of contributions to the inner energy U:
Electronic energy                ...   -291.31519734 Eh
Zero point energy                ...      0.19941883 Eh     125.14 kcal/mol
Thermal vibrational correction   ...      0.00530178 Eh       3.33 kcal/mol
Thermal rotational correction    ...      0.00141627 Eh       0.89 kcal/mol
Thermal translational correction ...      0.00141627 Eh       0.89 kcal/mol
-----------------------------------------------------------------------
Total thermal energy                   -291.10764418 Eh

Summary of corrections to the electronic energy:
(perhaps to be used in another calculation)
Total thermal correction                  0.00813432 Eh       5.10 kcal/mol
Non-thermal (ZPE) correction              0.19941883 Eh     125.14 kcal/mol
-----------------------------------------------------------------------
Total correction                          0.20755315 Eh     130.24 kcal/mol

--------
ENTHALPY
--------

The enthalpy is H = U + kB*T
                kB is Boltzmann's constant
Total free energy                 ...   -291.10764418 Eh
Thermal Enthalpy correction       ...      0.00094421 Eh       0.59 kcal/mol
-----------------------------------------------------------------------
Total Enthalpy                    ...   -291.10669998 Eh

-------
ENTROPY
-------

The entropy contributions are T*S = T*(S(el)+S(vib)+S(rot)+S(trans)
     S(el)   - electronic entropy
     S(vib)  - vibrational entropy
     S(rot)  - rotational entropy
     S(trans)- translational entropy
The entropies will be listed as mutliplied by the temperature to get
units of energy

Electronic entropy                ...      0.00000000 Eh      0.00 kcal/mol
Vibrational entropy               ...      0.00949401 Eh      5.96 kcal/mol
Rotational entropy                ...      0.01206985 Eh      7.57 kcal/mol
Translational entropy             ...      0.01887386 Eh     11.84 kcal/mol
-----------------------------------------------------------------------
Final entropy term                ...      0.04043772 Eh     25.37 kcal/mol

CAUTION: The rotational entropy is not quite correctly treated here
         because it includes a symmetry number that is not yet correctly
         implemented in ORCA!
For a nonlinear molecule the correct rotational entropy is:
    S(rot) = R*(ln(qrot/sn)+1.5)
    R    = 8.31441 J/mol/K = 1.987191683e-3 kcal/mol/K
    qrot = 238475.7131680
    sn is the rotational symmetry number. We have assumed 3 here
       if it is different for your molecule then you should correct
       the printed rotational entropy by manually evaluating the equation
       as given above

For convenience we print out the resulting values for sn=1 - 12:
 sn= 1  qrot/sn=  238475.7132 T*S(rot)=     8.22 kcal/mol T*S(tot)=    26.03 kcal/mol
 sn= 2  qrot/sn=  119237.8566 T*S(rot)=     7.81 kcal/mol T*S(tot)=    25.62 kcal/mol
 sn= 3  qrot/sn=   79491.9044 T*S(rot)=     7.57 kcal/mol T*S(tot)=    25.37 kcal/mol
 sn= 4  qrot/sn=   59618.9283 T*S(rot)=     7.40 kcal/mol T*S(tot)=    25.20 kcal/mol
 sn= 5  qrot/sn=   47695.1426 T*S(rot)=     7.27 kcal/mol T*S(tot)=    25.07 kcal/mol
 sn= 6  qrot/sn=   39745.9522 T*S(rot)=     7.16 kcal/mol T*S(tot)=    24.96 kcal/mol
 sn= 7  qrot/sn=   34067.9590 T*S(rot)=     7.07 kcal/mol T*S(tot)=    24.87 kcal/mol
 sn= 8  qrot/sn=   29809.4641 T*S(rot)=     6.99 kcal/mol T*S(tot)=    24.79 kcal/mol
 sn= 9  qrot/sn=   26497.3015 T*S(rot)=     6.92 kcal/mol T*S(tot)=    24.72 kcal/mol
 sn=10  qrot/sn=   23847.5713 T*S(rot)=     6.86 kcal/mol T*S(tot)=    24.66 kcal/mol
 sn=11  qrot/sn=   21679.6103 T*S(rot)=     6.80 kcal/mol T*S(tot)=    24.61 kcal/mol
 sn=12  qrot/sn=   19872.9761 T*S(rot)=     6.75 kcal/mol T*S(tot)=    24.55 kcal/mol

-------------------
GIBBS FREE ENTHALPY
-------------------

The Gibbs free enthalpy is G = H - T*S

Total enthalpy                    ...   -291.10669998 Eh
Total entropy correction          ...     -0.04043772 Eh    -25.37 kcal/mol
-----------------------------------------------------------------------
Final Gibbs free enthalpy         ...   -291.14713770 Eh

For completeness - the Gibbs free enthalpy minus the electronic energy
G-E(el)                           ...      0.16805964 Eh    105.46 kcal/mol

                             ****ORCA TERMINATED NORMALLY****
TOTAL RUN TIME: 0 days 1 hours 8 minutes 59 seconds 794 msec
