                         Program Version 3.0.3 - RELEASE   -
|  1> ! NORI PBE0 def2-TZVP UseSym TightOPT Freq TightSCF Grid3 FinalGrid5 XYZFile
|  2> % pal
|  3>     nprocs 8
|  4> end
|  5> %method
|  6>     SymThresh 5.0e-2
|  7> end
|  8> % geom
|  9>     MaxIter 10
| 10> end
| 11> % maxcore 2000
| 12> % output
| 13>     printlevel mini
| 14>     print[ P_Basis ] 0
| 15>     print[ P_SCFInfo ] 1
| 16>     print[ P_SCFIterInfo ] 1
| 17>     print[ P_OrbEn ] 0
| 18>     print[ P_Cartesian ] 0
| 19> end
| 20> % elprop
| 21>     Dipole false
| 22> end
| 23> *xyz 1 1
| 24>  C        1.2794954835    -0.7500382437     0.6916743373
| 25>  C        2.5293513033    -0.4825132844    -0.1355435993
| 26>  C        2.1670570776    -0.1407093911    -1.5784228188
| 27>  C        3.4687030924     0.5579245464     0.4594335157
| 28>  C        4.8333630473     0.6829588241    -0.1551983747
| 29>  C        3.3086572634     1.0290554852     1.8485398715
| 30>  N        2.8205215180     1.8932303939     0.7492903769
| 31>  H        0.6715975657    -1.5037362898     0.1899079210
| 32>  H        0.6369675375     0.1334129892     0.7933656423
| 33>  H        1.5045510864    -1.1338446711     1.6880994999
| 34>  H        3.1264232413    -1.4019683332    -0.1427747101
| 35>  H        1.5592528704     0.7682852810    -1.6363763728
| 36>  H        1.5735397635    -0.9477424295    -2.0093079149
| 37>  H        3.0418882213    -0.0068865798    -2.2149811301
| 38>  H        4.7779299355     0.8629515354    -1.2285106895
| 39>  H        5.3728611148    -0.2529117402     0.0036340177
| 40>  H        5.4191948824     1.4810892408     0.3062058829
| 41>  H        4.1670280382     1.4296925812     2.3727829251
| 42>  H        2.5151683493     0.6391669158     2.4711004232
| 43>  H        1.8165043257     1.9681504306     0.6272912006
| 44>  H        3.3337042825     2.7395427391     0.5319499962
| 45> *
| 46>
| 47>                          ****END OF INPUT****
 Total Charge           Charge          ....    1
 Multiplicity           Mult            ....    1
 Number of Electrons    NEL             ....   56
FINAL SINGLE POINT ENERGY      -291.309240610218
FINAL SINGLE POINT ENERGY      -291.309243030428
FINAL SINGLE POINT ENERGY      -291.309244295636
FINAL SINGLE POINT ENERGY      -291.309245162781
FINAL SINGLE POINT ENERGY      -291.309245776770

CARTESIAN COORDINATES (ANGSTROEM)
---------------------------------
  C      1.845926   -0.007300   -0.883452
  C      0.345483   -0.257487   -0.959764
  C      0.045328   -1.749149   -1.082391
  C     -0.459526    0.377997    0.165501
  C     -1.954930    0.382178    0.024426
  C      0.134878    1.395512    1.053997
  N      0.006392    0.008581    1.556911
  H      2.332755   -0.492635   -1.729836
  H      2.308952   -0.438848    0.012551
  H      2.102237    1.052034   -0.933657
  H     -0.027726    0.240837   -1.862161
  H      0.387614   -2.303321   -0.202612
  H      0.573539   -2.159776   -1.943329
  H     -1.015109   -1.957726   -1.224480
  H     -2.349900   -0.620110   -0.137745
  H     -2.220246    0.995239   -0.839018
  H     -2.447146    0.816932    0.897348
  H     -0.513673    2.104729    1.552766
  H      1.160982    1.709067    0.920223
  H      0.857988   -0.535288    1.642504
  H     -0.691155   -0.188259    2.265246

FINAL SINGLE POINT ENERGY      -291.309246253659
                    ***********************HURRAY********************
 Multiplicity           Mult            ....    1
 Number of Electrons    NEL             ....   56
 Basis Dimension        Dim             ....  301
FINAL SINGLE POINT ENERGY      -291.309246472280

VIBRATIONAL FREQUENCIES
-----------------------

   0:         0.00 cm**-1
   1:         0.00 cm**-1
   2:         0.00 cm**-1
   3:         0.00 cm**-1
   4:         0.00 cm**-1
   5:         0.00 cm**-1
   6:        42.20 cm**-1
   7:       197.86 cm**-1
   8:       201.81 cm**-1
   9:       237.69 cm**-1
  10:       260.25 cm**-1
  11:       290.01 cm**-1
  12:       345.54 cm**-1
  13:       370.73 cm**-1
  14:       400.55 cm**-1
  15:       459.67 cm**-1
  16:       533.43 cm**-1
  17:       645.35 cm**-1
  18:       783.88 cm**-1
  19:       864.27 cm**-1
  20:       876.41 cm**-1
  21:       903.82 cm**-1
  22:       929.88 cm**-1
  23:       944.66 cm**-1
  24:       949.75 cm**-1
  25:       974.78 cm**-1
  26:      1000.31 cm**-1
  27:      1028.40 cm**-1
  28:      1081.33 cm**-1
  29:      1123.25 cm**-1
  30:      1149.78 cm**-1
  31:      1181.16 cm**-1
  32:      1190.82 cm**-1
  33:      1246.12 cm**-1
  34:      1296.77 cm**-1
  35:      1326.55 cm**-1
  36:      1352.03 cm**-1
  37:      1386.19 cm**-1
  38:      1411.48 cm**-1
  39:      1423.62 cm**-1
  40:      1430.45 cm**-1
  41:      1467.07 cm**-1
  42:      1473.82 cm**-1
  43:      1488.54 cm**-1
  44:      1491.98 cm**-1
  45:      1496.60 cm**-1
  46:      1498.28 cm**-1
  47:      1514.03 cm**-1
  48:      1618.52 cm**-1
  49:      3031.72 cm**-1
  50:      3049.70 cm**-1
  51:      3060.77 cm**-1
  52:      3067.45 cm**-1
  53:      3118.57 cm**-1
  54:      3131.94 cm**-1
  55:      3142.19 cm**-1
  56:      3149.74 cm**-1
  57:      3155.04 cm**-1
  58:      3165.76 cm**-1
  59:      3176.72 cm**-1
  60:      3276.51 cm**-1
  61:      3513.51 cm**-1
  62:      3621.44 cm**-1

IR SPECTRUM
-----------

 Mode    freq (cm**-1)   T**2         TX         TY         TZ
-------------------------------------------------------------------
   6:        42.20    1.377566  (  0.761581   0.892762   0.023143)
   7:       197.86    0.902327  ( -0.659386  -0.242148   0.639454)
   8:       201.81    1.011851  ( -0.030429  -0.918162  -0.409759)
   9:       237.69    3.450301  (  0.751136  -0.589282  -1.593374)
  10:       260.25    3.712820  (  0.799917  -0.860705  -1.527135)
  11:       290.01    0.793106  ( -0.077256   0.194633   0.865595)
  12:       345.54    1.979130  ( -1.350867  -0.390229  -0.044836)
  13:       370.73    0.246644  (  0.059825  -0.318171  -0.376607)
  14:       400.55    0.329575  ( -0.320248   0.035416  -0.475144)
  15:       459.67    0.639056  (  0.055084  -0.731258   0.318251)
  16:       533.43    1.022217  ( -0.016707  -0.927828  -0.401339)
  17:       645.35    0.092860  ( -0.208347   0.219451   0.035950)
  18:       783.88   14.295050  (  1.163912  -1.134964   3.413534)
  19:       864.27    1.487026  (  0.332743   0.276947  -1.140004)
  20:       876.41    8.109302  ( -0.758768  -0.157338   2.740222)
  21:       903.82    3.260757  ( -1.800153   0.086848   0.112537)
  22:       929.88    0.979530  (  0.450488   0.708793   0.523644)
  23:       944.66    2.860052  (  1.617778  -0.491865   0.030231)
  24:       949.75    6.293886  ( -0.638145   1.529431  -1.883480)
  25:       974.78    3.144916  (  1.361305   0.049471   1.135481)
  26:      1000.31   82.810774  ( -3.338204  -4.934214  -6.879004)
  27:      1028.40   13.789627  (  0.633207   2.546411   2.627635)
  28:      1081.33    7.718546  (  0.880257   2.196795  -1.455261)
  29:      1123.25    6.345833  ( -1.049567   2.285874  -0.137920)
  30:      1149.78    3.852839  (  1.559579  -1.067207  -0.530681)
  31:      1181.16    1.831014  (  1.081180  -0.696784   0.420185)
  32:      1190.82    7.153638  (  0.867039  -0.741553  -2.419087)
  33:      1246.12    2.737149  (  1.514243  -0.308853  -0.590616)
  34:      1296.77    6.594883  ( -1.786410   1.000830   1.549826)
  35:      1326.55    1.116991  ( -0.264867   0.149273  -1.012203)
  36:      1352.03    2.264078  ( -0.466223  -0.424462  -1.366216)
  37:      1386.19    1.447523  (  0.530529   0.530105   0.940772)
  38:      1411.48    7.069993  (  1.713601   2.004839  -0.337912)
  39:      1423.62   22.620995  (  4.457315  -1.657456  -0.078603)
  40:      1430.45    1.584348  ( -0.542267   1.000924   0.537071)
  41:      1467.07    9.085155  (  0.257881  -2.616078  -1.474717)
  42:      1473.82   10.898408  ( -0.306978   3.111086  -1.060809)
  43:      1488.54   21.408915  (  0.035312   1.559704   4.356029)
  44:      1491.98    6.632296  ( -0.429189  -2.050484  -1.497868)
  45:      1496.60    5.637917  (  0.446641  -2.085873  -1.042862)
  46:      1498.28   12.722514  (  3.421250   0.949997  -0.339222)
  47:      1514.03   13.272135  ( -0.007278  -2.438774   2.706375)
  48:      1618.52   86.492254  ( -1.144510   4.415881  -8.104465)
  49:      3031.72   15.438688  (  1.668284   0.108829   3.555794)
  50:      3049.70    4.695988  (  0.843307   1.648325  -1.125987)
  51:      3060.77    9.231084  (  1.173386  -2.094149   1.862469)
  52:      3067.45    2.306001  (  0.694228  -0.103625  -1.346592)
  53:      3118.57    9.205173  (  0.530686   2.464311  -1.688407)
  54:      3131.94   11.112346  ( -1.875863   0.774219  -2.644630)
  55:      3142.19    3.741631  (  0.891870  -0.756562  -1.540718)
  56:      3149.74    4.897512  ( -0.730122  -1.942209  -0.769582)
  57:      3155.04    5.978441  (  2.124632  -0.729278  -0.965677)
  58:      3165.76    3.505036  (  1.518484   0.863214   0.673872)
  59:      3176.72    0.418820  ( -0.389036  -0.516536   0.025717)
  60:      3276.51    3.141883  ( -1.537484   0.424427   0.773232)
  61:      3513.51   72.307141  (  1.621691  -5.283814   6.462087)
  62:      3621.44  111.941032  ( -9.066962   1.597869   5.213256)

--------------------------
THERMOCHEMISTRY AT 298.15K
--------------------------

Temperature         ... 298.15 K
Pressure            ... 1.00 atm
Total Mass          ... 100.18 AMU

Throughout the following assumptions are being made:
  (1) The electronic state is orbitally nondegenerate
  (2) There are no thermally accessible electronically excited states
  (3) Hindered rotations indicated by low frequency modes) are not
      treated as such but are treated as vibrations and this may
      case some error
  (4) All equations used are the standard statistical mechanics
      equations for an ideal gas
  (5) All vibrations are strinctly harmonic

------------
INNER ENERGY
------------

The inner energy is: U= E(el) + E(ZPE) + E(vib) + E(rot) + E(trans)
    E(el)   - is the total energy from the electronic structure calculation
              = E(kin-el) + E(nuc-el) + E(el-el) + E(nuc-nuc)
    E(ZPE)  - the the zero temperature vibrational energy from the frequency calculation
    E(vib)  - the the finite temperature correction to E(ZPE) due to population
              of excietd vibrational states
    E(rot)  - is the rotational thermal energy
    E(trans)- is the translational thermal energy

Summary of contributions to the inner energy U:
Electronic energy                ...   -291.30924647 Eh
Zero point energy                ...      0.19717706 Eh     123.73 kcal/mol
Thermal vibrational correction   ...      0.00571271 Eh       3.58 kcal/mol
Thermal rotational correction    ...      0.00141627 Eh       0.89 kcal/mol
Thermal translational correction ...      0.00141627 Eh       0.89 kcal/mol
-----------------------------------------------------------------------
Total thermal energy                   -291.10352416 Eh

Summary of corrections to the electronic energy:
(perhaps to be used in another calculation)
Total thermal correction                  0.00854525 Eh       5.36 kcal/mol
Non-thermal (ZPE) correction              0.19717706 Eh     123.73 kcal/mol
-----------------------------------------------------------------------
Total correction                          0.20572231 Eh     129.09 kcal/mol

--------
ENTHALPY
--------

The enthalpy is H = U + kB*T
                kB is Boltzmann's constant
Total free energy                 ...   -291.10352416 Eh
Thermal Enthalpy correction       ...      0.00094421 Eh       0.59 kcal/mol
-----------------------------------------------------------------------
Total Enthalpy                    ...   -291.10257996 Eh

-------
ENTROPY
-------

The entropy contributions are T*S = T*(S(el)+S(vib)+S(rot)+S(trans)
     S(el)   - electronic entropy
     S(vib)  - vibrational entropy
     S(rot)  - rotational entropy
     S(trans)- translational entropy
The entropies will be listed as mutliplied by the temperature to get
units of energy

Electronic entropy                ...      0.00000000 Eh      0.00 kcal/mol
Vibrational entropy               ...      0.01005671 Eh      6.31 kcal/mol
Rotational entropy                ...      0.01204187 Eh      7.56 kcal/mol
Translational entropy             ...      0.01887386 Eh     11.84 kcal/mol
-----------------------------------------------------------------------
Final entropy term                ...      0.04097244 Eh     25.71 kcal/mol

CAUTION: The rotational entropy is not quite correctly treated here
         because it includes a symmetry number that is not yet correctly
         implemented in ORCA!
For a nonlinear molecule the correct rotational entropy is:
    S(rot) = R*(ln(qrot/sn)+1.5)
    R    = 8.31441 J/mol/K = 1.987191683e-3 kcal/mol/K
    qrot = 231512.5817078
    sn is the rotational symmetry number. We have assumed 3 here
       if it is different for your molecule then you should correct
       the printed rotational entropy by manually evaluating the equation
       as given above

For convenience we print out the resulting values for sn=1 - 12:
 sn= 1  qrot/sn=  231512.5817 T*S(rot)=     8.21 kcal/mol T*S(tot)=    26.36 kcal/mol
 sn= 2  qrot/sn=  115756.2909 T*S(rot)=     7.80 kcal/mol T*S(tot)=    25.95 kcal/mol
 sn= 3  qrot/sn=   77170.8606 T*S(rot)=     7.56 kcal/mol T*S(tot)=    25.71 kcal/mol
 sn= 4  qrot/sn=   57878.1454 T*S(rot)=     7.39 kcal/mol T*S(tot)=    25.54 kcal/mol
 sn= 5  qrot/sn=   46302.5163 T*S(rot)=     7.25 kcal/mol T*S(tot)=    25.41 kcal/mol
 sn= 6  qrot/sn=   38585.4303 T*S(rot)=     7.15 kcal/mol T*S(tot)=    25.30 kcal/mol
 sn= 7  qrot/sn=   33073.2260 T*S(rot)=     7.05 kcal/mol T*S(tot)=    25.21 kcal/mol
 sn= 8  qrot/sn=   28939.0727 T*S(rot)=     6.98 kcal/mol T*S(tot)=    25.13 kcal/mol
 sn= 9  qrot/sn=   25723.6202 T*S(rot)=     6.91 kcal/mol T*S(tot)=    25.06 kcal/mol
 sn=10  qrot/sn=   23151.2582 T*S(rot)=     6.84 kcal/mol T*S(tot)=    25.00 kcal/mol
 sn=11  qrot/sn=   21046.5983 T*S(rot)=     6.79 kcal/mol T*S(tot)=    24.94 kcal/mol
 sn=12  qrot/sn=   19292.7151 T*S(rot)=     6.74 kcal/mol T*S(tot)=    24.89 kcal/mol

-------------------
GIBBS FREE ENTHALPY
-------------------

The Gibbs free enthalpy is G = H - T*S

Total enthalpy                    ...   -291.10257996 Eh
Total entropy correction          ...     -0.04097244 Eh    -25.71 kcal/mol
-----------------------------------------------------------------------
Final Gibbs free enthalpy         ...   -291.14355240 Eh

For completeness - the Gibbs free enthalpy minus the electronic energy
G-E(el)                           ...      0.16569408 Eh    103.97 kcal/mol

                             ****ORCA TERMINATED NORMALLY****
TOTAL RUN TIME: 0 days 1 hours 6 minutes 23 seconds 539 msec
