                         Program Version 3.0.3 - RELEASE   -
|  1> ! NORI PBE0 def2-TZVP UseSym TightOPT Freq TightSCF Grid3 FinalGrid5 XYZFile
|  2> % pal
|  3>     nprocs 8
|  4> end
|  5> %method
|  6>     SymThresh 5.0e-2
|  7> end
|  8> % geom
|  9>     MaxIter 10
| 10> end
| 11> % maxcore 2000
| 12> % output
| 13>     printlevel mini
| 14>     print[ P_Basis ] 0
| 15>     print[ P_SCFInfo ] 1
| 16>     print[ P_SCFIterInfo ] 1
| 17>     print[ P_OrbEn ] 0
| 18>     print[ P_Cartesian ] 0
| 19> end
| 20> % elprop
| 21>     Dipole false
| 22> end
| 23> *xyz 1 1
| 24>  C        0.9505050636    -0.1293098806    -0.0357629195
| 25>  C        2.3921789374    -0.0419824604    -0.0344086888
| 26>  C        3.5939185402     0.0345280852    -0.0467881348
| 27>  C        5.0186716448     0.1567001800    -0.0609882685
| 28>  C        5.7453328310     1.1301100468     0.8945876138
| 29>  C        6.7210340499     0.0019406887     1.2391578056
| 30>  N        5.7681568639    -1.0070041659     0.6347110266
| 31>  H        0.6315363611    -1.1709104130    -0.1160707152
| 32>  H        0.5412298949     0.4163708122    -0.8891882026
| 33>  H        0.5312204857     0.2928260183     0.8797037851
| 34>  H        5.4212504486     0.2126054943    -1.0752886033
| 35>  H        5.1143891114     1.4179084584     1.7339120106
| 36>  H        6.1665988535     2.0182604310     0.4315761667
| 37>  H        7.6392677003     0.0100950521     0.6556227937
| 38>  H        6.9423289128    -0.2040186760     2.2831554808
| 39>  H        6.1603232989    -1.7298858504     0.0327367307
| 40>  H        5.1659470020    -1.4509838207     1.3280421190
| 41> *
| 42>
| 43>                          ****END OF INPUT****
 Total Charge           Charge          ....    1
 Multiplicity           Mult            ....    1
 Number of Electrons    NEL             ....   52
FINAL SINGLE POINT ENERGY      -288.838381774962

CARTESIAN COORDINATES (ANGSTROEM)
---------------------------------
  C      2.071966    0.000127   -2.738634
  C      1.170962    0.175808   -1.623558
  C      0.417117    0.335394   -0.698184
  C     -0.502742    0.522289    0.380716
  C     -1.738703   -0.391519    0.541779
  C     -1.387662   -0.539356    2.024292
  N     -0.000034   -0.000230    1.749693
  H      3.109113    0.103489   -2.411122
  H      1.880533    0.759797   -3.500133
  H      1.947225   -0.985225   -3.191930
  H     -0.756942    1.574104    0.532919
  H     -1.628995   -1.320202   -0.016010
  H     -2.696384    0.065584    0.308029
  H     -1.909964    0.154927    2.679721
  H     -1.371465   -1.532224    2.466403
  H      0.378491    0.689662    2.397295
  H      0.693451   -0.736012    1.614468

FINAL SINGLE POINT ENERGY      -288.838382385116
                    ***********************HURRAY********************
 Multiplicity           Mult            ....    1
 Number of Electrons    NEL             ....   52
 Basis Dimension        Dim             ....  277
FINAL SINGLE POINT ENERGY      -288.838382819719

VIBRATIONAL FREQUENCIES
-----------------------

   0:         0.00 cm**-1
   1:         0.00 cm**-1
   2:         0.00 cm**-1
   3:         0.00 cm**-1
   4:         0.00 cm**-1
   5:         0.00 cm**-1
   6:        15.83 cm**-1
   7:        88.89 cm**-1
   8:       105.94 cm**-1
   9:       174.13 cm**-1
  10:       326.48 cm**-1
  11:       342.92 cm**-1
  12:       475.98 cm**-1
  13:       498.57 cm**-1
  14:       597.94 cm**-1
  15:       740.33 cm**-1
  16:       822.79 cm**-1
  17:       835.30 cm**-1
  18:       873.31 cm**-1
  19:       945.80 cm**-1
  20:       965.67 cm**-1
  21:      1013.37 cm**-1
  22:      1034.50 cm**-1
  23:      1041.03 cm**-1
  24:      1063.91 cm**-1
  25:      1129.78 cm**-1
  26:      1213.65 cm**-1
  27:      1229.86 cm**-1
  28:      1256.40 cm**-1
  29:      1277.41 cm**-1
  30:      1293.36 cm**-1
  31:      1305.10 cm**-1
  32:      1342.09 cm**-1
  33:      1393.96 cm**-1
  34:      1406.51 cm**-1
  35:      1453.04 cm**-1
  36:      1456.10 cm**-1
  37:      1487.75 cm**-1
  38:      1502.91 cm**-1
  39:      1639.68 cm**-1
  40:      2363.90 cm**-1
  41:      3058.66 cm**-1
  42:      3097.78 cm**-1
  43:      3124.88 cm**-1
  44:      3128.10 cm**-1
  45:      3133.50 cm**-1
  46:      3139.42 cm**-1
  47:      3189.01 cm**-1
  48:      3200.86 cm**-1
  49:      3459.86 cm**-1
  50:      3536.53 cm**-1

IR SPECTRUM
-----------

 Mode    freq (cm**-1)   T**2         TX         TY         TZ
-------------------------------------------------------------------
   7:        88.89    0.906046  (  0.602819  -0.735341   0.043923)
   8:       105.94    4.874425  (  2.198790  -0.123056   0.156860)
   9:       174.13   12.027608  (  0.187541  -3.450813  -0.290390)
  10:       326.48    5.629737  (  1.738790   0.922824   1.324667)
  11:       342.92    4.914426  ( -0.470731   1.144782  -1.839107)
  12:       475.98    4.580069  (  0.785380   1.551103  -1.247929)
  13:       498.57    4.130682  (  1.517279   0.322765   1.313153)
  14:       597.94    2.399806  (  0.070917   0.223883   1.531226)
  15:       740.33    8.636474  (  0.010206   2.095472  -2.060429)
  16:       822.79   11.372180  (  0.793656   0.871577  -3.159532)
  17:       835.30   46.740794  ( -2.376880   0.663690   6.375794)
  18:       873.31    4.468756  ( -1.665185  -1.239416  -0.399702)
  19:       945.80   10.845956  ( -2.731485  -0.232849  -1.825028)
  20:       965.67    6.395329  (  0.268551  -1.500721   2.017683)
  21:      1013.37    1.106104  (  0.635479   0.309769  -0.778661)
  22:      1034.50    3.403400  ( -1.037862   0.755625  -1.324867)
  23:      1041.03    2.453676  ( -0.834540  -1.322606  -0.089067)
  24:      1063.91    1.657338  (  0.158141  -0.327583   1.234917)
  25:      1129.78    1.351800  (  0.562248  -0.924165  -0.426140)
  26:      1213.65    0.455853  (  0.480281  -0.418832  -0.223075)
  27:      1229.86    2.271329  ( -0.708064  -0.426521   1.260180)
  28:      1256.40   66.476971  (  3.041045   2.750743  -7.047157)
  29:      1277.41   11.209482  ( -1.166414  -1.973209   2.440370)
  30:      1293.36    2.965006  (  0.315297  -1.464497   0.849025)
  31:      1305.10   24.293151  (  1.352255   3.645325  -3.029218)
  32:      1342.09    2.089151  (  1.239112  -0.031275  -0.743487)
  33:      1393.96   61.838050  (  4.278831   0.155553  -6.595867)
  34:      1406.51   16.259373  ( -1.767987  -0.089614   3.622922)
  35:      1453.04   14.366482  (  1.091164   3.626544  -0.154997)
  36:      1456.10   13.230606  ( -2.922162   0.707062  -2.047350)
  37:      1487.75   13.121811  (  1.660048   1.328169   2.932920)
  38:      1502.91   11.277143  ( -2.721202  -0.955341   1.720327)
  39:      1639.68   49.347254  (  5.648568  -1.038962   4.044934)
  40:      2363.90  197.422680  (  8.133445  -0.433834 -11.449085)
  41:      3058.66    0.706465  ( -0.416515  -0.198469   0.702560)
  42:      3097.78    3.610857  ( -0.988540  -0.096736   1.619966)
  43:      3124.88    0.096957  ( -0.068469   0.295455   0.070537)
  44:      3128.10    0.921037  ( -0.128894   0.163540   0.936845)
  45:      3133.50    0.330675  ( -0.381478   0.255113  -0.346507)
  46:      3139.42    0.561980  (  0.390209   0.345548  -0.538807)
  47:      3189.01    0.216407  ( -0.283988  -0.150877   0.336145)
  48:      3200.86    0.216014  ( -0.262839   0.302314   0.235662)
  49:      3459.86   54.866675  ( -6.018570   0.424236  -4.296919)
  50:      3536.53   83.323938  ( -1.634107   7.708173   4.608438)

--------------------------
THERMOCHEMISTRY AT 298.15K
--------------------------

Temperature         ... 298.15 K
Pressure            ... 1.00 atm
Total Mass          ... 96.15 AMU

Throughout the following assumptions are being made:
  (1) The electronic state is orbitally nondegenerate
  (2) There are no thermally accessible electronically excited states
  (3) Hindered rotations indicated by low frequency modes) are not
      treated as such but are treated as vibrations and this may
      case some error
  (4) All equations used are the standard statistical mechanics
      equations for an ideal gas
  (5) All vibrations are strinctly harmonic

------------
INNER ENERGY
------------

The inner energy is: U= E(el) + E(ZPE) + E(vib) + E(rot) + E(trans)
    E(el)   - is the total energy from the electronic structure calculation
              = E(kin-el) + E(nuc-el) + E(el-el) + E(nuc-nuc)
    E(ZPE)  - the the zero temperature vibrational energy from the frequency calculation
    E(vib)  - the the finite temperature correction to E(ZPE) due to population
              of excietd vibrational states
    E(rot)  - is the rotational thermal energy
    E(trans)- is the translational thermal energy

Summary of contributions to the inner energy U:
Electronic energy                ...   -288.83838282 Eh
Zero point energy                ...      0.15210631 Eh      95.45 kcal/mol
Thermal vibrational correction   ...      0.00413094 Eh       2.59 kcal/mol
Thermal rotational correction    ...      0.00141627 Eh       0.89 kcal/mol
Thermal translational correction ...      0.00141627 Eh       0.89 kcal/mol
-----------------------------------------------------------------------
Total thermal energy                   -288.67931302 Eh

Summary of corrections to the electronic energy:
(perhaps to be used in another calculation)
Total thermal correction                  0.00696349 Eh       4.37 kcal/mol
Non-thermal (ZPE) correction              0.15210631 Eh      95.45 kcal/mol
-----------------------------------------------------------------------
Total correction                          0.15906980 Eh      99.82 kcal/mol

--------
ENTHALPY
--------

The enthalpy is H = U + kB*T
                kB is Boltzmann's constant
Total free energy                 ...   -288.67931302 Eh
Thermal Enthalpy correction       ...      0.00094421 Eh       0.59 kcal/mol
-----------------------------------------------------------------------
Total Enthalpy                    ...   -288.67836881 Eh

-------
ENTROPY
-------

The entropy contributions are T*S = T*(S(el)+S(vib)+S(rot)+S(trans)
     S(el)   - electronic entropy
     S(vib)  - vibrational entropy
     S(rot)  - rotational entropy
     S(trans)- translational entropy
The entropies will be listed as mutliplied by the temperature to get
units of energy

Electronic entropy                ...      0.00000000 Eh      0.00 kcal/mol
Vibrational entropy               ...      0.00733019 Eh      4.60 kcal/mol
Rotational entropy                ...      0.01213314 Eh      7.61 kcal/mol
Translational entropy             ...      0.01881568 Eh     11.81 kcal/mol
-----------------------------------------------------------------------
Final entropy term                ...      0.03827902 Eh     24.02 kcal/mol

CAUTION: The rotational entropy is not quite correctly treated here
         because it includes a symmetry number that is not yet correctly
         implemented in ORCA!
For a nonlinear molecule the correct rotational entropy is:
    S(rot) = R*(ln(qrot/sn)+1.5)
    R    = 8.31441 J/mol/K = 1.987191683e-3 kcal/mol/K
    qrot = 255009.3990843
    sn is the rotational symmetry number. We have assumed 3 here
       if it is different for your molecule then you should correct
       the printed rotational entropy by manually evaluating the equation
       as given above

For convenience we print out the resulting values for sn=1 - 12:
 sn= 1  qrot/sn=  255009.3991 T*S(rot)=     8.26 kcal/mol T*S(tot)=    24.67 kcal/mol
 sn= 2  qrot/sn=  127504.6995 T*S(rot)=     7.85 kcal/mol T*S(tot)=    24.26 kcal/mol
 sn= 3  qrot/sn=   85003.1330 T*S(rot)=     7.61 kcal/mol T*S(tot)=    24.02 kcal/mol
 sn= 4  qrot/sn=   63752.3498 T*S(rot)=     7.44 kcal/mol T*S(tot)=    23.85 kcal/mol
 sn= 5  qrot/sn=   51001.8798 T*S(rot)=     7.31 kcal/mol T*S(tot)=    23.72 kcal/mol
 sn= 6  qrot/sn=   42501.5665 T*S(rot)=     7.20 kcal/mol T*S(tot)=    23.61 kcal/mol
 sn= 7  qrot/sn=   36429.9142 T*S(rot)=     7.11 kcal/mol T*S(tot)=    23.52 kcal/mol
 sn= 8  qrot/sn=   31876.1749 T*S(rot)=     7.03 kcal/mol T*S(tot)=    23.44 kcal/mol
 sn= 9  qrot/sn=   28334.3777 T*S(rot)=     6.96 kcal/mol T*S(tot)=    23.37 kcal/mol
 sn=10  qrot/sn=   25500.9399 T*S(rot)=     6.90 kcal/mol T*S(tot)=    23.31 kcal/mol
 sn=11  qrot/sn=   23182.6726 T*S(rot)=     6.84 kcal/mol T*S(tot)=    23.25 kcal/mol
 sn=12  qrot/sn=   21250.7833 T*S(rot)=     6.79 kcal/mol T*S(tot)=    23.20 kcal/mol

-------------------
GIBBS FREE ENTHALPY
-------------------

The Gibbs free enthalpy is G = H - T*S

Total enthalpy                    ...   -288.67836881 Eh
Total entropy correction          ...     -0.03827902 Eh    -24.02 kcal/mol
-----------------------------------------------------------------------
Final Gibbs free enthalpy         ...   -288.71664783 Eh

For completeness - the Gibbs free enthalpy minus the electronic energy
G-E(el)                           ...      0.12173499 Eh     76.39 kcal/mol

                             ****ORCA TERMINATED NORMALLY****
TOTAL RUN TIME: 0 days 0 hours 36 minutes 8 seconds 952 msec
