                         Program Version 3.0.3 - RELEASE   -
|  1> ! NORI PBE0 def2-TZVP UseSym TightOPT Freq TightSCF Grid3 FinalGrid5 XYZFile
|  2> % pal
|  3>     nprocs 8
|  4> end
|  5> %method
|  6>     SymThresh 5.0e-2
|  7> end
|  8> % geom
|  9>     MaxIter 10
| 10> end
| 11> % maxcore 2000
| 12> % output
| 13>     printlevel mini
| 14>     print[ P_Basis ] 0
| 15>     print[ P_SCFInfo ] 1
| 16>     print[ P_SCFIterInfo ] 1
| 17>     print[ P_OrbEn ] 0
| 18>     print[ P_Cartesian ] 0
| 19> end
| 20> % elprop
| 21>     Dipole false
| 22> end
| 23> *xyz 1 1
| 24>  C        1.0734514763    -0.0792667766    -0.0014760234
| 25>  C        2.5217395291     0.3791883430     0.0029828834
| 26>  C        3.4876246505    -0.8031817295    -0.0074447320
| 27>  C        4.9289356171    -0.3737510419     0.0856046812
| 28>  C        5.5144312856     0.3899439324    -1.0641430241
| 29>  C        5.5392408771    -0.2326033466     1.4202237560
| 30>  N        5.8445822138    -1.4503145991     0.6308833266
| 31>  H        0.3990407959     0.7773216988    -0.0036118157
| 32>  H        0.8427500115    -0.6820128879     0.8804259234
| 33>  H        0.8500683370    -0.6803290083    -0.8861715686
| 34>  H        2.7131685687     0.9988342316     0.8861582658
| 35>  H        2.7075101620     1.0116149107    -0.8697012546
| 36>  H        3.3502948073    -1.3870684323    -0.9235662243
| 37>  H        3.2476006686    -1.4649568164     0.8341445639
| 38>  H        5.3483763996    -0.1356539729    -2.0062265726
| 39>  H        6.5843399377     0.5711287907    -0.9388171273
| 40>  H        5.0258672520     1.3627690460    -1.1280652008
| 41>  H        4.9449907785    -0.4246165376     2.3048729204
| 42>  H        6.3912721477     0.4215701374     1.5574024771
| 43>  H        6.7739089734    -1.5420367945     0.2363926607
| 44>  H        5.4273855105    -2.3255891470     0.9271220851
| 45> *
| 46>
| 47>                          ****END OF INPUT****
 Total Charge           Charge          ....    1
 Multiplicity           Mult            ....    1
 Number of Electrons    NEL             ....   56
FINAL SINGLE POINT ENERGY      -291.310719645147

CARTESIAN COORDINATES (ANGSTROEM)
---------------------------------
  C      1.548131   -0.000090   -2.653223
  C      0.359654   -0.152200   -1.719076
  C      0.691679    0.313565   -0.303644
  C     -0.444665    0.090183    0.660283
  C     -1.703112    0.881688    0.465311
  C     -0.512912   -1.191135    1.386229
  N     -0.000294    0.000328    2.105676
  H      1.290092   -0.328152   -3.660569
  H      2.399163   -0.597448   -2.317178
  H      1.872841    1.041149   -2.716119
  H      0.038572   -1.199364   -1.692839
  H     -0.485309    0.424498   -2.105978
  H      0.944542    1.378906   -0.312673
  H      1.580775   -0.224944    0.047687
  H     -1.485749    1.948928    0.396365
  H     -2.425600    0.714233    1.267414
  H     -2.175592    0.571201   -0.467493
  H      0.239605   -1.949209    1.207811
  H     -1.463861   -1.549380    1.760371
  H     -0.587831    0.415161    2.820261
  H      0.993311    0.045346    2.302740

FINAL SINGLE POINT ENERGY      -291.310720566616
                    ***********************HURRAY********************
 Multiplicity           Mult            ....    1
 Number of Electrons    NEL             ....   56
 Basis Dimension        Dim             ....  301
FINAL SINGLE POINT ENERGY      -291.310720993248

VIBRATIONAL FREQUENCIES
-----------------------

   0:         0.00 cm**-1
   1:         0.00 cm**-1
   2:         0.00 cm**-1
   3:         0.00 cm**-1
   4:         0.00 cm**-1
   5:         0.00 cm**-1
   6:        78.89 cm**-1
   7:        88.75 cm**-1
   8:       168.58 cm**-1
   9:       220.51 cm**-1
  10:       246.79 cm**-1
  11:       303.29 cm**-1
  12:       343.16 cm**-1
  13:       359.39 cm**-1
  14:       406.89 cm**-1
  15:       464.17 cm**-1
  16:       723.40 cm**-1
  17:       751.12 cm**-1
  18:       792.03 cm**-1
  19:       862.44 cm**-1
  20:       876.64 cm**-1
  21:       903.30 cm**-1
  22:       932.47 cm**-1
  23:       951.16 cm**-1
  24:       971.71 cm**-1
  25:      1003.09 cm**-1
  26:      1024.27 cm**-1
  27:      1068.90 cm**-1
  28:      1089.92 cm**-1
  29:      1114.65 cm**-1
  30:      1133.37 cm**-1
  31:      1184.03 cm**-1
  32:      1242.59 cm**-1
  33:      1251.75 cm**-1
  34:      1308.85 cm**-1
  35:      1324.10 cm**-1
  36:      1358.05 cm**-1
  37:      1386.39 cm**-1
  38:      1394.67 cm**-1
  39:      1416.84 cm**-1
  40:      1429.91 cm**-1
  41:      1467.21 cm**-1
  42:      1477.54 cm**-1
  43:      1484.63 cm**-1
  44:      1492.71 cm**-1
  45:      1493.54 cm**-1
  46:      1500.99 cm**-1
  47:      1503.39 cm**-1
  48:      1624.16 cm**-1
  49:      3030.94 cm**-1
  50:      3047.56 cm**-1
  51:      3057.70 cm**-1
  52:      3064.11 cm**-1
  53:      3079.35 cm**-1
  54:      3099.50 cm**-1
  55:      3131.39 cm**-1
  56:      3143.53 cm**-1
  57:      3146.64 cm**-1
  58:      3155.80 cm**-1
  59:      3167.23 cm**-1
  60:      3266.90 cm**-1
  61:      3513.31 cm**-1
  62:      3621.61 cm**-1

IR SPECTRUM
-----------

 Mode    freq (cm**-1)   T**2         TX         TY         TZ
-------------------------------------------------------------------
   6:        78.89    0.238977  ( -0.035826  -0.429744  -0.230247)
   7:        88.75    0.429792  ( -0.243995   0.303762   0.527245)
   8:       168.58    0.943856  ( -0.771188  -0.409433   0.426016)
   9:       220.51    0.601596  (  0.113382   0.736260   0.216013)
  10:       246.79    0.037913  (  0.116630   0.059891   0.143957)
  11:       303.29    1.181835  (  0.922208  -0.058765  -0.572637)
  12:       343.16    1.252941  (  0.923947  -0.530019  -0.344009)
  13:       359.39    1.341156  (  0.264382  -0.672395   0.905065)
  14:       406.89    0.217427  ( -0.029923   0.199406   0.420439)
  15:       464.17    1.268040  (  0.034440  -1.125060   0.033080)
  16:       723.40    0.796375  ( -0.290221   0.267759  -0.800283)
  17:       751.12    4.646425  (  0.949964  -1.625846   1.049104)
  18:       792.03   22.860597  ( -1.246332  -0.936790  -4.519920)
  19:       862.44    0.342637  (  0.411957  -0.108349  -0.401484)
  20:       876.64    0.879572  (  0.671117   0.490973  -0.433728)
  21:       903.30    2.955481  ( -1.244307   0.400741   1.116507)
  22:       932.47    0.696235  (  0.433388  -0.625643   0.342023)
  23:       951.16    4.078032  (  1.634717  -0.364679   1.128159)
  24:       971.71    8.200781  ( -0.166837  -0.036109  -2.858608)
  25:      1003.09   84.444419  (  0.098367  -7.246178   5.650455)
  26:      1024.27    8.487433  (  0.242468   2.371121  -1.675239)
  27:      1068.90    1.828924  (  0.911554   0.788072   0.613951)
  28:      1089.92    5.146100  (  0.439093   1.420020   1.713721)
  29:      1114.65    3.446166  (  0.599029   1.306894  -1.174461)
  30:      1133.37   14.460398  ( -0.330941  -1.377505  -3.528931)
  31:      1184.03    3.093684  ( -0.841919  -0.171545  -1.534741)
  32:      1242.59    1.438489  (  0.991152  -0.171166  -0.653306)
  33:      1251.75    1.454801  (  1.124734  -0.246852   0.358941)
  34:      1308.85    1.498460  ( -0.429896  -1.042076   0.477207)
  35:      1324.10    1.883834  ( -0.453399   1.078572  -0.717597)
  36:      1358.05    9.816771  (  1.818692   0.358146  -2.526037)
  37:      1386.39    1.901200  (  0.348274   0.671890   1.152592)
  38:      1394.67    3.931135  ( -0.843542   0.453831   1.735975)
  39:      1416.84    1.509122  ( -0.984578  -0.478953   0.557076)
  40:      1429.91   19.858079  ( -4.319444   1.091350  -0.097162)
  41:      1467.21    2.218068  (  0.023799  -1.262953  -0.788955)
  42:      1477.54   17.893761  (  2.111168   3.665570  -0.018087)
  43:      1484.63    5.574958  ( -1.011884  -0.113344   2.130306)
  44:      1492.71   12.320494  ( -0.792883   3.117304  -1.405078)
  45:      1493.54    5.931733  (  1.419094   1.036284  -1.686422)
  46:      1500.99    8.488399  ( -0.515052  -2.721892  -0.902453)
  47:      1503.39   10.886164  ( -2.902095   0.382925  -1.522293)
  48:      1624.16   81.369697  (  2.970058   2.080958   8.259423)
  49:      3030.94    8.096695  ( -1.606785   0.489774  -2.296750)
  50:      3047.56   13.805859  (  3.273109   1.627801   0.665493)
  51:      3057.70   17.325315  (  3.906805   0.883135  -1.132370)
  52:      3064.11    2.058185  (  0.478458  -0.074737  -1.350436)
  53:      3079.35    1.908323  (  1.207725   0.643513  -0.188717)
  54:      3099.50    9.691581  (  1.379683  -2.721683   0.616843)
  55:      3131.39   23.580671  (  1.756705  -4.377775   1.153146)
  56:      3143.53    4.753378  ( -1.140587  -1.010197   1.559468)
  57:      3146.64    8.646092  (  1.531457   1.076362   2.267637)
  58:      3155.80    0.316836  (  0.225081  -0.490550   0.159796)
  59:      3167.23    1.163602  (  0.225881   1.054504  -0.024536)
  60:      3266.90    2.424133  ( -1.471530   0.359784   0.359568)
  61:      3513.31   96.854392  ( -3.292053  -3.425064  -8.618916)
  62:      3621.61  102.935748  ( -9.338091   2.215176   3.290713)

--------------------------
THERMOCHEMISTRY AT 298.15K
--------------------------

Temperature         ... 298.15 K
Pressure            ... 1.00 atm
Total Mass          ... 100.18 AMU

Throughout the following assumptions are being made:
  (1) The electronic state is orbitally nondegenerate
  (2) There are no thermally accessible electronically excited states
  (3) Hindered rotations indicated by low frequency modes) are not
      treated as such but are treated as vibrations and this may
      case some error
  (4) All equations used are the standard statistical mechanics
      equations for an ideal gas
  (5) All vibrations are strinctly harmonic

------------
INNER ENERGY
------------

The inner energy is: U= E(el) + E(ZPE) + E(vib) + E(rot) + E(trans)
    E(el)   - is the total energy from the electronic structure calculation
              = E(kin-el) + E(nuc-el) + E(el-el) + E(nuc-nuc)
    E(ZPE)  - the the zero temperature vibrational energy from the frequency calculation
    E(vib)  - the the finite temperature correction to E(ZPE) due to population
              of excietd vibrational states
    E(rot)  - is the rotational thermal energy
    E(trans)- is the translational thermal energy

Summary of contributions to the inner energy U:
Electronic energy                ...   -291.31072099 Eh
Zero point energy                ...      0.19762148 Eh     124.01 kcal/mol
Thermal vibrational correction   ...      0.00575383 Eh       3.61 kcal/mol
Thermal rotational correction    ...      0.00141627 Eh       0.89 kcal/mol
Thermal translational correction ...      0.00141627 Eh       0.89 kcal/mol
-----------------------------------------------------------------------
Total thermal energy                   -291.10451314 Eh

Summary of corrections to the electronic energy:
(perhaps to be used in another calculation)
Total thermal correction                  0.00858637 Eh       5.39 kcal/mol
Non-thermal (ZPE) correction              0.19762148 Eh     124.01 kcal/mol
-----------------------------------------------------------------------
Total correction                          0.20620785 Eh     129.40 kcal/mol

--------
ENTHALPY
--------

The enthalpy is H = U + kB*T
                kB is Boltzmann's constant
Total free energy                 ...   -291.10451314 Eh
Thermal Enthalpy correction       ...      0.00094421 Eh       0.59 kcal/mol
-----------------------------------------------------------------------
Total Enthalpy                    ...   -291.10356893 Eh

-------
ENTROPY
-------

The entropy contributions are T*S = T*(S(el)+S(vib)+S(rot)+S(trans)
     S(el)   - electronic entropy
     S(vib)  - vibrational entropy
     S(rot)  - rotational entropy
     S(trans)- translational entropy
The entropies will be listed as mutliplied by the temperature to get
units of energy

Electronic entropy                ...      0.00000000 Eh      0.00 kcal/mol
Vibrational entropy               ...      0.01021130 Eh      6.41 kcal/mol
Rotational entropy                ...      0.01224061 Eh      7.68 kcal/mol
Translational entropy             ...      0.01887386 Eh     11.84 kcal/mol
-----------------------------------------------------------------------
Final entropy term                ...      0.04132577 Eh     25.93 kcal/mol

CAUTION: The rotational entropy is not quite correctly treated here
         because it includes a symmetry number that is not yet correctly
         implemented in ORCA!
For a nonlinear molecule the correct rotational entropy is:
    S(rot) = R*(ln(qrot/sn)+1.5)
    R    = 8.31441 J/mol/K = 1.987191683e-3 kcal/mol/K
    qrot = 285751.7228051
    sn is the rotational symmetry number. We have assumed 3 here
       if it is different for your molecule then you should correct
       the printed rotational entropy by manually evaluating the equation
       as given above

For convenience we print out the resulting values for sn=1 - 12:
 sn= 1  qrot/sn=  285751.7228 T*S(rot)=     8.33 kcal/mol T*S(tot)=    26.58 kcal/mol
 sn= 2  qrot/sn=  142875.8614 T*S(rot)=     7.92 kcal/mol T*S(tot)=    26.17 kcal/mol
 sn= 3  qrot/sn=   95250.5743 T*S(rot)=     7.68 kcal/mol T*S(tot)=    25.93 kcal/mol
 sn= 4  qrot/sn=   71437.9307 T*S(rot)=     7.51 kcal/mol T*S(tot)=    25.76 kcal/mol
 sn= 5  qrot/sn=   57150.3446 T*S(rot)=     7.38 kcal/mol T*S(tot)=    25.63 kcal/mol
 sn= 6  qrot/sn=   47625.2871 T*S(rot)=     7.27 kcal/mol T*S(tot)=    25.52 kcal/mol
 sn= 7  qrot/sn=   40821.6747 T*S(rot)=     7.18 kcal/mol T*S(tot)=    25.43 kcal/mol
 sn= 8  qrot/sn=   35718.9654 T*S(rot)=     7.10 kcal/mol T*S(tot)=    25.35 kcal/mol
 sn= 9  qrot/sn=   31750.1914 T*S(rot)=     7.03 kcal/mol T*S(tot)=    25.28 kcal/mol
 sn=10  qrot/sn=   28575.1723 T*S(rot)=     6.97 kcal/mol T*S(tot)=    25.22 kcal/mol
 sn=11  qrot/sn=   25977.4293 T*S(rot)=     6.91 kcal/mol T*S(tot)=    25.16 kcal/mol
 sn=12  qrot/sn=   23812.6436 T*S(rot)=     6.86 kcal/mol T*S(tot)=    25.11 kcal/mol

-------------------
GIBBS FREE ENTHALPY
-------------------

The Gibbs free enthalpy is G = H - T*S

Total enthalpy                    ...   -291.10356893 Eh
Total entropy correction          ...     -0.04132577 Eh    -25.93 kcal/mol
-----------------------------------------------------------------------
Final Gibbs free enthalpy         ...   -291.14489470 Eh

For completeness - the Gibbs free enthalpy minus the electronic energy
G-E(el)                           ...      0.16582629 Eh    104.06 kcal/mol

                             ****ORCA TERMINATED NORMALLY****
TOTAL RUN TIME: 0 days 0 hours 53 minutes 45 seconds 198 msec
