                         Program Version 3.0.3 - RELEASE   -
|  1> ! NORI PBE0 def2-TZVP UseSym TightOPT Freq TightSCF Grid3 FinalGrid5 XYZFile
|  2> % pal
|  3>     nprocs 8
|  4> end
|  5> %method
|  6>     SymThresh 5.0e-2
|  7> end
|  8> % geom
|  9>     MaxIter 10
| 10> end
| 11> % maxcore 2000
| 12> % output
| 13>     printlevel mini
| 14>     print[ P_Basis ] 0
| 15>     print[ P_SCFInfo ] 1
| 16>     print[ P_SCFIterInfo ] 1
| 17>     print[ P_OrbEn ] 0
| 18>     print[ P_Cartesian ] 0
| 19> end
| 20> % elprop
| 21>     Dipole false
| 22> end
| 23> *xyz 1 1
| 24>  C        3.2746096802    -0.0980408794    -1.7943977620
| 25>  C        2.8939163025     0.2907904504    -0.3751658971
| 26>  C        3.3273302228    -0.7101870075     0.6894102348
| 27>  C        4.8109154718    -0.8464382704     0.8549499571
| 28>  C        5.4224983262    -2.0631050173     1.4195333333
| 29>  N        5.5353442376    -1.8071986225    -0.0311876074
| 30>  C        6.8272538577    -1.4931788004    -0.6510657656
| 31>  H        2.8679545335     0.6137533523    -2.5134754566
| 32>  H        2.8786796841    -1.0829812572    -2.0611696936
| 33>  H        4.3586868244    -0.1054176429    -1.9481556562
| 34>  H        1.8085199834     0.3943520615    -0.3069571257
| 35>  H        3.3037558104     1.2765537826    -0.1325574135
| 36>  H        2.8916104166    -1.6982807924     0.4919954841
| 37>  H        2.9405994503    -0.4050559272     1.6673760238
| 38>  H        5.3754433779     0.0745190987     0.9668321418
| 39>  H        6.3661158994    -2.0022974029     1.9464597801
| 40>  H        4.7853422725    -2.8991555301     1.6821976872
| 41>  H        4.9197773619    -2.3681669627    -0.6119420313
| 42>  H        7.4036470480    -0.8713650975     0.0319144205
| 43>  H        6.6537551134    -0.9547980036    -1.5817115107
| 44>  H        7.3643441254    -2.4208915315    -0.8455031431
| 45> *
| 46>
| 47>                          ****END OF INPUT****
 Total Charge           Charge          ....    1
 Multiplicity           Mult            ....    1
 Number of Electrons    NEL             ....   56
FINAL SINGLE POINT ENERGY      -291.302339612418
FINAL SINGLE POINT ENERGY      -291.302341779888
FINAL SINGLE POINT ENERGY      -291.302343057675

CARTESIAN COORDINATES (ANGSTROEM)
---------------------------------
  C      1.804716    0.005729   -1.555380
  C      0.398976   -0.155384   -2.109956
  C     -0.604058   -0.745835   -1.125479
  C     -0.894597    0.113361    0.067925
  C     -1.404804   -0.454201    1.329059
  N      0.000332   -0.002628    1.258839
  C      0.462099    1.164570    2.017614
  H      2.489692    0.348042   -2.331866
  H      2.199434   -0.942719   -1.177089
  H      1.854801    0.748128   -0.752603
  H      0.426791   -0.812207   -2.982654
  H      0.025581    0.807553   -2.473165
  H     -0.276565   -1.737487   -0.787306
  H     -1.565744   -0.904862   -1.624410
  H     -1.140482    1.152939   -0.127879
  H     -2.021956    0.147271    1.984241
  H     -1.531244   -1.526970    1.410431
  H      0.684614   -0.748963    1.183772
  H     -0.325385    1.916246    2.020930
  H      1.354568    1.568616    1.541729
  H      0.683800    0.860651    3.040055

FINAL SINGLE POINT ENERGY      -291.302343388461
                    ***********************HURRAY********************
 Multiplicity           Mult            ....    1
 Number of Electrons    NEL             ....   56
 Basis Dimension        Dim             ....  301
FINAL SINGLE POINT ENERGY      -291.302343528474

VIBRATIONAL FREQUENCIES
-----------------------

   0:         0.00 cm**-1
   1:         0.00 cm**-1
   2:         0.00 cm**-1
   3:         0.00 cm**-1
   4:         0.00 cm**-1
   5:         0.00 cm**-1
   6:        63.60 cm**-1
   7:       100.49 cm**-1
   8:       168.16 cm**-1
   9:       196.17 cm**-1
  10:       255.57 cm**-1
  11:       284.22 cm**-1
  12:       311.92 cm**-1
  13:       394.86 cm**-1
  14:       399.56 cm**-1
  15:       497.75 cm**-1
  16:       754.28 cm**-1
  17:       759.62 cm**-1
  18:       829.36 cm**-1
  19:       864.56 cm**-1
  20:       881.52 cm**-1
  21:       922.63 cm**-1
  22:       952.56 cm**-1
  23:      1021.72 cm**-1
  24:      1058.18 cm**-1
  25:      1087.26 cm**-1
  26:      1103.92 cm**-1
  27:      1120.60 cm**-1
  28:      1151.23 cm**-1
  29:      1158.16 cm**-1
  30:      1192.87 cm**-1
  31:      1205.26 cm**-1
  32:      1236.39 cm**-1
  33:      1274.95 cm**-1
  34:      1294.16 cm**-1
  35:      1300.64 cm**-1
  36:      1351.71 cm**-1
  37:      1382.98 cm**-1
  38:      1409.65 cm**-1
  39:      1418.55 cm**-1
  40:      1454.15 cm**-1
  41:      1461.60 cm**-1
  42:      1467.07 cm**-1
  43:      1481.31 cm**-1
  44:      1483.18 cm**-1
  45:      1494.43 cm**-1
  46:      1496.45 cm**-1
  47:      1499.42 cm**-1
  48:      1517.84 cm**-1
  49:      3033.43 cm**-1
  50:      3038.20 cm**-1
  51:      3060.67 cm**-1
  52:      3083.88 cm**-1
  53:      3091.19 cm**-1
  54:      3092.64 cm**-1
  55:      3117.83 cm**-1
  56:      3139.89 cm**-1
  57:      3166.40 cm**-1
  58:      3180.01 cm**-1
  59:      3181.28 cm**-1
  60:      3185.63 cm**-1
  61:      3267.42 cm**-1
  62:      3540.02 cm**-1

IR SPECTRUM
-----------

 Mode    freq (cm**-1)   T**2         TX         TY         TZ
-------------------------------------------------------------------
   6:        63.60    0.780354  ( -0.267963  -0.533956   0.650723)
   7:       100.49    3.414683  (  0.688282  -0.161058  -1.707340)
   8:       168.16    0.335846  (  0.344905   0.450171   0.119301)
   9:       196.17    0.230884  (  0.429281   0.118508  -0.180436)
  10:       255.57    0.322673  ( -0.381961  -0.313829   0.279805)
  11:       284.22    1.593829  ( -0.389241   0.546850  -1.069241)
  12:       311.92    0.251905  (  0.257022   0.318765  -0.290231)
  13:       394.86    0.757939  ( -0.294467   0.363397   0.734282)
  14:       399.56    1.391673  ( -0.262136   0.031822   1.149759)
  15:       497.75    0.623110  ( -0.643070   0.401051  -0.220746)
  16:       754.28    1.258121  (  0.192295   0.322913  -1.056821)
  17:       759.62    4.379151  (  0.747411   1.478339   1.278687)
  18:       829.36   14.764499  ( -3.261640   1.382754  -1.488017)
  19:       864.56    2.830321  (  0.512445   0.341381   1.565625)
  20:       881.52   11.430316  ( -0.924772   0.157433  -3.248127)
  21:       922.63    2.815542  ( -1.476072  -0.506360  -0.616729)
  22:       952.56   24.091763  ( -3.110902  -2.236124   3.068191)
  23:      1021.72    5.707588  ( -1.947481  -0.194715   1.370034)
  24:      1058.18   32.960969  ( -2.652132  -0.565651  -5.060356)
  25:      1087.26    0.226095  ( -0.224330  -0.408302   0.095183)
  26:      1103.92    7.865191  (  1.636523   0.833992   2.119302)
  27:      1120.60    4.808518  (  1.892756   1.106639  -0.036667)
  28:      1151.23   14.266670  ( -0.875546  -0.045112   3.673970)
  29:      1158.16    5.933380  (  0.054299  -2.242041   0.950623)
  30:      1192.87    1.469096  (  0.078747   0.374120  -1.150186)
  31:      1205.26    1.099649  ( -0.620029  -0.565491   0.628834)
  32:      1236.39    8.963933  ( -1.600829  -2.528394  -0.092200)
  33:      1274.95    6.996122  (  0.206977  -0.923035   2.470079)
  34:      1294.16    5.380398  (  2.076637  -0.164611  -1.020235)
  35:      1300.64    0.717826  ( -0.639814  -0.407652   0.377206)
  36:      1351.71    3.015888  ( -1.064483  -0.572923  -1.246805)
  37:      1382.98    1.113874  ( -0.251491   0.313728   0.975808)
  38:      1409.65    8.414489  ( -2.784733  -0.561335  -0.587072)
  39:      1418.55    1.327443  (  0.006015   0.939537   0.666841)
  40:      1454.15    4.559766  (  0.433750  -1.954092   0.743742)
  41:      1461.60   22.679605  (  2.032627   4.303971  -0.154481)
  42:      1467.07    2.795714  (  0.179052   1.105696  -1.241407)
  43:      1481.31    7.435110  ( -0.968760   0.390801  -2.518708)
  44:      1483.18    8.758422  ( -2.739456  -0.148701   1.109816)
  45:      1494.43   16.462247  (  2.925645  -1.803546  -2.156402)
  46:      1496.45   11.887052  ( -2.952320   1.619772  -0.739729)
  47:      1499.42   13.149080  (  1.202266   3.387533  -0.477764)
  48:      1517.84   32.889703  ( -2.419625  -0.038798  -5.199386)
  49:      3033.43    7.663729  (  0.892493   2.332801  -1.193828)
  50:      3038.20   20.574526  ( -1.764899  -0.430513  -4.156238)
  51:      3060.67   15.195203  (  1.543013  -1.390804   3.298481)
  52:      3083.88    0.630834  ( -0.332848  -0.616004  -0.374949)
  53:      3091.19    3.734341  ( -1.490950   0.491467  -1.126885)
  54:      3092.64    8.384561  ( -0.882080   2.631330   0.826195)
  55:      3117.83   26.380201  (  0.866053  -4.701117  -1.878738)
  56:      3139.89    8.220374  ( -0.938204  -0.550838   2.652683)
  57:      3166.40    1.611241  (  0.989809   0.482291  -0.631596)
  58:      3180.01    0.170699  ( -0.103169  -0.130469  -0.378197)
  59:      3181.28    0.337535  ( -0.149142   0.057805  -0.558525)
  60:      3185.63    0.129609  ( -0.150334  -0.292577  -0.146313)
  61:      3267.42    3.479434  (  0.594040  -1.674625  -0.567611)
  62:      3540.02   64.974036  (  6.319686  -5.003053   0.071173)

--------------------------
THERMOCHEMISTRY AT 298.15K
--------------------------

Temperature         ... 298.15 K
Pressure            ... 1.00 atm
Total Mass          ... 100.18 AMU

Throughout the following assumptions are being made:
  (1) The electronic state is orbitally nondegenerate
  (2) There are no thermally accessible electronically excited states
  (3) Hindered rotations indicated by low frequency modes) are not
      treated as such but are treated as vibrations and this may
      case some error
  (4) All equations used are the standard statistical mechanics
      equations for an ideal gas
  (5) All vibrations are strinctly harmonic

------------
INNER ENERGY
------------

The inner energy is: U= E(el) + E(ZPE) + E(vib) + E(rot) + E(trans)
    E(el)   - is the total energy from the electronic structure calculation
              = E(kin-el) + E(nuc-el) + E(el-el) + E(nuc-nuc)
    E(ZPE)  - the the zero temperature vibrational energy from the frequency calculation
    E(vib)  - the the finite temperature correction to E(ZPE) due to population
              of excietd vibrational states
    E(rot)  - is the rotational thermal energy
    E(trans)- is the translational thermal energy

Summary of contributions to the inner energy U:
Electronic energy                ...   -291.30234353 Eh
Zero point energy                ...      0.19806163 Eh     124.29 kcal/mol
Thermal vibrational correction   ...      0.00570025 Eh       3.58 kcal/mol
Thermal rotational correction    ...      0.00141627 Eh       0.89 kcal/mol
Thermal translational correction ...      0.00141627 Eh       0.89 kcal/mol
-----------------------------------------------------------------------
Total thermal energy                   -291.09574910 Eh

Summary of corrections to the electronic energy:
(perhaps to be used in another calculation)
Total thermal correction                  0.00853280 Eh       5.35 kcal/mol
Non-thermal (ZPE) correction              0.19806163 Eh     124.29 kcal/mol
-----------------------------------------------------------------------
Total correction                          0.20659443 Eh     129.64 kcal/mol

--------
ENTHALPY
--------

The enthalpy is H = U + kB*T
                kB is Boltzmann's constant
Total free energy                 ...   -291.09574910 Eh
Thermal Enthalpy correction       ...      0.00094421 Eh       0.59 kcal/mol
-----------------------------------------------------------------------
Total Enthalpy                    ...   -291.09480489 Eh

-------
ENTROPY
-------

The entropy contributions are T*S = T*(S(el)+S(vib)+S(rot)+S(trans)
     S(el)   - electronic entropy
     S(vib)  - vibrational entropy
     S(rot)  - rotational entropy
     S(trans)- translational entropy
The entropies will be listed as mutliplied by the temperature to get
units of energy

Electronic entropy                ...      0.00000000 Eh      0.00 kcal/mol
Vibrational entropy               ...      0.01028098 Eh      6.45 kcal/mol
Rotational entropy                ...      0.01222126 Eh      7.67 kcal/mol
Translational entropy             ...      0.01887386 Eh     11.84 kcal/mol
-----------------------------------------------------------------------
Final entropy term                ...      0.04137610 Eh     25.96 kcal/mol

CAUTION: The rotational entropy is not quite correctly treated here
         because it includes a symmetry number that is not yet correctly
         implemented in ORCA!
For a nonlinear molecule the correct rotational entropy is:
    S(rot) = R*(ln(qrot/sn)+1.5)
    R    = 8.31441 J/mol/K = 1.987191683e-3 kcal/mol/K
    qrot = 279955.2842404
    sn is the rotational symmetry number. We have assumed 3 here
       if it is different for your molecule then you should correct
       the printed rotational entropy by manually evaluating the equation
       as given above

For convenience we print out the resulting values for sn=1 - 12:
 sn= 1  qrot/sn=  279955.2842 T*S(rot)=     8.32 kcal/mol T*S(tot)=    26.61 kcal/mol
 sn= 2  qrot/sn=  139977.6421 T*S(rot)=     7.91 kcal/mol T*S(tot)=    26.20 kcal/mol
 sn= 3  qrot/sn=   93318.4281 T*S(rot)=     7.67 kcal/mol T*S(tot)=    25.96 kcal/mol
 sn= 4  qrot/sn=   69988.8211 T*S(rot)=     7.50 kcal/mol T*S(tot)=    25.79 kcal/mol
 sn= 5  qrot/sn=   55991.0568 T*S(rot)=     7.37 kcal/mol T*S(tot)=    25.66 kcal/mol
 sn= 6  qrot/sn=   46659.2140 T*S(rot)=     7.26 kcal/mol T*S(tot)=    25.55 kcal/mol
 sn= 7  qrot/sn=   39993.6120 T*S(rot)=     7.17 kcal/mol T*S(tot)=    25.46 kcal/mol
 sn= 8  qrot/sn=   34994.4105 T*S(rot)=     7.09 kcal/mol T*S(tot)=    25.38 kcal/mol
 sn= 9  qrot/sn=   31106.1427 T*S(rot)=     7.02 kcal/mol T*S(tot)=    25.31 kcal/mol
 sn=10  qrot/sn=   27995.5284 T*S(rot)=     6.96 kcal/mol T*S(tot)=    25.25 kcal/mol
 sn=11  qrot/sn=   25450.4804 T*S(rot)=     6.90 kcal/mol T*S(tot)=    25.19 kcal/mol
 sn=12  qrot/sn=   23329.6070 T*S(rot)=     6.85 kcal/mol T*S(tot)=    25.14 kcal/mol

-------------------
GIBBS FREE ENTHALPY
-------------------

The Gibbs free enthalpy is G = H - T*S

Total enthalpy                    ...   -291.09480489 Eh
Total entropy correction          ...     -0.04137610 Eh    -25.96 kcal/mol
-----------------------------------------------------------------------
Final Gibbs free enthalpy         ...   -291.13618099 Eh

For completeness - the Gibbs free enthalpy minus the electronic energy
G-E(el)                           ...      0.16616253 Eh    104.27 kcal/mol

                             ****ORCA TERMINATED NORMALLY****
TOTAL RUN TIME: 0 days 0 hours 55 minutes 32 seconds 129 msec
