                         Program Version 3.0.3 - RELEASE   -
|  1> ! NORI PBE0 def2-TZVP UseSym TightOPT Freq TightSCF Grid3 FinalGrid5 XYZFile
|  2> % pal
|  3>     nprocs 8
|  4> end
|  5> %method
|  6>     SymThresh 5.0e-2
|  7> end
|  8> % geom
|  9>     MaxIter 10
| 10> end
| 11> % maxcore 2000
| 12> % output
| 13>     printlevel mini
| 14>     print[ P_Basis ] 0
| 15>     print[ P_SCFInfo ] 1
| 16>     print[ P_SCFIterInfo ] 1
| 17>     print[ P_OrbEn ] 0
| 18>     print[ P_Cartesian ] 0
| 19> end
| 20> % elprop
| 21>     Dipole false
| 22> end
| 23> *xyz 1 1
| 24>  C        0.9265266019    -0.0939100349    -0.3743058809
| 25>  C        2.4028735622    -0.0833195417    -0.4980382053
| 26>  C        3.1805438284     0.9754187154    -0.2774823276
| 27>  C        4.6489946024     0.9426889391    -0.3592439464
| 28>  C        5.3951220760     0.0048670123    -1.2149157603
| 29>  N        5.2886680895     1.4133277435    -1.6449975090
| 30>  C        6.4539451975     2.3018443203    -1.6712356799
| 31>  H        0.4670189627    -0.4142591237    -1.3141171673
| 32>  H        0.5274329516     0.8825409963    -0.1008655474
| 33>  H        0.6186795660    -0.8242063583     0.3800723739
| 34>  H        2.8661481890    -1.0316568959    -0.7673339913
| 35>  H        2.7460158881     1.9187047886     0.0424071107
| 36>  H        5.1965337504     1.3523120825     0.4852924733
| 37>  H        6.3977620452    -0.2896930001    -0.9328619516
| 38>  H        4.8568034874    -0.6954883460    -1.8401025886
| 39>  H        4.6125401074     1.5713076964    -2.3864685846
| 40>  H        7.0903522771     2.0728407506    -0.8181401374
| 41>  H        6.1149817016     3.3353791573    -1.6104887759
| 42>  H        7.0085571155     2.1405710981    -2.5956339043
| 43> *
| 44>
| 45>                          ****END OF INPUT****
 Total Charge           Charge          ....    1
 Multiplicity           Mult            ....    1
 Number of Electrons    NEL             ....   54
FINAL SINGLE POINT ENERGY      -290.076307735914

CARTESIAN COORDINATES (ANGSTROEM)
---------------------------------
  C      1.258376   -0.000088   -3.057484
  C      0.476313   -0.312607   -1.838603
  C      0.103161    0.578124   -0.921041
  C     -0.717520    0.246828    0.254017
  C     -0.736966   -1.084530    0.882975
  N     -0.000093    0.000225    1.561046
  C     -0.456960    0.563926    2.834532
  H      2.172501   -0.600333   -3.088738
  H      1.526011    1.054596   -3.117858
  H      0.685637   -0.269781   -3.949881
  H      0.174110   -1.352225   -1.718917
  H      0.348493    1.629527   -1.044859
  H     -1.589652    0.869304    0.434549
  H     -1.622222   -1.408547    1.415133
  H     -0.108947   -1.873056    0.489493
  H      1.008541   -0.052348    1.452672
  H     -1.544773    0.608565    2.829865
  H     -0.048234    1.567334    2.946720
  H     -0.120288   -0.074022    3.651253

FINAL SINGLE POINT ENERGY      -290.076308336638
                    ***********************HURRAY********************
 Multiplicity           Mult            ....    1
 Number of Electrons    NEL             ....   54
 Basis Dimension        Dim             ....  289
FINAL SINGLE POINT ENERGY      -290.076308588125

VIBRATIONAL FREQUENCIES
-----------------------

   0:         0.00 cm**-1
   1:         0.00 cm**-1
   2:         0.00 cm**-1
   3:         0.00 cm**-1
   4:         0.00 cm**-1
   5:         0.00 cm**-1
   6:        80.58 cm**-1
   7:       143.77 cm**-1
   8:       160.72 cm**-1
   9:       198.17 cm**-1
  10:       214.92 cm**-1
  11:       280.90 cm**-1
  12:       343.22 cm**-1
  13:       362.82 cm**-1
  14:       449.84 cm**-1
  15:       587.68 cm**-1
  16:       762.15 cm**-1
  17:       804.87 cm**-1
  18:       833.40 cm**-1
  19:       902.02 cm**-1
  20:       936.39 cm**-1
  21:       965.90 cm**-1
  22:      1002.07 cm**-1
  23:      1046.90 cm**-1
  24:      1072.23 cm**-1
  25:      1104.19 cm**-1
  26:      1130.60 cm**-1
  27:      1152.69 cm**-1
  28:      1159.64 cm**-1
  29:      1173.10 cm**-1
  30:      1202.70 cm**-1
  31:      1235.70 cm**-1
  32:      1287.50 cm**-1
  33:      1329.73 cm**-1
  34:      1338.06 cm**-1
  35:      1402.96 cm**-1
  36:      1406.83 cm**-1
  37:      1452.81 cm**-1
  38:      1457.63 cm**-1
  39:      1462.42 cm**-1
  40:      1473.40 cm**-1
  41:      1482.18 cm**-1
  42:      1494.92 cm**-1
  43:      1514.53 cm**-1
  44:      1733.92 cm**-1
  45:      3051.51 cm**-1
  46:      3083.00 cm**-1
  47:      3110.30 cm**-1
  48:      3142.59 cm**-1
  49:      3160.76 cm**-1
  50:      3169.46 cm**-1
  51:      3173.65 cm**-1
  52:      3177.88 cm**-1
  53:      3179.27 cm**-1
  54:      3184.48 cm**-1
  55:      3272.28 cm**-1
  56:      3533.97 cm**-1

IR SPECTRUM
-----------

 Mode    freq (cm**-1)   T**2         TX         TY         TZ
-------------------------------------------------------------------
   6:        80.58    0.790237  ( -0.745116   0.176194   0.451658)
   7:       143.77    0.222738  (  0.252816  -0.096707  -0.386613)
   8:       160.72    0.526620  ( -0.617213  -0.268806   0.270945)
   9:       198.17    0.322632  ( -0.347342  -0.364741   0.262582)
  10:       214.92    2.135705  (  1.081534  -0.171982   0.967684)
  11:       280.90    0.430802  (  0.335233  -0.248190  -0.506777)
  12:       343.22    1.512315  ( -1.209710  -0.003647  -0.221139)
  13:       362.82    4.455889  (  1.441943  -1.127316   1.051593)
  14:       449.84    0.049615  (  0.210050   0.028248   0.068524)
  15:       587.68    1.056971  ( -0.008380  -0.859550   0.563980)
  16:       762.15   23.883789  ( -0.165827   0.252999  -4.877733)
  17:       804.87   17.095234  (  2.001062   0.421257   3.593539)
  18:       833.40   29.252090  ( -0.531137   1.412672  -5.193683)
  19:       902.02   17.674444  (  1.870147  -3.010838  -2.260940)
  20:       936.39    4.485202  ( -0.115057   0.870532  -1.927210)
  21:       965.90    3.345551  (  1.409796   1.141985   0.232157)
  22:      1002.07   43.554913  (  5.002550  -0.899485   4.209552)
  23:      1046.90   17.153269  ( -2.002202  -2.831513  -2.264285)
  24:      1072.23    1.390637  (  1.102003  -0.119851   0.402319)
  25:      1104.19   34.355218  (  0.761016  -0.417393   5.796711)
  26:      1130.60   13.272640  ( -1.428487  -3.111183   1.246034)
  27:      1152.69    9.963231  (  0.769046  -0.648224  -2.991923)
  28:      1159.64    1.372618  ( -0.783533   0.830733  -0.261872)
  29:      1173.10   10.079120  ( -1.107007   2.953179   0.363853)
  30:      1202.70    2.958666  (  0.228338   0.605966   1.593528)
  31:      1235.70    1.822602  ( -0.391997   0.931728   0.894887)
  32:      1287.50    6.136966  (  2.100912  -0.084987  -1.309928)
  33:      1329.73    0.454485  (  0.494080  -0.410706  -0.204183)
  34:      1338.06    5.629805  ( -0.106796  -0.934038  -2.178525)
  35:      1402.96    0.382152  ( -0.404315   0.132431   0.448491)
  36:      1406.83   12.532648  ( -2.124914  -0.066972   2.830707)
  37:      1452.81   14.180244  ( -1.949190   2.630147   1.860976)
  38:      1457.63   40.421280  (  0.377612  -2.926385  -5.631604)
  39:      1462.42   12.348919  ( -3.051501   0.918793  -1.480904)
  40:      1473.40   22.508350  (  0.704755  -3.712750  -2.868302)
  41:      1482.18   15.983502  (  0.327392   3.446593  -1.999329)
  42:      1494.92   24.780102  ( -4.619592  -1.848649  -0.148219)
  43:      1514.53   49.610492  ( -0.653100   0.658725  -6.982122)
  44:      1733.92   48.968974  ( -3.021352   0.894083   6.248282)
  45:      3051.51    0.283279  ( -0.375395  -0.363291   0.101870)
  46:      3083.00    0.789737  (  0.264214  -0.286434  -0.798676)
  47:      3110.30    0.686983  ( -0.772796   0.229766  -0.192293)
  48:      3142.59    1.101633  ( -0.567222  -0.604132   0.644141)
  49:      3160.76   10.399357  (  1.266596   2.660673  -1.309927)
  50:      3169.46    5.371521  ( -0.323148  -1.021659   2.055069)
  51:      3173.65    0.674479  (  0.347265   0.741509   0.063644)
  52:      3177.88    0.621645  ( -0.551183  -0.477798   0.299253)
  53:      3179.27    0.041906  ( -0.174909   0.059751  -0.087991)
  54:      3184.48    0.184437  ( -0.047892   0.050977   0.423727)
  55:      3272.28    3.311194  (  1.576354  -0.358272  -0.835429)
  56:      3533.97   69.026587  (  8.259776   0.201202   0.873039)

--------------------------
THERMOCHEMISTRY AT 298.15K
--------------------------

Temperature         ... 298.15 K
Pressure            ... 1.00 atm
Total Mass          ... 98.17 AMU

Throughout the following assumptions are being made:
  (1) The electronic state is orbitally nondegenerate
  (2) There are no thermally accessible electronically excited states
  (3) Hindered rotations indicated by low frequency modes) are not
      treated as such but are treated as vibrations and this may
      case some error
  (4) All equations used are the standard statistical mechanics
      equations for an ideal gas
  (5) All vibrations are strinctly harmonic

------------
INNER ENERGY
------------

The inner energy is: U= E(el) + E(ZPE) + E(vib) + E(rot) + E(trans)
    E(el)   - is the total energy from the electronic structure calculation
              = E(kin-el) + E(nuc-el) + E(el-el) + E(nuc-nuc)
    E(ZPE)  - the the zero temperature vibrational energy from the frequency calculation
    E(vib)  - the the finite temperature correction to E(ZPE) due to population
              of excietd vibrational states
    E(rot)  - is the rotational thermal energy
    E(trans)- is the translational thermal energy

Summary of contributions to the inner energy U:
Electronic energy                ...   -290.07630859 Eh
Zero point energy                ...      0.17401372 Eh     109.20 kcal/mol
Thermal vibrational correction   ...      0.00544088 Eh       3.41 kcal/mol
Thermal rotational correction    ...      0.00141627 Eh       0.89 kcal/mol
Thermal translational correction ...      0.00141627 Eh       0.89 kcal/mol
-----------------------------------------------------------------------
Total thermal energy                   -289.89402145 Eh

Summary of corrections to the electronic energy:
(perhaps to be used in another calculation)
Total thermal correction                  0.00827342 Eh       5.19 kcal/mol
Non-thermal (ZPE) correction              0.17401372 Eh     109.20 kcal/mol
-----------------------------------------------------------------------
Total correction                          0.18228714 Eh     114.39 kcal/mol

--------
ENTHALPY
--------

The enthalpy is H = U + kB*T
                kB is Boltzmann's constant
Total free energy                 ...   -289.89402145 Eh
Thermal Enthalpy correction       ...      0.00094421 Eh       0.59 kcal/mol
-----------------------------------------------------------------------
Total Enthalpy                    ...   -289.89307724 Eh

-------
ENTROPY
-------

The entropy contributions are T*S = T*(S(el)+S(vib)+S(rot)+S(trans)
     S(el)   - electronic entropy
     S(vib)  - vibrational entropy
     S(rot)  - rotational entropy
     S(trans)- translational entropy
The entropies will be listed as mutliplied by the temperature to get
units of energy

Electronic entropy                ...      0.00000000 Eh      0.00 kcal/mol
Vibrational entropy               ...      0.00959925 Eh      6.02 kcal/mol
Rotational entropy                ...      0.01216179 Eh      7.63 kcal/mol
Translational entropy             ...      0.01884507 Eh     11.83 kcal/mol
-----------------------------------------------------------------------
Final entropy term                ...      0.04060611 Eh     25.48 kcal/mol

CAUTION: The rotational entropy is not quite correctly treated here
         because it includes a symmetry number that is not yet correctly
         implemented in ORCA!
For a nonlinear molecule the correct rotational entropy is:
    S(rot) = R*(ln(qrot/sn)+1.5)
    R    = 8.31441 J/mol/K = 1.987191683e-3 kcal/mol/K
    qrot = 262864.0708731
    sn is the rotational symmetry number. We have assumed 3 here
       if it is different for your molecule then you should correct
       the printed rotational entropy by manually evaluating the equation
       as given above

For convenience we print out the resulting values for sn=1 - 12:
 sn= 1  qrot/sn=  262864.0709 T*S(rot)=     8.28 kcal/mol T*S(tot)=    26.13 kcal/mol
 sn= 2  qrot/sn=  131432.0354 T*S(rot)=     7.87 kcal/mol T*S(tot)=    25.72 kcal/mol
 sn= 3  qrot/sn=   87621.3570 T*S(rot)=     7.63 kcal/mol T*S(tot)=    25.48 kcal/mol
 sn= 4  qrot/sn=   65716.0177 T*S(rot)=     7.46 kcal/mol T*S(tot)=    25.31 kcal/mol
 sn= 5  qrot/sn=   52572.8142 T*S(rot)=     7.33 kcal/mol T*S(tot)=    25.18 kcal/mol
 sn= 6  qrot/sn=   43810.6785 T*S(rot)=     7.22 kcal/mol T*S(tot)=    25.07 kcal/mol
 sn= 7  qrot/sn=   37552.0101 T*S(rot)=     7.13 kcal/mol T*S(tot)=    24.98 kcal/mol
 sn= 8  qrot/sn=   32858.0089 T*S(rot)=     7.05 kcal/mol T*S(tot)=    24.90 kcal/mol
 sn= 9  qrot/sn=   29207.1190 T*S(rot)=     6.98 kcal/mol T*S(tot)=    24.83 kcal/mol
 sn=10  qrot/sn=   26286.4071 T*S(rot)=     6.92 kcal/mol T*S(tot)=    24.77 kcal/mol
 sn=11  qrot/sn=   23896.7337 T*S(rot)=     6.86 kcal/mol T*S(tot)=    24.71 kcal/mol
 sn=12  qrot/sn=   21905.3392 T*S(rot)=     6.81 kcal/mol T*S(tot)=    24.66 kcal/mol

-------------------
GIBBS FREE ENTHALPY
-------------------

The Gibbs free enthalpy is G = H - T*S

Total enthalpy                    ...   -289.89307724 Eh
Total entropy correction          ...     -0.04060611 Eh    -25.48 kcal/mol
-----------------------------------------------------------------------
Final Gibbs free enthalpy         ...   -289.93368335 Eh

For completeness - the Gibbs free enthalpy minus the electronic energy
G-E(el)                           ...      0.14262524 Eh     89.50 kcal/mol

                             ****ORCA TERMINATED NORMALLY****
TOTAL RUN TIME: 0 days 0 hours 42 minutes 22 seconds 321 msec
