                         Program Version 3.0.3 - RELEASE   -
|  1> ! NORI PBE0 def2-TZVP UseSym TightOPT Freq TightSCF Grid3 FinalGrid5 XYZFile
|  2> % pal
|  3>     nprocs 8
|  4> end
|  5> %method
|  6>     SymThresh 5.0e-2
|  7> end
|  8> % geom
|  9>     MaxIter 10
| 10> end
| 11> % maxcore 2000
| 12> % output
| 13>     printlevel mini
| 14>     print[ P_Basis ] 0
| 15>     print[ P_SCFInfo ] 1
| 16>     print[ P_SCFIterInfo ] 1
| 17>     print[ P_OrbEn ] 0
| 18>     print[ P_Cartesian ] 0
| 19> end
| 20> % elprop
| 21>     Dipole false
| 22> end
| 23> *xyz 1 1
| 24>  C        1.0266481404     0.0628253956     0.3763221686
| 25>  C        2.5146568917     0.0775652104     0.0422442038
| 26>  C        3.1334574714     1.4494479546     0.2691068967
| 27>  C        3.2146230342    -1.0470112286     0.7651421728
| 28>  C        4.6234537170    -1.0334504911     1.1972747363
| 29>  N        3.5553553263    -0.8685776113     2.2065349618
| 30>  C        3.2809324349    -1.8941785753     3.2184019405
| 31>  H        0.4961674544     0.7951851363    -0.2324326242
| 32>  H        0.8501904536     0.3231480886     1.4245839430
| 33>  H        0.5758454882    -0.9138386216     0.1870875317
| 34>  H        2.6318341343    -0.1755102762    -1.0186553223
| 35>  H        3.0578333874     1.7803675300     1.3120329001
| 36>  H        2.5900542096     2.1918676448    -0.3156993706
| 37>  H        4.1783200080     1.5024264791    -0.0419322978
| 38>  H        2.7874287704    -2.0316455540     0.6002549973
| 39>  H        5.2279632567    -0.1493306341     1.0415679730
| 40>  H        5.1634611173    -1.9677963219     1.2827166280
| 41>  H        3.4453677863     0.0862291679     2.5344884314
| 42>  H        3.4221766860    -2.8767882196     2.7714791943
| 43>  H        2.2519395819    -1.7910018176     3.5595949427
| 44>  H        3.9704706501    -1.7674532560     4.0523159929
| 45> *
| 46>
| 47>                          ****END OF INPUT****
 Total Charge           Charge          ....    1
 Multiplicity           Mult            ....    1
 Number of Electrons    NEL             ....   56
FINAL SINGLE POINT ENERGY      -291.303113270900
FINAL SINGLE POINT ENERGY      -291.303116407146
FINAL SINGLE POINT ENERGY      -291.303120984882
FINAL SINGLE POINT ENERGY      -291.303123018306
FINAL SINGLE POINT ENERGY      -291.303124852751

CARTESIAN COORDINATES (ANGSTROEM)
---------------------------------
  C      1.428764    0.013145   -1.726739
  C     -0.049276   -0.079765   -1.362368
  C     -0.543224   -1.519409   -1.359443
  C     -0.309074    0.670093   -0.078486
  C     -1.397417    0.377700    0.870937
  N     -0.012242   -0.004650    1.218952
  C      0.722310    0.654313    2.304135
  H      1.604689   -0.429662   -2.707523
  H      2.053080   -0.528985   -1.009743
  H      1.773437    1.048808   -1.764506
  H     -0.624481    0.474058   -2.114435
  H     -0.006219   -2.149485   -0.640186
  H     -0.357520   -1.965634   -2.336916
  H     -1.615266   -1.604309   -1.172097
  H      0.060426    1.691008   -0.063111
  H     -2.059514   -0.459992    0.694792
  H     -1.797119    1.174850    1.484902
  H      0.174678   -0.998586    1.126037
  H      0.463402    1.711739    2.312517
  H      1.791477    0.539662    2.131157
  H      0.441614    0.200179    3.253862

FINAL SINGLE POINT ENERGY      -291.303125352842
                    ***********************HURRAY********************
 Multiplicity           Mult            ....    1
 Number of Electrons    NEL             ....   56
 Basis Dimension        Dim             ....  301
FINAL SINGLE POINT ENERGY      -291.303125507311

VIBRATIONAL FREQUENCIES
-----------------------

   0:         0.00 cm**-1
   1:         0.00 cm**-1
   2:         0.00 cm**-1
   3:         0.00 cm**-1
   4:         0.00 cm**-1
   5:         0.00 cm**-1
   6:        49.15 cm**-1
   7:       150.18 cm**-1
   8:       192.47 cm**-1
   9:       220.37 cm**-1
  10:       227.59 cm**-1
  11:       263.66 cm**-1
  12:       319.00 cm**-1
  13:       356.07 cm**-1
  14:       400.16 cm**-1
  15:       472.68 cm**-1
  16:       542.62 cm**-1
  17:       738.63 cm**-1
  18:       814.16 cm**-1
  19:       859.65 cm**-1
  20:       917.17 cm**-1
  21:       928.17 cm**-1
  22:       945.27 cm**-1
  23:       971.72 cm**-1
  24:      1024.40 cm**-1
  25:      1068.05 cm**-1
  26:      1105.01 cm**-1
  27:      1132.35 cm**-1
  28:      1157.76 cm**-1
  29:      1166.08 cm**-1
  30:      1172.93 cm**-1
  31:      1196.49 cm**-1
  32:      1212.60 cm**-1
  33:      1241.44 cm**-1
  34:      1294.62 cm**-1
  35:      1327.88 cm**-1
  36:      1366.50 cm**-1
  37:      1385.85 cm**-1
  38:      1408.64 cm**-1
  39:      1431.96 cm**-1
  40:      1454.01 cm**-1
  41:      1456.55 cm**-1
  42:      1472.01 cm**-1
  43:      1483.26 cm**-1
  44:      1489.56 cm**-1
  45:      1494.89 cm**-1
  46:      1499.86 cm**-1
  47:      1510.18 cm**-1
  48:      1516.75 cm**-1
  49:      3032.97 cm**-1
  50:      3046.59 cm**-1
  51:      3055.20 cm**-1
  52:      3083.56 cm**-1
  53:      3116.66 cm**-1
  54:      3122.99 cm**-1
  55:      3147.11 cm**-1
  56:      3149.71 cm**-1
  57:      3172.49 cm**-1
  58:      3179.54 cm**-1
  59:      3181.03 cm**-1
  60:      3185.24 cm**-1
  61:      3271.71 cm**-1
  62:      3532.77 cm**-1

IR SPECTRUM
-----------

 Mode    freq (cm**-1)   T**2         TX         TY         TZ
-------------------------------------------------------------------
   6:        49.15    0.641506  ( -0.730638  -0.301423   0.129690)
   7:       150.18    2.043541  (  0.185373   0.167813   1.407486)
   8:       192.47    0.110282  (  0.084632   0.066394   0.314184)
   9:       220.37    2.229655  (  0.409661  -0.316968  -1.400487)
  10:       227.59    0.384761  (  0.125077   0.167282   0.584066)
  11:       263.66    1.293724  (  0.396690  -0.093702  -1.061876)
  12:       319.00    0.849718  ( -0.093905  -0.698543  -0.594085)
  13:       356.07    0.904102  ( -0.065053   0.515197   0.796519)
  14:       400.16    0.525609  ( -0.115296   0.670540   0.250383)
  15:       472.68    0.386822  ( -0.198382  -0.169028   0.564709)
  16:       542.62    1.715241  (  0.275116   0.033200  -1.280020)
  17:       738.63    3.254442  ( -1.291238   0.914926   0.866059)
  18:       814.16   19.617565  ( -1.313053   2.036117  -3.707787)
  19:       859.65    3.399727  ( -0.282837   0.670392   1.694197)
  20:       917.17    2.175588  (  0.002285  -0.301592   1.443823)
  21:       928.17    1.208813  ( -0.088326  -0.196711   1.078108)
  22:       945.27   10.955963  (  2.879967   1.353999  -0.910187)
  23:       971.72    0.403094  (  0.076066   0.268387   0.570330)
  24:      1024.40   15.423512  (  3.633663  -1.342599   0.646094)
  25:      1068.05   17.845163  (  1.754342  -1.101097   3.681716)
  26:      1105.01    4.358136  (  2.038934  -0.315008  -0.318832)
  27:      1132.35   28.782386  (  0.831463  -0.193554  -5.296564)
  28:      1157.76    4.391768  ( -1.478697  -1.297251   0.722747)
  29:      1166.08    1.820970  (  0.476006  -0.609856  -1.105651)
  30:      1172.93   13.534020  ( -1.126661  -0.607171   3.449057)
  31:      1196.49    0.685204  ( -0.572844  -0.483206   0.351519)
  32:      1212.60    2.234227  ( -1.336340  -0.651181   0.156159)
  33:      1241.44    2.606763  (  1.301644   0.546886   0.783199)
  34:      1294.62    4.531753  ( -1.160458   1.784233  -0.040036)
  35:      1327.88    2.548085  ( -0.544459  -0.124298  -1.495393)
  36:      1366.50    5.962048  (  0.259760   0.606136   2.350994)
  37:      1385.85    4.841823  (  0.682668   1.416086   1.539638)
  38:      1408.64    9.494610  (  2.575174   1.689087  -0.100360)
  39:      1431.96    6.726035  ( -1.389955   2.162317  -0.344158)
  40:      1454.01    9.640628  ( -2.002000  -2.346106   0.358344)
  41:      1456.55    9.139734  (  1.914223   0.660437   2.244840)
  42:      1472.01    2.301046  ( -0.435847  -1.444179  -0.159465)
  43:      1483.26   13.834885  ( -2.554693  -0.290442   2.687764)
  44:      1489.56   11.438874  (  0.328706  -3.343987   0.385457)
  45:      1494.89    4.312047  ( -1.946468   0.686825   0.227111)
  46:      1499.86   20.613599  ( -0.425263   2.375770   3.845578)
  47:      1510.18   41.432348  ( -4.593372   2.795710  -3.537978)
  48:      1516.75   29.709889  (  0.387955  -0.555964   5.408353)
  49:      3032.97   15.823832  ( -0.020271   1.856382  -3.518134)
  50:      3046.59    4.722659  ( -1.916392  -0.791527  -0.650835)
  51:      3055.20    7.591403  (  2.096596  -1.250702   1.277275)
  52:      3083.56    0.834549  ( -0.431768  -0.310569  -0.742746)
  53:      3116.66   10.119242  (  3.039303   0.276626   0.897418)
  54:      3122.99   15.651836  ( -1.125390   3.013514  -2.303056)
  55:      3147.11    3.765690  ( -1.759700  -0.815678   0.061762)
  56:      3149.71    6.191498  (  0.510309  -1.285727  -2.068330)
  57:      3172.49    0.684389  ( -0.811375   0.117455   0.110743)
  58:      3179.54    0.429522  ( -0.168329  -0.195860  -0.602350)
  59:      3181.03    0.195840  (  0.156125  -0.030321  -0.412972)
  60:      3185.24    0.058024  (  0.118221   0.031468   0.207503)
  61:      3271.71    3.386258  ( -0.072329  -1.608687  -0.890590)
  62:      3532.77   68.844627  ( -1.889707   8.007861   1.071355)

--------------------------
THERMOCHEMISTRY AT 298.15K
--------------------------

Temperature         ... 298.15 K
Pressure            ... 1.00 atm
Total Mass          ... 100.18 AMU

Throughout the following assumptions are being made:
  (1) The electronic state is orbitally nondegenerate
  (2) There are no thermally accessible electronically excited states
  (3) Hindered rotations indicated by low frequency modes) are not
      treated as such but are treated as vibrations and this may
      case some error
  (4) All equations used are the standard statistical mechanics
      equations for an ideal gas
  (5) All vibrations are strinctly harmonic

------------
INNER ENERGY
------------

The inner energy is: U= E(el) + E(ZPE) + E(vib) + E(rot) + E(trans)
    E(el)   - is the total energy from the electronic structure calculation
              = E(kin-el) + E(nuc-el) + E(el-el) + E(nuc-nuc)
    E(ZPE)  - the the zero temperature vibrational energy from the frequency calculation
    E(vib)  - the the finite temperature correction to E(ZPE) due to population
              of excietd vibrational states
    E(rot)  - is the rotational thermal energy
    E(trans)- is the translational thermal energy

Summary of contributions to the inner energy U:
Electronic energy                ...   -291.30312551 Eh
Zero point energy                ...      0.19755338 Eh     123.97 kcal/mol
Thermal vibrational correction   ...      0.00580126 Eh       3.64 kcal/mol
Thermal rotational correction    ...      0.00141627 Eh       0.89 kcal/mol
Thermal translational correction ...      0.00141627 Eh       0.89 kcal/mol
-----------------------------------------------------------------------
Total thermal energy                   -291.09693833 Eh

Summary of corrections to the electronic energy:
(perhaps to be used in another calculation)
Total thermal correction                  0.00863380 Eh       5.42 kcal/mol
Non-thermal (ZPE) correction              0.19755338 Eh     123.97 kcal/mol
-----------------------------------------------------------------------
Total correction                          0.20618718 Eh     129.38 kcal/mol

--------
ENTHALPY
--------

The enthalpy is H = U + kB*T
                kB is Boltzmann's constant
Total free energy                 ...   -291.09693833 Eh
Thermal Enthalpy correction       ...      0.00094421 Eh       0.59 kcal/mol
-----------------------------------------------------------------------
Total Enthalpy                    ...   -291.09599412 Eh

-------
ENTROPY
-------

The entropy contributions are T*S = T*(S(el)+S(vib)+S(rot)+S(trans)
     S(el)   - electronic entropy
     S(vib)  - vibrational entropy
     S(rot)  - rotational entropy
     S(trans)- translational entropy
The entropies will be listed as mutliplied by the temperature to get
units of energy

Electronic entropy                ...      0.00000000 Eh      0.00 kcal/mol
Vibrational entropy               ...      0.01035383 Eh      6.50 kcal/mol
Rotational entropy                ...      0.01214692 Eh      7.62 kcal/mol
Translational entropy             ...      0.01887386 Eh     11.84 kcal/mol
-----------------------------------------------------------------------
Final entropy term                ...      0.04137461 Eh     25.96 kcal/mol

CAUTION: The rotational entropy is not quite correctly treated here
         because it includes a symmetry number that is not yet correctly
         implemented in ORCA!
For a nonlinear molecule the correct rotational entropy is:
    S(rot) = R*(ln(qrot/sn)+1.5)
    R    = 8.31441 J/mol/K = 1.987191683e-3 kcal/mol/K
    qrot = 258757.5672270
    sn is the rotational symmetry number. We have assumed 3 here
       if it is different for your molecule then you should correct
       the printed rotational entropy by manually evaluating the equation
       as given above

For convenience we print out the resulting values for sn=1 - 12:
 sn= 1  qrot/sn=  258757.5672 T*S(rot)=     8.27 kcal/mol T*S(tot)=    26.61 kcal/mol
 sn= 2  qrot/sn=  129378.7836 T*S(rot)=     7.86 kcal/mol T*S(tot)=    26.20 kcal/mol
 sn= 3  qrot/sn=   86252.5224 T*S(rot)=     7.62 kcal/mol T*S(tot)=    25.96 kcal/mol
 sn= 4  qrot/sn=   64689.3918 T*S(rot)=     7.45 kcal/mol T*S(tot)=    25.79 kcal/mol
 sn= 5  qrot/sn=   51751.5134 T*S(rot)=     7.32 kcal/mol T*S(tot)=    25.66 kcal/mol
 sn= 6  qrot/sn=   43126.2612 T*S(rot)=     7.21 kcal/mol T*S(tot)=    25.55 kcal/mol
 sn= 7  qrot/sn=   36965.3667 T*S(rot)=     7.12 kcal/mol T*S(tot)=    25.46 kcal/mol
 sn= 8  qrot/sn=   32344.6959 T*S(rot)=     7.04 kcal/mol T*S(tot)=    25.38 kcal/mol
 sn= 9  qrot/sn=   28750.8408 T*S(rot)=     6.97 kcal/mol T*S(tot)=    25.31 kcal/mol
 sn=10  qrot/sn=   25875.7567 T*S(rot)=     6.91 kcal/mol T*S(tot)=    25.25 kcal/mol
 sn=11  qrot/sn=   23523.4152 T*S(rot)=     6.85 kcal/mol T*S(tot)=    25.19 kcal/mol
 sn=12  qrot/sn=   21563.1306 T*S(rot)=     6.80 kcal/mol T*S(tot)=    25.14 kcal/mol

-------------------
GIBBS FREE ENTHALPY
-------------------

The Gibbs free enthalpy is G = H - T*S

Total enthalpy                    ...   -291.09599412 Eh
Total entropy correction          ...     -0.04137461 Eh    -25.96 kcal/mol
-----------------------------------------------------------------------
Final Gibbs free enthalpy         ...   -291.13736873 Eh

For completeness - the Gibbs free enthalpy minus the electronic energy
G-E(el)                           ...      0.16575677 Eh    104.01 kcal/mol

                             ****ORCA TERMINATED NORMALLY****
TOTAL RUN TIME: 0 days 1 hours 0 minutes 45 seconds 569 msec
