                         Program Version 3.0.3 - RELEASE   -
|  1> ! NORI PBE0 def2-TZVP UseSym TightOPT Freq TightSCF Grid3 FinalGrid5 XYZFile
|  2> % pal
|  3>     nprocs 8
|  4> end
|  5> %method
|  6>     SymThresh 5.0e-2
|  7> end
|  8> % geom
|  9>     MaxIter 10
| 10> end
| 11> % maxcore 2000
| 12> % output
| 13>     printlevel mini
| 14>     print[ P_Basis ] 0
| 15>     print[ P_SCFInfo ] 1
| 16>     print[ P_SCFIterInfo ] 1
| 17>     print[ P_OrbEn ] 0
| 18>     print[ P_Cartesian ] 0
| 19> end
| 20> % elprop
| 21>     Dipole false
| 22> end
| 23> *xyz 1 1
| 24>  C        0.9708505908    -0.0209978768     0.0557746429
| 25>  C        2.4141817899    -0.0548121105     0.0513773370
| 26>  C        3.6173543600    -0.0903308911     0.0539302413
| 27>  C        5.0367685882    -0.1521302247     0.1100570725
| 28>  C        5.8307398900    -0.8854877609    -0.9042974281
| 29>  N        5.7971898444     0.5873605227    -0.9634501294
| 30>  C        6.9786179043     1.4016338112    -0.6604169721
| 31>  H        0.5626206354    -1.0038026577    -0.1898909587
| 32>  H        0.6025444031     0.6978396899    -0.6799531594
| 33>  H        0.5996799177     0.2748010772     1.0393781556
| 34>  H        5.5036784412    -0.0108712405     1.0806384112
| 35>  H        6.7959984200    -1.2898397243    -0.6275124716
| 36>  H        5.3082908005    -1.3837857939    -1.7104537320
| 37>  H        5.1882767551     0.9671348841    -1.6826462467
| 38>  H        7.5368572065     0.9277034899     0.1453306582
| 39>  H        6.6552538877     2.3945310974    -0.3516862017
| 40>  H        7.6032165652     1.4656137080    -1.5513492191
| 41> *
| 42>
| 43>                          ****END OF INPUT****
 Total Charge           Charge          ....    1
 Multiplicity           Mult            ....    1
 Number of Electrons    NEL             ....   52
FINAL SINGLE POINT ENERGY      -288.825039237597
FINAL SINGLE POINT ENERGY      -288.825039775675
FINAL SINGLE POINT ENERGY      -288.825040426675
FINAL SINGLE POINT ENERGY      -288.825040727571
FINAL SINGLE POINT ENERGY      -288.825035418466
FINAL SINGLE POINT ENERGY      -288.825041391339

CARTESIAN COORDINATES (ANGSTROEM)
---------------------------------
  C      1.319398   -0.000478   -3.230220
  C      0.598163    0.029607   -1.979809
  C     -0.009716    0.052399   -0.941171
  C     -0.767509    0.095618    0.261136
  C     -0.906702   -1.087308    1.143199
  N      0.000086   -0.001158    1.557574
  C     -0.298864    0.862095    2.704939
  H      1.133564   -0.937792   -3.759062
  H      2.393951    0.087517   -3.053332
  H      1.008297    0.828621   -3.869376
  H     -1.549723    0.846029    0.331544
  H     -1.788392   -1.181404    1.764276
  H     -0.412897   -2.007378    0.859164
  H      0.986472   -0.197189    1.413941
  H     -1.371716    1.044450    2.739445
  H      0.232302    1.805314    2.586172
  H      0.017132    0.359993    3.619045

FINAL SINGLE POINT ENERGY      -288.825041519244
                    ***********************HURRAY********************
 Multiplicity           Mult            ....    1
 Number of Electrons    NEL             ....   52
 Basis Dimension        Dim             ....  277
FINAL SINGLE POINT ENERGY      -288.825041704887

VIBRATIONAL FREQUENCIES
-----------------------

   0:         0.00 cm**-1
   1:         0.00 cm**-1
   2:         0.00 cm**-1
   3:         0.00 cm**-1
   4:         0.00 cm**-1
   5:         0.00 cm**-1
   6:       -13.36 cm**-1
   7:        94.89 cm**-1
   8:       111.32 cm**-1
   9:       196.77 cm**-1
  10:       261.94 cm**-1
  11:       315.13 cm**-1
  12:       344.95 cm**-1
  13:       394.95 cm**-1
  14:       477.04 cm**-1
  15:       518.41 cm**-1
  16:       716.75 cm**-1
  17:       776.35 cm**-1
  18:       846.41 cm**-1
  19:       943.06 cm**-1
  20:       986.72 cm**-1
  21:      1036.60 cm**-1
  22:      1037.79 cm**-1
  23:      1078.05 cm**-1
  24:      1111.04 cm**-1
  25:      1133.74 cm**-1
  26:      1161.13 cm**-1
  27:      1184.75 cm**-1
  28:      1221.90 cm**-1
  29:      1238.60 cm**-1
  30:      1277.33 cm**-1
  31:      1394.92 cm**-1
  32:      1408.40 cm**-1
  33:      1451.99 cm**-1
  34:      1453.17 cm**-1
  35:      1455.01 cm**-1
  36:      1458.95 cm**-1
  37:      1481.55 cm**-1
  38:      1493.04 cm**-1
  39:      1510.27 cm**-1
  40:      2370.57 cm**-1
  41:      3059.12 cm**-1
  42:      3083.09 cm**-1
  43:      3135.33 cm**-1
  44:      3139.14 cm**-1
  45:      3171.87 cm**-1
  46:      3173.95 cm**-1
  47:      3179.92 cm**-1
  48:      3186.12 cm**-1
  49:      3277.90 cm**-1
  50:      3536.13 cm**-1

IR SPECTRUM
-----------

 Mode    freq (cm**-1)   T**2         TX         TY         TZ
-------------------------------------------------------------------
   7:        94.89    2.437313  ( -1.314046  -0.836934  -0.100684)
   8:       111.32    3.517699  (  1.335414  -1.309626   0.138738)
   9:       196.77    1.065910  ( -0.916459  -0.475161  -0.015319)
  10:       261.94    6.102845  ( -0.335552  -2.432295  -0.272384)
  11:       315.13    8.864738  ( -2.492647   0.313618  -1.597840)
  12:       344.95    2.471045  (  0.103067  -1.379268   0.747023)
  13:       394.95    0.215182  ( -0.377448   0.103305   0.249085)
  14:       477.04    5.961163  ( -1.098777   1.156868  -1.848109)
  15:       518.41    3.015273  (  0.473227   1.653223  -0.241211)
  16:       716.75    4.033804  (  0.190738  -1.556744  -1.254580)
  17:       776.35   55.654285  (  1.525217  -0.250607   7.298301)
  18:       846.41    8.041959  (  2.559450   0.179977  -1.207800)
  19:       943.06    8.607439  (  0.589195  -2.774400   0.750329)
  20:       986.72   23.998973  (  2.626432   3.810554   1.606397)
  21:      1036.60    2.212927  ( -1.336802   0.483162  -0.438684)
  22:      1037.79    2.283012  (  0.298821   1.359458   0.587870)
  23:      1078.05    2.825391  ( -0.670848   0.751081   1.345820)
  24:      1111.04   38.949369  ( -0.555363   0.262833  -6.210625)
  25:      1133.74    9.671329  (  1.443763   1.664223  -2.194821)
  26:      1161.13    6.882934  ( -1.612853   2.059890  -0.196194)
  27:      1184.75    0.543172  ( -0.212905  -0.702724  -0.063427)
  28:      1221.90    8.838384  (  1.045432   2.335608   1.513404)
  29:      1238.60    1.334961  (  0.432398  -0.641993  -0.857810)
  30:      1277.33    4.361966  (  2.083135   0.008274   0.149819)
  31:      1394.92   17.354243  (  2.503571   0.550142  -3.283858)
  32:      1408.40    3.406249  ( -0.628699  -0.852742   1.511231)
  33:      1451.99   14.109054  ( -0.255052   3.737525  -0.273691)
  34:      1453.17    5.168580  ( -1.557733   1.645441  -0.185936)
  35:      1455.01   11.635080  (  3.393903  -0.229300   0.252837)
  36:      1458.95   39.595949  ( -0.332844   3.076540   5.479057)
  37:      1481.55   18.584438  (  1.034134   2.808764  -3.102555)
  38:      1493.04   25.222773  ( -4.801298  -1.036220   1.047168)
  39:      1510.27   54.530308  ( -1.116153  -0.397938  -7.288769)
  40:      2370.57  193.276304  (  5.987697   0.055420 -12.546741)
  41:      3059.12    0.957185  (  0.323052   0.062402  -0.921373)
  42:      3083.09    0.353580  (  0.228499  -0.267975  -0.479121)
  43:      3135.33    0.305153  ( -0.547849  -0.025272  -0.066148)
  44:      3139.14    0.395628  (  0.095144  -0.611230   0.113900)
  45:      3171.87    3.496207  ( -0.568806  -1.643037   0.687818)
  46:      3173.95    6.058584  (  0.407720  -1.062153   2.182700)
  47:      3179.92    0.410001  ( -0.091966   0.467470  -0.427803)
  48:      3186.12    0.298141  ( -0.230149  -0.044135   0.493178)
  49:      3277.90    5.488067  ( -1.665009   1.358652   0.932672)
  50:      3536.13   76.315502  (  8.595103  -1.130369   1.077949)

--------------------------
THERMOCHEMISTRY AT 298.15K
--------------------------

Temperature         ... 298.15 K
Pressure            ... 1.00 atm
Total Mass          ... 96.15 AMU

Throughout the following assumptions are being made:
  (1) The electronic state is orbitally nondegenerate
  (2) There are no thermally accessible electronically excited states
  (3) Hindered rotations indicated by low frequency modes) are not
      treated as such but are treated as vibrations and this may
      case some error
  (4) All equations used are the standard statistical mechanics
      equations for an ideal gas
  (5) All vibrations are strinctly harmonic

------------
INNER ENERGY
------------

The inner energy is: U= E(el) + E(ZPE) + E(vib) + E(rot) + E(trans)
    E(el)   - is the total energy from the electronic structure calculation
              = E(kin-el) + E(nuc-el) + E(el-el) + E(nuc-nuc)
    E(ZPE)  - the the zero temperature vibrational energy from the frequency calculation
    E(vib)  - the the finite temperature correction to E(ZPE) due to population
              of excietd vibrational states
    E(rot)  - is the rotational thermal energy
    E(trans)- is the translational thermal energy

Summary of contributions to the inner energy U:
Electronic energy                ...   -288.82504170 Eh
Zero point energy                ...      0.15009940 Eh      94.19 kcal/mol
Thermal vibrational correction   ...      0.00464090 Eh       2.91 kcal/mol
Thermal rotational correction    ...      0.00141627 Eh       0.89 kcal/mol
Thermal translational correction ...      0.00141627 Eh       0.89 kcal/mol
-----------------------------------------------------------------------
Total thermal energy                   -288.66746886 Eh

Summary of corrections to the electronic energy:
(perhaps to be used in another calculation)
Total thermal correction                  0.00747344 Eh       4.69 kcal/mol
Non-thermal (ZPE) correction              0.15009940 Eh      94.19 kcal/mol
-----------------------------------------------------------------------
Total correction                          0.15757285 Eh      98.88 kcal/mol

--------
ENTHALPY
--------

The enthalpy is H = U + kB*T
                kB is Boltzmann's constant
Total free energy                 ...   -288.66746886 Eh
Thermal Enthalpy correction       ...      0.00094421 Eh       0.59 kcal/mol
-----------------------------------------------------------------------
Total Enthalpy                    ...   -288.66652465 Eh

-------
ENTROPY
-------

The entropy contributions are T*S = T*(S(el)+S(vib)+S(rot)+S(trans)
     S(el)   - electronic entropy
     S(vib)  - vibrational entropy
     S(rot)  - rotational entropy
     S(trans)- translational entropy
The entropies will be listed as mutliplied by the temperature to get
units of energy

Electronic entropy                ...      0.00000000 Eh      0.00 kcal/mol
Vibrational entropy               ...      0.00808843 Eh      5.08 kcal/mol
Rotational entropy                ...      0.01220301 Eh      7.66 kcal/mol
Translational entropy             ...      0.01881568 Eh     11.81 kcal/mol
-----------------------------------------------------------------------
Final entropy term                ...      0.03910712 Eh     24.54 kcal/mol

CAUTION: The rotational entropy is not quite correctly treated here
         because it includes a symmetry number that is not yet correctly
         implemented in ORCA!
For a nonlinear molecule the correct rotational entropy is:
    S(rot) = R*(ln(qrot/sn)+1.5)
    R    = 8.31441 J/mol/K = 1.987191683e-3 kcal/mol/K
    qrot = 274594.6032839
    sn is the rotational symmetry number. We have assumed 3 here
       if it is different for your molecule then you should correct
       the printed rotational entropy by manually evaluating the equation
       as given above

For convenience we print out the resulting values for sn=1 - 12:
 sn= 1  qrot/sn=  274594.6033 T*S(rot)=     8.31 kcal/mol T*S(tot)=    25.19 kcal/mol
 sn= 2  qrot/sn=  137297.3016 T*S(rot)=     7.90 kcal/mol T*S(tot)=    24.78 kcal/mol
 sn= 3  qrot/sn=   91531.5344 T*S(rot)=     7.66 kcal/mol T*S(tot)=    24.54 kcal/mol
 sn= 4  qrot/sn=   68648.6508 T*S(rot)=     7.49 kcal/mol T*S(tot)=    24.37 kcal/mol
 sn= 5  qrot/sn=   54918.9207 T*S(rot)=     7.35 kcal/mol T*S(tot)=    24.24 kcal/mol
 sn= 6  qrot/sn=   45765.7672 T*S(rot)=     7.25 kcal/mol T*S(tot)=    24.13 kcal/mol
 sn= 7  qrot/sn=   39227.8005 T*S(rot)=     7.16 kcal/mol T*S(tot)=    24.04 kcal/mol
 sn= 8  qrot/sn=   34324.3254 T*S(rot)=     7.08 kcal/mol T*S(tot)=    23.96 kcal/mol
 sn= 9  qrot/sn=   30510.5115 T*S(rot)=     7.01 kcal/mol T*S(tot)=    23.89 kcal/mol
 sn=10  qrot/sn=   27459.4603 T*S(rot)=     6.94 kcal/mol T*S(tot)=    23.83 kcal/mol
 sn=11  qrot/sn=   24963.1458 T*S(rot)=     6.89 kcal/mol T*S(tot)=    23.77 kcal/mol
 sn=12  qrot/sn=   22882.8836 T*S(rot)=     6.84 kcal/mol T*S(tot)=    23.72 kcal/mol

-------------------
GIBBS FREE ENTHALPY
-------------------

The Gibbs free enthalpy is G = H - T*S

Total enthalpy                    ...   -288.66652465 Eh
Total entropy correction          ...     -0.03910712 Eh    -24.54 kcal/mol
-----------------------------------------------------------------------
Final Gibbs free enthalpy         ...   -288.70563177 Eh

For completeness - the Gibbs free enthalpy minus the electronic energy
G-E(el)                           ...      0.11940993 Eh     74.93 kcal/mol

                             ****ORCA TERMINATED NORMALLY****
TOTAL RUN TIME: 0 days 0 hours 43 minutes 9 seconds 949 msec
