                         Program Version 3.0.3 - RELEASE   -
|  1> ! NORI PBE0 def2-TZVP UseSym TightOPT Freq TightSCF Grid3 FinalGrid5 XYZFile
|  2> % pal
|  3>     nprocs 8
|  4> end
|  5> %method
|  6>     SymThresh 5.0e-2
|  7> end
|  8> % geom
|  9>     MaxIter 10
| 10> end
| 11> % maxcore 2000
| 12> % output
| 13>     printlevel mini
| 14>     print[ P_Basis ] 0
| 15>     print[ P_SCFInfo ] 1
| 16>     print[ P_SCFIterInfo ] 1
| 17>     print[ P_OrbEn ] 0
| 18>     print[ P_Cartesian ] 0
| 19> end
| 20> % elprop
| 21>     Dipole false
| 22> end
| 23> *xyz 1 1
| 24>  C        1.0735292187    -0.1421016533    -0.2418359420
| 25>  C        2.5759266329    -0.3163898003    -0.1064841235
| 26>  C        3.1755690018     0.5953042926     0.9551438256
| 27>  C        4.6704650039     0.4295328335     1.0952156919
| 28>  C        5.5633617445     0.9206898514    -0.0586740504
| 29>  N        6.5159364171     1.5356592698     0.9515026961
| 30>  C        5.4336335612     1.4035097874     2.0082560746
| 31>  H        0.6696598202    -0.8056936659    -1.0072945902
| 32>  H        0.8152068033     0.8823082179    -0.5207457658
| 33>  H        0.5637379435    -0.3700889247     0.6973031711
| 34>  H        3.0543670118    -0.1196786511    -1.0743256219
| 35>  H        2.8064937482    -1.3582733594     0.1416451984
| 36>  H        2.7067580048     0.3887667336     1.9235087823
| 37>  H        2.9474617523     1.6425020047     0.7193371431
| 38>  H        4.9178066208    -0.6046428589     1.3505251005
| 39>  H        6.0511548384     0.2033443004    -0.7147923302
| 40>  H        5.1126472887     1.7239232647    -0.6413120554
| 41>  H        6.8587839460     2.4744230154     0.7539713745
| 42>  H        7.3188302134     0.9378948206     1.1411351625
| 43>  H        4.9416699392     2.3689607789     2.1202285224
| 44>  H        5.8183104896     1.0599397427     2.9656717364
| 45> *
| 46>
| 47>                          ****END OF INPUT****
 Total Charge           Charge          ....    1
 Multiplicity           Mult            ....    1
 Number of Electrons    NEL             ....   56
FINAL SINGLE POINT ENERGY      -291.309647760341

CARTESIAN COORDINATES (ANGSTROEM)
---------------------------------
  C      0.618017    0.000164   -3.247170
  C      0.246681   -0.585591   -1.896076
  C     -0.171238    0.481113   -0.892866
  C     -0.541541   -0.093139    0.454330
  C      0.582846   -0.691106    1.319593
  N     -0.000404    0.000176    2.539725
  C     -0.822102    0.878545    1.612757
  H      0.912214   -0.783578   -3.946270
  H      1.453369    0.699608   -3.161855
  H     -0.224097    0.538995   -3.688102
  H      1.097691   -1.152674   -1.498340
  H     -0.570142   -1.305732   -2.016824
  H     -1.029097    1.037909   -1.285417
  H      0.638177    1.211304   -0.765616
  H     -1.361052   -0.810112    0.351849
  H      0.661335   -1.768657    1.443770
  H      1.562276   -0.259468    1.113792
  H      0.653918    0.469376    3.164146
  H     -0.580534   -0.623747    3.098586
  H     -0.315463    1.837450    1.506839
  H     -1.841636    1.024203    1.962838

FINAL SINGLE POINT ENERGY      -291.309648706472
                    ***********************HURRAY********************
 Multiplicity           Mult            ....    1
 Number of Electrons    NEL             ....   56
 Basis Dimension        Dim             ....  301
FINAL SINGLE POINT ENERGY      -291.309649032197

VIBRATIONAL FREQUENCIES
-----------------------

   0:         0.00 cm**-1
   1:         0.00 cm**-1
   2:         0.00 cm**-1
   3:         0.00 cm**-1
   4:         0.00 cm**-1
   5:         0.00 cm**-1
   6:        79.15 cm**-1
   7:        95.31 cm**-1
   8:       117.51 cm**-1
   9:       170.92 cm**-1
  10:       245.93 cm**-1
  11:       316.78 cm**-1
  12:       378.33 cm**-1
  13:       426.19 cm**-1
  14:       676.83 cm**-1
  15:       745.11 cm**-1
  16:       805.21 cm**-1
  17:       828.13 cm**-1
  18:       867.29 cm**-1
  19:       887.41 cm**-1
  20:       902.75 cm**-1
  21:       919.38 cm**-1
  22:       968.22 cm**-1
  23:       989.89 cm**-1
  24:      1029.86 cm**-1
  25:      1060.51 cm**-1
  26:      1077.04 cm**-1
  27:      1133.86 cm**-1
  28:      1151.58 cm**-1
  29:      1201.81 cm**-1
  30:      1244.99 cm**-1
  31:      1265.37 cm**-1
  32:      1281.84 cm**-1
  33:      1292.18 cm**-1
  34:      1307.43 cm**-1
  35:      1320.39 cm**-1
  36:      1327.13 cm**-1
  37:      1338.55 cm**-1
  38:      1340.13 cm**-1
  39:      1388.52 cm**-1
  40:      1411.23 cm**-1
  41:      1416.55 cm**-1
  42:      1475.32 cm**-1
  43:      1481.96 cm**-1
  44:      1484.38 cm**-1
  45:      1492.84 cm**-1
  46:      1499.10 cm**-1
  47:      1503.51 cm**-1
  48:      1648.85 cm**-1
  49:      3024.71 cm**-1
  50:      3031.23 cm**-1
  51:      3055.04 cm**-1
  52:      3062.65 cm**-1
  53:      3078.67 cm**-1
  54:      3091.90 cm**-1
  55:      3113.01 cm**-1
  56:      3116.55 cm**-1
  57:      3126.91 cm**-1
  58:      3142.67 cm**-1
  59:      3188.77 cm**-1
  60:      3190.55 cm**-1
  61:      3471.53 cm**-1
  62:      3539.27 cm**-1

IR SPECTRUM
-----------

 Mode    freq (cm**-1)   T**2         TX         TY         TZ
-------------------------------------------------------------------
   6:        79.15    2.951132  (  1.470475   0.554127  -0.694102)
   7:        95.31    1.137831  (  0.269222  -0.732549  -0.727133)
   8:       117.51    2.185291  ( -0.573842  -1.311181  -0.369865)
   9:       170.92    0.315808  ( -0.550404   0.051767   0.100917)
  10:       245.93    0.105747  (  0.025409   0.016546   0.323771)
  11:       316.78    2.519570  (  0.115603  -0.037820   1.582648)
  12:       378.33    1.201609  (  0.405573   0.002889   1.018386)
  13:       426.19    0.364060  ( -0.354150  -0.196699   0.447155)
  14:       676.83    4.769526  ( -1.772815  -1.264225  -0.168485)
  15:       745.11    3.370914  (  1.628657   0.086917   0.843111)
  16:       805.21    1.999005  ( -0.191314  -1.359817   0.336604)
  17:       828.13    3.478131  ( -1.463340   0.664278   0.946309)
  18:       867.29    0.532724  (  0.688656  -0.224429   0.090045)
  19:       887.41    8.671573  ( -1.633328  -1.404166  -2.008016)
  20:       902.75    1.666239  (  0.650128  -0.871549  -0.695684)
  21:       919.38    2.473673  ( -0.839935   1.256788  -0.434356)
  22:       968.22    6.460182  ( -0.170454   0.213346  -2.526977)
  23:       989.89    0.953236  ( -0.178384   0.264194   0.922831)
  24:      1029.86    1.837800  (  0.796925   0.099253   1.092181)
  25:      1060.51    1.458183  (  0.191810  -0.201353  -1.175095)
  26:      1077.04    1.149884  (  0.302210   0.985567   0.295314)
  27:      1133.86    1.005748  ( -0.596912   0.024999   0.805493)
  28:      1151.58    3.236916  ( -0.812634   1.376761   0.825270)
  29:      1201.81    0.033203  (  0.013098   0.150342   0.102122)
  30:      1244.99   30.903038  (  3.656929  -4.110974  -0.793597)
  31:      1265.37    1.623745  (  1.200344  -0.376826   0.202288)
  32:      1281.84    8.818297  ( -1.547595   2.466903   0.581067)
  33:      1292.18    2.177389  ( -1.099649  -0.741099   0.647250)
  34:      1307.43   14.549481  (  2.615547  -2.775758  -0.059685)
  35:      1320.39    1.698286  (  0.938094  -0.890953  -0.156424)
  36:      1327.13   14.467739  (  2.266129  -2.880184  -1.018301)
  37:      1338.55    5.351670  (  1.344243  -1.621381  -0.956977)
  38:      1340.13    5.623467  (  2.159741  -0.674812   0.709659)
  39:      1388.52    0.150046  (  0.351797  -0.117534  -0.111669)
  40:      1411.23    0.788638  ( -0.430575  -0.231931   0.741249)
  41:      1416.55    2.494547  (  0.321705   1.007041  -1.173423)
  42:      1475.32    3.421802  ( -0.449283   1.573159   0.863202)
  43:      1481.96    8.745297  ( -1.829421   2.306988  -0.276260)
  44:      1484.38    4.226800  (  1.312980  -0.825208  -1.349783)
  45:      1492.84   11.764535  (  3.255122   0.394046   1.006700)
  46:      1499.10    4.493296  ( -1.348615   1.582505  -0.412567)
  47:      1503.51   15.207510  ( -1.296746  -3.571915  -0.876003)
  48:      1648.85   59.855104  (  0.416987  -0.982152   7.662676)
  49:      3024.71   10.564050  (  1.234757  -1.235574   2.740945)
  50:      3031.23   24.411288  ( -0.173632   4.874337  -0.788659)
  51:      3055.04   14.478635  ( -0.592553  -2.176917   3.064074)
  52:      3062.65    7.994898  (  1.466456   2.381966  -0.413090)
  53:      3078.67    5.026063  (  1.463864  -1.106989   1.287532)
  54:      3091.90   15.717639  (  3.723701   1.114301   0.781041)
  55:      3113.01    1.374863  (  0.816773  -0.777787  -0.320614)
  56:      3116.55    1.375289  ( -0.759378  -0.798096  -0.402091)
  57:      3126.91   25.819353  (  4.758655   0.717427   1.630906)
  58:      3142.67   12.326942  ( -0.830170   3.083207   1.459997)
  59:      3188.77    0.358373  ( -0.425827   0.392409   0.151854)
  60:      3190.55    0.073422  (  0.167428  -0.212582   0.014078)
  61:      3471.53   71.932147  (  0.761598  -0.698175   8.418115)
  62:      3539.27   85.516475  ( -6.863683  -6.182265   0.431202)

--------------------------
THERMOCHEMISTRY AT 298.15K
--------------------------

Temperature         ... 298.15 K
Pressure            ... 1.00 atm
Total Mass          ... 100.18 AMU

Throughout the following assumptions are being made:
  (1) The electronic state is orbitally nondegenerate
  (2) There are no thermally accessible electronically excited states
  (3) Hindered rotations indicated by low frequency modes) are not
      treated as such but are treated as vibrations and this may
      case some error
  (4) All equations used are the standard statistical mechanics
      equations for an ideal gas
  (5) All vibrations are strinctly harmonic

------------
INNER ENERGY
------------

The inner energy is: U= E(el) + E(ZPE) + E(vib) + E(rot) + E(trans)
    E(el)   - is the total energy from the electronic structure calculation
              = E(kin-el) + E(nuc-el) + E(el-el) + E(nuc-nuc)
    E(ZPE)  - the the zero temperature vibrational energy from the frequency calculation
    E(vib)  - the the finite temperature correction to E(ZPE) due to population
              of excietd vibrational states
    E(rot)  - is the rotational thermal energy
    E(trans)- is the translational thermal energy

Summary of contributions to the inner energy U:
Electronic energy                ...   -291.30964903 Eh
Zero point energy                ...      0.20008857 Eh     125.56 kcal/mol
Thermal vibrational correction   ...      0.00530721 Eh       3.33 kcal/mol
Thermal rotational correction    ...      0.00141627 Eh       0.89 kcal/mol
Thermal translational correction ...      0.00141627 Eh       0.89 kcal/mol
-----------------------------------------------------------------------
Total thermal energy                   -291.10142070 Eh

Summary of corrections to the electronic energy:
(perhaps to be used in another calculation)
Total thermal correction                  0.00813976 Eh       5.11 kcal/mol
Non-thermal (ZPE) correction              0.20008857 Eh     125.56 kcal/mol
-----------------------------------------------------------------------
Total correction                          0.20822833 Eh     130.66 kcal/mol

--------
ENTHALPY
--------

The enthalpy is H = U + kB*T
                kB is Boltzmann's constant
Total free energy                 ...   -291.10142070 Eh
Thermal Enthalpy correction       ...      0.00094421 Eh       0.59 kcal/mol
-----------------------------------------------------------------------
Total Enthalpy                    ...   -291.10047650 Eh

-------
ENTROPY
-------

The entropy contributions are T*S = T*(S(el)+S(vib)+S(rot)+S(trans)
     S(el)   - electronic entropy
     S(vib)  - vibrational entropy
     S(rot)  - rotational entropy
     S(trans)- translational entropy
The entropies will be listed as mutliplied by the temperature to get
units of energy

Electronic entropy                ...      0.00000000 Eh      0.00 kcal/mol
Vibrational entropy               ...      0.00975750 Eh      6.12 kcal/mol
Rotational entropy                ...      0.01221547 Eh      7.67 kcal/mol
Translational entropy             ...      0.01887386 Eh     11.84 kcal/mol
-----------------------------------------------------------------------
Final entropy term                ...      0.04084683 Eh     25.63 kcal/mol

CAUTION: The rotational entropy is not quite correctly treated here
         because it includes a symmetry number that is not yet correctly
         implemented in ORCA!
For a nonlinear molecule the correct rotational entropy is:
    S(rot) = R*(ln(qrot/sn)+1.5)
    R    = 8.31441 J/mol/K = 1.987191683e-3 kcal/mol/K
    qrot = 278241.6704780
    sn is the rotational symmetry number. We have assumed 3 here
       if it is different for your molecule then you should correct
       the printed rotational entropy by manually evaluating the equation
       as given above

For convenience we print out the resulting values for sn=1 - 12:
 sn= 1  qrot/sn=  278241.6705 T*S(rot)=     8.32 kcal/mol T*S(tot)=    26.28 kcal/mol
 sn= 2  qrot/sn=  139120.8352 T*S(rot)=     7.91 kcal/mol T*S(tot)=    25.87 kcal/mol
 sn= 3  qrot/sn=   92747.2235 T*S(rot)=     7.67 kcal/mol T*S(tot)=    25.63 kcal/mol
 sn= 4  qrot/sn=   69560.4176 T*S(rot)=     7.49 kcal/mol T*S(tot)=    25.46 kcal/mol
 sn= 5  qrot/sn=   55648.3341 T*S(rot)=     7.36 kcal/mol T*S(tot)=    25.33 kcal/mol
 sn= 6  qrot/sn=   46373.6117 T*S(rot)=     7.25 kcal/mol T*S(tot)=    25.22 kcal/mol
 sn= 7  qrot/sn=   39748.8101 T*S(rot)=     7.16 kcal/mol T*S(tot)=    25.13 kcal/mol
 sn= 8  qrot/sn=   34780.2088 T*S(rot)=     7.08 kcal/mol T*S(tot)=    25.05 kcal/mol
 sn= 9  qrot/sn=   30915.7412 T*S(rot)=     7.01 kcal/mol T*S(tot)=    24.98 kcal/mol
 sn=10  qrot/sn=   27824.1670 T*S(rot)=     6.95 kcal/mol T*S(tot)=    24.92 kcal/mol
 sn=11  qrot/sn=   25294.6973 T*S(rot)=     6.90 kcal/mol T*S(tot)=    24.86 kcal/mol
 sn=12  qrot/sn=   23186.8059 T*S(rot)=     6.84 kcal/mol T*S(tot)=    24.81 kcal/mol

-------------------
GIBBS FREE ENTHALPY
-------------------

The Gibbs free enthalpy is G = H - T*S

Total enthalpy                    ...   -291.10047650 Eh
Total entropy correction          ...     -0.04084683 Eh    -25.63 kcal/mol
-----------------------------------------------------------------------
Final Gibbs free enthalpy         ...   -291.14132332 Eh

For completeness - the Gibbs free enthalpy minus the electronic energy
G-E(el)                           ...      0.16832571 Eh    105.63 kcal/mol

                             ****ORCA TERMINATED NORMALLY****
TOTAL RUN TIME: 0 days 0 hours 49 minutes 1 seconds 196 msec
