                         Program Version 3.0.3 - RELEASE   -
|  1> ! NORI PBE0 def2-TZVP UseSym TightOPT Freq TightSCF Grid3 FinalGrid5 XYZFile
|  2> % pal
|  3>     nprocs 8
|  4> end
|  5> %method
|  6>     SymThresh 5.0e-2
|  7> end
|  8> % geom
|  9>     MaxIter 10
| 10> end
| 11> % maxcore 2000
| 12> % output
| 13>     printlevel mini
| 14>     print[ P_Basis ] 0
| 15>     print[ P_SCFInfo ] 1
| 16>     print[ P_SCFIterInfo ] 1
| 17>     print[ P_OrbEn ] 0
| 18>     print[ P_Cartesian ] 0
| 19> end
| 20> % elprop
| 21>     Dipole false
| 22> end
| 23> *xyz 1 1
| 24>  C        2.5800221192    -2.6561075409    -1.9539137965
| 25>  C        2.9772646705    -1.4093412461    -2.1635265982
| 26>  C        3.1579623439    -0.3907472496    -1.0828352556
| 27>  C        4.6049983417     0.0501446369    -0.9792879375
| 28>  C        5.0290940629     0.8983164850     0.2319658662
| 29>  N        6.2574065447     0.0242384099     0.4050668085
| 30>  C        5.6266236300    -1.0034718552    -0.5213672611
| 31>  H        2.4600352575    -3.3558497716    -2.7721564657
| 32>  H        2.3323308559    -3.0172953071    -0.9603933482
| 33>  H        3.1913197958    -1.0789831290    -3.1783450575
| 34>  H        2.8294532618    -0.8035188226    -0.1229279553
| 35>  H        2.5374493089     0.4900179552    -1.2837206270
| 36>  H        4.9302477916     0.5184897457    -1.9115879587
| 37>  H        4.3850452930     0.7692448311     1.1014153815
| 38>  H        5.2755648969     1.9489699293     0.0957950567
| 39>  H        7.0945340737     0.4457959296     0.0060420124
| 40>  H        6.4774787726    -0.2812079211     1.3516517392
| 41>  H        6.3343474111    -1.4170873355    -1.2355031458
| 42>  H        5.1893415682    -1.7990277439     0.0811585427
| 43> *
| 44>
| 45>                          ****END OF INPUT****
 Total Charge           Charge          ....    1
 Multiplicity           Mult            ....    1
 Number of Electrons    NEL             ....   54
FINAL SINGLE POINT ENERGY      -290.075886278950

CARTESIAN COORDINATES (ANGSTROEM)
---------------------------------
  C      1.363059   -0.000060   -2.596614
  C      0.216765    0.366010   -2.041441
  C     -0.537783   -0.458318   -1.046676
  C     -0.625150    0.243205    0.294767
  C     -1.139214   -0.552088    1.507109
  N      0.000471    0.000019    2.343547
  C      0.690117    0.448045    1.064332
  H      1.869823    0.632297   -3.315483
  H      1.825365   -0.957403   -2.375085
  H     -0.226417    1.323141   -2.309564
  H     -0.049960   -1.431360   -0.922219
  H     -1.554694   -0.651691   -1.407049
  H     -1.163126    1.189594    0.197505
  H     -1.008639   -1.629331    1.408881
  H     -2.117058   -0.325823    1.926233
  H     -0.288227    0.784938    2.925448
  H      0.504286   -0.661644    2.932186
  H      1.120794    1.443051    1.144734
  H      1.460960   -0.277620    0.807033

FINAL SINGLE POINT ENERGY      -290.075886872108
                    ***********************HURRAY********************
 Multiplicity           Mult            ....    1
 Number of Electrons    NEL             ....   54
 Basis Dimension        Dim             ....  289
FINAL SINGLE POINT ENERGY      -290.075887115083

VIBRATIONAL FREQUENCIES
-----------------------

   0:         0.00 cm**-1
   1:         0.00 cm**-1
   2:         0.00 cm**-1
   3:         0.00 cm**-1
   4:         0.00 cm**-1
   5:         0.00 cm**-1
   6:        70.29 cm**-1
   7:        95.50 cm**-1
   8:       115.51 cm**-1
   9:       198.52 cm**-1
  10:       371.00 cm**-1
  11:       384.66 cm**-1
  12:       433.22 cm**-1
  13:       610.38 cm**-1
  14:       706.61 cm**-1
  15:       808.48 cm**-1
  16:       831.36 cm**-1
  17:       882.88 cm**-1
  18:       891.58 cm**-1
  19:       904.62 cm**-1
  20:       947.48 cm**-1
  21:       970.43 cm**-1
  22:       990.08 cm**-1
  23:      1011.50 cm**-1
  24:      1032.15 cm**-1
  25:      1049.58 cm**-1
  26:      1085.58 cm**-1
  27:      1133.90 cm**-1
  28:      1195.70 cm**-1
  29:      1243.29 cm**-1
  30:      1256.81 cm**-1
  31:      1281.43 cm**-1
  32:      1292.84 cm**-1
  33:      1310.12 cm**-1
  34:      1317.74 cm**-1
  35:      1328.35 cm**-1
  36:      1332.54 cm**-1
  37:      1349.27 cm**-1
  38:      1403.07 cm**-1
  39:      1454.27 cm**-1
  40:      1473.31 cm**-1
  41:      1481.63 cm**-1
  42:      1500.30 cm**-1
  43:      1649.24 cm**-1
  44:      1725.27 cm**-1
  45:      3038.49 cm**-1
  46:      3079.67 cm**-1
  47:      3097.00 cm**-1
  48:      3116.08 cm**-1
  49:      3121.01 cm**-1
  50:      3152.64 cm**-1
  51:      3158.26 cm**-1
  52:      3190.23 cm**-1
  53:      3195.24 cm**-1
  54:      3248.82 cm**-1
  55:      3472.23 cm**-1
  56:      3539.42 cm**-1

IR SPECTRUM
-----------

 Mode    freq (cm**-1)   T**2         TX         TY         TZ
-------------------------------------------------------------------
   6:        70.29    3.581948  ( -1.278526   0.275486   1.368001)
   7:        95.50    0.524416  (  0.045579   0.716632  -0.093685)
   8:       115.51    2.322835  (  0.346994  -1.421093   0.427696)
   9:       198.52    0.770811  ( -0.518875  -0.024396   0.707803)
  10:       371.00    0.258690  ( -0.186792   0.395044  -0.260266)
  11:       384.66    3.810592  (  0.202923   0.342172   1.911108)
  12:       433.22    0.343438  (  0.282167   0.140230  -0.494121)
  13:       610.38   11.275966  (  2.167175  -0.065233   2.564188)
  14:       706.61    9.323477  (  0.172402   2.254435   2.052139)
  15:       808.48    2.312429  (  0.656669   1.000664  -0.938023)
  16:       831.36    4.474588  ( -2.050722   0.041186   0.517139)
  17:       882.88    6.076821  ( -0.763968   1.167389  -2.032333)
  18:       891.58    3.629036  ( -1.180893   1.491850   0.094404)
  19:       904.62    2.634715  (  0.765906   1.148312  -0.854097)
  20:       947.48    4.395944  (  0.797415   0.641655   1.829850)
  21:       970.43    7.642968  (  0.794210   0.145710   2.644044)
  22:       990.08   44.702935  ( -3.550128  -2.837465  -4.903908)
  23:      1011.50    2.420162  (  1.512707   0.153896  -0.328931)
  24:      1032.15    9.312139  (  1.387914   1.009895   2.523082)
  25:      1049.58   10.996184  ( -0.218317   0.516941   3.268225)
  26:      1085.58    0.997832  (  0.263031  -0.512177  -0.816285)
  27:      1133.90    0.580295  (  0.428076  -0.572212  -0.263854)
  28:      1195.70    0.172338  (  0.034847   0.142587   0.388320)
  29:      1243.29   28.484158  ( -4.388572  -2.766589   1.253227)
  30:      1256.81    5.508091  (  2.315170   0.326096  -0.204298)
  31:      1281.43   10.421958  (  2.510977   1.937560  -0.602342)
  32:      1292.84    3.723558  ( -1.044805   0.841817   1.386825)
  33:      1310.12   12.163171  ( -2.624089  -2.227430   0.562037)
  34:      1317.74    2.401754  ( -1.493450  -0.413938  -0.003914)
  35:      1328.35   14.594607  (  3.510808   0.712292  -1.327206)
  36:      1332.54    9.454887  ( -2.827569  -1.207209   0.048869)
  37:      1349.27    2.449338  (  0.496620   1.128060  -0.964462)
  38:      1403.07    0.095193  (  0.114959  -0.175327  -0.226357)
  39:      1454.27    5.415616  ( -2.223493   0.222430   0.649785)
  40:      1473.31   12.677647  (  0.532319   3.505297   0.327376)
  41:      1481.63   10.338286  (  3.074102   0.517516  -0.787629)
  42:      1500.30    8.843995  (  0.774460  -2.715178   0.933817)
  43:      1649.24   59.345690  (  1.339081   0.769532   7.547210)
  44:      1725.27    4.005935  ( -1.934623   0.167859   0.484761)
  45:      3038.49    9.835617  (  1.238004   2.677193  -1.065646)
  46:      3079.67    1.745415  (  1.059048  -0.344004   0.710980)
  47:      3097.00    6.653430  (  1.573400  -2.043956   0.009428)
  48:      3116.08    1.294569  ( -0.639705  -0.813202   0.473337)
  49:      3121.01    1.148364  (  0.661934  -0.801281   0.261067)
  50:      3152.64    6.483915  (  1.037042  -2.232505   0.651445)
  51:      3158.26    1.016888  ( -0.375355   0.796627  -0.491306)
  52:      3190.23    0.220975  ( -0.402987  -0.189229   0.150891)
  53:      3195.24    0.113538  ( -0.279419   0.001579   0.188309)
  54:      3248.82    1.980636  ( -0.247740   1.218737  -0.658742)
  55:      3472.23   73.989236  (  1.456919   0.466279   8.464585)
  56:      3539.42   86.316589  ( -4.347119   8.178691   0.726751)

--------------------------
THERMOCHEMISTRY AT 298.15K
--------------------------

Temperature         ... 298.15 K
Pressure            ... 1.00 atm
Total Mass          ... 98.17 AMU

Throughout the following assumptions are being made:
  (1) The electronic state is orbitally nondegenerate
  (2) There are no thermally accessible electronically excited states
  (3) Hindered rotations indicated by low frequency modes) are not
      treated as such but are treated as vibrations and this may
      case some error
  (4) All equations used are the standard statistical mechanics
      equations for an ideal gas
  (5) All vibrations are strinctly harmonic

------------
INNER ENERGY
------------

The inner energy is: U= E(el) + E(ZPE) + E(vib) + E(rot) + E(trans)
    E(el)   - is the total energy from the electronic structure calculation
              = E(kin-el) + E(nuc-el) + E(el-el) + E(nuc-nuc)
    E(ZPE)  - the the zero temperature vibrational energy from the frequency calculation
    E(vib)  - the the finite temperature correction to E(ZPE) due to population
              of excietd vibrational states
    E(rot)  - is the rotational thermal energy
    E(trans)- is the translational thermal energy

Summary of contributions to the inner energy U:
Electronic energy                ...   -290.07588712 Eh
Zero point energy                ...      0.17662534 Eh     110.83 kcal/mol
Thermal vibrational correction   ...      0.00474597 Eh       2.98 kcal/mol
Thermal rotational correction    ...      0.00141627 Eh       0.89 kcal/mol
Thermal translational correction ...      0.00141627 Eh       0.89 kcal/mol
-----------------------------------------------------------------------
Total thermal energy                   -289.89168326 Eh

Summary of corrections to the electronic energy:
(perhaps to be used in another calculation)
Total thermal correction                  0.00757851 Eh       4.76 kcal/mol
Non-thermal (ZPE) correction              0.17662534 Eh     110.83 kcal/mol
-----------------------------------------------------------------------
Total correction                          0.18420385 Eh     115.59 kcal/mol

--------
ENTHALPY
--------

The enthalpy is H = U + kB*T
                kB is Boltzmann's constant
Total free energy                 ...   -289.89168326 Eh
Thermal Enthalpy correction       ...      0.00094421 Eh       0.59 kcal/mol
-----------------------------------------------------------------------
Total Enthalpy                    ...   -289.89073906 Eh

-------
ENTROPY
-------

The entropy contributions are T*S = T*(S(el)+S(vib)+S(rot)+S(trans)
     S(el)   - electronic entropy
     S(vib)  - vibrational entropy
     S(rot)  - rotational entropy
     S(trans)- translational entropy
The entropies will be listed as mutliplied by the temperature to get
units of energy

Electronic entropy                ...      0.00000000 Eh      0.00 kcal/mol
Vibrational entropy               ...      0.00881688 Eh      5.53 kcal/mol
Rotational entropy                ...      0.01211833 Eh      7.60 kcal/mol
Translational entropy             ...      0.01884507 Eh     11.83 kcal/mol
-----------------------------------------------------------------------
Final entropy term                ...      0.03978028 Eh     24.96 kcal/mol

CAUTION: The rotational entropy is not quite correctly treated here
         because it includes a symmetry number that is not yet correctly
         implemented in ORCA!
For a nonlinear molecule the correct rotational entropy is:
    S(rot) = R*(ln(qrot/sn)+1.5)
    R    = 8.31441 J/mol/K = 1.987191683e-3 kcal/mol/K
    qrot = 251039.4420094
    sn is the rotational symmetry number. We have assumed 3 here
       if it is different for your molecule then you should correct
       the printed rotational entropy by manually evaluating the equation
       as given above

For convenience we print out the resulting values for sn=1 - 12:
 sn= 1  qrot/sn=  251039.4420 T*S(rot)=     8.26 kcal/mol T*S(tot)=    25.61 kcal/mol
 sn= 2  qrot/sn=  125519.7210 T*S(rot)=     7.84 kcal/mol T*S(tot)=    25.20 kcal/mol
 sn= 3  qrot/sn=   83679.8140 T*S(rot)=     7.60 kcal/mol T*S(tot)=    24.96 kcal/mol
 sn= 4  qrot/sn=   62759.8605 T*S(rot)=     7.43 kcal/mol T*S(tot)=    24.79 kcal/mol
 sn= 5  qrot/sn=   50207.8884 T*S(rot)=     7.30 kcal/mol T*S(tot)=    24.66 kcal/mol
 sn= 6  qrot/sn=   41839.9070 T*S(rot)=     7.19 kcal/mol T*S(tot)=    24.55 kcal/mol
 sn= 7  qrot/sn=   35862.7774 T*S(rot)=     7.10 kcal/mol T*S(tot)=    24.46 kcal/mol
 sn= 8  qrot/sn=   31379.9303 T*S(rot)=     7.02 kcal/mol T*S(tot)=    24.38 kcal/mol
 sn= 9  qrot/sn=   27893.2713 T*S(rot)=     6.95 kcal/mol T*S(tot)=    24.31 kcal/mol
 sn=10  qrot/sn=   25103.9442 T*S(rot)=     6.89 kcal/mol T*S(tot)=    24.25 kcal/mol
 sn=11  qrot/sn=   22821.7675 T*S(rot)=     6.83 kcal/mol T*S(tot)=    24.19 kcal/mol
 sn=12  qrot/sn=   20919.9535 T*S(rot)=     6.78 kcal/mol T*S(tot)=    24.14 kcal/mol

-------------------
GIBBS FREE ENTHALPY
-------------------

The Gibbs free enthalpy is G = H - T*S

Total enthalpy                    ...   -289.89073906 Eh
Total entropy correction          ...     -0.03978028 Eh    -24.96 kcal/mol
-----------------------------------------------------------------------
Final Gibbs free enthalpy         ...   -289.93051934 Eh

For completeness - the Gibbs free enthalpy minus the electronic energy
G-E(el)                           ...      0.14536778 Eh     91.22 kcal/mol

                             ****ORCA TERMINATED NORMALLY****
TOTAL RUN TIME: 0 days 0 hours 42 minutes 28 seconds 277 msec
