                         Program Version 3.0.3 - RELEASE   -
|  1> ! NORI PBE0 def2-TZVP UseSym TightOPT Freq TightSCF Grid3 FinalGrid5 XYZFile
|  2> % pal
|  3>     nprocs 8
|  4> end
|  5> %method
|  6>     SymThresh 5.0e-2
|  7> end
|  8> % geom
|  9>     MaxIter 10
| 10> end
| 11> % maxcore 2000
| 12> % output
| 13>     printlevel mini
| 14>     print[ P_Basis ] 0
| 15>     print[ P_SCFInfo ] 1
| 16>     print[ P_SCFIterInfo ] 1
| 17>     print[ P_OrbEn ] 0
| 18>     print[ P_Cartesian ] 0
| 19> end
| 20> % elprop
| 21>     Dipole false
| 22> end
| 23> *xyz 1 1
| 24>  C        1.1587382837     0.3893352148    -0.4070332589
| 25>  C        2.3445371359     0.2830179746    -0.2646857479
| 26>  C        3.7803169000     0.1176978699    -0.1200780062
| 27>  C        4.3085033142    -0.8779462891    -1.1379058137
| 28>  C        5.7220787183    -1.4491474368    -0.9376841468
| 29>  N        5.1914366621    -2.8412677312    -1.2256105005
| 30>  C        3.7761208886    -2.3156358047    -1.0427601896
| 31>  H        0.1049155953     0.5079045771    -0.5199819911
| 32>  H        4.2855254846     1.0806223878    -0.2474220052
| 33>  H        4.0114451895    -0.2267162167     0.8950988276
| 34>  H        4.1798618221    -0.4836005557    -2.1477835924
| 35>  H        6.5195960797    -1.1559729416    -1.6163166110
| 36>  H        6.0698222680    -1.4135894784     0.0941369336
| 37>  H        5.3770533046    -3.1393727087    -2.1820655149
| 38>  H        5.4897028721    -3.5867382972    -0.5984438590
| 39>  H        3.4244687692    -2.5875786523    -0.0483151744
| 40>  H        3.0885467120    -2.6822819117    -1.8002893496
| 41> *
| 42>
| 43>                          ****END OF INPUT****
 Total Charge           Charge          ....    1
 Multiplicity           Mult            ....    1
 Number of Electrons    NEL             ....   52
FINAL SINGLE POINT ENERGY      -288.821873772443
FINAL SINGLE POINT ENERGY      -288.821874430295

CARTESIAN COORDINATES (ANGSTROEM)
---------------------------------
  C      1.302843    0.000716   -2.762903
  C      0.379151   -0.144430   -2.012284
  C     -0.713352   -0.302988   -1.068290
  C     -0.406146    0.421762    0.230643
  C     -1.262030    0.101361    1.467489
  N      0.000181    0.001190    2.304261
  C      0.817819   -0.062290    1.023138
  H      2.107800    0.122999   -3.451462
  H     -1.642178    0.086030   -1.498035
  H     -0.879725   -1.369176   -0.871889
  H     -0.352314    1.497714    0.054165
  H     -1.958069    0.846822    1.845306
  H     -1.737867   -0.878261    1.432866
  H      0.181135    0.847928    2.841556
  H      0.071998   -0.795379    2.935665
  H      1.085601   -1.099814    0.825947
  H      1.709726    0.557815    1.060917

FINAL SINGLE POINT ENERGY      -288.821874683671
                    ***********************HURRAY********************
 Multiplicity           Mult            ....    1
 Number of Electrons    NEL             ....   52
 Basis Dimension        Dim             ....  277
FINAL SINGLE POINT ENERGY      -288.821874859541

VIBRATIONAL FREQUENCIES
-----------------------

   0:         0.00 cm**-1
   1:         0.00 cm**-1
   2:         0.00 cm**-1
   3:         0.00 cm**-1
   4:         0.00 cm**-1
   5:         0.00 cm**-1
   6:        68.67 cm**-1
   7:       103.87 cm**-1
   8:       138.71 cm**-1
   9:       304.38 cm**-1
  10:       346.30 cm**-1
  11:       379.10 cm**-1
  12:       490.27 cm**-1
  13:       684.46 cm**-1
  14:       715.09 cm**-1
  15:       731.07 cm**-1
  16:       803.97 cm**-1
  17:       832.17 cm**-1
  18:       884.14 cm**-1
  19:       891.96 cm**-1
  20:       905.91 cm**-1
  21:       959.89 cm**-1
  22:       984.98 cm**-1
  23:      1013.28 cm**-1
  24:      1083.53 cm**-1
  25:      1120.74 cm**-1
  26:      1147.88 cm**-1
  27:      1245.43 cm**-1
  28:      1253.00 cm**-1
  29:      1283.45 cm**-1
  30:      1294.77 cm**-1
  31:      1316.02 cm**-1
  32:      1319.51 cm**-1
  33:      1333.59 cm**-1
  34:      1355.01 cm**-1
  35:      1407.30 cm**-1
  36:      1465.31 cm**-1
  37:      1481.37 cm**-1
  38:      1499.95 cm**-1
  39:      1649.42 cm**-1
  40:      2249.30 cm**-1
  41:      3038.52 cm**-1
  42:      3084.77 cm**-1
  43:      3108.82 cm**-1
  44:      3116.54 cm**-1
  45:      3122.78 cm**-1
  46:      3190.62 cm**-1
  47:      3198.08 cm**-1
  48:      3466.02 cm**-1
  49:      3471.60 cm**-1
  50:      3538.34 cm**-1

IR SPECTRUM
-----------

 Mode    freq (cm**-1)   T**2         TX         TY         TZ
-------------------------------------------------------------------
   6:        68.67    2.677189  (  0.953895  -0.697981  -1.131413)
   7:       103.87    3.374645  (  0.695681   1.629100  -0.486526)
   8:       138.71    0.636214  ( -0.617481   0.010641   0.504795)
   9:       304.38    4.057465  ( -0.685655  -0.417151  -1.847519)
  10:       346.30   12.267324  (  1.134970  -2.956487   1.496113)
  11:       379.10    3.430075  (  0.157766  -0.760671  -1.681239)
  12:       490.27   10.898353  (  1.024332   0.818062   3.029830)
  13:       684.46    8.348021  ( -0.081751  -2.788576  -0.751785)
  14:       715.09   42.349525  (  2.858335  -5.441329   2.138080)
  15:       731.07   40.312341  (  3.496275   3.461330   4.013428)
  16:       803.97    1.457012  ( -0.872788  -0.730133   0.402689)
  17:       832.17    3.039837  (  1.590897  -0.585227  -0.407914)
  18:       884.14    6.957402  (  0.117028   1.877877  -1.848590)
  19:       891.96    1.725528  (  0.078515  -1.189680   0.551386)
  20:       905.91    2.949562  ( -1.388683   0.018565   1.010335)
  21:       959.89    8.727437  (  1.176585   0.047157   2.709402)
  22:       984.98    2.393989  (  0.553346  -0.356192  -1.400330)
  23:      1013.28    1.039204  ( -0.743347   0.252722   0.650209)
  24:      1083.53    0.589023  ( -0.254749   0.131823   0.711863)
  25:      1120.74    0.423584  ( -0.022470   0.559357  -0.331963)
  26:      1147.88    0.232323  (  0.178541   0.321472  -0.311611)
  27:      1245.43   23.991517  ( -4.737077  -0.162623   1.234979)
  28:      1253.00    9.187891  ( -2.727883   1.272222   0.357761)
  29:      1283.45   14.198680  ( -3.626074  -0.641477   0.799232)
  30:      1294.77    4.131656  (  1.301632  -0.820914  -1.327972)
  31:      1316.02   11.577395  (  3.340740  -0.475874  -0.436344)
  32:      1319.51    1.160773  (  1.030446  -0.312470  -0.036299)
  33:      1333.59   18.097984  ( -4.105282   0.873019   0.694608)
  34:      1355.01   10.921237  (  2.443436   0.926644  -2.022916)
  35:      1407.30    0.865733  (  0.701769   0.522862  -0.316018)
  36:      1465.31    9.413124  ( -2.494714  -1.649963  -0.683483)
  37:      1481.37   12.553837  ( -3.397797   0.564766   0.830574)
  38:      1499.95    7.804767  (  0.690372   2.499478  -1.039598)
  39:      1649.42   60.311826  (  1.579694   0.328439   7.596612)
  40:      2249.30    1.466811  ( -0.617021  -0.019672   1.041973)
  41:      3038.52    9.943046  ( -1.874833  -1.615813   1.953765)
  42:      3084.77    0.208833  (  0.340988  -0.272060   0.136175)
  43:      3108.82    1.156010  (  0.131512  -0.969184  -0.446538)
  44:      3116.54    0.788987  ( -0.701364  -0.450224   0.307203)
  45:      3122.78    0.742318  ( -0.059411  -0.849420   0.131430)
  46:      3190.62    0.126164  (  0.329502   0.107139  -0.078193)
  47:      3198.08    0.295528  ( -0.118254   0.524366   0.081146)
  48:      3466.02   96.634668  (  6.736057   0.975750  -7.092821)
  49:      3471.60   71.633400  (  1.957540   0.050930   8.234005)
  50:      3538.34   89.435648  (  0.699460   9.430710   0.090032)

--------------------------
THERMOCHEMISTRY AT 298.15K
--------------------------

Temperature         ... 298.15 K
Pressure            ... 1.00 atm
Total Mass          ... 96.15 AMU

Throughout the following assumptions are being made:
  (1) The electronic state is orbitally nondegenerate
  (2) There are no thermally accessible electronically excited states
  (3) Hindered rotations indicated by low frequency modes) are not
      treated as such but are treated as vibrations and this may
      case some error
  (4) All equations used are the standard statistical mechanics
      equations for an ideal gas
  (5) All vibrations are strinctly harmonic

------------
INNER ENERGY
------------

The inner energy is: U= E(el) + E(ZPE) + E(vib) + E(rot) + E(trans)
    E(el)   - is the total energy from the electronic structure calculation
              = E(kin-el) + E(nuc-el) + E(el-el) + E(nuc-nuc)
    E(ZPE)  - the the zero temperature vibrational energy from the frequency calculation
    E(vib)  - the the finite temperature correction to E(ZPE) due to population
              of excietd vibrational states
    E(rot)  - is the rotational thermal energy
    E(trans)- is the translational thermal energy

Summary of contributions to the inner energy U:
Electronic energy                ...   -288.82187486 Eh
Zero point energy                ...      0.15281914 Eh      95.90 kcal/mol
Thermal vibrational correction   ...      0.00447165 Eh       2.81 kcal/mol
Thermal rotational correction    ...      0.00141627 Eh       0.89 kcal/mol
Thermal translational correction ...      0.00141627 Eh       0.89 kcal/mol
-----------------------------------------------------------------------
Total thermal energy                   -288.66175153 Eh

Summary of corrections to the electronic energy:
(perhaps to be used in another calculation)
Total thermal correction                  0.00730419 Eh       4.58 kcal/mol
Non-thermal (ZPE) correction              0.15281914 Eh      95.90 kcal/mol
-----------------------------------------------------------------------
Total correction                          0.16012333 Eh     100.48 kcal/mol

--------
ENTHALPY
--------

The enthalpy is H = U + kB*T
                kB is Boltzmann's constant
Total free energy                 ...   -288.66175153 Eh
Thermal Enthalpy correction       ...      0.00094421 Eh       0.59 kcal/mol
-----------------------------------------------------------------------
Total Enthalpy                    ...   -288.66080732 Eh

-------
ENTROPY
-------

The entropy contributions are T*S = T*(S(el)+S(vib)+S(rot)+S(trans)
     S(el)   - electronic entropy
     S(vib)  - vibrational entropy
     S(rot)  - rotational entropy
     S(trans)- translational entropy
The entropies will be listed as mutliplied by the temperature to get
units of energy

Electronic entropy                ...      0.00000000 Eh      0.00 kcal/mol
Vibrational entropy               ...      0.00814953 Eh      5.11 kcal/mol
Rotational entropy                ...      0.01204656 Eh      7.56 kcal/mol
Translational entropy             ...      0.01881568 Eh     11.81 kcal/mol
-----------------------------------------------------------------------
Final entropy term                ...      0.03901178 Eh     24.48 kcal/mol

CAUTION: The rotational entropy is not quite correctly treated here
         because it includes a symmetry number that is not yet correctly
         implemented in ORCA!
For a nonlinear molecule the correct rotational entropy is:
    S(rot) = R*(ln(qrot/sn)+1.5)
    R    = 8.31441 J/mol/K = 1.987191683e-3 kcal/mol/K
    qrot = 232664.4595410
    sn is the rotational symmetry number. We have assumed 3 here
       if it is different for your molecule then you should correct
       the printed rotational entropy by manually evaluating the equation
       as given above

For convenience we print out the resulting values for sn=1 - 12:
 sn= 1  qrot/sn=  232664.4595 T*S(rot)=     8.21 kcal/mol T*S(tot)=    25.13 kcal/mol
 sn= 2  qrot/sn=  116332.2298 T*S(rot)=     7.80 kcal/mol T*S(tot)=    24.72 kcal/mol
 sn= 3  qrot/sn=   77554.8198 T*S(rot)=     7.56 kcal/mol T*S(tot)=    24.48 kcal/mol
 sn= 4  qrot/sn=   58166.1149 T*S(rot)=     7.39 kcal/mol T*S(tot)=    24.31 kcal/mol
 sn= 5  qrot/sn=   46532.8919 T*S(rot)=     7.26 kcal/mol T*S(tot)=    24.18 kcal/mol
 sn= 6  qrot/sn=   38777.4099 T*S(rot)=     7.15 kcal/mol T*S(tot)=    24.07 kcal/mol
 sn= 7  qrot/sn=   33237.7799 T*S(rot)=     7.06 kcal/mol T*S(tot)=    23.98 kcal/mol
 sn= 8  qrot/sn=   29083.0574 T*S(rot)=     6.98 kcal/mol T*S(tot)=    23.90 kcal/mol
 sn= 9  qrot/sn=   25851.6066 T*S(rot)=     6.91 kcal/mol T*S(tot)=    23.83 kcal/mol
 sn=10  qrot/sn=   23266.4460 T*S(rot)=     6.85 kcal/mol T*S(tot)=    23.77 kcal/mol
 sn=11  qrot/sn=   21151.3145 T*S(rot)=     6.79 kcal/mol T*S(tot)=    23.71 kcal/mol
 sn=12  qrot/sn=   19388.7050 T*S(rot)=     6.74 kcal/mol T*S(tot)=    23.66 kcal/mol

-------------------
GIBBS FREE ENTHALPY
-------------------

The Gibbs free enthalpy is G = H - T*S

Total enthalpy                    ...   -288.66080732 Eh
Total entropy correction          ...     -0.03901178 Eh    -24.48 kcal/mol
-----------------------------------------------------------------------
Final Gibbs free enthalpy         ...   -288.69981910 Eh

For completeness - the Gibbs free enthalpy minus the electronic energy
G-E(el)                           ...      0.12205576 Eh     76.59 kcal/mol

                             ****ORCA TERMINATED NORMALLY****
TOTAL RUN TIME: 0 days 0 hours 33 minutes 44 seconds 949 msec
