                         Program Version 3.0.3 - RELEASE   -
|  1> ! NORI PBE0 def2-TZVP UseSym TightOPT Freq TightSCF Grid3 FinalGrid5 XYZFile
|  2> % pal
|  3>     nprocs 8
|  4> end
|  5> %method
|  6>     SymThresh 5.0e-2
|  7> end
|  8> % geom
|  9>     MaxIter 10
| 10> end
| 11> % maxcore 2000
| 12> % output
| 13>     printlevel mini
| 14>     print[ P_Basis ] 0
| 15>     print[ P_SCFInfo ] 1
| 16>     print[ P_SCFIterInfo ] 1
| 17>     print[ P_OrbEn ] 0
| 18>     print[ P_Cartesian ] 0
| 19> end
| 20> % elprop
| 21>     Dipole false
| 22> end
| 23> *xyz 1 1
| 24>  C        4.4499644677     1.1541421517    -1.1472442737
| 25>  C        3.5813289884     0.3077916334    -0.2722701251
| 26>  C        2.6353376320    -0.4970735825    -0.7414723451
| 27>  C        3.8837996778     0.4100357620     1.1893120832
| 28>  C        3.6243221640     1.7646413954     1.8852654277
| 29>  N        3.0596803015     1.0212558033     3.0809489551
| 30>  C        2.9416283339    -0.2240331158     2.2208234624
| 31>  H        4.1693598055     1.0558611253    -2.1952531856
| 32>  H        5.5022656435     0.8679893617    -1.0481020291
| 33>  H        4.3834970059     2.2152641036    -0.8810247490
| 34>  H        2.4437787097    -0.5689722253    -1.8053731336
| 35>  H        2.0272787557    -1.1304777748    -0.1057097337
| 36>  H        4.9172665419     0.0970956450     1.3752334136
| 37>  H        2.8210212785     2.3369186787     1.4227912994
| 38>  H        4.4591253670     2.4112501410     2.1460325545
| 39>  H        2.1983014700     1.3859052760     3.4844994973
| 40>  H        3.7417722801     0.9142882905     3.8304399930
| 41>  H        3.2437969459    -1.1292853608     2.7415521087
| 42>  H        1.9117146311    -0.3032073086     1.8776007800
| 43> *
| 44>
| 45>                          ****END OF INPUT****
 Total Charge           Charge          ....    1
 Multiplicity           Mult            ....    1
 Number of Electrons    NEL             ....   54
FINAL SINGLE POINT ENERGY      -290.079000578502
FINAL SINGLE POINT ENERGY      -290.079002189287

CARTESIAN COORDINATES (ANGSTROEM)
---------------------------------
  C      1.166543    0.000397   -2.072625
  C     -0.076297    0.055572   -1.242234
  C     -1.232048    0.532916   -1.688493
  C      0.071415   -0.508850    0.135300
  C      1.012731    0.223241    1.117827
  N      0.001199   -0.002064    2.225467
  C     -1.044066   -0.324603    1.172876
  H      1.003251    0.438616   -3.055955
  H      1.498631   -1.033480   -2.211217
  H      1.995111    0.538894   -1.599650
  H     -1.321171    0.920225   -2.696211
  H     -2.138892    0.543266   -1.093897
  H      0.360873   -1.563791    0.071964
  H      1.083960    1.293088    0.926172
  H      1.990160   -0.194354    1.347906
  H     -0.192448    0.787073    2.840293
  H      0.232146   -0.807673    2.804989
  H     -1.672031   -1.169717    1.444327
  H     -1.647310    0.566400    1.008380

FINAL SINGLE POINT ENERGY      -290.079002976550
                    ***********************HURRAY********************
 Multiplicity           Mult            ....    1
 Number of Electrons    NEL             ....   54
 Basis Dimension        Dim             ....  289
FINAL SINGLE POINT ENERGY      -290.079003485205

VIBRATIONAL FREQUENCIES
-----------------------

   0:         0.00 cm**-1
   1:         0.00 cm**-1
   2:         0.00 cm**-1
   3:         0.00 cm**-1
   4:         0.00 cm**-1
   5:         0.00 cm**-1
   6:        70.85 cm**-1
   7:       117.99 cm**-1
   8:       179.48 cm**-1
   9:       193.28 cm**-1
  10:       291.19 cm**-1
  11:       371.03 cm**-1
  12:       474.57 cm**-1
  13:       542.38 cm**-1
  14:       619.17 cm**-1
  15:       727.93 cm**-1
  16:       787.78 cm**-1
  17:       829.58 cm**-1
  18:       891.06 cm**-1
  19:       907.73 cm**-1
  20:       926.86 cm**-1
  21:       961.38 cm**-1
  22:       968.83 cm**-1
  23:       990.58 cm**-1
  24:      1023.25 cm**-1
  25:      1049.65 cm**-1
  26:      1077.19 cm**-1
  27:      1094.05 cm**-1
  28:      1134.24 cm**-1
  29:      1244.17 cm**-1
  30:      1264.90 cm**-1
  31:      1283.07 cm**-1
  32:      1292.02 cm**-1
  33:      1322.01 cm**-1
  34:      1324.24 cm**-1
  35:      1334.46 cm**-1
  36:      1405.69 cm**-1
  37:      1414.93 cm**-1
  38:      1447.67 cm**-1
  39:      1472.76 cm**-1
  40:      1481.74 cm**-1
  41:      1484.71 cm**-1
  42:      1500.44 cm**-1
  43:      1649.28 cm**-1
  44:      1736.83 cm**-1
  45:      3039.07 cm**-1
  46:      3059.92 cm**-1
  47:      3093.96 cm**-1
  48:      3118.01 cm**-1
  49:      3124.82 cm**-1
  50:      3159.58 cm**-1
  51:      3165.66 cm**-1
  52:      3194.27 cm**-1
  53:      3197.90 cm**-1
  54:      3250.20 cm**-1
  55:      3471.86 cm**-1
  56:      3539.19 cm**-1

IR SPECTRUM
-----------

 Mode    freq (cm**-1)   T**2         TX         TY         TZ
-------------------------------------------------------------------
   6:        70.85    0.272339  ( -0.480106  -0.191302   0.072396)
   7:       117.99    3.586792  (  0.327045  -1.817125   0.421771)
   8:       179.48    0.445328  (  0.059027  -0.594029  -0.298284)
   9:       193.28    1.334472  ( -1.131892  -0.189936   0.131210)
  10:       291.19    3.648320  (  0.205409   1.118802  -1.534408)
  11:       371.03    4.964907  ( -0.253423   0.953994   1.997643)
  12:       474.57    1.646726  (  0.080578  -1.073841  -0.697924)
  13:       542.38    8.099539  ( -1.048334  -2.235873  -1.414711)
  14:       619.17    1.751708  ( -0.316970   1.281533  -0.094395)
  15:       727.93    0.784477  (  0.581306  -0.448365   0.495509)
  16:       787.78    3.576857  ( -0.046864   1.884816  -0.148762)
  17:       829.58    2.483899  ( -1.495718  -0.357069   0.345293)
  18:       891.06    7.394202  (  0.665523  -2.028736  -1.683897)
  19:       907.73    1.262938  (  1.092562   0.261685  -0.027713)
  20:       926.86    5.033613  ( -0.423389   0.046034  -2.202779)
  21:       961.38   41.731475  (  1.279732   5.774527   2.597807)
  22:       968.83    3.310251  ( -0.433660  -0.827740   1.561101)
  23:       990.58    2.932830  (  1.531152   0.021059   0.766786)
  24:      1023.25    1.565894  ( -0.124430   0.935061  -0.822236)
  25:      1049.65    0.889413  ( -0.094717  -0.383205   0.856502)
  26:      1077.19    0.484985  ( -0.064559  -0.218674   0.658027)
  27:      1094.05    0.632007  (  0.000982  -0.703603   0.370067)
  28:      1134.24    1.329371  (  0.966901  -0.510368  -0.366057)
  29:      1244.17   29.940627  ( -5.290964  -1.387724  -0.143361)
  30:      1264.90    6.256606  (  1.747901   0.276837  -1.767713)
  31:      1283.07    7.645117  (  2.618368   0.888247  -0.016757)
  32:      1292.02    5.250702  (  1.494802  -1.172820   1.280922)
  33:      1322.01    0.278409  ( -0.353624  -0.055108   0.387714)
  34:      1324.24   35.721749  ( -5.652716  -1.938176   0.109661)
  35:      1334.46    5.275159  ( -1.792109   0.526654   1.336466)
  36:      1405.69    0.764472  (  0.104378   0.015493  -0.867950)
  37:      1414.93   11.860318  (  2.894910  -0.218964  -1.852531)
  38:      1447.67    0.527847  (  0.678991   0.192600  -0.172405)
  39:      1472.76   15.945938  (  1.727324   3.377500   1.246910)
  40:      1481.74   13.211053  (  3.620040   0.061088   0.320360)
  41:      1484.71   16.538049  (  2.067737  -2.025919   2.856250)
  42:      1500.44    5.884096  (  0.400597  -2.197726  -0.945314)
  43:      1649.28   59.648080  (  0.229105  -0.145617   7.718445)
  44:      1736.83   12.625783  (  3.338538  -0.986347   0.712087)
  45:      3039.07    9.512609  ( -3.004706   0.109255  -0.687323)
  46:      3059.92    4.945837  (  1.262075  -1.556782   0.964071)
  47:      3093.96    7.821588  (  0.794266   2.339088   1.311257)
  48:      3118.01    0.693881  ( -0.707548  -0.407041  -0.166055)
  49:      3124.82    0.574402  ( -0.461627   0.310861   0.514459)
  50:      3159.58    3.855854  (  0.448987  -0.667787   1.791180)
  51:      3165.66    3.309619  (  1.072358   0.187658  -1.457550)
  52:      3194.27    0.333369  ( -0.442280  -0.364172  -0.071660)
  53:      3197.90    0.175698  ( -0.250775   0.228344  -0.246311)
  54:      3250.20    3.265331  ( -1.252239  -0.016708   1.302670)
  55:      3471.86   77.035445  (  0.226925   0.211526   8.771500)
  56:      3539.19   87.322913  (  2.362828  -9.028079   0.483480)

--------------------------
THERMOCHEMISTRY AT 298.15K
--------------------------

Temperature         ... 298.15 K
Pressure            ... 1.00 atm
Total Mass          ... 98.17 AMU

Throughout the following assumptions are being made:
  (1) The electronic state is orbitally nondegenerate
  (2) There are no thermally accessible electronically excited states
  (3) Hindered rotations indicated by low frequency modes) are not
      treated as such but are treated as vibrations and this may
      case some error
  (4) All equations used are the standard statistical mechanics
      equations for an ideal gas
  (5) All vibrations are strinctly harmonic

------------
INNER ENERGY
------------

The inner energy is: U= E(el) + E(ZPE) + E(vib) + E(rot) + E(trans)
    E(el)   - is the total energy from the electronic structure calculation
              = E(kin-el) + E(nuc-el) + E(el-el) + E(nuc-nuc)
    E(ZPE)  - the the zero temperature vibrational energy from the frequency calculation
    E(vib)  - the the finite temperature correction to E(ZPE) due to population
              of excietd vibrational states
    E(rot)  - is the rotational thermal energy
    E(trans)- is the translational thermal energy

Summary of contributions to the inner energy U:
Electronic energy                ...   -290.07900349 Eh
Zero point energy                ...      0.17611006 Eh     110.51 kcal/mol
Thermal vibrational correction   ...      0.00481452 Eh       3.02 kcal/mol
Thermal rotational correction    ...      0.00141627 Eh       0.89 kcal/mol
Thermal translational correction ...      0.00141627 Eh       0.89 kcal/mol
-----------------------------------------------------------------------
Total thermal energy                   -289.89524636 Eh

Summary of corrections to the electronic energy:
(perhaps to be used in another calculation)
Total thermal correction                  0.00764706 Eh       4.80 kcal/mol
Non-thermal (ZPE) correction              0.17611006 Eh     110.51 kcal/mol
-----------------------------------------------------------------------
Total correction                          0.18375713 Eh     115.31 kcal/mol

--------
ENTHALPY
--------

The enthalpy is H = U + kB*T
                kB is Boltzmann's constant
Total free energy                 ...   -289.89524636 Eh
Thermal Enthalpy correction       ...      0.00094421 Eh       0.59 kcal/mol
-----------------------------------------------------------------------
Total Enthalpy                    ...   -289.89430215 Eh

-------
ENTROPY
-------

The entropy contributions are T*S = T*(S(el)+S(vib)+S(rot)+S(trans)
     S(el)   - electronic entropy
     S(vib)  - vibrational entropy
     S(rot)  - rotational entropy
     S(trans)- translational entropy
The entropies will be listed as mutliplied by the temperature to get
units of energy

Electronic entropy                ...      0.00000000 Eh      0.00 kcal/mol
Vibrational entropy               ...      0.00859434 Eh      5.39 kcal/mol
Rotational entropy                ...      0.01204931 Eh      7.56 kcal/mol
Translational entropy             ...      0.01884507 Eh     11.83 kcal/mol
-----------------------------------------------------------------------
Final entropy term                ...      0.03948872 Eh     24.78 kcal/mol

CAUTION: The rotational entropy is not quite correctly treated here
         because it includes a symmetry number that is not yet correctly
         implemented in ORCA!
For a nonlinear molecule the correct rotational entropy is:
    S(rot) = R*(ln(qrot/sn)+1.5)
    R    = 8.31441 J/mol/K = 1.987191683e-3 kcal/mol/K
    qrot = 233342.7851206
    sn is the rotational symmetry number. We have assumed 3 here
       if it is different for your molecule then you should correct
       the printed rotational entropy by manually evaluating the equation
       as given above

For convenience we print out the resulting values for sn=1 - 12:
 sn= 1  qrot/sn=  233342.7851 T*S(rot)=     8.21 kcal/mol T*S(tot)=    25.43 kcal/mol
 sn= 2  qrot/sn=  116671.3926 T*S(rot)=     7.80 kcal/mol T*S(tot)=    25.02 kcal/mol
 sn= 3  qrot/sn=   77780.9284 T*S(rot)=     7.56 kcal/mol T*S(tot)=    24.78 kcal/mol
 sn= 4  qrot/sn=   58335.6963 T*S(rot)=     7.39 kcal/mol T*S(tot)=    24.61 kcal/mol
 sn= 5  qrot/sn=   46668.5570 T*S(rot)=     7.26 kcal/mol T*S(tot)=    24.48 kcal/mol
 sn= 6  qrot/sn=   38890.4642 T*S(rot)=     7.15 kcal/mol T*S(tot)=    24.37 kcal/mol
 sn= 7  qrot/sn=   33334.6836 T*S(rot)=     7.06 kcal/mol T*S(tot)=    24.28 kcal/mol
 sn= 8  qrot/sn=   29167.8481 T*S(rot)=     6.98 kcal/mol T*S(tot)=    24.20 kcal/mol
 sn= 9  qrot/sn=   25926.9761 T*S(rot)=     6.91 kcal/mol T*S(tot)=    24.13 kcal/mol
 sn=10  qrot/sn=   23334.2785 T*S(rot)=     6.85 kcal/mol T*S(tot)=    24.07 kcal/mol
 sn=11  qrot/sn=   21212.9805 T*S(rot)=     6.79 kcal/mol T*S(tot)=    24.01 kcal/mol
 sn=12  qrot/sn=   19445.2321 T*S(rot)=     6.74 kcal/mol T*S(tot)=    23.96 kcal/mol

-------------------
GIBBS FREE ENTHALPY
-------------------

The Gibbs free enthalpy is G = H - T*S

Total enthalpy                    ...   -289.89430215 Eh
Total entropy correction          ...     -0.03948872 Eh    -24.78 kcal/mol
-----------------------------------------------------------------------
Final Gibbs free enthalpy         ...   -289.93379087 Eh

For completeness - the Gibbs free enthalpy minus the electronic energy
G-E(el)                           ...      0.14521261 Eh     91.12 kcal/mol

                             ****ORCA TERMINATED NORMALLY****
TOTAL RUN TIME: 0 days 0 hours 44 minutes 28 seconds 890 msec
