                         Program Version 3.0.3 - RELEASE   -
|  1> ! NORI PBE0 def2-TZVP UseSym TightOPT Freq TightSCF Grid3 FinalGrid5 XYZFile
|  2> % pal
|  3>     nprocs 8
|  4> end
|  5> %method
|  6>     SymThresh 5.0e-2
|  7> end
|  8> % geom
|  9>     MaxIter 10
| 10> end
| 11> % maxcore 2000
| 12> % output
| 13>     printlevel mini
| 14>     print[ P_Basis ] 0
| 15>     print[ P_SCFInfo ] 1
| 16>     print[ P_SCFIterInfo ] 1
| 17>     print[ P_OrbEn ] 0
| 18>     print[ P_Cartesian ] 0
| 19> end
| 20> % elprop
| 21>     Dipole false
| 22> end
| 23> *xyz 1 1
| 24>  C        0.9062982988     0.1019743116    -0.0517432599
| 25>  C        2.4298994002     0.0729410108    -0.0244788112
| 26>  C        2.9867700640     1.2610384715     0.7475866008
| 27>  C        2.8982376937    -1.2819228435     0.4902728824
| 28>  C        4.3940243187    -1.5490758494     0.7290469261
| 29>  N        4.0476395010    -2.2802317649     2.0134955775
| 30>  C        2.6649550635    -1.6539044891     1.9667629750
| 31>  H        0.4938383775    -0.7199747485    -0.6415916344
| 32>  H        0.5474610652     1.0348327561    -0.4884518957
| 33>  H        0.4877728142     0.0391627970     0.9584395060
| 34>  H        2.7887037199     0.1433208775    -1.0585905254
| 35>  H        2.6403659945     1.2798548461     1.7854110291
| 36>  H        2.6405554339     2.1889495704     0.2902628874
| 37>  H        4.0792287857     1.3029251143     0.7463933100
| 38>  H        2.4847030513    -2.0655817726    -0.1507963297
| 39>  H        4.9679124696    -0.6605574481     0.9859426386
| 40>  H        4.9468359444    -2.1694430477     0.0266289862
| 41>  H        4.6217375838    -2.0763136097     2.8305311606
| 42>  H        4.0186601913    -3.2912562051     1.8895941489
| 43>  H        1.8768851179    -2.3566933072     2.2273936037
| 44>  H        2.6515351109    -0.8007746694     2.6429802240
| 45> *
| 46>
| 47>                          ****END OF INPUT****
 Total Charge           Charge          ....    1
 Multiplicity           Mult            ....    1
 Number of Electrons    NEL             ....   56
FINAL SINGLE POINT ENERGY      -291.308662154496
FINAL SINGLE POINT ENERGY      -291.308665127049
FINAL SINGLE POINT ENERGY      -291.308667607237

CARTESIAN COORDINATES (ANGSTROEM)
---------------------------------
  C      1.102071    0.008696   -2.103847
  C     -0.162671    0.232233   -1.282108
  C     -1.116323   -0.947844   -1.409536
  C      0.221303    0.575146    0.151518
  C     -0.864803    0.764400    1.224551
  N     -0.002449    0.004212    2.215617
  C      0.828123   -0.514362    1.055525
  H      1.773642    0.869175   -2.056786
  H      0.853108   -0.160605   -3.152182
  H      1.652821   -0.871545   -1.756528
  H     -0.669667    1.120540   -1.678351
  H     -0.664452   -1.885100   -1.070937
  H     -1.379254   -1.092843   -2.458391
  H     -2.056008   -0.802565   -0.870961
  H      0.880507    1.447703    0.141195
  H     -1.770121    0.187259    1.046272
  H     -1.114096    1.767165    1.564091
  H     -0.468632   -0.690088    2.797635
  H      0.527788    0.625169    2.824853
  H      1.894889   -0.508057    1.266051
  H      0.492628   -1.522681    0.818529

FINAL SINGLE POINT ENERGY      -291.308668581103
                    ***********************HURRAY********************
 Multiplicity           Mult            ....    1
 Number of Electrons    NEL             ....   56
 Basis Dimension        Dim             ....  301
FINAL SINGLE POINT ENERGY      -291.308669398364

VIBRATIONAL FREQUENCIES
-----------------------

   0:         0.00 cm**-1
   1:         0.00 cm**-1
   2:         0.00 cm**-1
   3:         0.00 cm**-1
   4:         0.00 cm**-1
   5:         0.00 cm**-1
   6:        54.73 cm**-1
   7:       104.80 cm**-1
   8:       198.61 cm**-1
   9:       235.72 cm**-1
  10:       248.36 cm**-1
  11:       284.71 cm**-1
  12:       354.52 cm**-1
  13:       436.44 cm**-1
  14:       529.27 cm**-1
  15:       628.97 cm**-1
  16:       776.50 cm**-1
  17:       821.84 cm**-1
  18:       881.77 cm**-1
  19:       891.09 cm**-1
  20:       906.31 cm**-1
  21:       928.58 cm**-1
  22:       963.95 cm**-1
  23:       968.50 cm**-1
  24:       983.14 cm**-1
  25:      1041.19 cm**-1
  26:      1050.09 cm**-1
  27:      1089.26 cm**-1
  28:      1164.15 cm**-1
  29:      1174.28 cm**-1
  30:      1218.50 cm**-1
  31:      1247.44 cm**-1
  32:      1289.74 cm**-1
  33:      1293.03 cm**-1
  34:      1317.06 cm**-1
  35:      1320.22 cm**-1
  36:      1326.67 cm**-1
  37:      1347.83 cm**-1
  38:      1370.53 cm**-1
  39:      1399.80 cm**-1
  40:      1406.64 cm**-1
  41:      1428.20 cm**-1
  42:      1471.92 cm**-1
  43:      1479.24 cm**-1
  44:      1491.41 cm**-1
  45:      1495.72 cm**-1
  46:      1504.62 cm**-1
  47:      1506.35 cm**-1
  48:      1648.72 cm**-1
  49:      3038.42 cm**-1
  50:      3045.22 cm**-1
  51:      3050.22 cm**-1
  52:      3081.80 cm**-1
  53:      3114.77 cm**-1
  54:      3117.23 cm**-1
  55:      3123.03 cm**-1
  56:      3124.85 cm**-1
  57:      3137.39 cm**-1
  58:      3143.76 cm**-1
  59:      3193.86 cm**-1
  60:      3194.97 cm**-1
  61:      3471.21 cm**-1
  62:      3539.08 cm**-1

IR SPECTRUM
-----------

 Mode    freq (cm**-1)   T**2         TX         TY         TZ
-------------------------------------------------------------------
   6:        54.73    0.747029  (  0.722555  -0.225645  -0.417166)
   7:       104.80    4.697056  (  1.292322   1.615029   0.647025)
   8:       198.61    1.177829  ( -0.632087   0.232254   0.851089)
   9:       235.72    0.199956  (  0.114281  -0.127475  -0.413093)
  10:       248.36    0.040004  (  0.193924  -0.027395   0.040587)
  11:       284.71    3.501870  (  0.248708   0.301934   1.829986)
  12:       354.52    1.162337  (  0.016620   0.274582  -1.042432)
  13:       436.44    0.757523  (  0.036331   0.169290   0.852962)
  14:       529.27    2.670819  (  0.924385   0.315983   1.310147)
  15:       628.97    4.293206  (  0.781663   1.906573  -0.217227)
  16:       776.50    3.082189  (  1.303952   0.957872   0.681454)
  17:       821.84    3.350464  (  1.290372  -1.132133  -0.635357)
  18:       881.77    2.611997  ( -0.664971  -1.411540   0.421147)
  19:       891.09    6.608918  (  1.037681   1.038483  -2.110377)
  20:       906.31    1.285393  (  0.851147  -0.674087  -0.326417)
  21:       928.58    1.274041  (  1.001266   0.313203  -0.416428)
  22:       963.95    3.711394  (  0.404708  -0.533564   1.806354)
  23:       968.50    0.925671  (  0.731621   0.052244  -0.622633)
  24:       983.14    1.273262  (  0.666121  -0.577306   0.704460)
  25:      1041.19    0.597761  ( -0.083702  -0.450405  -0.622809)
  26:      1050.09    4.315332  ( -0.021056   0.263064   2.060506)
  27:      1089.26    1.922362  (  0.032526  -0.607949  -1.245673)
  28:      1164.15    3.493547  (  0.469613  -0.098957  -1.806438)
  29:      1174.28    1.328637  ( -0.260314  -0.644156   0.919749)
  30:      1218.50    1.451901  ( -0.242062   0.805545   0.862789)
  31:      1247.44   33.069105  (  4.690630  -3.325373  -0.094797)
  32:      1289.74    5.338003  (  0.593027   1.791591   1.332863)
  33:      1293.03   14.894416  ( -3.172491   2.167488   0.362920)
  34:      1317.06    5.490910  (  1.863327  -0.892995  -1.105207)
  35:      1320.22    0.286801  (  0.309490  -0.417376  -0.129671)
  36:      1326.67   24.082335  ( -3.758036   3.098461  -0.599196)
  37:      1347.83    2.360453  (  0.906262  -0.436888  -1.161151)
  38:      1370.53    4.997307  ( -0.699410   0.861103   1.940782)
  39:      1399.80    0.433776  ( -0.372416  -0.382496   0.385720)
  40:      1406.64    9.827276  ( -2.918391  -1.074841   0.393686)
  41:      1428.20    9.482506  (  0.011101   2.693341   1.492749)
  42:      1471.92    0.323905  (  0.046675   0.323239   0.466093)
  43:      1479.24    5.980263  ( -1.716844   1.740465   0.059068)
  44:      1491.41    6.533539  (  1.979307   1.106312  -1.179813)
  45:      1495.72   12.223995  ( -0.497526   1.042346  -3.299996)
  46:      1504.62   13.019541  ( -0.633871   3.546144   0.206434)
  47:      1506.35   16.890167  ( -3.609848   1.770718  -0.850718)
  48:      1648.72   61.757400  (  0.441342  -0.378809   7.837035)
  49:      3038.42    0.404975  (  0.246353   0.573903   0.122147)
  50:      3045.22   14.991054  ( -3.670415  -0.227056   1.211428)
  51:      3050.22   15.103261  ( -0.421773   3.404453  -1.826217)
  52:      3081.80    5.148237  ( -1.290283  -1.711149  -0.745236)
  53:      3114.77   11.603191  ( -3.118525  -0.363581   1.321288)
  54:      3117.23   19.334148  ( -1.328768   4.094536  -0.896269)
  55:      3123.03   12.387900  ( -2.427203   2.543897   0.158657)
  56:      3124.85    1.706092  (  0.851550   0.533406  -0.834526)
  57:      3137.39    6.474980  ( -0.852532  -0.745122   2.278807)
  58:      3143.76   10.520306  ( -1.450681  -0.891468  -2.760636)
  59:      3193.86    0.119071  (  0.172884  -0.267649   0.132463)
  60:      3194.97    0.167522  (  0.137219   0.039356  -0.383594)
  61:      3471.21   68.275100  (  0.099044  -0.787449   8.224671)
  62:      3539.08   84.165251  ( -5.553727  -7.204865  -1.187974)

--------------------------
THERMOCHEMISTRY AT 298.15K
--------------------------

Temperature         ... 298.15 K
Pressure            ... 1.00 atm
Total Mass          ... 100.18 AMU

Throughout the following assumptions are being made:
  (1) The electronic state is orbitally nondegenerate
  (2) There are no thermally accessible electronically excited states
  (3) Hindered rotations indicated by low frequency modes) are not
      treated as such but are treated as vibrations and this may
      case some error
  (4) All equations used are the standard statistical mechanics
      equations for an ideal gas
  (5) All vibrations are strinctly harmonic

------------
INNER ENERGY
------------

The inner energy is: U= E(el) + E(ZPE) + E(vib) + E(rot) + E(trans)
    E(el)   - is the total energy from the electronic structure calculation
              = E(kin-el) + E(nuc-el) + E(el-el) + E(nuc-nuc)
    E(ZPE)  - the the zero temperature vibrational energy from the frequency calculation
    E(vib)  - the the finite temperature correction to E(ZPE) due to population
              of excietd vibrational states
    E(rot)  - is the rotational thermal energy
    E(trans)- is the translational thermal energy

Summary of contributions to the inner energy U:
Electronic energy                ...   -291.30866940 Eh
Zero point energy                ...      0.19969554 Eh     125.31 kcal/mol
Thermal vibrational correction   ...      0.00530590 Eh       3.33 kcal/mol
Thermal rotational correction    ...      0.00141627 Eh       0.89 kcal/mol
Thermal translational correction ...      0.00141627 Eh       0.89 kcal/mol
-----------------------------------------------------------------------
Total thermal energy                   -291.10083542 Eh

Summary of corrections to the electronic energy:
(perhaps to be used in another calculation)
Total thermal correction                  0.00813844 Eh       5.11 kcal/mol
Non-thermal (ZPE) correction              0.19969554 Eh     125.31 kcal/mol
-----------------------------------------------------------------------
Total correction                          0.20783398 Eh     130.42 kcal/mol

--------
ENTHALPY
--------

The enthalpy is H = U + kB*T
                kB is Boltzmann's constant
Total free energy                 ...   -291.10083542 Eh
Thermal Enthalpy correction       ...      0.00094421 Eh       0.59 kcal/mol
-----------------------------------------------------------------------
Total Enthalpy                    ...   -291.09989121 Eh

-------
ENTROPY
-------

The entropy contributions are T*S = T*(S(el)+S(vib)+S(rot)+S(trans)
     S(el)   - electronic entropy
     S(vib)  - vibrational entropy
     S(rot)  - rotational entropy
     S(trans)- translational entropy
The entropies will be listed as mutliplied by the temperature to get
units of energy

Electronic entropy                ...      0.00000000 Eh      0.00 kcal/mol
Vibrational entropy               ...      0.00959075 Eh      6.02 kcal/mol
Rotational entropy                ...      0.01209564 Eh      7.59 kcal/mol
Translational entropy             ...      0.01887386 Eh     11.84 kcal/mol
-----------------------------------------------------------------------
Final entropy term                ...      0.04056025 Eh     25.45 kcal/mol

CAUTION: The rotational entropy is not quite correctly treated here
         because it includes a symmetry number that is not yet correctly
         implemented in ORCA!
For a nonlinear molecule the correct rotational entropy is:
    S(rot) = R*(ln(qrot/sn)+1.5)
    R    = 8.31441 J/mol/K = 1.987191683e-3 kcal/mol/K
    qrot = 245079.2777999
    sn is the rotational symmetry number. We have assumed 3 here
       if it is different for your molecule then you should correct
       the printed rotational entropy by manually evaluating the equation
       as given above

For convenience we print out the resulting values for sn=1 - 12:
 sn= 1  qrot/sn=  245079.2778 T*S(rot)=     8.24 kcal/mol T*S(tot)=    26.10 kcal/mol
 sn= 2  qrot/sn=  122539.6389 T*S(rot)=     7.83 kcal/mol T*S(tot)=    25.69 kcal/mol
 sn= 3  qrot/sn=   81693.0926 T*S(rot)=     7.59 kcal/mol T*S(tot)=    25.45 kcal/mol
 sn= 4  qrot/sn=   61269.8194 T*S(rot)=     7.42 kcal/mol T*S(tot)=    25.28 kcal/mol
 sn= 5  qrot/sn=   49015.8556 T*S(rot)=     7.29 kcal/mol T*S(tot)=    25.15 kcal/mol
 sn= 6  qrot/sn=   40846.5463 T*S(rot)=     7.18 kcal/mol T*S(tot)=    25.04 kcal/mol
 sn= 7  qrot/sn=   35011.3254 T*S(rot)=     7.09 kcal/mol T*S(tot)=    24.95 kcal/mol
 sn= 8  qrot/sn=   30634.9097 T*S(rot)=     7.01 kcal/mol T*S(tot)=    24.87 kcal/mol
 sn= 9  qrot/sn=   27231.0309 T*S(rot)=     6.94 kcal/mol T*S(tot)=    24.80 kcal/mol
 sn=10  qrot/sn=   24507.9278 T*S(rot)=     6.88 kcal/mol T*S(tot)=    24.74 kcal/mol
 sn=11  qrot/sn=   22279.9343 T*S(rot)=     6.82 kcal/mol T*S(tot)=    24.68 kcal/mol
 sn=12  qrot/sn=   20423.2731 T*S(rot)=     6.77 kcal/mol T*S(tot)=    24.63 kcal/mol

-------------------
GIBBS FREE ENTHALPY
-------------------

The Gibbs free enthalpy is G = H - T*S

Total enthalpy                    ...   -291.09989121 Eh
Total entropy correction          ...     -0.04056025 Eh    -25.45 kcal/mol
-----------------------------------------------------------------------
Final Gibbs free enthalpy         ...   -291.14045146 Eh

For completeness - the Gibbs free enthalpy minus the electronic energy
G-E(el)                           ...      0.16821794 Eh    105.56 kcal/mol

                             ****ORCA TERMINATED NORMALLY****
TOTAL RUN TIME: 0 days 0 hours 53 minutes 36 seconds 121 msec
