                         Program Version 3.0.3 - RELEASE   -
|  1> ! NORI PBE0 def2-TZVP UseSym TightOPT Freq TightSCF Grid3 FinalGrid5 XYZFile
|  2> % pal
|  3>     nprocs 8
|  4> end
|  5> %method
|  6>     SymThresh 5.0e-2
|  7> end
|  8> % geom
|  9>     MaxIter 10
| 10> end
| 11> % maxcore 2000
| 12> % output
| 13>     printlevel mini
| 14>     print[ P_Basis ] 0
| 15>     print[ P_SCFInfo ] 1
| 16>     print[ P_SCFIterInfo ] 1
| 17>     print[ P_OrbEn ] 0
| 18>     print[ P_Cartesian ] 0
| 19> end
| 20> % elprop
| 21>     Dipole false
| 22> end
| 23> *xyz 1 1
| 24>  C        0.9596170019    -0.1140769402     0.0170199443
| 25>  C        2.4064734444    -0.1049498632     0.0180794159
| 26>  C        3.6091532796    -0.0940401360     0.0079477589
| 27>  C        5.0478906196    -0.0837186847    -0.0150042328
| 28>  C        5.7821566789     0.9717222689     0.8432792270
| 29>  N        6.7533300966    -0.0973064403     1.3115427599
| 30>  C        5.7961372288    -1.1608424111     0.8035747723
| 31>  H        0.5675750983     0.7501934360     0.5577786212
| 32>  H        0.5786069499    -1.0180571326     0.4973704696
| 33>  H        0.5762886124    -0.0817992056    -1.0047695480
| 34>  H        5.4213698251    -0.0621803602    -1.0435260146
| 35>  H        5.1958655800     1.3117008964     1.6941199748
| 36>  H        6.2734891891     1.8068758602     0.3495456773
| 37>  H        7.6325988988    -0.0820831371     0.7970175898
| 38>  H        6.9694759145    -0.1143682332     2.3069539351
| 39>  H        6.2985815128    -1.9701339463     0.2788877480
| 40>  H        5.2142500693    -1.5395259711     1.6408919012
| 41> *
| 42>
| 43>                          ****END OF INPUT****
 Total Charge           Charge          ....    1
 Multiplicity           Mult            ....    1
 Number of Electrons    NEL             ....   52
FINAL SINGLE POINT ENERGY      -288.833331470998

CARTESIAN COORDINATES (ANGSTROEM)
---------------------------------
  C      0.746049   -0.000034   -3.388978
  C      0.256344    0.001265   -2.027505
  C     -0.160835   -0.000693   -0.899422
  C     -0.669920   -0.000037    0.446483
  C     -0.133184   -1.066677    1.428284
  N     -0.000392   -0.000025    2.500452
  C     -0.131071    1.066278    1.427602
  H      1.369232   -0.877603   -3.574244
  H      1.345948    0.891450   -3.584499
  H     -0.085960   -0.014901   -4.096212
  H     -1.764380    0.001055    0.449267
  H      0.859046   -1.426808    1.165136
  H     -0.781125   -1.888620    1.723178
  H     -0.783345    0.001024    3.152717
  H      0.862651   -0.000754    3.041689
  H     -0.777657    1.889423    1.722061
  H      0.861876    1.424030    1.163992

FINAL SINGLE POINT ENERGY      -288.833331957169
                    ***********************HURRAY********************
 Multiplicity           Mult            ....    1
 Number of Electrons    NEL             ....   52
 Basis Dimension        Dim             ....  277
FINAL SINGLE POINT ENERGY      -288.833332337753

VIBRATIONAL FREQUENCIES
-----------------------

   0:         0.00 cm**-1
   1:         0.00 cm**-1
   2:         0.00 cm**-1
   3:         0.00 cm**-1
   4:         0.00 cm**-1
   5:         0.00 cm**-1
   6:        13.01 cm**-1
   7:        86.41 cm**-1
   8:       107.83 cm**-1
   9:       170.63 cm**-1
  10:       319.42 cm**-1
  11:       336.51 cm**-1
  12:       479.66 cm**-1
  13:       501.14 cm**-1
  14:       591.18 cm**-1
  15:       767.68 cm**-1
  16:       827.25 cm**-1
  17:       885.02 cm**-1
  18:       901.56 cm**-1
  19:       909.46 cm**-1
  20:       984.17 cm**-1
  21:       991.97 cm**-1
  22:      1040.94 cm**-1
  23:      1041.00 cm**-1
  24:      1069.64 cm**-1
  25:      1121.91 cm**-1
  26:      1218.49 cm**-1
  27:      1243.82 cm**-1
  28:      1271.09 cm**-1
  29:      1284.06 cm**-1
  30:      1315.68 cm**-1
  31:      1319.66 cm**-1
  32:      1325.48 cm**-1
  33:      1398.88 cm**-1
  34:      1412.21 cm**-1
  35:      1458.68 cm**-1
  36:      1460.26 cm**-1
  37:      1479.87 cm**-1
  38:      1498.60 cm**-1
  39:      1649.81 cm**-1
  40:      2375.23 cm**-1
  41:      3059.14 cm**-1
  42:      3072.45 cm**-1
  43:      3126.77 cm**-1
  44:      3129.52 cm**-1
  45:      3135.09 cm**-1
  46:      3135.28 cm**-1
  47:      3204.36 cm**-1
  48:      3205.16 cm**-1
  49:      3473.32 cm**-1
  50:      3539.89 cm**-1

IR SPECTRUM
-----------

 Mode    freq (cm**-1)   T**2         TX         TY         TZ
-------------------------------------------------------------------
   7:        86.41   10.082324  (  3.165694  -0.000984  -0.246378)
   8:       107.83    8.585757  (  0.000804   2.930143  -0.004286)
   9:       170.63    3.007686  (  1.730170  -0.000824   0.119152)
  10:       319.42    4.702162  (  0.016426   2.168384   0.000845)
  11:       336.51    5.572869  ( -1.639126   0.015234  -1.698795)
  12:       479.66    6.886600  (  1.349119  -0.020979   2.250786)
  13:       501.14    3.459417  (  0.016481   1.859753   0.021516)
  14:       591.18    0.310815  ( -0.553811  -0.001370   0.064078)
  15:       767.68    6.278852  ( -2.314251   0.002369   0.960774)
  16:       827.25    2.244488  (  0.001895   1.498160   0.000942)
  17:       885.02    5.197382  ( -2.126506   0.003355  -0.821793)
  18:       901.56    2.189215  (  0.007024  -1.479513   0.014375)
  19:       909.46    4.806116  (  1.381657   0.014050   1.702041)
  20:       984.17    2.947702  (  0.002639   1.716837  -0.012868)
  21:       991.97    8.391539  ( -0.052679  -0.001311   2.896336)
  22:      1040.94    1.637717  (  1.084083  -0.306439   0.607105)
  23:      1041.00    1.711013  (  0.257574   1.272272   0.161223)
  24:      1069.64    0.369826  ( -0.003998  -0.608093   0.005747)
  25:      1121.91    0.145288  ( -0.158041  -0.000378  -0.346859)
  26:      1218.49    0.002277  ( -0.042687  -0.000156   0.021335)
  27:      1243.82   31.662631  ( -0.005181  -5.626953  -0.001166)
  28:      1271.09    6.060908  (  0.003085   2.461889  -0.001576)
  29:      1284.06    3.545109  (  1.708128  -0.007000  -0.792059)
  30:      1315.68    0.459090  (  0.004389  -0.677538  -0.003600)
  31:      1319.66   42.916664  (  0.005046   6.551079   0.000435)
  32:      1325.48    3.273575  (  1.333889   0.006672  -1.222404)
  33:      1398.88   11.397062  ( -1.108471   0.003419   3.188784)
  34:      1412.21    8.042268  (  0.294297  -0.002618  -2.820576)
  35:      1458.68   12.347128  (  3.391503   0.115183   0.911906)
  36:      1460.26   12.698919  (  0.106714  -3.561554   0.053501)
  37:      1479.87   14.161472  (  0.004390   3.763171   0.000171)
  38:      1498.60    6.471294  (  2.230320  -0.007259   1.223484)
  39:      1649.81   62.895079  ( -0.423407  -0.001917  -7.919331)
  40:      2375.23   95.094923  ( -2.579035  -0.005826   9.404439)
  41:      3059.14    0.262992  ( -0.283945  -0.001176   0.427043)
  42:      3072.45    6.636040  (  0.977102  -0.000772  -2.383550)
  43:      3126.77    0.296215  ( -0.000499   0.544256  -0.000551)
  44:      3129.52    0.226654  (  0.093158  -0.000988   0.466878)
  45:      3135.09    0.056147  ( -0.057837  -0.224401  -0.049457)
  46:      3135.28    0.035773  ( -0.115403   0.123301  -0.085159)
  47:      3204.36    0.526149  ( -0.037509   0.724342  -0.008413)
  48:      3205.16    0.696249  ( -0.816550  -0.034141  -0.168314)
  49:      3473.32   92.516246  (  0.346745   0.001029   9.612284)
  50:      3539.89   91.395672  (  9.543554  -0.008678  -0.562285)

--------------------------
THERMOCHEMISTRY AT 298.15K
--------------------------

Temperature         ... 298.15 K
Pressure            ... 1.00 atm
Total Mass          ... 96.15 AMU

Throughout the following assumptions are being made:
  (1) The electronic state is orbitally nondegenerate
  (2) There are no thermally accessible electronically excited states
  (3) Hindered rotations indicated by low frequency modes) are not
      treated as such but are treated as vibrations and this may
      case some error
  (4) All equations used are the standard statistical mechanics
      equations for an ideal gas
  (5) All vibrations are strinctly harmonic

------------
INNER ENERGY
------------

The inner energy is: U= E(el) + E(ZPE) + E(vib) + E(rot) + E(trans)
    E(el)   - is the total energy from the electronic structure calculation
              = E(kin-el) + E(nuc-el) + E(el-el) + E(nuc-nuc)
    E(ZPE)  - the the zero temperature vibrational energy from the frequency calculation
    E(vib)  - the the finite temperature correction to E(ZPE) due to population
              of excietd vibrational states
    E(rot)  - is the rotational thermal energy
    E(trans)- is the translational thermal energy

Summary of contributions to the inner energy U:
Electronic energy                ...   -288.83333234 Eh
Zero point energy                ...      0.15246911 Eh      95.68 kcal/mol
Thermal vibrational correction   ...      0.00412707 Eh       2.59 kcal/mol
Thermal rotational correction    ...      0.00141627 Eh       0.89 kcal/mol
Thermal translational correction ...      0.00141627 Eh       0.89 kcal/mol
-----------------------------------------------------------------------
Total thermal energy                   -288.67390361 Eh

Summary of corrections to the electronic energy:
(perhaps to be used in another calculation)
Total thermal correction                  0.00695961 Eh       4.37 kcal/mol
Non-thermal (ZPE) correction              0.15246911 Eh      95.68 kcal/mol
-----------------------------------------------------------------------
Total correction                          0.15942873 Eh     100.04 kcal/mol

--------
ENTHALPY
--------

The enthalpy is H = U + kB*T
                kB is Boltzmann's constant
Total free energy                 ...   -288.67390361 Eh
Thermal Enthalpy correction       ...      0.00094421 Eh       0.59 kcal/mol
-----------------------------------------------------------------------
Total Enthalpy                    ...   -288.67295940 Eh

-------
ENTROPY
-------

The entropy contributions are T*S = T*(S(el)+S(vib)+S(rot)+S(trans)
     S(el)   - electronic entropy
     S(vib)  - vibrational entropy
     S(rot)  - rotational entropy
     S(trans)- translational entropy
The entropies will be listed as mutliplied by the temperature to get
units of energy

Electronic entropy                ...      0.00000000 Eh      0.00 kcal/mol
Vibrational entropy               ...      0.00735357 Eh      4.61 kcal/mol
Rotational entropy                ...      0.01213728 Eh      7.62 kcal/mol
Translational entropy             ...      0.01881568 Eh     11.81 kcal/mol
-----------------------------------------------------------------------
Final entropy term                ...      0.03830653 Eh     24.04 kcal/mol

CAUTION: The rotational entropy is not quite correctly treated here
         because it includes a symmetry number that is not yet correctly
         implemented in ORCA!
For a nonlinear molecule the correct rotational entropy is:
    S(rot) = R*(ln(qrot/sn)+1.5)
    R    = 8.31441 J/mol/K = 1.987191683e-3 kcal/mol/K
    qrot = 256128.6873319
    sn is the rotational symmetry number. We have assumed 3 here
       if it is different for your molecule then you should correct
       the printed rotational entropy by manually evaluating the equation
       as given above

For convenience we print out the resulting values for sn=1 - 12:
 sn= 1  qrot/sn=  256128.6873 T*S(rot)=     8.27 kcal/mol T*S(tot)=    24.69 kcal/mol
 sn= 2  qrot/sn=  128064.3437 T*S(rot)=     7.86 kcal/mol T*S(tot)=    24.28 kcal/mol
 sn= 3  qrot/sn=   85376.2291 T*S(rot)=     7.62 kcal/mol T*S(tot)=    24.04 kcal/mol
 sn= 4  qrot/sn=   64032.1718 T*S(rot)=     7.45 kcal/mol T*S(tot)=    23.87 kcal/mol
 sn= 5  qrot/sn=   51225.7375 T*S(rot)=     7.31 kcal/mol T*S(tot)=    23.74 kcal/mol
 sn= 6  qrot/sn=   42688.1146 T*S(rot)=     7.21 kcal/mol T*S(tot)=    23.63 kcal/mol
 sn= 7  qrot/sn=   36589.8125 T*S(rot)=     7.11 kcal/mol T*S(tot)=    23.54 kcal/mol
 sn= 8  qrot/sn=   32016.0859 T*S(rot)=     7.04 kcal/mol T*S(tot)=    23.46 kcal/mol
 sn= 9  qrot/sn=   28458.7430 T*S(rot)=     6.97 kcal/mol T*S(tot)=    23.39 kcal/mol
 sn=10  qrot/sn=   25612.8687 T*S(rot)=     6.90 kcal/mol T*S(tot)=    23.32 kcal/mol
 sn=11  qrot/sn=   23284.4261 T*S(rot)=     6.85 kcal/mol T*S(tot)=    23.27 kcal/mol
 sn=12  qrot/sn=   21344.0573 T*S(rot)=     6.79 kcal/mol T*S(tot)=    23.22 kcal/mol

-------------------
GIBBS FREE ENTHALPY
-------------------

The Gibbs free enthalpy is G = H - T*S

Total enthalpy                    ...   -288.67295940 Eh
Total entropy correction          ...     -0.03830653 Eh    -24.04 kcal/mol
-----------------------------------------------------------------------
Final Gibbs free enthalpy         ...   -288.71126593 Eh

For completeness - the Gibbs free enthalpy minus the electronic energy
G-E(el)                           ...      0.12206640 Eh     76.60 kcal/mol

                             ****ORCA TERMINATED NORMALLY****
TOTAL RUN TIME: 0 days 0 hours 32 minutes 8 seconds 395 msec
