                         Program Version 3.0.3 - RELEASE   -
|  1> ! NORI PBE0 def2-TZVP UseSym TightOPT Freq TightSCF Grid3 FinalGrid5 XYZFile
|  2> % pal
|  3>     nprocs 8
|  4> end
|  5> %method
|  6>     SymThresh 5.0e-2
|  7> end
|  8> % geom
|  9>     MaxIter 10
| 10> end
| 11> % maxcore 2000
| 12> % output
| 13>     printlevel mini
| 14>     print[ P_Basis ] 0
| 15>     print[ P_SCFInfo ] 1
| 16>     print[ P_SCFIterInfo ] 1
| 17>     print[ P_OrbEn ] 0
| 18>     print[ P_Cartesian ] 0
| 19> end
| 20> % elprop
| 21>     Dipole false
| 22> end
| 23> *xyz 1 1
| 24>  C        3.4965722307    -0.7166648213     1.6885452194
| 25>  C        3.0132312416    -0.3290049272     0.3006718604
| 26>  C        3.4093891032     1.0822568376    -0.1338664167
| 27>  C        4.8959182801     1.2366818425    -0.2432087816
| 28>  N        5.4232445593     2.6346514195    -0.3763597504
| 29>  C        5.7367697847     1.7993587114     0.8272756156
| 30>  C        7.1652043364     1.4181583742     1.0316262848
| 31>  H        3.1265270936    -1.7062027863     1.9584872128
| 32>  H        3.1369554697    -0.0167377187     2.4476173842
| 33>  H        4.5877983312    -0.7582504985     1.7530441102
| 34>  H        3.3756404414    -1.0482197858    -0.4410744701
| 35>  H        1.9227934517    -0.3850014538     0.2621186933
| 36>  H        2.9634345277     1.3032485612    -1.1086823110
| 37>  H        3.0158360518     1.8150444386     0.5809893375
| 38>  H        5.3987179738     0.5689941678    -0.9379601590
| 39>  H        4.7604868490     3.3964050612    -0.2819910396
| 40>  H        6.1722258847     2.8120718397    -1.0364410541
| 41>  H        5.2043004266     2.1704008108     1.6976715826
| 42>  H        7.6371519046     1.0910522545     0.1026256083
| 43>  H        7.2075464099     0.5861962866     1.7376973007
| 44>  H        7.7384256483     2.2446013860     1.4550637728
| 45> *
| 46>
| 47>                          ****END OF INPUT****
 Total Charge           Charge          ....    1
 Multiplicity           Mult            ....    1
 Number of Electrons    NEL             ....   56
FINAL SINGLE POINT ENERGY      -291.311849592306
FINAL SINGLE POINT ENERGY      -291.311850687582

CARTESIAN COORDINATES (ANGSTROEM)
---------------------------------
  C      0.532594   -0.001241   -2.424407
  C      0.550700   -1.324207   -1.677900
  C      0.812896   -1.197758   -0.177394
  C     -0.276438   -0.440380    0.519864
  N      0.001407    0.000694    1.926120
  C     -0.199736    0.998267    0.826365
  C     -1.400692    1.878917    0.924582
  H      0.407634   -0.168463   -3.494871
  H      1.468386    0.547773   -2.288077
  H     -0.290846    0.644761   -2.107141
  H     -0.391063   -1.860213   -1.834306
  H      1.331713   -1.967912   -2.089016
  H      0.882954   -2.195290    0.266865
  H      1.773355   -0.695189   -0.009778
  H     -1.277923   -0.854173    0.438058
  H      0.938154   -0.145722    2.285892
  H     -0.731848   -0.092046    2.620141
  H      0.738448    1.483487    0.575857
  H     -2.293621    1.319996    1.213772
  H     -1.589120    2.323954   -0.054225
  H     -1.238566    2.691092    1.634773

FINAL SINGLE POINT ENERGY      -291.311851250766
                    ***********************HURRAY********************
 Multiplicity           Mult            ....    1
 Number of Electrons    NEL             ....   56
 Basis Dimension        Dim             ....  301
FINAL SINGLE POINT ENERGY      -291.311851463590

VIBRATIONAL FREQUENCIES
-----------------------

   0:         0.00 cm**-1
   1:         0.00 cm**-1
   2:         0.00 cm**-1
   3:         0.00 cm**-1
   4:         0.00 cm**-1
   5:         0.00 cm**-1
   6:        67.23 cm**-1
   7:        89.26 cm**-1
   8:       161.24 cm**-1
   9:       215.91 cm**-1
  10:       249.31 cm**-1
  11:       269.81 cm**-1
  12:       312.12 cm**-1
  13:       389.11 cm**-1
  14:       411.97 cm**-1
  15:       487.99 cm**-1
  16:       746.59 cm**-1
  17:       783.92 cm**-1
  18:       795.49 cm**-1
  19:       865.13 cm**-1
  20:       880.65 cm**-1
  21:       911.48 cm**-1
  22:       932.89 cm**-1
  23:       968.90 cm**-1
  24:       992.51 cm**-1
  25:      1034.99 cm**-1
  26:      1044.98 cm**-1
  27:      1092.56 cm**-1
  28:      1106.87 cm**-1
  29:      1154.57 cm**-1
  30:      1163.44 cm**-1
  31:      1208.82 cm**-1
  32:      1234.22 cm**-1
  33:      1259.77 cm**-1
  34:      1287.84 cm**-1
  35:      1307.09 cm**-1
  36:      1350.14 cm**-1
  37:      1375.19 cm**-1
  38:      1383.25 cm**-1
  39:      1418.16 cm**-1
  40:      1421.98 cm**-1
  41:      1465.31 cm**-1
  42:      1475.65 cm**-1
  43:      1479.43 cm**-1
  44:      1485.12 cm**-1
  45:      1494.48 cm**-1
  46:      1497.54 cm**-1
  47:      1501.01 cm**-1
  48:      1623.34 cm**-1
  49:      3037.29 cm**-1
  50:      3047.64 cm**-1
  51:      3060.03 cm**-1
  52:      3063.56 cm**-1
  53:      3096.31 cm**-1
  54:      3100.02 cm**-1
  55:      3123.34 cm**-1
  56:      3141.71 cm**-1
  57:      3143.25 cm**-1
  58:      3151.96 cm**-1
  59:      3173.47 cm**-1
  60:      3188.53 cm**-1
  61:      3512.56 cm**-1
  62:      3621.38 cm**-1

IR SPECTRUM
-----------

 Mode    freq (cm**-1)   T**2         TX         TY         TZ
-------------------------------------------------------------------
   6:        67.23    1.124742  (  0.888651   0.527351  -0.238625)
   7:        89.26    0.660846  ( -0.371305   0.130214   0.711353)
   8:       161.24    0.414821  ( -0.284119  -0.332467   0.472824)
   9:       215.91    0.757788  (  0.524920   0.678789  -0.146602)
  10:       249.31    0.373557  ( -0.208783   0.101321  -0.565421)
  11:       269.81    0.320568  (  0.114838  -0.133351   0.538143)
  12:       312.12    0.469979  (  0.387917   0.005704   0.565214)
  13:       389.11    1.026784  (  0.719432  -0.647547   0.299809)
  14:       411.97    2.507177  ( -0.183563   0.792067   1.358717)
  15:       487.99    0.730196  (  0.055182   0.846785   0.100532)
  16:       746.59    0.977549  (  0.206986  -0.661510  -0.705061)
  17:       783.92    8.459800  (  2.449087  -0.937843  -1.257865)
  18:       795.49    3.618497  (  1.386233  -0.314197   1.264174)
  19:       865.13   20.018889  (  0.207954   0.824270  -4.392747)
  20:       880.65    2.512678  ( -0.579804  -1.375190   0.534190)
  21:       911.48    8.914344  ( -0.175460   0.562675  -2.926936)
  22:       932.89    6.295438  ( -1.260596   0.500509  -2.110883)
  23:       968.90    5.453576  (  0.498001   1.380693   1.816386)
  24:       992.51   79.819256  ( -1.046849  -8.626194  -2.076570)
  25:      1034.99   11.058543  ( -0.491761   3.088182  -1.131302)
  26:      1044.98   13.011157  ( -0.606687   2.895204   2.064191)
  27:      1092.56    2.788976  (  0.052107   1.286085  -1.064070)
  28:      1106.87    6.408425  ( -0.144745   0.181437  -2.520824)
  29:      1154.57    7.630692  ( -0.092340   1.940008   1.964315)
  30:      1163.44    0.946574  (  0.152057  -0.082424   0.957423)
  31:      1208.82    0.282064  (  0.428453  -0.245149   0.195944)
  32:      1234.22    1.526239  ( -0.802588   0.890716   0.297855)
  33:      1259.77    1.778041  ( -0.562781   0.682169   0.997980)
  34:      1287.84    4.949014  ( -0.125981   1.258292   1.830258)
  35:      1307.09    3.441979  (  0.152440   0.842103   1.646087)
  36:      1350.14    2.635055  ( -1.108798   1.172910  -0.172927)
  37:      1375.19    2.520625  (  0.820523   0.218224  -1.341546)
  38:      1383.25    1.241855  (  0.289782  -0.180315  -1.060834)
  39:      1418.16    5.516445  ( -0.917426  -1.562352   1.494600)
  40:      1421.98   12.886653  ( -3.161559   1.583102  -0.620473)
  41:      1465.31   11.156618  (  0.571821   3.235426  -0.601382)
  42:      1475.65    9.313265  ( -0.407822   0.225865  -3.015946)
  43:      1479.43    5.495388  (  1.424341   1.560421   1.015739)
  44:      1485.12    2.868968  ( -1.097539  -0.042670  -1.289401)
  45:      1494.48    8.683456  (  1.899382   0.405327  -2.216194)
  46:      1497.54   12.735583  ( -3.459631   0.669622  -0.564041)
  47:      1501.01   13.085995  (  2.431691   2.440053   1.104089)
  48:      1623.34   75.110365  (  1.741287  -1.802901   8.296254)
  49:      3037.29    8.873282  (  2.009259  -0.055283   2.198432)
  50:      3047.64   11.743408  (  0.918183  -3.287377  -0.305777)
  51:      3060.03   15.291642  (  1.444634   3.446112   1.152818)
  52:      3063.56    1.473404  ( -0.572457  -0.758624   0.755107)
  53:      3096.31    9.488527  ( -0.906536  -2.901252   0.499455)
  54:      3100.02    1.290876  (  0.996485  -0.196746  -0.509101)
  55:      3123.34   28.030790  (  5.133870  -0.779260  -1.032920)
  56:      3141.71    9.597951  (  0.281728   1.603163   2.635991)
  57:      3143.25    1.666596  (  0.974606   0.842962  -0.078446)
  58:      3151.96    1.110671  (  0.135972  -1.038321  -0.118624)
  59:      3173.47    0.189134  ( -0.124286   0.095209   0.405737)
  60:      3188.53    0.826946  (  0.249917  -0.872785  -0.052289)
  61:      3512.56  101.248729  (  1.750911  -2.007603   9.703225)
  62:      3621.38  105.741142  ( -9.990789   0.502867   2.381681)

--------------------------
THERMOCHEMISTRY AT 298.15K
--------------------------

Temperature         ... 298.15 K
Pressure            ... 1.00 atm
Total Mass          ... 100.18 AMU

Throughout the following assumptions are being made:
  (1) The electronic state is orbitally nondegenerate
  (2) There are no thermally accessible electronically excited states
  (3) Hindered rotations indicated by low frequency modes) are not
      treated as such but are treated as vibrations and this may
      case some error
  (4) All equations used are the standard statistical mechanics
      equations for an ideal gas
  (5) All vibrations are strinctly harmonic

------------
INNER ENERGY
------------

The inner energy is: U= E(el) + E(ZPE) + E(vib) + E(rot) + E(trans)
    E(el)   - is the total energy from the electronic structure calculation
              = E(kin-el) + E(nuc-el) + E(el-el) + E(nuc-nuc)
    E(ZPE)  - the the zero temperature vibrational energy from the frequency calculation
    E(vib)  - the the finite temperature correction to E(ZPE) due to population
              of excietd vibrational states
    E(rot)  - is the rotational thermal energy
    E(trans)- is the translational thermal energy

Summary of contributions to the inner energy U:
Electronic energy                ...   -291.31185146 Eh
Zero point energy                ...      0.19787780 Eh     124.17 kcal/mol
Thermal vibrational correction   ...      0.00577260 Eh       3.62 kcal/mol
Thermal rotational correction    ...      0.00141627 Eh       0.89 kcal/mol
Thermal translational correction ...      0.00141627 Eh       0.89 kcal/mol
-----------------------------------------------------------------------
Total thermal energy                   -291.10536853 Eh

Summary of corrections to the electronic energy:
(perhaps to be used in another calculation)
Total thermal correction                  0.00860514 Eh       5.40 kcal/mol
Non-thermal (ZPE) correction              0.19787780 Eh     124.17 kcal/mol
-----------------------------------------------------------------------
Total correction                          0.20648293 Eh     129.57 kcal/mol

--------
ENTHALPY
--------

The enthalpy is H = U + kB*T
                kB is Boltzmann's constant
Total free energy                 ...   -291.10536853 Eh
Thermal Enthalpy correction       ...      0.00094421 Eh       0.59 kcal/mol
-----------------------------------------------------------------------
Total Enthalpy                    ...   -291.10442432 Eh

-------
ENTROPY
-------

The entropy contributions are T*S = T*(S(el)+S(vib)+S(rot)+S(trans)
     S(el)   - electronic entropy
     S(vib)  - vibrational entropy
     S(rot)  - rotational entropy
     S(trans)- translational entropy
The entropies will be listed as mutliplied by the temperature to get
units of energy

Electronic entropy                ...      0.00000000 Eh      0.00 kcal/mol
Vibrational entropy               ...      0.01041728 Eh      6.54 kcal/mol
Rotational entropy                ...      0.01227102 Eh      7.70 kcal/mol
Translational entropy             ...      0.01887386 Eh     11.84 kcal/mol
-----------------------------------------------------------------------
Final entropy term                ...      0.04156216 Eh     26.08 kcal/mol

CAUTION: The rotational entropy is not quite correctly treated here
         because it includes a symmetry number that is not yet correctly
         implemented in ORCA!
For a nonlinear molecule the correct rotational entropy is:
    S(rot) = R*(ln(qrot/sn)+1.5)
    R    = 8.31441 J/mol/K = 1.987191683e-3 kcal/mol/K
    qrot = 295103.6614363
    sn is the rotational symmetry number. We have assumed 3 here
       if it is different for your molecule then you should correct
       the printed rotational entropy by manually evaluating the equation
       as given above

For convenience we print out the resulting values for sn=1 - 12:
 sn= 1  qrot/sn=  295103.6614 T*S(rot)=     8.35 kcal/mol T*S(tot)=    26.73 kcal/mol
 sn= 2  qrot/sn=  147551.8307 T*S(rot)=     7.94 kcal/mol T*S(tot)=    26.32 kcal/mol
 sn= 3  qrot/sn=   98367.8871 T*S(rot)=     7.70 kcal/mol T*S(tot)=    26.08 kcal/mol
 sn= 4  qrot/sn=   73775.9154 T*S(rot)=     7.53 kcal/mol T*S(tot)=    25.91 kcal/mol
 sn= 5  qrot/sn=   59020.7323 T*S(rot)=     7.40 kcal/mol T*S(tot)=    25.78 kcal/mol
 sn= 6  qrot/sn=   49183.9436 T*S(rot)=     7.29 kcal/mol T*S(tot)=    25.67 kcal/mol
 sn= 7  qrot/sn=   42157.6659 T*S(rot)=     7.20 kcal/mol T*S(tot)=    25.58 kcal/mol
 sn= 8  qrot/sn=   36887.9577 T*S(rot)=     7.12 kcal/mol T*S(tot)=    25.50 kcal/mol
 sn= 9  qrot/sn=   32789.2957 T*S(rot)=     7.05 kcal/mol T*S(tot)=    25.43 kcal/mol
 sn=10  qrot/sn=   29510.3661 T*S(rot)=     6.99 kcal/mol T*S(tot)=    25.37 kcal/mol
 sn=11  qrot/sn=   26827.6056 T*S(rot)=     6.93 kcal/mol T*S(tot)=    25.31 kcal/mol
 sn=12  qrot/sn=   24591.9718 T*S(rot)=     6.88 kcal/mol T*S(tot)=    25.26 kcal/mol

-------------------
GIBBS FREE ENTHALPY
-------------------

The Gibbs free enthalpy is G = H - T*S

Total enthalpy                    ...   -291.10442432 Eh
Total entropy correction          ...     -0.04156216 Eh    -26.08 kcal/mol
-----------------------------------------------------------------------
Final Gibbs free enthalpy         ...   -291.14598648 Eh

For completeness - the Gibbs free enthalpy minus the electronic energy
G-E(el)                           ...      0.16586499 Eh    104.08 kcal/mol

                             ****ORCA TERMINATED NORMALLY****
TOTAL RUN TIME: 0 days 0 hours 46 minutes 54 seconds 845 msec
