                         Program Version 3.0.3 - RELEASE   -
|  1> ! NORI PBE0 def2-TZVP UseSym TightOPT Freq TightSCF Grid3 FinalGrid5 XYZFile
|  2> % pal
|  3>     nprocs 8
|  4> end
|  5> %method
|  6>     SymThresh 5.0e-2
|  7> end
|  8> % geom
|  9>     MaxIter 10
| 10> end
| 11> % maxcore 2000
| 12> % output
| 13>     printlevel mini
| 14>     print[ P_Basis ] 0
| 15>     print[ P_SCFInfo ] 1
| 16>     print[ P_SCFIterInfo ] 1
| 17>     print[ P_OrbEn ] 0
| 18>     print[ P_Cartesian ] 0
| 19> end
| 20> % elprop
| 21>     Dipole false
| 22> end
| 23> *xyz 1 1
| 24>  C        0.9635804397    -0.2451401595     0.2387007373
| 25>  C        2.4520901926     0.0633379377     0.0953094810
| 26>  C        2.9065584214     1.1068197023     1.1050478658
| 27>  C        3.1977602115    -1.2466098726     0.1649235908
| 28>  N        4.6727584566    -1.2258366145     0.4242974784
| 29>  C        3.7254579949    -1.8567753646     1.3974378953
| 30>  C        3.8325243657    -3.3343416490     1.5850283792
| 31>  H        0.6249016365    -0.9719816990    -0.5026807659
| 32>  H        0.3811411837     0.6658458968     0.0990949014
| 33>  H        0.7350898754    -0.6370452450     1.2331413172
| 34>  H        2.6221496786     0.4593325515    -0.9130005558
| 35>  H        2.7247851592     0.7952881729     2.1364363929
| 36>  H        2.3387387699     2.0245684926     0.9489128163
| 37>  H        3.9594574316     1.3901895500     1.0008834720
| 38>  H        2.9647421760    -1.9479946523    -0.6313526782
| 39>  H        5.0878505407    -0.3352606251     0.6747861032
| 40>  H        5.2727063033    -1.8346377617    -0.1208017711
| 41>  H        3.6563507548    -1.2584738215     2.2997594964
| 42>  H        3.9250796868    -3.8598171625     0.6320286730
| 43>  H        2.9242664805    -3.6927248603     2.0737422485
| 44>  H        4.6790602409    -3.5926028162     2.2236049224
| 45> *
| 46>
| 47>                          ****END OF INPUT****
 Total Charge           Charge          ....    1
 Multiplicity           Mult            ....    1
 Number of Electrons    NEL             ....   56
FINAL SINGLE POINT ENERGY      -291.312930220704
FINAL SINGLE POINT ENERGY      -291.312932379349
FINAL SINGLE POINT ENERGY      -291.312935240385
FINAL SINGLE POINT ENERGY      -291.312936298384
FINAL SINGLE POINT ENERGY      -291.312937377141

CARTESIAN COORDINATES (ANGSTROEM)
---------------------------------
  C      0.970378   -0.000152   -2.121188
  C      1.037416    0.563024   -0.703626
  C      0.445206    1.962812   -0.631007
  C      0.390326   -0.441690    0.217877
  N      0.016963   -0.013494    1.603857
  C     -1.027304   -0.436617    0.617289
  C     -1.787412   -1.684274    0.925337
  H      1.425145   -0.990780   -2.188102
  H      1.507285    0.656338   -2.806614
  H     -0.063088   -0.071954   -2.469738
  H      2.091575    0.615427   -0.406813
  H     -0.593221    1.992019   -0.969989
  H      1.009791    2.624553   -1.288816
  H      0.504649    2.415630    0.364766
  H      0.871152   -1.415640    0.240772
  H      0.091550    0.974274    1.820491
  H      0.223059   -0.633305    2.379012
  H     -1.613802    0.419143    0.300341
  H     -1.132438   -2.484652    1.276706
  H     -2.275806   -2.031010    0.012591
  H     -2.563152   -1.500968    1.670513

FINAL SINGLE POINT ENERGY      -291.312937732890
                    ***********************HURRAY********************
 Multiplicity           Mult            ....    1
 Number of Electrons    NEL             ....   56
 Basis Dimension        Dim             ....  301
FINAL SINGLE POINT ENERGY      -291.312937941974

VIBRATIONAL FREQUENCIES
-----------------------

   0:         0.00 cm**-1
   1:         0.00 cm**-1
   2:         0.00 cm**-1
   3:         0.00 cm**-1
   4:         0.00 cm**-1
   5:         0.00 cm**-1
   6:        53.70 cm**-1
   7:       157.32 cm**-1
   8:       200.42 cm**-1
   9:       224.93 cm**-1
  10:       231.95 cm**-1
  11:       258.22 cm**-1
  12:       322.71 cm**-1
  13:       346.76 cm**-1
  14:       395.83 cm**-1
  15:       458.66 cm**-1
  16:       545.17 cm**-1
  17:       738.84 cm**-1
  18:       786.24 cm**-1
  19:       865.07 cm**-1
  20:       904.26 cm**-1
  21:       924.26 cm**-1
  22:       930.24 cm**-1
  23:       962.32 cm**-1
  24:       981.05 cm**-1
  25:       990.14 cm**-1
  26:      1015.71 cm**-1
  27:      1066.10 cm**-1
  28:      1100.96 cm**-1
  29:      1161.16 cm**-1
  30:      1171.44 cm**-1
  31:      1192.73 cm**-1
  32:      1212.86 cm**-1
  33:      1237.80 cm**-1
  34:      1276.92 cm**-1
  35:      1339.24 cm**-1
  36:      1355.45 cm**-1
  37:      1380.24 cm**-1
  38:      1407.89 cm**-1
  39:      1420.01 cm**-1
  40:      1428.87 cm**-1
  41:      1464.34 cm**-1
  42:      1471.45 cm**-1
  43:      1476.87 cm**-1
  44:      1488.11 cm**-1
  45:      1494.13 cm**-1
  46:      1501.69 cm**-1
  47:      1507.56 cm**-1
  48:      1615.86 cm**-1
  49:      3040.53 cm**-1
  50:      3048.62 cm**-1
  51:      3057.86 cm**-1
  52:      3063.30 cm**-1
  53:      3112.61 cm**-1
  54:      3131.99 cm**-1
  55:      3143.25 cm**-1
  56:      3144.30 cm**-1
  57:      3149.85 cm**-1
  58:      3150.87 cm**-1
  59:      3174.74 cm**-1
  60:      3197.20 cm**-1
  61:      3511.71 cm**-1
  62:      3620.84 cm**-1

IR SPECTRUM
-----------

 Mode    freq (cm**-1)   T**2         TX         TY         TZ
-------------------------------------------------------------------
   6:        53.70    1.678248  ( -0.780482   0.940367  -0.429890)
   7:       157.32    0.621994  (  0.569197  -0.258793   0.480661)
   8:       200.42    1.471177  ( -0.511890  -0.562293   0.944972)
   9:       224.93    0.770975  ( -0.454939   0.644989  -0.384701)
  10:       231.95    0.410919  ( -0.109127  -0.582065   0.245379)
  11:       258.22    0.591825  (  0.117650   0.541049  -0.534088)
  12:       322.71    2.914320  ( -0.517763  -1.076643   1.219460)
  13:       346.76    1.028392  (  0.229709  -0.202088  -0.966843)
  14:       395.83    1.332241  (  0.900159   0.704306  -0.160960)
  15:       458.66    1.878133  ( -0.762204  -0.500686   1.022982)
  16:       545.17    1.259659  ( -0.692958  -0.135302   0.872446)
  17:       738.84    5.217495  (  0.561873   1.730071  -1.381538)
  18:       786.24    2.709541  (  0.540670   1.000638  -1.189933)
  19:       865.07   19.790116  (  1.829757   0.980340   3.934595)
  20:       904.26   10.941432  (  1.072110   1.827004   2.540486)
  21:       924.26    2.430102  ( -0.118745   1.547243   0.148466)
  22:       930.24    0.958347  (  0.378051  -0.769317  -0.472838)
  23:       962.32    5.519927  ( -1.754202   1.012157   1.190899)
  24:       981.05    1.156885  (  1.044332  -0.146838  -0.211408)
  25:       990.14   40.547182  ( -6.193597   0.727300   1.287467)
  26:      1015.71   54.840356  (  6.657299   1.431714  -2.910484)
  27:      1066.10   11.666097  (  2.118979   0.741729  -2.574075)
  28:      1100.96   15.811952  ( -0.246507   0.107185   3.967329)
  29:      1161.16    0.335593  (  0.295121   0.172331   0.467759)
  30:      1171.44    0.957928  (  0.815527   0.289099  -0.457456)
  31:      1192.73    2.062683  ( -0.601629  -1.153544   0.608327)
  32:      1212.86    2.574903  ( -1.413294  -0.179326   0.738474)
  33:      1237.80    6.000081  ( -1.417219  -1.721385   1.014103)
  34:      1276.92    1.244814  ( -0.506501  -0.578162   0.808703)
  35:      1339.24    0.855385  ( -0.428677  -0.819000   0.029342)
  36:      1355.45    0.311610  ( -0.131121  -0.541209   0.038863)
  37:      1380.24    3.964553  (  1.592997   0.822446  -0.866312)
  38:      1407.89    6.926638  ( -0.381137   2.313751   1.194959)
  39:      1420.01    7.351252  (  1.077642   2.173486   1.210743)
  40:      1428.87   15.053024  (  0.330105  -3.587498   1.440109)
  41:      1464.34   11.377890  (  3.352612  -0.340731   0.147589)
  42:      1471.45    2.379222  (  1.061169  -1.112283   0.126372)
  43:      1476.87    9.392643  ( -0.589851  -0.400980  -2.980593)
  44:      1488.11    8.606978  ( -2.156738   1.863099   0.695933)
  45:      1494.13    6.129893  (  0.300654  -2.152541   1.185776)
  46:      1501.69    9.508005  ( -0.978057  -1.940899   2.187309)
  47:      1507.56   18.085033  (  4.104931   0.283120   1.074438)
  48:      1615.86   90.054649  (  2.149751   2.147741   8.990018)
  49:      3040.53   21.118157  (  1.842473  -1.658696  -3.869390)
  50:      3048.62    2.195104  (  1.311013  -0.654918   0.217786)
  51:      3057.86    6.702919  (  1.376677   1.315002   1.754551)
  52:      3063.30    1.323835  ( -0.633321   0.498267  -0.821261)
  53:      3112.61   15.758891  (  1.783266   0.718759   3.473073)
  54:      3131.99   11.236699  ( -2.888256   1.593881  -0.595165)
  55:      3143.25    2.350701  (  1.184591  -0.971071   0.066834)
  56:      3144.30    2.339995  (  1.512043   0.034175  -0.229247)
  57:      3149.85    6.101323  (  1.467130   1.894808  -0.598795)
  58:      3150.87    0.829662  ( -0.900754   0.044869   0.127634)
  59:      3174.74    0.436682  ( -0.167927  -0.389789   0.506505)
  60:      3197.20    0.258819  (  0.480829   0.049479   0.158663)
  61:      3511.71   78.475937  (  2.537992   3.406936   7.773501)
  62:      3620.84  120.406106  (  0.411603  -9.728573   5.058810)

--------------------------
THERMOCHEMISTRY AT 298.15K
--------------------------

Temperature         ... 298.15 K
Pressure            ... 1.00 atm
Total Mass          ... 100.18 AMU

Throughout the following assumptions are being made:
  (1) The electronic state is orbitally nondegenerate
  (2) There are no thermally accessible electronically excited states
  (3) Hindered rotations indicated by low frequency modes) are not
      treated as such but are treated as vibrations and this may
      case some error
  (4) All equations used are the standard statistical mechanics
      equations for an ideal gas
  (5) All vibrations are strinctly harmonic

------------
INNER ENERGY
------------

The inner energy is: U= E(el) + E(ZPE) + E(vib) + E(rot) + E(trans)
    E(el)   - is the total energy from the electronic structure calculation
              = E(kin-el) + E(nuc-el) + E(el-el) + E(nuc-nuc)
    E(ZPE)  - the the zero temperature vibrational energy from the frequency calculation
    E(vib)  - the the finite temperature correction to E(ZPE) due to population
              of excietd vibrational states
    E(rot)  - is the rotational thermal energy
    E(trans)- is the translational thermal energy

Summary of contributions to the inner energy U:
Electronic energy                ...   -291.31293794 Eh
Zero point energy                ...      0.19731930 Eh     123.82 kcal/mol
Thermal vibrational correction   ...      0.00583442 Eh       3.66 kcal/mol
Thermal rotational correction    ...      0.00141627 Eh       0.89 kcal/mol
Thermal translational correction ...      0.00141627 Eh       0.89 kcal/mol
-----------------------------------------------------------------------
Total thermal energy                   -291.10695168 Eh

Summary of corrections to the electronic energy:
(perhaps to be used in another calculation)
Total thermal correction                  0.00866696 Eh       5.44 kcal/mol
Non-thermal (ZPE) correction              0.19731930 Eh     123.82 kcal/mol
-----------------------------------------------------------------------
Total correction                          0.20598626 Eh     129.26 kcal/mol

--------
ENTHALPY
--------

The enthalpy is H = U + kB*T
                kB is Boltzmann's constant
Total free energy                 ...   -291.10695168 Eh
Thermal Enthalpy correction       ...      0.00094421 Eh       0.59 kcal/mol
-----------------------------------------------------------------------
Total Enthalpy                    ...   -291.10600747 Eh

-------
ENTROPY
-------

The entropy contributions are T*S = T*(S(el)+S(vib)+S(rot)+S(trans)
     S(el)   - electronic entropy
     S(vib)  - vibrational entropy
     S(rot)  - rotational entropy
     S(trans)- translational entropy
The entropies will be listed as mutliplied by the temperature to get
units of energy

Electronic entropy                ...      0.00000000 Eh      0.00 kcal/mol
Vibrational entropy               ...      0.01027904 Eh      6.45 kcal/mol
Rotational entropy                ...      0.01218223 Eh      7.64 kcal/mol
Translational entropy             ...      0.01887386 Eh     11.84 kcal/mol
-----------------------------------------------------------------------
Final entropy term                ...      0.04133513 Eh     25.94 kcal/mol

CAUTION: The rotational entropy is not quite correctly treated here
         because it includes a symmetry number that is not yet correctly
         implemented in ORCA!
For a nonlinear molecule the correct rotational entropy is:
    S(rot) = R*(ln(qrot/sn)+1.5)
    R    = 8.31441 J/mol/K = 1.987191683e-3 kcal/mol/K
    qrot = 268616.6857853
    sn is the rotational symmetry number. We have assumed 3 here
       if it is different for your molecule then you should correct
       the printed rotational entropy by manually evaluating the equation
       as given above

For convenience we print out the resulting values for sn=1 - 12:
 sn= 1  qrot/sn=  268616.6858 T*S(rot)=     8.30 kcal/mol T*S(tot)=    26.59 kcal/mol
 sn= 2  qrot/sn=  134308.3429 T*S(rot)=     7.88 kcal/mol T*S(tot)=    26.18 kcal/mol
 sn= 3  qrot/sn=   89538.8953 T*S(rot)=     7.64 kcal/mol T*S(tot)=    25.94 kcal/mol
 sn= 4  qrot/sn=   67154.1714 T*S(rot)=     7.47 kcal/mol T*S(tot)=    25.77 kcal/mol
 sn= 5  qrot/sn=   53723.3372 T*S(rot)=     7.34 kcal/mol T*S(tot)=    25.64 kcal/mol
 sn= 6  qrot/sn=   44769.4476 T*S(rot)=     7.23 kcal/mol T*S(tot)=    25.53 kcal/mol
 sn= 7  qrot/sn=   38373.8123 T*S(rot)=     7.14 kcal/mol T*S(tot)=    25.44 kcal/mol
 sn= 8  qrot/sn=   33577.0857 T*S(rot)=     7.06 kcal/mol T*S(tot)=    25.36 kcal/mol
 sn= 9  qrot/sn=   29846.2984 T*S(rot)=     6.99 kcal/mol T*S(tot)=    25.29 kcal/mol
 sn=10  qrot/sn=   26861.6686 T*S(rot)=     6.93 kcal/mol T*S(tot)=    25.22 kcal/mol
 sn=11  qrot/sn=   24419.6987 T*S(rot)=     6.87 kcal/mol T*S(tot)=    25.17 kcal/mol
 sn=12  qrot/sn=   22384.7238 T*S(rot)=     6.82 kcal/mol T*S(tot)=    25.12 kcal/mol

-------------------
GIBBS FREE ENTHALPY
-------------------

The Gibbs free enthalpy is G = H - T*S

Total enthalpy                    ...   -291.10600747 Eh
Total entropy correction          ...     -0.04133513 Eh    -25.94 kcal/mol
-----------------------------------------------------------------------
Final Gibbs free enthalpy         ...   -291.14734260 Eh

For completeness - the Gibbs free enthalpy minus the electronic energy
G-E(el)                           ...      0.16559534 Eh    103.91 kcal/mol

                             ****ORCA TERMINATED NORMALLY****
TOTAL RUN TIME: 0 days 0 hours 54 minutes 47 seconds 233 msec
