                         Program Version 3.0.3 - RELEASE   -
|  1> ! NORI PBE0 def2-TZVP UseSym TightOPT Freq TightSCF Grid3 FinalGrid5 XYZFile
|  2> % pal
|  3>     nprocs 8
|  4> end
|  5> %method
|  6>     SymThresh 5.0e-2
|  7> end
|  8> % geom
|  9>     MaxIter 10
| 10> end
| 11> % maxcore 2000
| 12> % output
| 13>     printlevel mini
| 14>     print[ P_Basis ] 0
| 15>     print[ P_SCFInfo ] 1
| 16>     print[ P_SCFIterInfo ] 1
| 17>     print[ P_OrbEn ] 0
| 18>     print[ P_Cartesian ] 0
| 19> end
| 20> % elprop
| 21>     Dipole false
| 22> end
| 23> *xyz 1 1
| 24>  C        1.0776882253    -0.0433511931    -0.0508179462
| 25>  C        2.5208408984    -0.0175292494    -0.0759532135
| 26>  C        3.7242205713     0.0075658693    -0.0888451417
| 27>  C        5.1441888286     0.0560024730    -0.0509902480
| 28>  N        5.8721056586    -0.5644234426    -1.2273753681
| 29>  C        5.9380730146     0.9047040510    -0.9709463686
| 30>  C        7.2664262728     1.4672524581    -0.5909755116
| 31>  H        0.7126070441     0.4195036017     0.8693440220
| 32>  H        0.7109996204    -1.0714999205    -0.0831167190
| 33>  H        0.6625042738     0.5042232273    -0.8994255908
| 34>  H        5.6260053063    -0.2152154937     0.8848071229
| 35>  H        6.6994748351    -1.1213718634    -1.0412243080
| 36>  H        5.2904303835    -0.9011587469    -1.9874060804
| 37>  H        5.3616872963     1.4516316625    -1.7092976969
| 38>  H        7.7803426344     0.8410526487     0.1421856918
| 39>  H        7.1146210840     2.4506926642    -0.1425319720
| 40>  H        7.9038540526     1.5925112540    -1.4679006718
| 41> *
| 42>
| 43>                          ****END OF INPUT****
 Total Charge           Charge          ....    1
 Multiplicity           Mult            ....    1
 Number of Electrons    NEL             ....   52
FINAL SINGLE POINT ENERGY      -288.834659193601
FINAL SINGLE POINT ENERGY      -288.834659788573

CARTESIAN COORDINATES (ANGSTROEM)
---------------------------------
  C      2.278297    0.000081   -2.687554
  C      1.351935   -0.174623   -1.594224
  C      0.574881   -0.324728   -0.687371
  C     -0.372323   -0.534629    0.351237
  N      0.000212    0.000224    1.720370
  C     -1.149079    0.571825    0.958663
  C     -2.510571    0.369050    1.533477
  H      1.876852   -0.461214   -3.593132
  H      3.235805   -0.473725   -2.459833
  H      2.449878    1.059576   -2.887912
  H     -0.810408   -1.526198    0.431753
  H     -0.200380   -0.574851    2.531810
  H      0.862484    0.531962    1.774070
  H     -0.911249    1.562641    0.586831
  H     -2.652845   -0.651064    1.897646
  H     -3.250918    0.551341    0.752282
  H     -2.700690    1.070928    2.346970

FINAL SINGLE POINT ENERGY      -288.834660094062
                    ***********************HURRAY********************
 Multiplicity           Mult            ....    1
 Number of Electrons    NEL             ....   52
 Basis Dimension        Dim             ....  277
FINAL SINGLE POINT ENERGY      -288.834660226606

VIBRATIONAL FREQUENCIES
-----------------------

   0:         0.00 cm**-1
   1:         0.00 cm**-1
   2:         0.00 cm**-1
   3:         0.00 cm**-1
   4:         0.00 cm**-1
   5:         0.00 cm**-1
   6:        12.53 cm**-1
   7:        96.50 cm**-1
   8:       106.45 cm**-1
   9:       221.08 cm**-1
  10:       276.63 cm**-1
  11:       302.55 cm**-1
  12:       353.06 cm**-1
  13:       392.45 cm**-1
  14:       474.60 cm**-1
  15:       511.63 cm**-1
  16:       706.99 cm**-1
  17:       757.19 cm**-1
  18:       852.78 cm**-1
  19:       905.13 cm**-1
  20:       952.93 cm**-1
  21:       959.83 cm**-1
  22:      1005.23 cm**-1
  23:      1033.88 cm**-1
  24:      1040.99 cm**-1
  25:      1080.81 cm**-1
  26:      1132.37 cm**-1
  27:      1178.41 cm**-1
  28:      1217.67 cm**-1
  29:      1227.55 cm**-1
  30:      1262.86 cm**-1
  31:      1357.75 cm**-1
  32:      1402.01 cm**-1
  33:      1421.05 cm**-1
  34:      1452.15 cm**-1
  35:      1454.61 cm**-1
  36:      1463.44 cm**-1
  37:      1473.70 cm**-1
  38:      1494.37 cm**-1
  39:      1612.80 cm**-1
  40:      2370.36 cm**-1
  41:      3058.92 cm**-1
  42:      3063.12 cm**-1
  43:      3134.59 cm**-1
  44:      3139.69 cm**-1
  45:      3143.57 cm**-1
  46:      3152.45 cm**-1
  47:      3166.42 cm**-1
  48:      3199.76 cm**-1
  49:      3504.13 cm**-1
  50:      3619.35 cm**-1

IR SPECTRUM
-----------

 Mode    freq (cm**-1)   T**2         TX         TY         TZ
-------------------------------------------------------------------
   7:        96.50    2.345285  (  1.449988  -0.445407   0.210794)
   8:       106.45    5.333017  ( -0.846396  -2.147545  -0.068402)
   9:       221.08    2.005647  (  0.280410  -1.382621   0.124001)
  10:       276.63    7.654326  (  2.382567   0.680410   1.230750)
  11:       302.55    6.462546  ( -1.107159   2.222446  -0.545414)
  12:       353.06    3.907834  (  0.445467   0.863071   1.721773)
  13:       392.45    0.447860  (  0.577491  -0.261545  -0.214379)
  14:       474.60    5.615038  ( -0.107637   1.830289   1.501164)
  15:       511.63    1.714789  ( -1.175721   0.038764  -0.575297)
  16:       706.99   16.972234  ( -1.019151   0.651606   3.938143)
  17:       757.19   24.095559  ( -2.286945  -0.783870   4.272117)
  18:       852.78   23.623814  ( -2.031205   0.228216  -4.409755)
  19:       905.13   13.278422  ( -0.405737  -1.021476  -3.474246)
  20:       952.93    5.951274  ( -2.126098  -0.361652   1.140259)
  21:       959.83   33.715408  (  1.361982  -4.776522  -3.007533)
  22:      1005.23   72.444680  ( -5.270526   6.081668   2.771199)
  23:      1033.88    3.842001  (  1.630894  -0.159865   1.075467)
  24:      1040.99    2.556306  ( -0.412963   1.503879   0.352298)
  25:      1080.81   12.337528  ( -0.714912   0.183719  -3.434047)
  26:      1132.37    1.332881  ( -0.679281  -0.570936  -0.738573)
  27:      1178.41    1.056055  ( -0.348988  -0.048982  -0.965331)
  28:      1217.67    8.247931  ( -2.279288   0.925884   1.481727)
  29:      1227.55    3.392957  (  1.575653   0.335236  -0.893248)
  30:      1262.86    0.308127  (  0.372179  -0.104235  -0.398429)
  31:      1357.75   36.100408  ( -4.327063  -0.383362   4.150899)
  32:      1402.01    1.324877  ( -0.525597  -0.374759   0.952985)
  33:      1421.05   15.523491  ( -3.482028  -1.319405   1.287690)
  34:      1452.15   15.682366  ( -1.705995   3.500216  -0.721412)
  35:      1454.61   13.924135  ( -2.313460  -1.634310  -2.429211)
  36:      1463.44   13.638041  (  0.706496   2.222697  -2.863306)
  37:      1473.70   10.936408  (  0.944466   0.683594   3.094688)
  38:      1494.37   12.688841  ( -1.116535   3.316938   0.663410)
  39:      1612.80   78.184922  ( -4.290984   0.438825  -7.718796)
  40:      2370.36  201.248933  ( -8.640165  -0.638704  11.233367)
  41:      3058.92    1.216681  ( -0.531481   0.174138   0.950729)
  42:      3063.12    1.805158  (  0.610951  -0.975493   0.693044)
  43:      3134.59    0.860547  ( -0.294517  -0.165709  -0.863914)
  44:      3139.69    0.404838  ( -0.312237   0.434225   0.344665)
  45:      3143.57    1.946476  ( -0.074018  -1.388267  -0.117104)
  46:      3152.45    0.845503  (  0.777650  -0.486050  -0.067214)
  47:      3166.42    6.191229  ( -0.888370   1.384508   1.866860)
  48:      3199.76    2.537738  (  0.793481  -1.369528  -0.180326)
  49:      3504.13  103.955679  (  4.845100  -0.198775   8.968900)
  50:      3619.35  114.064290  ( -6.938295  -6.799661   4.437224)

--------------------------
THERMOCHEMISTRY AT 298.15K
--------------------------

Temperature         ... 298.15 K
Pressure            ... 1.00 atm
Total Mass          ... 96.15 AMU

Throughout the following assumptions are being made:
  (1) The electronic state is orbitally nondegenerate
  (2) There are no thermally accessible electronically excited states
  (3) Hindered rotations indicated by low frequency modes) are not
      treated as such but are treated as vibrations and this may
      case some error
  (4) All equations used are the standard statistical mechanics
      equations for an ideal gas
  (5) All vibrations are strinctly harmonic

------------
INNER ENERGY
------------

The inner energy is: U= E(el) + E(ZPE) + E(vib) + E(rot) + E(trans)
    E(el)   - is the total energy from the electronic structure calculation
              = E(kin-el) + E(nuc-el) + E(el-el) + E(nuc-nuc)
    E(ZPE)  - the the zero temperature vibrational energy from the frequency calculation
    E(vib)  - the the finite temperature correction to E(ZPE) due to population
              of excietd vibrational states
    E(rot)  - is the rotational thermal energy
    E(trans)- is the translational thermal energy

Summary of contributions to the inner energy U:
Electronic energy                ...   -288.83466023 Eh
Zero point energy                ...      0.14975266 Eh      93.97 kcal/mol
Thermal vibrational correction   ...      0.00466455 Eh       2.93 kcal/mol
Thermal rotational correction    ...      0.00141627 Eh       0.89 kcal/mol
Thermal translational correction ...      0.00141627 Eh       0.89 kcal/mol
-----------------------------------------------------------------------
Total thermal energy                   -288.67741047 Eh

Summary of corrections to the electronic energy:
(perhaps to be used in another calculation)
Total thermal correction                  0.00749709 Eh       4.70 kcal/mol
Non-thermal (ZPE) correction              0.14975266 Eh      93.97 kcal/mol
-----------------------------------------------------------------------
Total correction                          0.15724975 Eh      98.68 kcal/mol

--------
ENTHALPY
--------

The enthalpy is H = U + kB*T
                kB is Boltzmann's constant
Total free energy                 ...   -288.67741047 Eh
Thermal Enthalpy correction       ...      0.00094421 Eh       0.59 kcal/mol
-----------------------------------------------------------------------
Total Enthalpy                    ...   -288.67646627 Eh

-------
ENTROPY
-------

The entropy contributions are T*S = T*(S(el)+S(vib)+S(rot)+S(trans)
     S(el)   - electronic entropy
     S(vib)  - vibrational entropy
     S(rot)  - rotational entropy
     S(trans)- translational entropy
The entropies will be listed as mutliplied by the temperature to get
units of energy

Electronic entropy                ...      0.00000000 Eh      0.00 kcal/mol
Vibrational entropy               ...      0.00807295 Eh      5.07 kcal/mol
Rotational entropy                ...      0.01219531 Eh      7.65 kcal/mol
Translational entropy             ...      0.01881568 Eh     11.81 kcal/mol
-----------------------------------------------------------------------
Final entropy term                ...      0.03908395 Eh     24.53 kcal/mol

CAUTION: The rotational entropy is not quite correctly treated here
         because it includes a symmetry number that is not yet correctly
         implemented in ORCA!
For a nonlinear molecule the correct rotational entropy is:
    S(rot) = R*(ln(qrot/sn)+1.5)
    R    = 8.31441 J/mol/K = 1.987191683e-3 kcal/mol/K
    qrot = 272366.0434482
    sn is the rotational symmetry number. We have assumed 3 here
       if it is different for your molecule then you should correct
       the printed rotational entropy by manually evaluating the equation
       as given above

For convenience we print out the resulting values for sn=1 - 12:
 sn= 1  qrot/sn=  272366.0434 T*S(rot)=     8.30 kcal/mol T*S(tot)=    25.18 kcal/mol
 sn= 2  qrot/sn=  136183.0217 T*S(rot)=     7.89 kcal/mol T*S(tot)=    24.77 kcal/mol
 sn= 3  qrot/sn=   90788.6811 T*S(rot)=     7.65 kcal/mol T*S(tot)=    24.53 kcal/mol
 sn= 4  qrot/sn=   68091.5109 T*S(rot)=     7.48 kcal/mol T*S(tot)=    24.36 kcal/mol
 sn= 5  qrot/sn=   54473.2087 T*S(rot)=     7.35 kcal/mol T*S(tot)=    24.22 kcal/mol
 sn= 6  qrot/sn=   45394.3406 T*S(rot)=     7.24 kcal/mol T*S(tot)=    24.11 kcal/mol
 sn= 7  qrot/sn=   38909.4348 T*S(rot)=     7.15 kcal/mol T*S(tot)=    24.02 kcal/mol
 sn= 8  qrot/sn=   34045.7554 T*S(rot)=     7.07 kcal/mol T*S(tot)=    23.94 kcal/mol
 sn= 9  qrot/sn=   30262.8937 T*S(rot)=     7.00 kcal/mol T*S(tot)=    23.87 kcal/mol
 sn=10  qrot/sn=   27236.6043 T*S(rot)=     6.94 kcal/mol T*S(tot)=    23.81 kcal/mol
 sn=11  qrot/sn=   24760.5494 T*S(rot)=     6.88 kcal/mol T*S(tot)=    23.76 kcal/mol
 sn=12  qrot/sn=   22697.1703 T*S(rot)=     6.83 kcal/mol T*S(tot)=    23.70 kcal/mol

-------------------
GIBBS FREE ENTHALPY
-------------------

The Gibbs free enthalpy is G = H - T*S

Total enthalpy                    ...   -288.67646627 Eh
Total entropy correction          ...     -0.03908395 Eh    -24.53 kcal/mol
-----------------------------------------------------------------------
Final Gibbs free enthalpy         ...   -288.71555021 Eh

For completeness - the Gibbs free enthalpy minus the electronic energy
G-E(el)                           ...      0.11911001 Eh     74.74 kcal/mol

                             ****ORCA TERMINATED NORMALLY****
TOTAL RUN TIME: 0 days 0 hours 30 minutes 52 seconds 703 msec
