                         Program Version 3.0.3 - RELEASE   -
|  1> ! NORI PBE0 def2-TZVP UseSym TightOPT Freq TightSCF Grid3 FinalGrid5 XYZFile
|  2> % pal
|  3>     nprocs 8
|  4> end
|  5> %method
|  6>     SymThresh 5.0e-2
|  7> end
|  8> % geom
|  9>     MaxIter 10
| 10> end
| 11> % maxcore 2000
| 12> % output
| 13>     printlevel mini
| 14>     print[ P_Basis ] 0
| 15>     print[ P_SCFInfo ] 1
| 16>     print[ P_SCFIterInfo ] 1
| 17>     print[ P_OrbEn ] 0
| 18>     print[ P_Cartesian ] 0
| 19> end
| 20> % elprop
| 21>     Dipole false
| 22> end
| 23> *xyz 1 1
| 24>  C        0.8186662598    -0.1049151990    -0.1124509948
| 25>  C        2.3400794261    -0.1030802903    -0.0864880647
| 26>  C        2.8576208682     0.9820017552     0.8560232737
| 27>  C        2.9155086219    -1.4606132034     0.2729385098
| 28>  N        4.4033892595    -1.4483580554     0.1263991306
| 29>  C        2.4297250033    -2.3241377129     1.3880592032
| 30>  C        2.2969052593    -2.7817057729    -0.0358914199
| 31>  H        0.4133814597    -0.8238204066    -0.8251305355
| 32>  H        0.4639882774     0.8814628834    -0.4124139632
| 33>  H        0.3975317038    -0.3107930410     0.8744524304
| 34>  H        2.6816685033     0.1258740768    -1.1070293721
| 35>  H        2.5779752234     0.7689590598     1.8912035570
| 36>  H        2.4244234575     1.9465146378     0.5889759670
| 37>  H        3.9436776044     1.1264608419     0.8158688992
| 38>  H        4.6720643410    -1.2447828252    -0.8401448309
| 39>  H        4.8140856638    -2.3468753283     0.3848013300
| 40>  H        4.8137754788    -0.7264457011     0.7245519603
| 41>  H        3.1519207797    -2.8259192264     2.0233010405
| 42>  H        1.5394074454    -2.0004865136     1.9105372575
| 43>  H        2.9333567756    -3.5932730253    -0.3727876026
| 44>  H        1.3159885880    -2.7799169536    -0.4897457756
| 45> *
| 46>
| 47>                          ****END OF INPUT****
 Total Charge           Charge          ....    1
 Multiplicity           Mult            ....    1
 Number of Electrons    NEL             ....   56
FINAL SINGLE POINT ENERGY      -291.306006744772
FINAL SINGLE POINT ENERGY      -291.306008749016

CARTESIAN COORDINATES (ANGSTROEM)
---------------------------------
  C      0.823030   -0.000378   -1.895461
  C      0.860980    0.409925   -0.429978
  C      0.721736    1.925699   -0.294386
  C     -0.183244   -0.313292    0.401030
  N     -0.000197   -0.000410    1.851978
  C     -1.608176   -0.498735    0.001528
  C     -0.702808   -1.688375    0.148750
  H      0.990991   -1.068759   -2.033876
  H      1.613298    0.522973   -2.434514
  H     -0.123571    0.271267   -2.368284
  H      1.843649    0.111017   -0.035778
  H     -0.260735    2.262338   -0.634614
  H      1.472810    2.425665   -0.906942
  H      0.878507    2.297632    0.724673
  H      0.920508   -0.308320    2.176161
  H     -0.706966   -0.460307    2.427865
  H     -0.067340    1.008405    2.010143
  H     -2.389039   -0.353749    0.740202
  H     -1.885686   -0.182107   -0.994813
  H     -0.864715   -2.351059    0.992251
  H     -0.365023   -2.194388   -0.744598

FINAL SINGLE POINT ENERGY      -291.306009696050
                    ***********************HURRAY********************
 Multiplicity           Mult            ....    1
 Number of Electrons    NEL             ....   56
 Basis Dimension        Dim             ....  301
FINAL SINGLE POINT ENERGY      -291.306010009736

VIBRATIONAL FREQUENCIES
-----------------------

   0:         0.00 cm**-1
   1:         0.00 cm**-1
   2:         0.00 cm**-1
   3:         0.00 cm**-1
   4:         0.00 cm**-1
   5:         0.00 cm**-1
   6:        45.18 cm**-1
   7:       185.76 cm**-1
   8:       200.17 cm**-1
   9:       230.07 cm**-1
  10:       261.59 cm**-1
  11:       270.47 cm**-1
  12:       344.26 cm**-1
  13:       357.28 cm**-1
  14:       395.56 cm**-1
  15:       446.26 cm**-1
  16:       514.91 cm**-1
  17:       655.78 cm**-1
  18:       765.80 cm**-1
  19:       849.06 cm**-1
  20:       893.30 cm**-1
  21:       909.53 cm**-1
  22:       925.57 cm**-1
  23:       941.57 cm**-1
  24:       958.96 cm**-1
  25:       978.55 cm**-1
  26:      1034.62 cm**-1
  27:      1066.95 cm**-1
  28:      1102.50 cm**-1
  29:      1109.37 cm**-1
  30:      1142.20 cm**-1
  31:      1175.51 cm**-1
  32:      1185.81 cm**-1
  33:      1190.20 cm**-1
  34:      1241.65 cm**-1
  35:      1337.46 cm**-1
  36:      1375.57 cm**-1
  37:      1389.86 cm**-1
  38:      1407.86 cm**-1
  39:      1428.90 cm**-1
  40:      1458.58 cm**-1
  41:      1469.90 cm**-1
  42:      1483.86 cm**-1
  43:      1495.59 cm**-1
  44:      1501.41 cm**-1
  45:      1508.74 cm**-1
  46:      1522.76 cm**-1
  47:      1640.19 cm**-1
  48:      1658.21 cm**-1
  49:      3004.55 cm**-1
  50:      3035.63 cm**-1
  51:      3066.66 cm**-1
  52:      3107.71 cm**-1
  53:      3142.15 cm**-1
  54:      3146.67 cm**-1
  55:      3152.56 cm**-1
  56:      3155.64 cm**-1
  57:      3158.45 cm**-1
  58:      3246.23 cm**-1
  59:      3257.86 cm**-1
  60:      3407.19 cm**-1
  61:      3480.62 cm**-1
  62:      3509.51 cm**-1

IR SPECTRUM
-----------

 Mode    freq (cm**-1)   T**2         TX         TY         TZ
-------------------------------------------------------------------
   6:        45.18    3.692828  (  1.072011  -1.515622   0.496499)
   7:       185.76    0.595982  ( -0.419627  -0.346963   0.547277)
   8:       200.17    0.348562  ( -0.220474  -0.545247   0.051562)
   9:       230.07    0.712036  ( -0.622917   0.234750   0.518558)
  10:       261.59    5.302834  (  0.636521   0.926416  -2.009833)
  11:       270.47    3.705251  ( -0.570199  -1.410011   1.179827)
  12:       344.26    8.186670  (  2.151752   1.738127  -0.731812)
  13:       357.28    4.393710  ( -1.103733   1.780820  -0.064522)
  14:       395.56    2.746244  (  0.617568   0.354123   1.496479)
  15:       446.26    5.129328  ( -0.787895   0.972697  -1.887435)
  16:       514.91    3.161109  ( -0.171085   1.347288   1.147455)
  17:       655.78    2.858035  (  1.072645   1.095374  -0.712476)
  18:       765.80    0.586678  (  0.683031   0.250868  -0.239192)
  19:       849.06    4.472749  ( -1.280417  -1.609215   0.493669)
  20:       893.30    0.158674  ( -0.022606  -0.341456   0.203889)
  21:       909.53    7.890969  (  1.694036   1.505782  -1.659467)
  22:       925.57    0.759927  ( -0.643219  -0.522928  -0.269710)
  23:       941.57    3.626498  ( -0.247799   1.849224   0.381399)
  24:       958.96    8.145699  ( -2.562464  -1.235144   0.232153)
  25:       978.55    5.346794  (  1.628253   1.624182   0.240037)
  26:      1034.62    3.878570  (  1.316928   0.972626  -1.094655)
  27:      1066.95   20.469713  (  3.676270   2.276607   1.331094)
  28:      1102.50    7.209022  ( -2.033501   1.737940   0.231217)
  29:      1109.37    2.166298  ( -1.270628   0.209690   0.712624)
  30:      1142.20    2.671477  ( -1.277080   0.977031  -0.293177)
  31:      1175.51   19.787165  ( -0.426395  -3.980080   1.940185)
  32:      1185.81    1.057430  ( -0.807904   0.630971   0.081220)
  33:      1190.20    4.346901  (  1.282765   1.269491  -1.043938)
  34:      1241.65    8.937091  (  0.766503  -0.002761  -2.889560)
  35:      1337.46    0.756359  ( -0.703245  -0.291766   0.420330)
  36:      1375.57    5.501854  (  1.776412   1.350563   0.722630)
  37:      1389.86    0.320748  (  0.085402  -0.516709  -0.215559)
  38:      1407.86    5.492152  ( -0.321816   2.257542   0.540454)
  39:      1428.90   13.322592  (  0.214298  -1.209314   3.437183)
  40:      1458.58    9.485106  ( -1.609118   2.609542  -0.293484)
  41:      1469.90   11.264269  (  0.327123   0.581897   3.289172)
  42:      1483.86   76.339345  (  0.418735  -0.153483  -8.725849)
  43:      1495.59   52.138533  ( -0.694614   3.576214   6.234319)
  44:      1501.41    8.174730  ( -0.471743  -2.174356   1.795651)
  45:      1508.74   38.574064  ( -5.932817  -0.243005  -1.821178)
  46:      1522.76   44.977062  (  0.461851   1.422951  -6.537505)
  47:      1640.19   33.357813  (  3.825829  -4.326533  -0.044298)
  48:      1658.21   40.164099  (  4.166377   3.547566  -3.196901)
  49:      3004.55   15.212141  (  3.190863  -1.237458   1.870624)
  50:      3035.63   27.302363  (  0.440407  -2.286250  -4.677763)
  51:      3066.66    5.618997  ( -1.192448  -0.891964  -1.844306)
  52:      3107.71   18.413886  ( -1.441300   0.182245  -4.037738)
  53:      3142.15    4.573384  ( -1.831453   1.083518  -0.212494)
  54:      3146.67    6.549916  ( -2.458582   0.686864   0.183056)
  55:      3152.56    5.964568  (  1.055081   2.195541  -0.175990)
  56:      3155.64    2.524972  ( -0.245222   1.558232   0.191703)
  57:      3158.45    3.322386  (  0.188184  -0.406783   1.766777)
  58:      3246.23    0.153893  (  0.299706  -0.231745   0.101802)
  59:      3257.86    0.303398  (  0.086272  -0.131097  -0.527986)
  60:      3407.19   23.506208  (  1.861706   1.981489   4.014220)
  61:      3480.62   78.187117  (  4.368683  -7.401371   2.078807)
  62:      3509.51   76.006570  (  6.655806   4.278967  -3.660227)

--------------------------
THERMOCHEMISTRY AT 298.15K
--------------------------

Temperature         ... 298.15 K
Pressure            ... 1.00 atm
Total Mass          ... 100.18 AMU

Throughout the following assumptions are being made:
  (1) The electronic state is orbitally nondegenerate
  (2) There are no thermally accessible electronically excited states
  (3) Hindered rotations indicated by low frequency modes) are not
      treated as such but are treated as vibrations and this may
      case some error
  (4) All equations used are the standard statistical mechanics
      equations for an ideal gas
  (5) All vibrations are strinctly harmonic

------------
INNER ENERGY
------------

The inner energy is: U= E(el) + E(ZPE) + E(vib) + E(rot) + E(trans)
    E(el)   - is the total energy from the electronic structure calculation
              = E(kin-el) + E(nuc-el) + E(el-el) + E(nuc-nuc)
    E(ZPE)  - the the zero temperature vibrational energy from the frequency calculation
    E(vib)  - the the finite temperature correction to E(ZPE) due to population
              of excietd vibrational states
    E(rot)  - is the rotational thermal energy
    E(trans)- is the translational thermal energy

Summary of contributions to the inner energy U:
Electronic energy                ...   -291.30601001 Eh
Zero point energy                ...      0.19803827 Eh     124.27 kcal/mol
Thermal vibrational correction   ...      0.00579850 Eh       3.64 kcal/mol
Thermal rotational correction    ...      0.00141627 Eh       0.89 kcal/mol
Thermal translational correction ...      0.00141627 Eh       0.89 kcal/mol
-----------------------------------------------------------------------
Total thermal energy                   -291.09934069 Eh

Summary of corrections to the electronic energy:
(perhaps to be used in another calculation)
Total thermal correction                  0.00863105 Eh       5.42 kcal/mol
Non-thermal (ZPE) correction              0.19803827 Eh     124.27 kcal/mol
-----------------------------------------------------------------------
Total correction                          0.20666931 Eh     129.69 kcal/mol

--------
ENTHALPY
--------

The enthalpy is H = U + kB*T
                kB is Boltzmann's constant
Total free energy                 ...   -291.09934069 Eh
Thermal Enthalpy correction       ...      0.00094421 Eh       0.59 kcal/mol
-----------------------------------------------------------------------
Total Enthalpy                    ...   -291.09839649 Eh

-------
ENTROPY
-------

The entropy contributions are T*S = T*(S(el)+S(vib)+S(rot)+S(trans)
     S(el)   - electronic entropy
     S(vib)  - vibrational entropy
     S(rot)  - rotational entropy
     S(trans)- translational entropy
The entropies will be listed as mutliplied by the temperature to get
units of energy

Electronic entropy                ...      0.00000000 Eh      0.00 kcal/mol
Vibrational entropy               ...      0.01020128 Eh      6.40 kcal/mol
Rotational entropy                ...      0.01205677 Eh      7.57 kcal/mol
Translational entropy             ...      0.01887386 Eh     11.84 kcal/mol
-----------------------------------------------------------------------
Final entropy term                ...      0.04113191 Eh     25.81 kcal/mol

CAUTION: The rotational entropy is not quite correctly treated here
         because it includes a symmetry number that is not yet correctly
         implemented in ORCA!
For a nonlinear molecule the correct rotational entropy is:
    S(rot) = R*(ln(qrot/sn)+1.5)
    R    = 8.31441 J/mol/K = 1.987191683e-3 kcal/mol/K
    qrot = 235195.0415297
    sn is the rotational symmetry number. We have assumed 3 here
       if it is different for your molecule then you should correct
       the printed rotational entropy by manually evaluating the equation
       as given above

For convenience we print out the resulting values for sn=1 - 12:
 sn= 1  qrot/sn=  235195.0415 T*S(rot)=     8.22 kcal/mol T*S(tot)=    26.46 kcal/mol
 sn= 2  qrot/sn=  117597.5208 T*S(rot)=     7.81 kcal/mol T*S(tot)=    26.05 kcal/mol
 sn= 3  qrot/sn=   78398.3472 T*S(rot)=     7.57 kcal/mol T*S(tot)=    25.81 kcal/mol
 sn= 4  qrot/sn=   58798.7604 T*S(rot)=     7.40 kcal/mol T*S(tot)=    25.64 kcal/mol
 sn= 5  qrot/sn=   47039.0083 T*S(rot)=     7.26 kcal/mol T*S(tot)=    25.51 kcal/mol
 sn= 6  qrot/sn=   39199.1736 T*S(rot)=     7.16 kcal/mol T*S(tot)=    25.40 kcal/mol
 sn= 7  qrot/sn=   33599.2916 T*S(rot)=     7.06 kcal/mol T*S(tot)=    25.31 kcal/mol
 sn= 8  qrot/sn=   29399.3802 T*S(rot)=     6.98 kcal/mol T*S(tot)=    25.23 kcal/mol
 sn= 9  qrot/sn=   26132.7824 T*S(rot)=     6.91 kcal/mol T*S(tot)=    25.16 kcal/mol
 sn=10  qrot/sn=   23519.5042 T*S(rot)=     6.85 kcal/mol T*S(tot)=    25.10 kcal/mol
 sn=11  qrot/sn=   21381.3674 T*S(rot)=     6.80 kcal/mol T*S(tot)=    25.04 kcal/mol
 sn=12  qrot/sn=   19599.5868 T*S(rot)=     6.74 kcal/mol T*S(tot)=    24.99 kcal/mol

-------------------
GIBBS FREE ENTHALPY
-------------------

The Gibbs free enthalpy is G = H - T*S

Total enthalpy                    ...   -291.09839649 Eh
Total entropy correction          ...     -0.04113191 Eh    -25.81 kcal/mol
-----------------------------------------------------------------------
Final Gibbs free enthalpy         ...   -291.13952840 Eh

For completeness - the Gibbs free enthalpy minus the electronic energy
G-E(el)                           ...      0.16648161 Eh    104.47 kcal/mol

                             ****ORCA TERMINATED NORMALLY****
TOTAL RUN TIME: 0 days 0 hours 52 minutes 51 seconds 321 msec
