                         Program Version 3.0.3 - RELEASE   -
|  1> ! NORI PBE0 def2-TZVP UseSym TightOPT Freq TightSCF Grid3 FinalGrid5 XYZFile
|  2> % pal
|  3>     nprocs 8
|  4> end
|  5> %method
|  6>     SymThresh 5.0e-2
|  7> end
|  8> % geom
|  9>     MaxIter 10
| 10> end
| 11> % maxcore 2000
| 12> % output
| 13>     printlevel mini
| 14>     print[ P_Basis ] 0
| 15>     print[ P_SCFInfo ] 1
| 16>     print[ P_SCFIterInfo ] 1
| 17>     print[ P_OrbEn ] 0
| 18>     print[ P_Cartesian ] 0
| 19> end
| 20> % elprop
| 21>     Dipole false
| 22> end
| 23> *xyz 1 1
| 24>  C        1.6347663499    -0.5190872672     0.6655023510
| 25>  C        1.7763266342    -1.2489980090    -0.6607406249
| 26>  C        2.7388951573    -0.5992189765    -1.6543439367
| 27>  C        4.1623182363    -0.4657273873    -1.1833984470
| 28>  N        4.7253740903    -1.7826918152    -0.7592281748
| 29>  C        5.1396703824     0.4545062645    -1.8312299854
| 30>  C        4.6781613501     0.7114039878    -0.4255610264
| 31>  H        0.9047270302    -1.0190727837     1.3033920565
| 32>  H        1.2900673823     0.5065439010     0.5139462965
| 33>  H        2.5736769608    -0.4660598435     1.2246259962
| 34>  H        2.0507345572    -2.3001535796    -0.4879298699
| 35>  H        0.8002010593    -1.3101606787    -1.1483689684
| 36>  H        2.7257109972    -1.1520297507    -2.6012639053
| 37>  H        2.3938661156     0.4101162100    -1.8937790464
| 38>  H        4.7301755759    -2.4457973874    -1.5391844880
| 39>  H        4.1586418375    -2.1874263736    -0.0087652472
| 40>  H        5.6838604834    -1.6897347388    -0.4193723040
| 41>  H        4.7599460508     1.0781001626    -2.6305522785
| 42>  H        6.1632074445     0.1269183859    -1.9762300975
| 43>  H        3.9792455825     1.5166279056    -0.2426090413
| 44>  H        5.3907067223     0.5558817740     0.3775507415
| 45> *
| 46>
| 47>                          ****END OF INPUT****
 Total Charge           Charge          ....    1
 Multiplicity           Mult            ....    1
 Number of Electrons    NEL             ....   56
FINAL SINGLE POINT ENERGY      -291.305848955945
FINAL SINGLE POINT ENERGY      -291.305850739549
FINAL SINGLE POINT ENERGY      -291.305852095962

CARTESIAN COORDINATES (ANGSTROEM)
---------------------------------
  C      2.058563    0.001327   -1.274821
  C      1.333088    1.202114   -0.689217
  C     -0.177107    1.028459   -0.534970
  C     -0.612733   -0.104707    0.355149
  N      0.000513   -0.001663    1.713115
  C     -1.997705   -0.656713    0.332980
  C     -0.842790   -1.498013   -0.126696
  H      3.120680    0.216045   -1.398404
  H      1.658888   -0.256641   -2.258356
  H      1.979256   -0.891900   -0.648028
  H      1.788558    1.490251    0.269673
  H      1.494848    2.073072   -1.328807
  H     -0.623619    1.961523   -0.169638
  H     -0.627658    0.846723   -1.514523
  H     -0.276979    0.869132    2.174121
  H      1.021939   -0.007071    1.644688
  H     -0.281644   -0.778423    2.312961
  H     -2.672719   -0.242688   -0.404949
  H     -2.477484   -0.924394    1.268228
  H     -0.711407   -1.674270   -1.185943
  H     -0.544709   -2.332846    0.498500

FINAL SINGLE POINT ENERGY      -291.305852569134
                    ***********************HURRAY********************
 Multiplicity           Mult            ....    1
 Number of Electrons    NEL             ....   56
 Basis Dimension        Dim             ....  301
FINAL SINGLE POINT ENERGY      -291.305852859552

VIBRATIONAL FREQUENCIES
-----------------------

   0:         0.00 cm**-1
   1:         0.00 cm**-1
   2:         0.00 cm**-1
   3:         0.00 cm**-1
   4:         0.00 cm**-1
   5:         0.00 cm**-1
   6:        57.46 cm**-1
   7:       121.14 cm**-1
   8:       197.40 cm**-1
   9:       202.84 cm**-1
  10:       269.70 cm**-1
  11:       290.23 cm**-1
  12:       340.87 cm**-1
  13:       370.44 cm**-1
  14:       380.94 cm**-1
  15:       504.45 cm**-1
  16:       679.44 cm**-1
  17:       764.78 cm**-1
  18:       783.10 cm**-1
  19:       850.21 cm**-1
  20:       882.94 cm**-1
  21:       892.96 cm**-1
  22:       916.83 cm**-1
  23:       958.57 cm**-1
  24:       964.87 cm**-1
  25:      1022.00 cm**-1
  26:      1067.22 cm**-1
  27:      1078.93 cm**-1
  28:      1097.36 cm**-1
  29:      1106.18 cm**-1
  30:      1124.07 cm**-1
  31:      1170.03 cm**-1
  32:      1187.51 cm**-1
  33:      1234.88 cm**-1
  34:      1289.48 cm**-1
  35:      1303.60 cm**-1
  36:      1353.36 cm**-1
  37:      1382.27 cm**-1
  38:      1418.85 cm**-1
  39:      1426.64 cm**-1
  40:      1463.03 cm**-1
  41:      1471.65 cm**-1
  42:      1482.11 cm**-1
  43:      1489.79 cm**-1
  44:      1497.97 cm**-1
  45:      1503.79 cm**-1
  46:      1522.00 cm**-1
  47:      1642.22 cm**-1
  48:      1656.86 cm**-1
  49:      3003.48 cm**-1
  50:      3042.14 cm**-1
  51:      3049.10 cm**-1
  52:      3095.36 cm**-1
  53:      3104.76 cm**-1
  54:      3119.93 cm**-1
  55:      3143.58 cm**-1
  56:      3152.37 cm**-1
  57:      3155.61 cm**-1
  58:      3240.20 cm**-1
  59:      3251.22 cm**-1
  60:      3406.07 cm**-1
  61:      3478.57 cm**-1
  62:      3509.31 cm**-1

IR SPECTRUM
-----------

 Mode    freq (cm**-1)   T**2         TX         TY         TZ
-------------------------------------------------------------------
   6:        57.46    8.034119  ( -1.989527   0.712778   1.888875)
   7:       121.14    0.158522  ( -0.338564  -0.209154   0.012277)
   8:       197.40    0.791483  ( -0.049452  -0.506098   0.730002)
   9:       202.84    5.117554  ( -1.090590  -0.961556   1.733083)
  10:       269.70    7.502699  ( -0.760702  -1.224673   2.328993)
  11:       290.23    0.999854  ( -0.717835   0.223594   0.659221)
  12:       340.87    6.873206  ( -1.794383  -1.134234  -1.538476)
  13:       370.44    4.923001  ( -1.087312  -1.238368   1.485664)
  14:       380.94    5.604385  ( -1.676961   1.507671   0.720496)
  15:       504.45    1.739309  (  1.053471  -0.704139  -0.365647)
  16:       679.44    5.761152  ( -1.032891  -1.166562   1.825766)
  17:       764.78    0.656649  (  0.299739  -0.360049   0.661189)
  18:       783.10    1.487940  ( -0.824880   0.011796  -0.898540)
  19:       850.21    0.028753  ( -0.147326  -0.014618   0.082668)
  20:       882.94    0.470858  ( -0.022043   0.461505   0.507332)
  21:       892.96    0.121782  ( -0.322457  -0.037937   0.127921)
  22:       916.83    4.784567  ( -0.923597  -1.513835   1.280563)
  23:       958.57    8.399745  (  1.013445   2.714446  -0.066760)
  24:       964.87   22.462606  ( -3.576856  -2.964968   0.936841)
  25:      1022.00    0.888446  ( -0.332511  -0.784498   0.403044)
  26:      1067.22   13.513695  (  1.872996   2.571678   1.841753)
  27:      1078.93    4.640173  ( -0.309193   2.129507   0.098857)
  28:      1097.36   10.495139  (  3.143065   0.241895  -0.746839)
  29:      1106.18    0.854819  (  0.139213  -0.873367  -0.269570)
  30:      1124.07    6.702391  (  1.957256   1.690856  -0.112010)
  31:      1170.03   13.154267  ( -2.377980   1.926756   1.946045)
  32:      1187.51    1.449288  (  0.992673  -0.495919  -0.466855)
  33:      1234.88    3.580033  (  1.298300  -0.233404   1.356456)
  34:      1289.48    5.424042  ( -0.374075  -0.085848   2.297116)
  35:      1303.60    1.859960  ( -0.550101  -0.759489   0.990214)
  36:      1353.36    2.939015  ( -0.430179   1.563399   0.556548)
  37:      1382.27    3.007411  ( -1.379587  -1.046925   0.089987)
  38:      1418.85    8.073211  (  1.786821  -1.287589  -1.795159)
  39:      1426.64    1.821111  (  0.267810  -0.934197   0.936304)
  40:      1463.03   17.524964  (  3.478987  -2.324963   0.127133)
  41:      1471.65   19.762563  ( -1.669042   0.155773  -4.117353)
  42:      1482.11   33.441914  (  2.608486  -1.167559   5.027377)
  43:      1489.79   11.139733  ( -0.220458  -0.895020  -3.207814)
  44:      1497.97   63.493102  ( -1.478721   1.061102  -7.757612)
  45:      1503.79   40.972136  (  3.679043   3.051780   4.257161)
  46:      1522.00   35.095351  ( -0.298373  -2.068379   5.543296)
  47:      1642.22   32.326185  (  4.168019  -3.799837  -0.717660)
  48:      1656.86   34.605510  (  3.035563   3.764857  -3.349137)
  49:      3003.48   34.692833  ( -1.574324  -2.078630  -5.281442)
  50:      3042.14   14.260285  ( -2.021923   2.989130   1.112301)
  51:      3049.10   12.724876  (  0.153164   3.434141  -0.952937)
  52:      3095.36    3.160509  ( -0.150975   1.525004   0.901154)
  53:      3104.76    4.100024  (  0.722231   1.721708   0.783664)
  54:      3119.93   25.635753  ( -0.317900  -2.302113   4.498329)
  55:      3143.58    8.935534  (  2.704740   1.215119   0.378685)
  56:      3152.37    0.271409  (  0.196505  -0.272271  -0.398327)
  57:      3155.61    2.715647  (  0.799331   0.140758   1.434191)
  58:      3240.20    0.258911  ( -0.387765   0.323691   0.061426)
  59:      3251.22    0.389017  (  0.333722   0.106111   0.516126)
  60:      3406.07   23.631397  ( -2.646272  -1.733722  -3.690915)
  61:      3478.57   82.145084  ( -7.089817   3.890381   4.092007)
  62:      3509.31   77.992918  ( -3.021956  -7.261101   4.017103)

--------------------------
THERMOCHEMISTRY AT 298.15K
--------------------------

Temperature         ... 298.15 K
Pressure            ... 1.00 atm
Total Mass          ... 100.18 AMU

Throughout the following assumptions are being made:
  (1) The electronic state is orbitally nondegenerate
  (2) There are no thermally accessible electronically excited states
  (3) Hindered rotations indicated by low frequency modes) are not
      treated as such but are treated as vibrations and this may
      case some error
  (4) All equations used are the standard statistical mechanics
      equations for an ideal gas
  (5) All vibrations are strinctly harmonic

------------
INNER ENERGY
------------

The inner energy is: U= E(el) + E(ZPE) + E(vib) + E(rot) + E(trans)
    E(el)   - is the total energy from the electronic structure calculation
              = E(kin-el) + E(nuc-el) + E(el-el) + E(nuc-nuc)
    E(ZPE)  - the the zero temperature vibrational energy from the frequency calculation
    E(vib)  - the the finite temperature correction to E(ZPE) due to population
              of excietd vibrational states
    E(rot)  - is the rotational thermal energy
    E(trans)- is the translational thermal energy

Summary of contributions to the inner energy U:
Electronic energy                ...   -291.30585286 Eh
Zero point energy                ...      0.19859399 Eh     124.62 kcal/mol
Thermal vibrational correction   ...      0.00570261 Eh       3.58 kcal/mol
Thermal rotational correction    ...      0.00141627 Eh       0.89 kcal/mol
Thermal translational correction ...      0.00141627 Eh       0.89 kcal/mol
-----------------------------------------------------------------------
Total thermal energy                   -291.09872372 Eh

Summary of corrections to the electronic energy:
(perhaps to be used in another calculation)
Total thermal correction                  0.00853516 Eh       5.36 kcal/mol
Non-thermal (ZPE) correction              0.19859399 Eh     124.62 kcal/mol
-----------------------------------------------------------------------
Total correction                          0.20712914 Eh     129.98 kcal/mol

--------
ENTHALPY
--------

The enthalpy is H = U + kB*T
                kB is Boltzmann's constant
Total free energy                 ...   -291.09872372 Eh
Thermal Enthalpy correction       ...      0.00094421 Eh       0.59 kcal/mol
-----------------------------------------------------------------------
Total Enthalpy                    ...   -291.09777951 Eh

-------
ENTROPY
-------

The entropy contributions are T*S = T*(S(el)+S(vib)+S(rot)+S(trans)
     S(el)   - electronic entropy
     S(vib)  - vibrational entropy
     S(rot)  - rotational entropy
     S(trans)- translational entropy
The entropies will be listed as mutliplied by the temperature to get
units of energy

Electronic entropy                ...      0.00000000 Eh      0.00 kcal/mol
Vibrational entropy               ...      0.01011597 Eh      6.35 kcal/mol
Rotational entropy                ...      0.01212374 Eh      7.61 kcal/mol
Translational entropy             ...      0.01887386 Eh     11.84 kcal/mol
-----------------------------------------------------------------------
Final entropy term                ...      0.04111358 Eh     25.80 kcal/mol

CAUTION: The rotational entropy is not quite correctly treated here
         because it includes a symmetry number that is not yet correctly
         implemented in ORCA!
For a nonlinear molecule the correct rotational entropy is:
    S(rot) = R*(ln(qrot/sn)+1.5)
    R    = 8.31441 J/mol/K = 1.987191683e-3 kcal/mol/K
    qrot = 252483.4497543
    sn is the rotational symmetry number. We have assumed 3 here
       if it is different for your molecule then you should correct
       the printed rotational entropy by manually evaluating the equation
       as given above

For convenience we print out the resulting values for sn=1 - 12:
 sn= 1  qrot/sn=  252483.4498 T*S(rot)=     8.26 kcal/mol T*S(tot)=    26.45 kcal/mol
 sn= 2  qrot/sn=  126241.7249 T*S(rot)=     7.85 kcal/mol T*S(tot)=    26.04 kcal/mol
 sn= 3  qrot/sn=   84161.1499 T*S(rot)=     7.61 kcal/mol T*S(tot)=    25.80 kcal/mol
 sn= 4  qrot/sn=   63120.8624 T*S(rot)=     7.44 kcal/mol T*S(tot)=    25.63 kcal/mol
 sn= 5  qrot/sn=   50496.6900 T*S(rot)=     7.31 kcal/mol T*S(tot)=    25.50 kcal/mol
 sn= 6  qrot/sn=   42080.5750 T*S(rot)=     7.20 kcal/mol T*S(tot)=    25.39 kcal/mol
 sn= 7  qrot/sn=   36069.0643 T*S(rot)=     7.11 kcal/mol T*S(tot)=    25.30 kcal/mol
 sn= 8  qrot/sn=   31560.4312 T*S(rot)=     7.03 kcal/mol T*S(tot)=    25.22 kcal/mol
 sn= 9  qrot/sn=   28053.7166 T*S(rot)=     6.96 kcal/mol T*S(tot)=    25.15 kcal/mol
 sn=10  qrot/sn=   25248.3450 T*S(rot)=     6.89 kcal/mol T*S(tot)=    25.09 kcal/mol
 sn=11  qrot/sn=   22953.0409 T*S(rot)=     6.84 kcal/mol T*S(tot)=    25.03 kcal/mol
 sn=12  qrot/sn=   21040.2875 T*S(rot)=     6.79 kcal/mol T*S(tot)=    24.98 kcal/mol

-------------------
GIBBS FREE ENTHALPY
-------------------

The Gibbs free enthalpy is G = H - T*S

Total enthalpy                    ...   -291.09777951 Eh
Total entropy correction          ...     -0.04111358 Eh    -25.80 kcal/mol
-----------------------------------------------------------------------
Final Gibbs free enthalpy         ...   -291.13889309 Eh

For completeness - the Gibbs free enthalpy minus the electronic energy
G-E(el)                           ...      0.16695977 Eh    104.77 kcal/mol

                             ****ORCA TERMINATED NORMALLY****
TOTAL RUN TIME: 0 days 0 hours 52 minutes 15 seconds 214 msec
