                         Program Version 3.0.3 - RELEASE   -
|  1> ! NORI PBE0 def2-TZVP UseSym TightOPT Freq TightSCF Grid3 FinalGrid5 XYZFile
|  2> % pal
|  3>     nprocs 8
|  4> end
|  5> %method
|  6>     SymThresh 5.0e-2
|  7> end
|  8> % geom
|  9>     MaxIter 10
| 10> end
| 11> % maxcore 2000
| 12> % output
| 13>     printlevel mini
| 14>     print[ P_Basis ] 0
| 15>     print[ P_SCFInfo ] 1
| 16>     print[ P_SCFIterInfo ] 1
| 17>     print[ P_OrbEn ] 0
| 18>     print[ P_Cartesian ] 0
| 19> end
| 20> % elprop
| 21>     Dipole false
| 22> end
| 23> *xyz 1 1
| 24>  C        0.8587870228     0.0870470745     0.2136501728
| 25>  C        2.3671692517     0.2024571791     0.0860558493
| 26>  C        2.9546427206    -0.8522474269    -0.8404080902
| 27>  C        4.4715216472    -0.7332512819    -0.9642036762
| 28>  C        5.0166913566    -1.7838544374    -1.8793497349
| 29>  C        5.1902146400    -1.5534613179    -3.3208652381
| 30>  N        6.3882952392    -1.5596628556    -2.4448053702
| 31>  H        0.4637035167     0.8542843175     0.8807593484
| 32>  H        0.5675775539    -0.8852278161     0.6187934802
| 33>  H        0.3669949029     0.2048584574    -0.7550086166
| 34>  H        2.6319976865     1.1981510867    -0.2868177018
| 35>  H        2.8309438101     0.1123195344     1.0742641780
| 36>  H        2.6972629242    -1.8499404888    -0.4671214737
| 37>  H        2.4960684360    -0.7653644262    -1.8321506055
| 38>  H        4.7353231115     0.2610104110    -1.3448169598
| 39>  H        4.9360070757    -0.8392234454     0.0209878742
| 40>  H        4.8899212423    -2.8161242442    -1.5684784782
| 41>  H        5.1517314668    -2.3810950378    -4.0175182359
| 42>  H        4.9562095466    -0.5773012912    -3.7272464425
| 43>  H        6.8354822366    -0.6712119992    -2.2454765291
| 44>  H        7.0310446119    -2.3409019921    -2.5123937501
| 45> *
| 46>
| 47>                          ****END OF INPUT****
 Total Charge           Charge          ....    1
 Multiplicity           Mult            ....    1
 Number of Electrons    NEL             ....   56
FINAL SINGLE POINT ENERGY      -291.302174625898

CARTESIAN COORDINATES (ANGSTROEM)
---------------------------------
  C      0.165956    0.000558   -3.534597
  C      0.849860    0.031525   -2.179343
  C     -0.138864    0.184755   -1.032333
  C      0.554201    0.218302    0.327503
  C     -0.443243    0.372210    1.432173
  C     -1.044169   -0.784590    2.112182
  N      0.000431   -0.000062    2.816436
  H      0.895720   -0.111043   -4.337639
  H     -0.390936    0.922489   -3.719648
  H     -0.536433   -0.833626   -3.607197
  H      1.429472   -0.887350   -2.036034
  H      1.570063    0.856366   -2.146378
  H     -0.716396    1.106107   -1.169079
  H     -0.860663   -0.639772   -1.057777
  H      1.128056   -0.705279    0.473698
  H      1.262442    1.051874    0.364686
  H     -1.020648    1.291300    1.444535
  H     -2.026509   -0.708369    2.559971
  H     -0.723282   -1.781006    1.833997
  H      0.920520   -0.415739    2.915359
  H     -0.278197    0.580391    3.599561

FINAL SINGLE POINT ENERGY      -291.302175522859
                    ***********************HURRAY********************
 Multiplicity           Mult            ....    1
 Number of Electrons    NEL             ....   56
 Basis Dimension        Dim             ....  301
FINAL SINGLE POINT ENERGY      -291.302175856271

VIBRATIONAL FREQUENCIES
-----------------------

   0:         0.00 cm**-1
   1:         0.00 cm**-1
   2:         0.00 cm**-1
   3:         0.00 cm**-1
   4:         0.00 cm**-1
   5:         0.00 cm**-1
   6:        66.59 cm**-1
   7:        82.52 cm**-1
   8:       119.93 cm**-1
   9:       143.46 cm**-1
  10:       243.58 cm**-1
  11:       286.40 cm**-1
  12:       313.13 cm**-1
  13:       410.13 cm**-1
  14:       460.41 cm**-1
  15:       738.13 cm**-1
  16:       786.79 cm**-1
  17:       797.55 cm**-1
  18:       852.05 cm**-1
  19:       866.84 cm**-1
  20:       883.85 cm**-1
  21:       920.26 cm**-1
  22:       936.90 cm**-1
  23:       979.36 cm**-1
  24:      1019.26 cm**-1
  25:      1043.54 cm**-1
  26:      1068.93 cm**-1
  27:      1084.38 cm**-1
  28:      1134.55 cm**-1
  29:      1159.94 cm**-1
  30:      1189.00 cm**-1
  31:      1210.74 cm**-1
  32:      1248.33 cm**-1
  33:      1254.75 cm**-1
  34:      1276.18 cm**-1
  35:      1282.47 cm**-1
  36:      1324.62 cm**-1
  37:      1338.67 cm**-1
  38:      1356.67 cm**-1
  39:      1398.79 cm**-1
  40:      1415.17 cm**-1
  41:      1428.48 cm**-1
  42:      1477.34 cm**-1
  43:      1480.35 cm**-1
  44:      1490.70 cm**-1
  45:      1492.64 cm**-1
  46:      1496.87 cm**-1
  47:      1503.59 cm**-1
  48:      1631.62 cm**-1
  49:      3030.48 cm**-1
  50:      3035.65 cm**-1
  51:      3044.19 cm**-1
  52:      3054.03 cm**-1
  53:      3062.66 cm**-1
  54:      3082.69 cm**-1
  55:      3100.70 cm**-1
  56:      3125.40 cm**-1
  57:      3140.59 cm**-1
  58:      3170.35 cm**-1
  59:      3189.77 cm**-1
  60:      3272.45 cm**-1
  61:      3514.26 cm**-1
  62:      3619.25 cm**-1

IR SPECTRUM
-----------

 Mode    freq (cm**-1)   T**2         TX         TY         TZ
-------------------------------------------------------------------
   6:        66.59    1.764013  (  0.051453   1.230851   0.496359)
   7:        82.52    0.118634  (  0.049308  -0.265611  -0.213666)
   8:       119.93    1.772253  ( -1.235148   0.446316  -0.217863)
   9:       143.46    0.619509  ( -0.560845   0.360015   0.418751)
  10:       243.58    0.046309  ( -0.033803  -0.082417   0.195892)
  11:       286.40    0.084400  (  0.281506  -0.064306  -0.031932)
  12:       313.13    4.399950  ( -0.500391  -0.565014   1.957120)
  13:       410.13    0.169249  ( -0.220196  -0.086113   0.336672)
  14:       460.41    0.337887  (  0.409050   0.361633  -0.199467)
  15:       738.13    4.864869  ( -0.088955  -2.160108   0.436906)
  16:       786.79    3.471037  (  0.075415  -0.505283  -1.791658)
  17:       797.55   10.315204  ( -0.460853  -0.499938  -3.138930)
  18:       852.05   21.374195  (  2.232758   0.835289   3.961222)
  19:       866.84    4.770152  (  0.208456   0.209652  -2.163965)
  20:       883.85    2.810513  (  0.972327  -1.245276   0.560697)
  21:       920.26    0.153570  (  0.127088  -0.353440   0.111797)
  22:       936.90    2.749688  (  0.655286  -0.212788  -1.508313)
  23:       979.36   13.737633  ( -0.658749   0.488532  -3.614557)
  24:      1019.26   88.992530  ( -3.068613  -7.604402   4.663606)
  25:      1043.54    1.524935  (  0.666898   0.934767  -0.454306)
  26:      1068.93   10.870746  (  2.389529   1.292539  -1.868218)
  27:      1084.38    1.550193  ( -1.239640   0.011750   0.115529)
  28:      1134.55    8.512619  (  0.553494  -0.661888  -2.787143)
  29:      1159.94    0.927661  ( -0.704623   0.574867  -0.317325)
  30:      1189.00    3.036307  ( -0.300956   0.888438  -1.468472)
  31:      1210.74    0.276668  (  0.403728  -0.237082  -0.239716)
  32:      1248.33    3.460357  ( -0.899801   0.318758   1.596593)
  33:      1254.75    1.722944  (  1.105059  -0.016983   0.708167)
  34:      1276.18    2.091871  (  1.275481   0.018853  -0.681663)
  35:      1282.47    0.713814  (  0.129140   0.586629  -0.594141)
  36:      1324.62    1.043997  ( -0.218237   0.677258   0.733274)
  37:      1338.67    1.544936  ( -0.168130  -1.166088   0.396115)
  38:      1356.67    1.811041  ( -0.630798  -0.557472  -1.049933)
  39:      1398.79    0.935223  ( -0.724598  -0.189818   0.611678)
  40:      1415.17    2.953486  ( -1.327917   0.011266  -1.090870)
  41:      1428.48    8.665339  ( -0.355643  -0.877542  -2.787253)
  42:      1477.34    1.317689  ( -0.732240   0.556419  -0.686959)
  43:      1480.35    3.068185  (  0.782579  -0.319089  -1.534255)
  44:      1490.70    1.160948  (  0.925629   0.002840   0.551500)
  45:      1492.64   11.611440  ( -0.276416  -3.389497   0.215283)
  46:      1496.87   13.753431  ( -1.960757  -2.764751   1.504997)
  47:      1503.59   14.546013  (  3.726386  -0.801150  -0.134984)
  48:      1631.62   71.991035  (  4.400893   0.203101   7.251340)
  49:      3030.48    4.626148  ( -0.052428  -0.827745   1.984499)
  50:      3035.65    0.951158  (  0.309008   0.605399  -0.699403)
  51:      3044.19   33.150400  (  5.592562  -0.938607   0.996325)
  52:      3054.03   24.318576  ( -3.704895   0.129509  -3.252008)
  53:      3062.66    1.119787  (  0.983692   0.054933   0.386159)
  54:      3082.69    6.071339  ( -0.173873   2.456075  -0.093828)
  55:      3100.70   17.089062  ( -0.655667  -4.054759   0.467001)
  56:      3125.40   31.356832  (  0.566313   5.554160  -0.432926)
  57:      3140.59   13.299249  ( -3.142122   0.466446   1.791297)
  58:      3170.35    2.355880  ( -1.071099  -1.080196   0.204455)
  59:      3189.77    0.516294  (  0.144305  -0.475609   0.518909)
  60:      3272.45    4.930665  ( -1.625448   1.330071   0.720760)
  61:      3514.26  115.002328  (  5.197168   1.517792   9.256786)
  62:      3619.25  122.487853  (  7.372007  -6.414704  -5.195473)

--------------------------
THERMOCHEMISTRY AT 298.15K
--------------------------

Temperature         ... 298.15 K
Pressure            ... 1.00 atm
Total Mass          ... 100.18 AMU

Throughout the following assumptions are being made:
  (1) The electronic state is orbitally nondegenerate
  (2) There are no thermally accessible electronically excited states
  (3) Hindered rotations indicated by low frequency modes) are not
      treated as such but are treated as vibrations and this may
      case some error
  (4) All equations used are the standard statistical mechanics
      equations for an ideal gas
  (5) All vibrations are strinctly harmonic

------------
INNER ENERGY
------------

The inner energy is: U= E(el) + E(ZPE) + E(vib) + E(rot) + E(trans)
    E(el)   - is the total energy from the electronic structure calculation
              = E(kin-el) + E(nuc-el) + E(el-el) + E(nuc-nuc)
    E(ZPE)  - the the zero temperature vibrational energy from the frequency calculation
    E(vib)  - the the finite temperature correction to E(ZPE) due to population
              of excietd vibrational states
    E(rot)  - is the rotational thermal energy
    E(trans)- is the translational thermal energy

Summary of contributions to the inner energy U:
Electronic energy                ...   -291.30217586 Eh
Zero point energy                ...      0.19851484 Eh     124.57 kcal/mol
Thermal vibrational correction   ...      0.00572267 Eh       3.59 kcal/mol
Thermal rotational correction    ...      0.00141627 Eh       0.89 kcal/mol
Thermal translational correction ...      0.00141627 Eh       0.89 kcal/mol
-----------------------------------------------------------------------
Total thermal energy                   -291.09510580 Eh

Summary of corrections to the electronic energy:
(perhaps to be used in another calculation)
Total thermal correction                  0.00855522 Eh       5.37 kcal/mol
Non-thermal (ZPE) correction              0.19851484 Eh     124.57 kcal/mol
-----------------------------------------------------------------------
Total correction                          0.20707006 Eh     129.94 kcal/mol

--------
ENTHALPY
--------

The enthalpy is H = U + kB*T
                kB is Boltzmann's constant
Total free energy                 ...   -291.09510580 Eh
Thermal Enthalpy correction       ...      0.00094421 Eh       0.59 kcal/mol
-----------------------------------------------------------------------
Total Enthalpy                    ...   -291.09416159 Eh

-------
ENTROPY
-------

The entropy contributions are T*S = T*(S(el)+S(vib)+S(rot)+S(trans)
     S(el)   - electronic entropy
     S(vib)  - vibrational entropy
     S(rot)  - rotational entropy
     S(trans)- translational entropy
The entropies will be listed as mutliplied by the temperature to get
units of energy

Electronic entropy                ...      0.00000000 Eh      0.00 kcal/mol
Vibrational entropy               ...      0.01073050 Eh      6.73 kcal/mol
Rotational entropy                ...      0.01231581 Eh      7.73 kcal/mol
Translational entropy             ...      0.01887386 Eh     11.84 kcal/mol
-----------------------------------------------------------------------
Final entropy term                ...      0.04192017 Eh     26.31 kcal/mol

CAUTION: The rotational entropy is not quite correctly treated here
         because it includes a symmetry number that is not yet correctly
         implemented in ORCA!
For a nonlinear molecule the correct rotational entropy is:
    S(rot) = R*(ln(qrot/sn)+1.5)
    R    = 8.31441 J/mol/K = 1.987191683e-3 kcal/mol/K
    qrot = 309440.9651656
    sn is the rotational symmetry number. We have assumed 3 here
       if it is different for your molecule then you should correct
       the printed rotational entropy by manually evaluating the equation
       as given above

For convenience we print out the resulting values for sn=1 - 12:
 sn= 1  qrot/sn=  309440.9652 T*S(rot)=     8.38 kcal/mol T*S(tot)=    26.96 kcal/mol
 sn= 2  qrot/sn=  154720.4826 T*S(rot)=     7.97 kcal/mol T*S(tot)=    26.55 kcal/mol
 sn= 3  qrot/sn=  103146.9884 T*S(rot)=     7.73 kcal/mol T*S(tot)=    26.31 kcal/mol
 sn= 4  qrot/sn=   77360.2413 T*S(rot)=     7.56 kcal/mol T*S(tot)=    26.13 kcal/mol
 sn= 5  qrot/sn=   61888.1930 T*S(rot)=     7.43 kcal/mol T*S(tot)=    26.00 kcal/mol
 sn= 6  qrot/sn=   51573.4942 T*S(rot)=     7.32 kcal/mol T*S(tot)=    25.89 kcal/mol
 sn= 7  qrot/sn=   44205.8522 T*S(rot)=     7.23 kcal/mol T*S(tot)=    25.80 kcal/mol
 sn= 8  qrot/sn=   38680.1206 T*S(rot)=     7.15 kcal/mol T*S(tot)=    25.72 kcal/mol
 sn= 9  qrot/sn=   34382.3295 T*S(rot)=     7.08 kcal/mol T*S(tot)=    25.65 kcal/mol
 sn=10  qrot/sn=   30944.0965 T*S(rot)=     7.01 kcal/mol T*S(tot)=    25.59 kcal/mol
 sn=11  qrot/sn=   28130.9968 T*S(rot)=     6.96 kcal/mol T*S(tot)=    25.54 kcal/mol
 sn=12  qrot/sn=   25786.7471 T*S(rot)=     6.91 kcal/mol T*S(tot)=    25.48 kcal/mol

-------------------
GIBBS FREE ENTHALPY
-------------------

The Gibbs free enthalpy is G = H - T*S

Total enthalpy                    ...   -291.09416159 Eh
Total entropy correction          ...     -0.04192017 Eh    -26.31 kcal/mol
-----------------------------------------------------------------------
Final Gibbs free enthalpy         ...   -291.13608176 Eh

For completeness - the Gibbs free enthalpy minus the electronic energy
G-E(el)                           ...      0.16609409 Eh    104.23 kcal/mol

                             ****ORCA TERMINATED NORMALLY****
TOTAL RUN TIME: 0 days 0 hours 39 minutes 48 seconds 590 msec
