                         Program Version 3.0.3 - RELEASE   -
|  1> ! NORI PBE0 def2-TZVP UseSym TightOPT Freq TightSCF Grid3 FinalGrid5 XYZFile
|  2> % pal
|  3>     nprocs 8
|  4> end
|  5> %method
|  6>     SymThresh 5.0e-2
|  7> end
|  8> % geom
|  9>     MaxIter 10
| 10> end
| 11> % maxcore 2000
| 12> % output
| 13>     printlevel mini
| 14>     print[ P_Basis ] 0
| 15>     print[ P_SCFInfo ] 1
| 16>     print[ P_SCFIterInfo ] 1
| 17>     print[ P_OrbEn ] 0
| 18>     print[ P_Cartesian ] 0
| 19> end
| 20> % elprop
| 21>     Dipole false
| 22> end
| 23> *xyz 1 1
| 24>  C        1.3788991390    -0.4067626388    -0.7831541214
| 25>  C        2.4152608995    -0.0248448007    -0.0534694515
| 26>  C        3.1419967053    -0.9127885485     0.9058614952
| 27>  C        4.6125964185    -1.0817200456     0.5230685911
| 28>  C        5.3752753161    -1.9563206783     1.4672115296
| 29>  C        6.8161063151    -1.7976376800     1.7117259375
| 30>  N        5.8569651119    -1.3221495652     2.7394414519
| 31>  H        0.8834311168     0.2777563617    -1.4608767991
| 32>  H        0.9787334303    -1.4141659289    -0.7245926878
| 33>  H        2.7806418148     0.9970566169    -0.1354557932
| 34>  H        2.6556871708    -1.8922908863     0.9416992914
| 35>  H        3.0747892910    -0.4885306504     1.9170734569
| 36>  H        5.1086433625    -0.1072040219     0.4367722139
| 37>  H        4.6863861332    -1.5447634375    -0.4661515386
| 38>  H        4.9590295102    -2.9396974115     1.6630304989
| 39>  H        7.3497055217    -0.9978062741     1.2133732398
| 40>  H        7.4126155547    -2.6446215377     2.0255178322
| 41>  H        5.7863451294    -1.8380442956     3.6092412634
| 42>  H        5.7293620591    -0.3208045776     2.8412935899
| 43> *
| 44>
| 45>                          ****END OF INPUT****
 Total Charge           Charge          ....    1
 Multiplicity           Mult            ....    1
 Number of Electrons    NEL             ....   54
FINAL SINGLE POINT ENERGY      -290.067049953460
FINAL SINGLE POINT ENERGY      -290.067051324538
FINAL SINGLE POINT ENERGY      -290.067052772760

CARTESIAN COORDINATES (ANGSTROEM)
---------------------------------
  C      1.018752   -0.000163   -3.289186
  C      0.932441   -0.572023   -2.098261
  C      0.782335    0.178558   -0.813217
  C     -0.528425   -0.165675   -0.105011
  C     -0.713297    0.560116    1.189960
  C     -1.483740    0.002636    2.311404
  N     -0.002210    0.000549    2.387803
  H      1.128004   -0.589603   -4.191201
  H      0.992027    1.078638   -3.408394
  H      0.970373   -1.657054   -2.021167
  H      0.823559    1.254553   -1.008327
  H      1.628224   -0.056497   -0.152752
  H     -0.611673   -1.246818    0.060490
  H     -1.375978    0.105619   -0.742553
  H     -0.619928    1.641319    1.159598
  H     -1.915207   -0.985870    2.213939
  H     -1.959614    0.660971    3.026710
  H      0.448610    0.634175    3.038350
  H      0.476845   -0.886493    2.274640

FINAL SINGLE POINT ENERGY      -290.067053191206
                    ***********************HURRAY********************
 Multiplicity           Mult            ....    1
 Number of Electrons    NEL             ....   54
 Basis Dimension        Dim             ....  289
FINAL SINGLE POINT ENERGY      -290.067053361036

VIBRATIONAL FREQUENCIES
-----------------------

   0:         0.00 cm**-1
   1:         0.00 cm**-1
   2:         0.00 cm**-1
   3:         0.00 cm**-1
   4:         0.00 cm**-1
   5:         0.00 cm**-1
   6:        66.48 cm**-1
   7:        70.77 cm**-1
   8:       121.94 cm**-1
   9:       161.07 cm**-1
  10:       303.91 cm**-1
  11:       351.47 cm**-1
  12:       423.98 cm**-1
  13:       462.31 cm**-1
  14:       648.73 cm**-1
  15:       742.74 cm**-1
  16:       789.69 cm**-1
  17:       841.52 cm**-1
  18:       872.93 cm**-1
  19:       916.75 cm**-1
  20:       939.43 cm**-1
  21:       961.47 cm**-1
  22:       989.86 cm**-1
  23:      1008.06 cm**-1
  24:      1020.40 cm**-1
  25:      1029.37 cm**-1
  26:      1066.62 cm**-1
  27:      1073.48 cm**-1
  28:      1159.27 cm**-1
  29:      1184.05 cm**-1
  30:      1201.99 cm**-1
  31:      1246.87 cm**-1
  32:      1262.87 cm**-1
  33:      1271.29 cm**-1
  34:      1285.34 cm**-1
  35:      1319.93 cm**-1
  36:      1331.85 cm**-1
  37:      1369.21 cm**-1
  38:      1438.40 cm**-1
  39:      1453.45 cm**-1
  40:      1465.01 cm**-1
  41:      1481.91 cm**-1
  42:      1496.84 cm**-1
  43:      1632.38 cm**-1
  44:      1730.13 cm**-1
  45:      3015.53 cm**-1
  46:      3042.57 cm**-1
  47:      3081.38 cm**-1
  48:      3101.52 cm**-1
  49:      3151.73 cm**-1
  50:      3159.07 cm**-1
  51:      3171.12 cm**-1
  52:      3187.78 cm**-1
  53:      3251.35 cm**-1
  54:      3272.70 cm**-1
  55:      3514.29 cm**-1
  56:      3619.08 cm**-1

IR SPECTRUM
-----------

 Mode    freq (cm**-1)   T**2         TX         TY         TZ
-------------------------------------------------------------------
   6:        66.48    2.151347  (  0.909690   1.061573  -0.443705)
   7:        70.77    1.474865  (  0.698984  -0.730994  -0.672260)
   8:       121.94    4.212543  (  0.202475   0.417409  -1.999329)
   9:       161.07    1.722923  ( -0.522935   0.549477   1.071232)
  10:       303.91    4.222153  (  0.083431  -0.389846  -2.015741)
  11:       351.47    0.320708  (  0.373895   0.153793  -0.396559)
  12:       423.98    0.461973  (  0.436015  -0.159211  -0.496503)
  13:       462.31    0.760417  (  0.354882  -0.150374  -0.782217)
  14:       648.73   13.797191  (  3.700655  -0.152102   0.281445)
  15:       742.74    1.632920  (  0.146182   1.248017  -0.232390)
  16:       789.69    7.553732  (  0.282122  -0.681316   2.647630)
  17:       841.52   15.876115  (  3.843748  -0.488401   0.929076)
  18:       872.93    4.283011  ( -1.186032  -0.345640  -1.660383)
  19:       916.75   11.099698  ( -1.572031   1.760520  -2.351379)
  20:       939.43    1.396989  ( -0.047799  -0.922199  -0.737736)
  21:       961.47    9.245117  ( -1.421706   0.599716  -2.619964)
  22:       989.86   45.886630  (  6.690242   0.044494   1.060805)
  23:      1008.06   10.260713  ( -1.945382  -1.210390   2.238562)
  24:      1020.40   83.734578  (  3.723965   3.812033  -7.438754)
  25:      1029.37   14.775882  (  3.802492   0.070223  -0.558573)
  26:      1066.62    9.268894  ( -2.555232  -0.307493   1.626386)
  27:      1073.48   13.205122  (  0.959107  -0.043746  -3.504757)
  28:      1159.27    2.176636  (  0.550986  -1.336569  -0.294338)
  29:      1184.05    1.854747  (  0.173527  -0.362581   1.301219)
  30:      1201.99    0.038841  ( -0.116362  -0.108374  -0.116432)
  31:      1246.87    2.714392  (  0.124279   0.794945   1.437710)
  32:      1262.87    2.895330  ( -0.692085   1.159835   1.034955)
  33:      1271.29    6.576263  ( -1.310607   1.702609  -1.399891)
  34:      1285.34    2.285441  ( -0.538014   0.363319   1.365277)
  35:      1319.93    3.976626  ( -0.663306  -0.597958   1.783002)
  36:      1331.85    1.142706  ( -0.311025  -0.960575   0.351091)
  37:      1369.21    0.978922  (  0.879616   0.092835   0.443372)
  38:      1438.40    1.958539  ( -0.101056   0.439890   1.324697)
  39:      1453.45    5.826258  ( -0.253273  -1.539106   1.842081)
  40:      1465.01    3.032776  (  1.413366   0.560231   0.849302)
  41:      1481.91   18.323307  (  2.590369   3.315964   0.785926)
  42:      1496.84   10.165223  (  2.203256   0.634402  -2.215495)
  43:      1632.38   59.897854  (  5.629694  -2.517342   4.676258)
  44:      1730.13    4.735015  (  0.047772   0.418787  -2.134795)
  45:      3015.53   25.775281  ( -2.562329  -0.729934  -4.321683)
  46:      3042.57    8.960578  ( -1.565259  -2.013079   1.567818)
  47:      3081.38    4.514665  (  0.120472  -1.993271   0.725964)
  48:      3101.52    5.452340  (  0.517006  -2.216192   0.523008)
  49:      3151.73    9.610172  (  0.217156  -3.082612   0.246006)
  50:      3159.07    0.083228  ( -0.157530  -0.107164   0.216629)
  51:      3171.12    2.670788  ( -1.350967  -0.259507   0.882231)
  52:      3187.78    0.644724  ( -0.005197  -0.489164   0.636723)
  53:      3251.35    2.148349  ( -0.119899   1.403256   0.406012)
  54:      3272.70    5.294489  ( -0.030941   2.112207   0.912202)
  55:      3514.29  101.518493  ( -7.821057   1.838924  -6.080125)
  56:      3619.08  123.168036  ( -0.306196  -9.475528  -5.769631)

--------------------------
THERMOCHEMISTRY AT 298.15K
--------------------------

Temperature         ... 298.15 K
Pressure            ... 1.00 atm
Total Mass          ... 98.17 AMU

Throughout the following assumptions are being made:
  (1) The electronic state is orbitally nondegenerate
  (2) There are no thermally accessible electronically excited states
  (3) Hindered rotations indicated by low frequency modes) are not
      treated as such but are treated as vibrations and this may
      case some error
  (4) All equations used are the standard statistical mechanics
      equations for an ideal gas
  (5) All vibrations are strinctly harmonic

------------
INNER ENERGY
------------

The inner energy is: U= E(el) + E(ZPE) + E(vib) + E(rot) + E(trans)
    E(el)   - is the total energy from the electronic structure calculation
              = E(kin-el) + E(nuc-el) + E(el-el) + E(nuc-nuc)
    E(ZPE)  - the the zero temperature vibrational energy from the frequency calculation
    E(vib)  - the the finite temperature correction to E(ZPE) due to population
              of excietd vibrational states
    E(rot)  - is the rotational thermal energy
    E(trans)- is the translational thermal energy

Summary of contributions to the inner energy U:
Electronic energy                ...   -290.06705336 Eh
Zero point energy                ...      0.17487642 Eh     109.74 kcal/mol
Thermal vibrational correction   ...      0.00517042 Eh       3.24 kcal/mol
Thermal rotational correction    ...      0.00141627 Eh       0.89 kcal/mol
Thermal translational correction ...      0.00141627 Eh       0.89 kcal/mol
-----------------------------------------------------------------------
Total thermal energy                   -289.88417398 Eh

Summary of corrections to the electronic energy:
(perhaps to be used in another calculation)
Total thermal correction                  0.00800296 Eh       5.02 kcal/mol
Non-thermal (ZPE) correction              0.17487642 Eh     109.74 kcal/mol
-----------------------------------------------------------------------
Total correction                          0.18287938 Eh     114.76 kcal/mol

--------
ENTHALPY
--------

The enthalpy is H = U + kB*T
                kB is Boltzmann's constant
Total free energy                 ...   -289.88417398 Eh
Thermal Enthalpy correction       ...      0.00094421 Eh       0.59 kcal/mol
-----------------------------------------------------------------------
Total Enthalpy                    ...   -289.88322977 Eh

-------
ENTROPY
-------

The entropy contributions are T*S = T*(S(el)+S(vib)+S(rot)+S(trans)
     S(el)   - electronic entropy
     S(vib)  - vibrational entropy
     S(rot)  - rotational entropy
     S(trans)- translational entropy
The entropies will be listed as mutliplied by the temperature to get
units of energy

Electronic entropy                ...      0.00000000 Eh      0.00 kcal/mol
Vibrational entropy               ...      0.00980300 Eh      6.15 kcal/mol
Rotational entropy                ...      0.01219515 Eh      7.65 kcal/mol
Translational entropy             ...      0.01884507 Eh     11.83 kcal/mol
-----------------------------------------------------------------------
Final entropy term                ...      0.04084322 Eh     25.63 kcal/mol

CAUTION: The rotational entropy is not quite correctly treated here
         because it includes a symmetry number that is not yet correctly
         implemented in ORCA!
For a nonlinear molecule the correct rotational entropy is:
    S(rot) = R*(ln(qrot/sn)+1.5)
    R    = 8.31441 J/mol/K = 1.987191683e-3 kcal/mol/K
    qrot = 272318.5964642
    sn is the rotational symmetry number. We have assumed 3 here
       if it is different for your molecule then you should correct
       the printed rotational entropy by manually evaluating the equation
       as given above

For convenience we print out the resulting values for sn=1 - 12:
 sn= 1  qrot/sn=  272318.5965 T*S(rot)=     8.30 kcal/mol T*S(tot)=    26.28 kcal/mol
 sn= 2  qrot/sn=  136159.2982 T*S(rot)=     7.89 kcal/mol T*S(tot)=    25.87 kcal/mol
 sn= 3  qrot/sn=   90772.8655 T*S(rot)=     7.65 kcal/mol T*S(tot)=    25.63 kcal/mol
 sn= 4  qrot/sn=   68079.6491 T*S(rot)=     7.48 kcal/mol T*S(tot)=    25.46 kcal/mol
 sn= 5  qrot/sn=   54463.7193 T*S(rot)=     7.35 kcal/mol T*S(tot)=    25.33 kcal/mol
 sn= 6  qrot/sn=   45386.4327 T*S(rot)=     7.24 kcal/mol T*S(tot)=    25.22 kcal/mol
 sn= 7  qrot/sn=   38902.6566 T*S(rot)=     7.15 kcal/mol T*S(tot)=    25.13 kcal/mol
 sn= 8  qrot/sn=   34039.8246 T*S(rot)=     7.07 kcal/mol T*S(tot)=    25.05 kcal/mol
 sn= 9  qrot/sn=   30257.6218 T*S(rot)=     7.00 kcal/mol T*S(tot)=    24.98 kcal/mol
 sn=10  qrot/sn=   27231.8596 T*S(rot)=     6.94 kcal/mol T*S(tot)=    24.92 kcal/mol
 sn=11  qrot/sn=   24756.2360 T*S(rot)=     6.88 kcal/mol T*S(tot)=    24.86 kcal/mol
 sn=12  qrot/sn=   22693.2164 T*S(rot)=     6.83 kcal/mol T*S(tot)=    24.81 kcal/mol

-------------------
GIBBS FREE ENTHALPY
-------------------

The Gibbs free enthalpy is G = H - T*S

Total enthalpy                    ...   -289.88322977 Eh
Total entropy correction          ...     -0.04084322 Eh    -25.63 kcal/mol
-----------------------------------------------------------------------
Final Gibbs free enthalpy         ...   -289.92407299 Eh

For completeness - the Gibbs free enthalpy minus the electronic energy
G-E(el)                           ...      0.14298037 Eh     89.72 kcal/mol

                             ****ORCA TERMINATED NORMALLY****
TOTAL RUN TIME: 0 days 0 hours 41 minutes 18 seconds 166 msec
