                         Program Version 3.0.3 - RELEASE   -
|  1> ! NORI PBE0 def2-TZVP UseSym TightOPT Freq TightSCF Grid3 FinalGrid5 XYZFile
|  2> % pal
|  3>     nprocs 8
|  4> end
|  5> %method
|  6>     SymThresh 5.0e-2
|  7> end
|  8> % geom
|  9>     MaxIter 10
| 10> end
| 11> % maxcore 2000
| 12> % output
| 13>     printlevel mini
| 14>     print[ P_Basis ] 0
| 15>     print[ P_SCFInfo ] 1
| 16>     print[ P_SCFIterInfo ] 1
| 17>     print[ P_OrbEn ] 0
| 18>     print[ P_Cartesian ] 0
| 19> end
| 20> % elprop
| 21>     Dipole false
| 22> end
| 23> *xyz 1 1
| 24>  C        1.1374317097    -0.0441604629     0.4432569864
| 25>  C        2.3992120619    -0.1209856133     0.0144943236
| 26>  C        2.9806187808    -1.2808309267    -0.5657313907
| 27>  C        3.5252075407    -2.2363810693    -1.0504472886
| 28>  C        3.3060870267     1.0586295318     0.0768887442
| 29>  C        3.3396752043     1.9768359134     1.2231942622
| 30>  N        4.4166850551     0.9686154527     1.0793219678
| 31>  H        0.4719156622    -0.8937868376     0.3591806002
| 32>  H        0.7335529120     0.8699229752     0.8621763150
| 33>  H        3.9793453042    -3.0964354804    -1.4896378593
| 34>  H        3.6727272651     1.4345888348    -0.8736547388
| 35>  H        2.6883896619     1.7945074038     2.0684593968
| 36>  H        3.6694631282     2.9982813937     1.0839917000
| 37>  H        5.3452617787     1.2776933633     0.8133094224
| 38>  H        4.4037369084     0.1651155214     1.7007375587
| 39> *
| 40>
| 41>                          ****END OF INPUT****
 Total Charge           Charge          ....    1
 Multiplicity           Mult            ....    1
 Number of Electrons    NEL             ....   50
FINAL SINGLE POINT ENERGY      -287.585342785050

CARTESIAN COORDINATES (ANGSTROEM)
---------------------------------
  C      1.329948    0.000632   -1.404239
  C      0.197773   -0.026756   -0.697650
  C     -1.004032    0.627753   -1.081298
  C     -2.041203    1.171583   -1.351457
  C      0.098293   -0.809458    0.565409
  C      1.180014   -0.858116    1.558348
  N      0.000761    0.000213    1.823044
  H      1.384128    0.538965   -2.341686
  H      2.216135   -0.531651   -1.079543
  H     -2.953262    1.654777   -1.622920
  H     -0.621350   -1.622816    0.572078
  H      2.089250   -0.298706    1.380144
  H      1.263633   -1.710419    2.220321
  H     -0.660179   -0.281503    2.539024
  H      0.111519    1.005221    1.726220

FINAL SINGLE POINT ENERGY      -287.585343322929
                    ***********************HURRAY********************
 Multiplicity           Mult            ....    1
 Number of Electrons    NEL             ....   50
 Basis Dimension        Dim             ....  265
FINAL SINGLE POINT ENERGY      -287.585343569606

VIBRATIONAL FREQUENCIES
-----------------------

   0:         0.00 cm**-1
   1:         0.00 cm**-1
   2:         0.00 cm**-1
   3:         0.00 cm**-1
   4:         0.00 cm**-1
   5:         0.00 cm**-1
   6:        57.44 cm**-1
   7:       140.95 cm**-1
   8:       214.60 cm**-1
   9:       266.38 cm**-1
  10:       331.75 cm**-1
  11:       458.21 cm**-1
  12:       537.46 cm**-1
  13:       635.99 cm**-1
  14:       718.05 cm**-1
  15:       730.58 cm**-1
  16:       742.69 cm**-1
  17:       760.98 cm**-1
  18:       821.13 cm**-1
  19:       877.35 cm**-1
  20:       894.70 cm**-1
  21:       934.85 cm**-1
  22:       962.74 cm**-1
  23:      1001.20 cm**-1
  24:      1024.60 cm**-1
  25:      1121.61 cm**-1
  26:      1157.25 cm**-1
  27:      1180.70 cm**-1
  28:      1241.77 cm**-1
  29:      1255.88 cm**-1
  30:      1288.21 cm**-1
  31:      1425.87 cm**-1
  32:      1444.67 cm**-1
  33:      1491.92 cm**-1
  34:      1629.62 cm**-1
  35:      1689.84 cm**-1
  36:      2231.51 cm**-1
  37:      3175.50 cm**-1
  38:      3177.48 cm**-1
  39:      3182.18 cm**-1
  40:      3276.07 cm**-1
  41:      3277.35 cm**-1
  42:      3457.10 cm**-1
  43:      3503.82 cm**-1
  44:      3610.93 cm**-1

IR SPECTRUM
-----------

 Mode    freq (cm**-1)   T**2         TX         TY         TZ
-------------------------------------------------------------------
   6:        57.44    2.735374  ( -1.530365  -0.324959  -0.536432)
   7:       140.95    1.843674  (  0.967785  -0.877239   0.370834)
   8:       214.60    9.996247  ( -0.973957  -2.959799   0.535952)
   9:       266.38    1.397344  ( -0.704109  -0.787103   0.531079)
  10:       331.75   15.506095  ( -1.090480  -1.450778  -3.494595)
  11:       458.21    0.697473  (  0.204958  -0.426831   0.687954)
  12:       537.46   17.738944  (  0.081744   1.150840  -4.050658)
  13:       635.99    4.682582  ( -0.647173  -2.063728   0.069119)
  14:       718.05   37.476412  (  1.237439   4.965326   3.360164)
  15:       730.58    0.704908  ( -0.259888  -0.225720   0.765778)
  16:       742.69   33.657672  ( -3.021131  -2.242801   4.415912)
  17:       760.98    6.436656  (  0.705080  -0.012931  -2.437078)
  18:       821.13    8.874775  ( -0.933221   1.276699   2.524661)
  19:       877.35    2.767213  ( -0.529352   1.222551  -0.996177)
  20:       894.70   15.060266  ( -2.630148   1.371655   2.502229)
  21:       934.85   10.324947  ( -0.096453   2.164940   2.372483)
  22:       962.74   15.710383  (  0.905824   2.312588   3.088981)
  23:      1001.20   29.035101  (  1.721015   4.595340   2.226221)
  24:      1024.60   98.448715  ( -6.678119  -0.116761  -7.337426)
  25:      1121.61    8.767363  (  0.781707  -2.175948   1.849743)
  26:      1157.25    2.432378  ( -1.280740  -0.648802  -0.609212)
  27:      1180.70    1.166234  ( -0.044152   0.592514   0.901783)
  28:      1241.77    6.237186  ( -1.101297   0.730608  -2.119090)
  29:      1255.88    5.001618  ( -1.486336  -1.222980  -1.138746)
  30:      1288.21   10.210908  (  1.108714  -2.406913   1.785618)
  31:      1425.87    2.772008  (  1.624753   0.123071  -0.342111)
  32:      1444.67   28.385365  (  4.504732   0.215527  -2.836601)
  33:      1491.92   10.806868  ( -2.385375   0.809811  -2.112123)
  34:      1629.62   62.698201  ( -2.619362   4.873064   5.664838)
  35:      1689.84    8.578578  ( -2.628914   1.217341   0.430660)
  36:      2231.51   20.951779  (  3.923096  -1.955019   1.318711)
  37:      3175.50    3.665313  (  1.479260  -0.640276   1.033029)
  38:      3177.48    4.118709  (  1.343777   0.537672  -1.422632)
  39:      3182.18    3.169439  (  0.691116   1.264741   1.045097)
  40:      3276.07    4.174902  ( -0.748505  -1.318904   1.369355)
  41:      3277.35    4.245592  (  1.118408   1.647506  -0.529603)
  42:      3457.10  102.039911  ( -8.658945   4.396431  -2.781004)
  43:      3503.82  104.674533  (  4.545299  -6.365403  -6.595183)
  44:      3610.93  130.895407  ( -5.276567  -8.037184   6.201365)

--------------------------
THERMOCHEMISTRY AT 298.15K
--------------------------

Temperature         ... 298.15 K
Pressure            ... 1.00 atm
Total Mass          ... 94.14 AMU

Throughout the following assumptions are being made:
  (1) The electronic state is orbitally nondegenerate
  (2) There are no thermally accessible electronically excited states
  (3) Hindered rotations indicated by low frequency modes) are not
      treated as such but are treated as vibrations and this may
      case some error
  (4) All equations used are the standard statistical mechanics
      equations for an ideal gas
  (5) All vibrations are strinctly harmonic

------------
INNER ENERGY
------------

The inner energy is: U= E(el) + E(ZPE) + E(vib) + E(rot) + E(trans)
    E(el)   - is the total energy from the electronic structure calculation
              = E(kin-el) + E(nuc-el) + E(el-el) + E(nuc-nuc)
    E(ZPE)  - the the zero temperature vibrational energy from the frequency calculation
    E(vib)  - the the finite temperature correction to E(ZPE) due to population
              of excietd vibrational states
    E(rot)  - is the rotational thermal energy
    E(trans)- is the translational thermal energy

Summary of contributions to the inner energy U:
Electronic energy                ...   -287.58534357 Eh
Zero point energy                ...      0.12742003 Eh      79.96 kcal/mol
Thermal vibrational correction   ...      0.00432226 Eh       2.71 kcal/mol
Thermal rotational correction    ...      0.00141627 Eh       0.89 kcal/mol
Thermal translational correction ...      0.00141627 Eh       0.89 kcal/mol
-----------------------------------------------------------------------
Total thermal energy                   -287.45076874 Eh

Summary of corrections to the electronic energy:
(perhaps to be used in another calculation)
Total thermal correction                  0.00715480 Eh       4.49 kcal/mol
Non-thermal (ZPE) correction              0.12742003 Eh      79.96 kcal/mol
-----------------------------------------------------------------------
Total correction                          0.13457483 Eh      84.45 kcal/mol

--------
ENTHALPY
--------

The enthalpy is H = U + kB*T
                kB is Boltzmann's constant
Total free energy                 ...   -287.45076874 Eh
Thermal Enthalpy correction       ...      0.00094421 Eh       0.59 kcal/mol
-----------------------------------------------------------------------
Total Enthalpy                    ...   -287.44982453 Eh

-------
ENTROPY
-------

The entropy contributions are T*S = T*(S(el)+S(vib)+S(rot)+S(trans)
     S(el)   - electronic entropy
     S(vib)  - vibrational entropy
     S(rot)  - rotational entropy
     S(trans)- translational entropy
The entropies will be listed as mutliplied by the temperature to get
units of energy

Electronic entropy                ...      0.00000000 Eh      0.00 kcal/mol
Vibrational entropy               ...      0.00769682 Eh      4.83 kcal/mol
Rotational entropy                ...      0.01202420 Eh      7.55 kcal/mol
Translational entropy             ...      0.01878567 Eh     11.79 kcal/mol
-----------------------------------------------------------------------
Final entropy term                ...      0.03850669 Eh     24.16 kcal/mol

CAUTION: The rotational entropy is not quite correctly treated here
         because it includes a symmetry number that is not yet correctly
         implemented in ORCA!
For a nonlinear molecule the correct rotational entropy is:
    S(rot) = R*(ln(qrot/sn)+1.5)
    R    = 8.31441 J/mol/K = 1.987191683e-3 kcal/mol/K
    qrot = 227219.2138302
    sn is the rotational symmetry number. We have assumed 3 here
       if it is different for your molecule then you should correct
       the printed rotational entropy by manually evaluating the equation
       as given above

For convenience we print out the resulting values for sn=1 - 12:
 sn= 1  qrot/sn=  227219.2138 T*S(rot)=     8.20 kcal/mol T*S(tot)=    24.81 kcal/mol
 sn= 2  qrot/sn=  113609.6069 T*S(rot)=     7.79 kcal/mol T*S(tot)=    24.40 kcal/mol
 sn= 3  qrot/sn=   75739.7379 T*S(rot)=     7.55 kcal/mol T*S(tot)=    24.16 kcal/mol
 sn= 4  qrot/sn=   56804.8035 T*S(rot)=     7.37 kcal/mol T*S(tot)=    23.99 kcal/mol
 sn= 5  qrot/sn=   45443.8428 T*S(rot)=     7.24 kcal/mol T*S(tot)=    23.86 kcal/mol
 sn= 6  qrot/sn=   37869.8690 T*S(rot)=     7.13 kcal/mol T*S(tot)=    23.75 kcal/mol
 sn= 7  qrot/sn=   32459.8877 T*S(rot)=     7.04 kcal/mol T*S(tot)=    23.66 kcal/mol
 sn= 8  qrot/sn=   28402.4017 T*S(rot)=     6.96 kcal/mol T*S(tot)=    23.58 kcal/mol
 sn= 9  qrot/sn=   25246.5793 T*S(rot)=     6.89 kcal/mol T*S(tot)=    23.51 kcal/mol
 sn=10  qrot/sn=   22721.9214 T*S(rot)=     6.83 kcal/mol T*S(tot)=    23.45 kcal/mol
 sn=11  qrot/sn=   20656.2922 T*S(rot)=     6.78 kcal/mol T*S(tot)=    23.39 kcal/mol
 sn=12  qrot/sn=   18934.9345 T*S(rot)=     6.72 kcal/mol T*S(tot)=    23.34 kcal/mol

-------------------
GIBBS FREE ENTHALPY
-------------------

The Gibbs free enthalpy is G = H - T*S

Total enthalpy                    ...   -287.44982453 Eh
Total entropy correction          ...     -0.03850669 Eh    -24.16 kcal/mol
-----------------------------------------------------------------------
Final Gibbs free enthalpy         ...   -287.48833122 Eh

For completeness - the Gibbs free enthalpy minus the electronic energy
G-E(el)                           ...      0.09701235 Eh     60.88 kcal/mol

                             ****ORCA TERMINATED NORMALLY****
TOTAL RUN TIME: 0 days 0 hours 27 minutes 47 seconds 976 msec
