                         Program Version 3.0.3 - RELEASE   -
|  1> ! NORI PBE0 def2-TZVP UseSym TightOPT Freq TightSCF Grid3 FinalGrid5 XYZFile
|  2> % pal
|  3>     nprocs 8
|  4> end
|  5> %method
|  6>     SymThresh 5.0e-2
|  7> end
|  8> % geom
|  9>     MaxIter 10
| 10> end
| 11> % maxcore 2000
| 12> % output
| 13>     printlevel mini
| 14>     print[ P_Basis ] 0
| 15>     print[ P_SCFInfo ] 1
| 16>     print[ P_SCFIterInfo ] 1
| 17>     print[ P_OrbEn ] 0
| 18>     print[ P_Cartesian ] 0
| 19> end
| 20> % elprop
| 21>     Dipole false
| 22> end
| 23> *xyz 1 1
| 24>  C        1.2846996589    -0.5384536800    -0.3699454521
| 25>  C        2.4255208340    -0.2399483012     0.2417925461
| 26>  C        3.1514537783     1.0273055126     0.0862104157
| 27>  C        2.5842152401     2.2118245993    -0.1481369285
| 28>  C        4.6310214724     0.9181223672     0.1781204675
| 29>  C        5.5055944836     2.0169066368     0.6053522816
| 30>  N        5.2134422773     0.9337698398     1.5727384280
| 31>  H        0.7931797733    -1.4882582815    -0.2005022365
| 32>  H        0.8117993724     0.1431598142    -1.0688467664
| 33>  H        2.8817066917    -0.9869398741     0.8896731187
| 34>  H        3.1639263968     3.1094497353    -0.3263428896
| 35>  H        1.5067666793     2.3128009495    -0.1921885420
| 36>  H        5.0961199784     0.1323262140    -0.4107722510
| 37>  H        5.0713914325     2.9680770747     0.8831627554
| 38>  H        6.5339191176     2.0423522585     0.2693771797
| 39>  H        5.9517317630     0.2814320532     1.8137641442
| 40>  H        4.5725510506     1.1494030817     2.3300137291
| 41> *
| 42>
| 43>                          ****END OF INPUT****
 Total Charge           Charge          ....    1
 Multiplicity           Mult            ....    1
 Number of Electrons    NEL             ....   52
FINAL SINGLE POINT ENERGY      -288.837673063904
FINAL SINGLE POINT ENERGY      -288.837674153385

CARTESIAN COORDINATES (ANGSTROEM)
---------------------------------
  C      1.641411   -0.002945   -2.283813
  C      1.296334    0.032485   -1.001259
  C     -0.077659   -0.107767   -0.501811
  C     -1.033541   -0.832897   -1.084711
  C     -0.378051    0.662459    0.733626
  C     -1.414275    0.280866    1.700951
  N      0.000520    0.000406    2.038392
  H      2.676723    0.093687   -2.585553
  H      0.906362   -0.113497   -3.073494
  H      2.071556    0.200581   -0.255595
  H     -2.053859   -0.851161   -0.720871
  H     -0.823166   -1.418290   -1.971212
  H     -0.070124    1.704155    0.741735
  H     -2.000128   -0.612772    1.530831
  H     -1.872861    1.040628    2.320375
  H      0.447162    0.547829    2.765982
  H      0.307147   -0.965882    1.984553

FINAL SINGLE POINT ENERGY      -288.837674357053
                    ***********************HURRAY********************
 Multiplicity           Mult            ....    1
 Number of Electrons    NEL             ....   52
 Basis Dimension        Dim             ....  277
FINAL SINGLE POINT ENERGY      -288.837674394836

VIBRATIONAL FREQUENCIES
-----------------------

   0:         0.00 cm**-1
   1:         0.00 cm**-1
   2:         0.00 cm**-1
   3:         0.00 cm**-1
   4:         0.00 cm**-1
   5:         0.00 cm**-1
   6:        65.76 cm**-1
   7:        90.95 cm**-1
   8:       190.01 cm**-1
   9:       257.94 cm**-1
  10:       314.80 cm**-1
  11:       387.48 cm**-1
  12:       481.41 cm**-1
  13:       585.17 cm**-1
  14:       676.03 cm**-1
  15:       760.64 cm**-1
  16:       764.93 cm**-1
  17:       805.33 cm**-1
  18:       881.14 cm**-1
  19:       896.95 cm**-1
  20:       920.82 cm**-1
  21:       961.83 cm**-1
  22:       989.95 cm**-1
  23:      1004.34 cm**-1
  24:      1013.20 cm**-1
  25:      1018.63 cm**-1
  26:      1087.39 cm**-1
  27:      1120.88 cm**-1
  28:      1159.67 cm**-1
  29:      1178.91 cm**-1
  30:      1226.02 cm**-1
  31:      1253.92 cm**-1
  32:      1285.53 cm**-1
  33:      1338.10 cm**-1
  34:      1421.61 cm**-1
  35:      1447.59 cm**-1
  36:      1463.07 cm**-1
  37:      1492.54 cm**-1
  38:      1623.85 cm**-1
  39:      1694.08 cm**-1
  40:      1711.99 cm**-1
  41:      3146.42 cm**-1
  42:      3169.75 cm**-1
  43:      3175.30 cm**-1
  44:      3177.60 cm**-1
  45:      3179.07 cm**-1
  46:      3263.27 cm**-1
  47:      3265.69 cm**-1
  48:      3278.18 cm**-1
  49:      3504.27 cm**-1
  50:      3614.67 cm**-1

IR SPECTRUM
-----------

 Mode    freq (cm**-1)   T**2         TX         TY         TZ
-------------------------------------------------------------------
   6:        65.76    1.602591  (  1.114723   0.332642  -0.499332)
   7:        90.95    2.794309  ( -0.098574  -1.668681   0.009863)
   8:       190.01    3.069273  (  1.156374  -0.616291  -1.162867)
   9:       257.94    3.319607  (  0.607723  -1.220457  -1.208620)
  10:       314.80    0.544999  (  0.099370   0.183549  -0.708120)
  11:       387.48   12.373154  ( -0.716538  -2.147760   2.691998)
  12:       481.41    2.547103  ( -0.221079  -1.160231   1.073356)
  13:       585.17    9.549042  ( -0.838438   2.966218  -0.218213)
  14:       676.03    0.943443  (  0.878383  -0.016393  -0.414267)
  15:       760.64    2.320646  (  1.156140  -0.060979   0.990084)
  16:       764.93   17.290172  (  0.727404   1.167157   3.924131)
  17:       805.33   13.203305  (  2.049929  -0.979946   2.835630)
  18:       881.14    3.926919  ( -0.810874   0.638866   1.691524)
  19:       896.95   13.260327  ( -2.333250  -0.189167  -2.789353)
  20:       920.82    9.892224  ( -0.953134   1.332064  -2.685026)
  21:       961.83   12.857444  ( -0.801291   2.191779  -2.722403)
  22:       989.95   23.170016  (  0.930681  -3.990987   2.525049)
  23:      1004.34   70.194914  (  0.839785   8.042199  -2.193789)
  24:      1013.20   31.510186  ( -3.374026  -2.094775   3.967122)
  25:      1018.63   56.974884  (  5.274077   0.667408  -5.358503)
  26:      1087.39    3.352507  ( -1.340654  -0.010769   1.247011)
  27:      1120.88   10.448429  (  1.432784  -1.639837  -2.388826)
  28:      1159.67    2.583940  ( -0.940570  -1.139691   0.632750)
  29:      1178.91    1.269880  ( -0.076773   0.096891   1.120088)
  30:      1226.02    7.455200  ( -0.746130  -1.128284   2.371806)
  31:      1253.92    3.128602  (  0.447567  -1.629209  -0.523415)
  32:      1285.53    5.866361  (  1.085298  -1.593067  -1.466502)
  33:      1338.10    2.905875  (  0.117388   0.495418  -1.626855)
  34:      1421.61    5.774072  (  0.466675   1.123228   2.072353)
  35:      1447.59   32.097806  ( -4.308188  -2.998580  -2.132098)
  36:      1463.07   21.621625  ( -1.123504   0.564798   4.476647)
  37:      1492.54    9.915823  (  2.734764   0.091127  -1.558392)
  38:      1623.85   67.919432  ( -4.421044   3.222718  -6.163432)
  39:      1694.08   10.365764  (  3.102633   0.409021  -0.756396)
  40:      1711.99    0.092410  ( -0.083441  -0.290352   0.033822)
  41:      3146.42    6.136028  (  1.846474   0.528061   1.564517)
  42:      3169.75    0.245862  ( -0.482313  -0.112575  -0.023730)
  43:      3175.30    1.356607  (  0.367636  -0.719929  -0.838542)
  44:      3177.60    2.810661  ( -1.163190  -0.577422   1.060299)
  45:      3179.07    1.207284  (  0.804941  -0.551696   0.504961)
  46:      3263.27    0.145341  (  0.190480   0.101148   0.314368)
  47:      3265.69    0.532506  (  0.478276   0.535608   0.129932)
  48:      3278.18    5.979141  ( -0.118003  -2.206611  -1.046940)
  49:      3504.27  102.078814  (  6.354416  -3.416953   7.072810)
  50:      3614.67  123.729611  (  1.094715   9.456613   5.753580)

--------------------------
THERMOCHEMISTRY AT 298.15K
--------------------------

Temperature         ... 298.15 K
Pressure            ... 1.00 atm
Total Mass          ... 96.15 AMU

Throughout the following assumptions are being made:
  (1) The electronic state is orbitally nondegenerate
  (2) There are no thermally accessible electronically excited states
  (3) Hindered rotations indicated by low frequency modes) are not
      treated as such but are treated as vibrations and this may
      case some error
  (4) All equations used are the standard statistical mechanics
      equations for an ideal gas
  (5) All vibrations are strinctly harmonic

------------
INNER ENERGY
------------

The inner energy is: U= E(el) + E(ZPE) + E(vib) + E(rot) + E(trans)
    E(el)   - is the total energy from the electronic structure calculation
              = E(kin-el) + E(nuc-el) + E(el-el) + E(nuc-nuc)
    E(ZPE)  - the the zero temperature vibrational energy from the frequency calculation
    E(vib)  - the the finite temperature correction to E(ZPE) due to population
              of excietd vibrational states
    E(rot)  - is the rotational thermal energy
    E(trans)- is the translational thermal energy

Summary of contributions to the inner energy U:
Electronic energy                ...   -288.83767439 Eh
Zero point energy                ...      0.15114884 Eh      94.85 kcal/mol
Thermal vibrational correction   ...      0.00463305 Eh       2.91 kcal/mol
Thermal rotational correction    ...      0.00141627 Eh       0.89 kcal/mol
Thermal translational correction ...      0.00141627 Eh       0.89 kcal/mol
-----------------------------------------------------------------------
Total thermal energy                   -288.67905997 Eh

Summary of corrections to the electronic energy:
(perhaps to be used in another calculation)
Total thermal correction                  0.00746559 Eh       4.68 kcal/mol
Non-thermal (ZPE) correction              0.15114884 Eh      94.85 kcal/mol
-----------------------------------------------------------------------
Total correction                          0.15861443 Eh      99.53 kcal/mol

--------
ENTHALPY
--------

The enthalpy is H = U + kB*T
                kB is Boltzmann's constant
Total free energy                 ...   -288.67905997 Eh
Thermal Enthalpy correction       ...      0.00094421 Eh       0.59 kcal/mol
-----------------------------------------------------------------------
Total Enthalpy                    ...   -288.67811576 Eh

-------
ENTROPY
-------

The entropy contributions are T*S = T*(S(el)+S(vib)+S(rot)+S(trans)
     S(el)   - electronic entropy
     S(vib)  - vibrational entropy
     S(rot)  - rotational entropy
     S(trans)- translational entropy
The entropies will be listed as mutliplied by the temperature to get
units of energy

Electronic entropy                ...      0.00000000 Eh      0.00 kcal/mol
Vibrational entropy               ...      0.00839781 Eh      5.27 kcal/mol
Rotational entropy                ...      0.01204728 Eh      7.56 kcal/mol
Translational entropy             ...      0.01881568 Eh     11.81 kcal/mol
-----------------------------------------------------------------------
Final entropy term                ...      0.03926078 Eh     24.64 kcal/mol

CAUTION: The rotational entropy is not quite correctly treated here
         because it includes a symmetry number that is not yet correctly
         implemented in ORCA!
For a nonlinear molecule the correct rotational entropy is:
    S(rot) = R*(ln(qrot/sn)+1.5)
    R    = 8.31441 J/mol/K = 1.987191683e-3 kcal/mol/K
    qrot = 232843.1690124
    sn is the rotational symmetry number. We have assumed 3 here
       if it is different for your molecule then you should correct
       the printed rotational entropy by manually evaluating the equation
       as given above

For convenience we print out the resulting values for sn=1 - 12:
 sn= 1  qrot/sn=  232843.1690 T*S(rot)=     8.21 kcal/mol T*S(tot)=    25.29 kcal/mol
 sn= 2  qrot/sn=  116421.5845 T*S(rot)=     7.80 kcal/mol T*S(tot)=    24.88 kcal/mol
 sn= 3  qrot/sn=   77614.3897 T*S(rot)=     7.56 kcal/mol T*S(tot)=    24.64 kcal/mol
 sn= 4  qrot/sn=   58210.7923 T*S(rot)=     7.39 kcal/mol T*S(tot)=    24.47 kcal/mol
 sn= 5  qrot/sn=   46568.6338 T*S(rot)=     7.26 kcal/mol T*S(tot)=    24.33 kcal/mol
 sn= 6  qrot/sn=   38807.1948 T*S(rot)=     7.15 kcal/mol T*S(tot)=    24.23 kcal/mol
 sn= 7  qrot/sn=   33263.3099 T*S(rot)=     7.06 kcal/mol T*S(tot)=    24.13 kcal/mol
 sn= 8  qrot/sn=   29105.3961 T*S(rot)=     6.98 kcal/mol T*S(tot)=    24.06 kcal/mol
 sn= 9  qrot/sn=   25871.4632 T*S(rot)=     6.91 kcal/mol T*S(tot)=    23.99 kcal/mol
 sn=10  qrot/sn=   23284.3169 T*S(rot)=     6.85 kcal/mol T*S(tot)=    23.92 kcal/mol
 sn=11  qrot/sn=   21167.5608 T*S(rot)=     6.79 kcal/mol T*S(tot)=    23.87 kcal/mol
 sn=12  qrot/sn=   19403.5974 T*S(rot)=     6.74 kcal/mol T*S(tot)=    23.82 kcal/mol

-------------------
GIBBS FREE ENTHALPY
-------------------

The Gibbs free enthalpy is G = H - T*S

Total enthalpy                    ...   -288.67811576 Eh
Total entropy correction          ...     -0.03926078 Eh    -24.64 kcal/mol
-----------------------------------------------------------------------
Final Gibbs free enthalpy         ...   -288.71737654 Eh

For completeness - the Gibbs free enthalpy minus the electronic energy
G-E(el)                           ...      0.12029786 Eh     75.49 kcal/mol

                             ****ORCA TERMINATED NORMALLY****
TOTAL RUN TIME: 0 days 0 hours 37 minutes 3 seconds 974 msec
