                         Program Version 3.0.3 - RELEASE   -
|  1> ! NORI PBE0 def2-TZVP UseSym TightOPT Freq TightSCF Grid3 FinalGrid5 XYZFile
|  2> % pal
|  3>     nprocs 8
|  4> end
|  5> %method
|  6>     SymThresh 5.0e-2
|  7> end
|  8> % geom
|  9>     MaxIter 10
| 10> end
| 11> % maxcore 2000
| 12> % output
| 13>     printlevel mini
| 14>     print[ P_Basis ] 0
| 15>     print[ P_SCFInfo ] 1
| 16>     print[ P_SCFIterInfo ] 1
| 17>     print[ P_OrbEn ] 0
| 18>     print[ P_Cartesian ] 0
| 19> end
| 20> % elprop
| 21>     Dipole false
| 22> end
| 23> *xyz 1 1
| 24>  C        0.9534148363    -0.1270164273    -0.3481537861
| 25>  C        2.0280437938     0.1702177306     0.3834652317
| 26>  C        2.8618660368     1.2786887073     0.1128360881
| 27>  C        3.5958354770     2.2170585057    -0.0858765857
| 28>  C        4.4977577546     3.2792574009    -0.3429319808
| 29>  C        4.1876115156     4.3581581908    -1.3045977786
| 30>  N        4.0721518028     4.6646689178     0.1359900158
| 31>  H        0.3441507941    -0.9892901357    -0.1075639711
| 32>  H        0.6578974551     0.4730997204    -1.2004508531
| 33>  H        2.3122869086    -0.4469415469     1.2308670561
| 34>  H        5.5485150805     3.1080520163    -0.1265604813
| 35>  H        3.2394598875     4.3304470910    -1.8248837116
| 36>  H        4.9983392442     4.8746380149    -1.8017724218
| 37>  H        3.1420448035     4.7300340535     0.5367071311
| 38>  H        4.7656946096     5.2673377606     0.5661860473
| 39> *
| 40>
| 41>                          ****END OF INPUT****
 Total Charge           Charge          ....    1
 Multiplicity           Mult            ....    1
 Number of Electrons    NEL             ....   50
FINAL SINGLE POINT ENERGY      -287.590319302734
FINAL SINGLE POINT ENERGY      -287.590320448978
FINAL SINGLE POINT ENERGY      -287.590322326611

CARTESIAN COORDINATES (ANGSTROEM)
---------------------------------
  C      1.250866    0.006089   -3.089197
  C      0.500588    0.823622   -2.349276
  C      0.027519    0.480917   -1.062320
  C     -0.392530    0.223764    0.040356
  C     -0.941329   -0.085152    1.309695
  C     -0.555091   -1.299663    2.058580
  N      0.010729   -0.008237    2.500235
  H      1.589513    0.308199   -4.072305
  H      1.541582   -0.976978   -2.738835
  H      0.214589    1.804070   -2.718863
  H     -1.901742    0.355858    1.560908
  H      0.171314   -1.970223    1.618864
  H     -1.255861   -1.736531    2.758247
  H      0.982390    0.186338    2.281156
  H     -0.322050    0.401754    3.366449

FINAL SINGLE POINT ENERGY      -287.590322430108
                    ***********************HURRAY********************
 Multiplicity           Mult            ....    1
 Number of Electrons    NEL             ....   50
 Basis Dimension        Dim             ....  265
FINAL SINGLE POINT ENERGY      -287.590322466351

VIBRATIONAL FREQUENCIES
-----------------------

   0:         0.00 cm**-1
   1:         0.00 cm**-1
   2:         0.00 cm**-1
   3:         0.00 cm**-1
   4:         0.00 cm**-1
   5:         0.00 cm**-1
   6:        39.35 cm**-1
   7:        96.64 cm**-1
   8:       114.59 cm**-1
   9:       238.63 cm**-1
  10:       322.31 cm**-1
  11:       423.26 cm**-1
  12:       481.12 cm**-1
  13:       578.05 cm**-1
  14:       683.14 cm**-1
  15:       708.34 cm**-1
  16:       723.54 cm**-1
  17:       859.45 cm**-1
  18:       888.57 cm**-1
  19:       930.24 cm**-1
  20:      1000.52 cm**-1
  21:      1004.99 cm**-1
  22:      1020.15 cm**-1
  23:      1021.59 cm**-1
  24:      1098.23 cm**-1
  25:      1145.95 cm**-1
  26:      1172.05 cm**-1
  27:      1217.44 cm**-1
  28:      1254.89 cm**-1
  29:      1265.67 cm**-1
  30:      1318.07 cm**-1
  31:      1413.67 cm**-1
  32:      1458.53 cm**-1
  33:      1489.36 cm**-1
  34:      1620.06 cm**-1
  35:      1680.79 cm**-1
  36:      2337.93 cm**-1
  37:      3174.31 cm**-1
  38:      3176.01 cm**-1
  39:      3176.83 cm**-1
  40:      3182.90 cm**-1
  41:      3273.01 cm**-1
  42:      3281.96 cm**-1
  43:      3504.10 cm**-1
  44:      3617.09 cm**-1

IR SPECTRUM
-----------

 Mode    freq (cm**-1)   T**2         TX         TY         TZ
-------------------------------------------------------------------
   6:        39.35    2.256959  (  1.443848  -0.389784  -0.142583)
   7:        96.64    5.578572  (  1.801928  -1.415374  -0.573013)
   8:       114.59    8.944730  ( -2.265544  -1.952439  -0.004662)
   9:       238.63    0.304155  ( -0.102390   0.339819  -0.422130)
  10:       322.31    4.945818  (  1.740982   0.106690   1.379644)
  11:       423.26    8.925350  (  1.431864  -2.194714   1.434693)
  12:       481.12    3.242394  ( -0.857022  -1.366477   0.800405)
  13:       578.05    1.253972  (  0.619021  -0.354884  -0.863042)
  14:       683.14   23.995315  ( -0.226293   0.218872  -4.888374)
  15:       708.34   17.520001  (  2.788299   1.222163   2.872579)
  16:       723.54   74.171900  ( -0.159803   0.534015   8.594253)
  17:       859.45    4.456708  (  0.820537   1.596742  -1.110784)
  18:       888.57    6.756211  (  0.310758   1.133150   2.318537)
  19:       930.24   25.390553  ( -3.512671  -0.015276  -3.612681)
  20:      1000.52   41.879231  ( -5.320815  -2.590761  -2.618419)
  21:      1004.99   78.922503  (  2.146977  -7.255754   4.654785)
  22:      1020.15   13.216331  (  1.244961   3.090289   1.454826)
  23:      1021.59   11.696317  (  3.073109  -1.334905   0.685816)
  24:      1098.23    8.264542  (  1.766523   0.268464  -2.252080)
  25:      1145.95    4.746876  (  1.319786   0.563792  -1.639262)
  26:      1172.05    2.137792  (  0.330598  -0.892011   1.110321)
  27:      1217.44    4.960581  ( -2.172181  -0.410468   0.271524)
  28:      1254.89    4.284135  ( -1.066086  -0.632494   1.657572)
  29:      1265.67    5.204299  (  2.156894   0.422791  -0.611029)
  30:      1318.07    4.892375  (  0.767281  -0.063220  -2.073562)
  31:      1413.67  102.446461  ( -3.976358   0.614704   9.287474)
  32:      1458.53    7.785926  (  0.507959  -2.062604   1.809300)
  33:      1489.36   25.642333  (  0.362240   3.930324  -3.172329)
  34:      1620.06   79.001946  (  4.176831   3.310611   7.113078)
  35:      1680.79    5.419538  (  0.892188   0.533169  -2.083091)
  36:      2337.93  336.858687  (  6.044512   1.912342 -17.223981)
  37:      3174.31    0.332745  ( -0.394952   0.182857   0.378578)
  38:      3176.01    9.869741  ( -1.066451   2.152103  -2.025062)
  39:      3176.83    1.513404  (  0.866176   0.862731   0.137250)
  40:      3182.90    1.662380  (  0.506251  -1.183992  -0.065210)
  41:      3273.01    0.620617  (  0.307334   0.033068  -0.724617)
  42:      3281.96    7.126895  ( -2.140606   0.653948   1.455010)
  43:      3504.10  127.996567  (  4.900495   4.831552   8.979856)
  44:      3617.09  129.833840  ( -8.629892   1.407438   7.306019)

--------------------------
THERMOCHEMISTRY AT 298.15K
--------------------------

Temperature         ... 298.15 K
Pressure            ... 1.00 atm
Total Mass          ... 94.14 AMU

Throughout the following assumptions are being made:
  (1) The electronic state is orbitally nondegenerate
  (2) There are no thermally accessible electronically excited states
  (3) Hindered rotations indicated by low frequency modes) are not
      treated as such but are treated as vibrations and this may
      case some error
  (4) All equations used are the standard statistical mechanics
      equations for an ideal gas
  (5) All vibrations are strinctly harmonic

------------
INNER ENERGY
------------

The inner energy is: U= E(el) + E(ZPE) + E(vib) + E(rot) + E(trans)
    E(el)   - is the total energy from the electronic structure calculation
              = E(kin-el) + E(nuc-el) + E(el-el) + E(nuc-nuc)
    E(ZPE)  - the the zero temperature vibrational energy from the frequency calculation
    E(vib)  - the the finite temperature correction to E(ZPE) due to population
              of excietd vibrational states
    E(rot)  - is the rotational thermal energy
    E(trans)- is the translational thermal energy

Summary of contributions to the inner energy U:
Electronic energy                ...   -287.59032247 Eh
Zero point energy                ...      0.12756211 Eh      80.05 kcal/mol
Thermal vibrational correction   ...      0.00468091 Eh       2.94 kcal/mol
Thermal rotational correction    ...      0.00141627 Eh       0.89 kcal/mol
Thermal translational correction ...      0.00141627 Eh       0.89 kcal/mol
-----------------------------------------------------------------------
Total thermal energy                   -287.45524690 Eh

Summary of corrections to the electronic energy:
(perhaps to be used in another calculation)
Total thermal correction                  0.00751346 Eh       4.71 kcal/mol
Non-thermal (ZPE) correction              0.12756211 Eh      80.05 kcal/mol
-----------------------------------------------------------------------
Total correction                          0.13507557 Eh      84.76 kcal/mol

--------
ENTHALPY
--------

The enthalpy is H = U + kB*T
                kB is Boltzmann's constant
Total free energy                 ...   -287.45524690 Eh
Thermal Enthalpy correction       ...      0.00094421 Eh       0.59 kcal/mol
-----------------------------------------------------------------------
Total Enthalpy                    ...   -287.45430269 Eh

-------
ENTROPY
-------

The entropy contributions are T*S = T*(S(el)+S(vib)+S(rot)+S(trans)
     S(el)   - electronic entropy
     S(vib)  - vibrational entropy
     S(rot)  - rotational entropy
     S(trans)- translational entropy
The entropies will be listed as mutliplied by the temperature to get
units of energy

Electronic entropy                ...      0.00000000 Eh      0.00 kcal/mol
Vibrational entropy               ...      0.00913674 Eh      5.73 kcal/mol
Rotational entropy                ...      0.01216499 Eh      7.63 kcal/mol
Translational entropy             ...      0.01878567 Eh     11.79 kcal/mol
-----------------------------------------------------------------------
Final entropy term                ...      0.04008740 Eh     25.16 kcal/mol

CAUTION: The rotational entropy is not quite correctly treated here
         because it includes a symmetry number that is not yet correctly
         implemented in ORCA!
For a nonlinear molecule the correct rotational entropy is:
    S(rot) = R*(ln(qrot/sn)+1.5)
    R    = 8.31441 J/mol/K = 1.987191683e-3 kcal/mol/K
    qrot = 263756.8238012
    sn is the rotational symmetry number. We have assumed 3 here
       if it is different for your molecule then you should correct
       the printed rotational entropy by manually evaluating the equation
       as given above

For convenience we print out the resulting values for sn=1 - 12:
 sn= 1  qrot/sn=  263756.8238 T*S(rot)=     8.28 kcal/mol T*S(tot)=    25.81 kcal/mol
 sn= 2  qrot/sn=  131878.4119 T*S(rot)=     7.87 kcal/mol T*S(tot)=    25.40 kcal/mol
 sn= 3  qrot/sn=   87918.9413 T*S(rot)=     7.63 kcal/mol T*S(tot)=    25.16 kcal/mol
 sn= 4  qrot/sn=   65939.2060 T*S(rot)=     7.46 kcal/mol T*S(tot)=    24.98 kcal/mol
 sn= 5  qrot/sn=   52751.3648 T*S(rot)=     7.33 kcal/mol T*S(tot)=    24.85 kcal/mol
 sn= 6  qrot/sn=   43959.4706 T*S(rot)=     7.22 kcal/mol T*S(tot)=    24.74 kcal/mol
 sn= 7  qrot/sn=   37679.5463 T*S(rot)=     7.13 kcal/mol T*S(tot)=    24.65 kcal/mol
 sn= 8  qrot/sn=   32969.6030 T*S(rot)=     7.05 kcal/mol T*S(tot)=    24.57 kcal/mol
 sn= 9  qrot/sn=   29306.3138 T*S(rot)=     6.98 kcal/mol T*S(tot)=    24.50 kcal/mol
 sn=10  qrot/sn=   26375.6824 T*S(rot)=     6.92 kcal/mol T*S(tot)=    24.44 kcal/mol
 sn=11  qrot/sn=   23977.8931 T*S(rot)=     6.86 kcal/mol T*S(tot)=    24.39 kcal/mol
 sn=12  qrot/sn=   21979.7353 T*S(rot)=     6.81 kcal/mol T*S(tot)=    24.33 kcal/mol

-------------------
GIBBS FREE ENTHALPY
-------------------

The Gibbs free enthalpy is G = H - T*S

Total enthalpy                    ...   -287.45430269 Eh
Total entropy correction          ...     -0.04008740 Eh    -25.16 kcal/mol
-----------------------------------------------------------------------
Final Gibbs free enthalpy         ...   -287.49439009 Eh

For completeness - the Gibbs free enthalpy minus the electronic energy
G-E(el)                           ...      0.09593238 Eh     60.20 kcal/mol

                             ****ORCA TERMINATED NORMALLY****
TOTAL RUN TIME: 0 days 0 hours 28 minutes 26 seconds 621 msec
