                         Program Version 3.0.3 - RELEASE   -
|  1> ! NORI PBE0 def2-TZVP UseSym TightOPT Freq TightSCF Grid3 FinalGrid5 XYZFile
|  2> % pal
|  3>     nprocs 8
|  4> end
|  5> %method
|  6>     SymThresh 5.0e-2
|  7> end
|  8> % geom
|  9>     MaxIter 10
| 10> end
| 11> % maxcore 2000
| 12> % output
| 13>     printlevel mini
| 14>     print[ P_Basis ] 0
| 15>     print[ P_SCFInfo ] 1
| 16>     print[ P_SCFIterInfo ] 1
| 17>     print[ P_OrbEn ] 0
| 18>     print[ P_Cartesian ] 0
| 19> end
| 20> % elprop
| 21>     Dipole false
| 22> end
| 23> *xyz 1 1
| 24>  C        0.8913101334     0.2418652767     0.2272439737
| 25>  C        2.0808190340     0.1157843536     0.1548448164
| 26>  C        3.5240307758    -0.0082122890     0.0747751531
| 27>  C        4.2131065194     1.3396824401     0.3055265672
| 28>  C        5.7056614224     1.2556668219     0.2584513537
| 29>  C        6.5682996843     2.1980981923     0.9848518714
| 30>  N        6.4009925163     0.8232873802     1.5168735758
| 31>  H       -0.1684377552     0.3432835040     0.2862565723
| 32>  H        3.8057680772    -0.4032901568    -0.9075504428
| 33>  H        3.8634381159    -0.7444173263     0.8137621871
| 34>  H        3.8883057162     1.7775832686     1.2555134369
| 35>  H        3.9070255650     2.0459795165    -0.4720209295
| 36>  H        6.1430760996     0.7709877861    -0.6089883519
| 37>  H        6.1109895302     2.9610260837     1.6027244115
| 38>  H        7.5659945051     2.4123344354     0.6243546939
| 39>  H        7.1862083309     0.1844766499     1.4564433963
| 40>  H        5.8339217296     0.7049940631     2.3501477150
| 41> *
| 42>
| 43>                          ****END OF INPUT****
 Total Charge           Charge          ....    1
 Multiplicity           Mult            ....    1
 Number of Electrons    NEL             ....   52
FINAL SINGLE POINT ENERGY      -288.813067144724

CARTESIAN COORDINATES (ANGSTROEM)
---------------------------------
  C      1.352903    0.000149   -3.214573
  C      0.916432    0.380677   -2.165352
  C      0.378197    0.813915   -0.889662
  C     -0.385536   -0.316495   -0.193808
  C     -0.936653    0.076866    1.139860
  C     -1.174305   -0.901282    2.210887
  N      0.000125   -0.000120    2.310622
  H      1.743016   -0.326606   -4.151333
  H     -0.288180    1.669979   -1.043130
  H      1.198928    1.170108   -0.255101
  H      0.250286   -1.202820   -0.094254
  H     -1.233533   -0.622180   -0.813795
  H     -1.526592    0.987631    1.178217
  H     -0.912371   -1.938790    2.043704
  H     -1.935544   -0.716831    2.957957
  H     -0.014950    0.735804    3.008087
  H      0.918531   -0.401670    2.151934

FINAL SINGLE POINT ENERGY      -288.813067418831
                    ***********************HURRAY********************
 Multiplicity           Mult            ....    1
 Number of Electrons    NEL             ....   52
 Basis Dimension        Dim             ....  277
FINAL SINGLE POINT ENERGY      -288.813067558584

VIBRATIONAL FREQUENCIES
-----------------------

   0:         0.00 cm**-1
   1:         0.00 cm**-1
   2:         0.00 cm**-1
   3:         0.00 cm**-1
   4:         0.00 cm**-1
   5:         0.00 cm**-1
   6:        63.28 cm**-1
   7:       103.22 cm**-1
   8:       122.50 cm**-1
   9:       236.71 cm**-1
  10:       328.14 cm**-1
  11:       363.07 cm**-1
  12:       430.30 cm**-1
  13:       508.03 cm**-1
  14:       711.97 cm**-1
  15:       728.96 cm**-1
  16:       740.38 cm**-1
  17:       787.08 cm**-1
  18:       841.59 cm**-1
  19:       876.41 cm**-1
  20:       919.93 cm**-1
  21:       955.03 cm**-1
  22:       986.01 cm**-1
  23:      1018.12 cm**-1
  24:      1026.54 cm**-1
  25:      1063.92 cm**-1
  26:      1143.23 cm**-1
  27:      1160.10 cm**-1
  28:      1185.09 cm**-1
  29:      1246.97 cm**-1
  30:      1257.49 cm**-1
  31:      1273.02 cm**-1
  32:      1290.60 cm**-1
  33:      1320.58 cm**-1
  34:      1379.09 cm**-1
  35:      1441.97 cm**-1
  36:      1463.01 cm**-1
  37:      1475.50 cm**-1
  38:      1497.29 cm**-1
  39:      1632.30 cm**-1
  40:      2254.15 cm**-1
  41:      3032.87 cm**-1
  42:      3058.27 cm**-1
  43:      3072.37 cm**-1
  44:      3110.73 cm**-1
  45:      3170.78 cm**-1
  46:      3186.09 cm**-1
  47:      3272.52 cm**-1
  48:      3469.01 cm**-1
  49:      3511.14 cm**-1
  50:      3615.96 cm**-1

IR SPECTRUM
-----------

 Mode    freq (cm**-1)   T**2         TX         TY         TZ
-------------------------------------------------------------------
   6:        63.28    2.431584  ( -1.165991   0.634694   0.818055)
   7:       103.22    4.035840  (  0.227620   1.195052  -1.598712)
   8:       122.50    0.660945  ( -0.587001  -0.301061  -0.475118)
   9:       236.71    4.875242  ( -0.068466   1.175343   1.867920)
  10:       328.14   11.526325  ( -2.059977   1.359115  -2.331443)
  11:       363.07    4.753966  ( -2.090899  -0.266131   0.557926)
  12:       430.30    1.309335  (  1.037419   0.299705  -0.378517)
  13:       508.03   12.212265  (  1.434209   2.849920  -1.425926)
  14:       711.97   43.533445  (  5.452315  -2.265824   2.944783)
  15:       728.96   38.345451  ( -2.695412  -5.541067   0.613830)
  16:       740.38    1.381656  ( -0.250763   1.074818   0.404402)
  17:       787.08    6.241384  ( -0.835162  -0.155032  -2.349437)
  18:       841.59   13.847475  (  3.116886   1.757048   1.022387)
  19:       876.41    3.712350  ( -0.717741  -1.202753  -1.323096)
  20:       919.93   11.859020  (  2.978259  -0.304952   1.701762)
  21:       955.03    8.688900  (  0.862452   0.581664   2.758032)
  22:       986.01    2.315799  ( -0.933048   0.391799  -1.136536)
  23:      1018.12   36.898232  ( -0.293150   3.143441  -5.189516)
  24:      1026.54   66.287045  ( -1.288185  -5.256256   6.082713)
  25:      1063.92    4.647932  ( -0.838582  -1.970959   0.245016)
  26:      1143.23    2.415373  (  0.505075  -0.094486  -1.466746)
  27:      1160.10    2.405513  (  1.315863  -0.649607  -0.502023)
  28:      1185.09    1.977113  (  0.368452  -0.398484   1.297138)
  29:      1246.97    2.148842  (  0.114580  -0.621927  -1.322468)
  30:      1257.49    3.329685  ( -1.339030   0.633126   1.065755)
  31:      1273.02    5.785350  ( -2.006814  -0.090491  -1.322823)
  32:      1290.60    7.425116  (  0.820393  -0.756295  -2.485979)
  33:      1320.58    1.302502  ( -0.070684  -0.409456   1.062945)
  34:      1379.09    3.396452  (  1.262895  -0.439085  -1.268366)
  35:      1441.97    2.206271  ( -0.520161   0.646390   1.232024)
  36:      1463.01    2.347823  (  0.292514  -1.496272  -0.153066)
  37:      1475.50   19.367158  ( -0.667000  -4.192952  -1.158198)
  38:      1497.29    9.952842  (  1.274087   2.019361  -2.061972)
  39:      1632.30   60.737494  (  6.169596   1.249901   4.594707)
  40:      2254.15    0.884670  (  0.385035  -0.120999  -0.849575)
  41:      3032.87   18.953201  ( -0.197246  -1.860598  -3.930963)
  42:      3058.27    5.844505  ( -0.225765  -1.914201   1.459236)
  43:      3072.37    3.325827  (  1.316362  -0.843837   0.938593)
  44:      3110.73    1.247071  (  0.745287  -0.818540   0.147005)
  45:      3170.78    3.221258  (  0.967632   1.189135  -0.933222)
  46:      3186.09    0.775656  ( -0.442424   0.530857  -0.545993)
  47:      3272.52    6.164432  ( -1.400060   1.699153   1.147669)
  48:      3469.01   91.591017  (  3.511037  -2.520973  -8.538638)
  49:      3511.14  103.786038  ( -7.599752  -2.997039  -6.086670)
  50:      3615.96  127.396380  ( -5.481303   7.527971   6.378194)

--------------------------
THERMOCHEMISTRY AT 298.15K
--------------------------

Temperature         ... 298.15 K
Pressure            ... 1.00 atm
Total Mass          ... 96.15 AMU

Throughout the following assumptions are being made:
  (1) The electronic state is orbitally nondegenerate
  (2) There are no thermally accessible electronically excited states
  (3) Hindered rotations indicated by low frequency modes) are not
      treated as such but are treated as vibrations and this may
      case some error
  (4) All equations used are the standard statistical mechanics
      equations for an ideal gas
  (5) All vibrations are strinctly harmonic

------------
INNER ENERGY
------------

The inner energy is: U= E(el) + E(ZPE) + E(vib) + E(rot) + E(trans)
    E(el)   - is the total energy from the electronic structure calculation
              = E(kin-el) + E(nuc-el) + E(el-el) + E(nuc-nuc)
    E(ZPE)  - the the zero temperature vibrational energy from the frequency calculation
    E(vib)  - the the finite temperature correction to E(ZPE) due to population
              of excietd vibrational states
    E(rot)  - is the rotational thermal energy
    E(trans)- is the translational thermal energy

Summary of contributions to the inner energy U:
Electronic energy                ...   -288.81306756 Eh
Zero point energy                ...      0.15111388 Eh      94.83 kcal/mol
Thermal vibrational correction   ...      0.00486443 Eh       3.05 kcal/mol
Thermal rotational correction    ...      0.00141627 Eh       0.89 kcal/mol
Thermal translational correction ...      0.00141627 Eh       0.89 kcal/mol
-----------------------------------------------------------------------
Total thermal energy                   -288.65425671 Eh

Summary of corrections to the electronic energy:
(perhaps to be used in another calculation)
Total thermal correction                  0.00769698 Eh       4.83 kcal/mol
Non-thermal (ZPE) correction              0.15111388 Eh      94.83 kcal/mol
-----------------------------------------------------------------------
Total correction                          0.15881085 Eh      99.66 kcal/mol

--------
ENTHALPY
--------

The enthalpy is H = U + kB*T
                kB is Boltzmann's constant
Total free energy                 ...   -288.65425671 Eh
Thermal Enthalpy correction       ...      0.00094421 Eh       0.59 kcal/mol
-----------------------------------------------------------------------
Total Enthalpy                    ...   -288.65331250 Eh

-------
ENTROPY
-------

The entropy contributions are T*S = T*(S(el)+S(vib)+S(rot)+S(trans)
     S(el)   - electronic entropy
     S(vib)  - vibrational entropy
     S(rot)  - rotational entropy
     S(trans)- translational entropy
The entropies will be listed as mutliplied by the temperature to get
units of energy

Electronic entropy                ...      0.00000000 Eh      0.00 kcal/mol
Vibrational entropy               ...      0.00895229 Eh      5.62 kcal/mol
Rotational entropy                ...      0.01214571 Eh      7.62 kcal/mol
Translational entropy             ...      0.01881568 Eh     11.81 kcal/mol
-----------------------------------------------------------------------
Final entropy term                ...      0.03991368 Eh     25.05 kcal/mol

CAUTION: The rotational entropy is not quite correctly treated here
         because it includes a symmetry number that is not yet correctly
         implemented in ORCA!
For a nonlinear molecule the correct rotational entropy is:
    S(rot) = R*(ln(qrot/sn)+1.5)
    R    = 8.31441 J/mol/K = 1.987191683e-3 kcal/mol/K
    qrot = 258425.2310365
    sn is the rotational symmetry number. We have assumed 3 here
       if it is different for your molecule then you should correct
       the printed rotational entropy by manually evaluating the equation
       as given above

For convenience we print out the resulting values for sn=1 - 12:
 sn= 1  qrot/sn=  258425.2310 T*S(rot)=     8.27 kcal/mol T*S(tot)=    25.70 kcal/mol
 sn= 2  qrot/sn=  129212.6155 T*S(rot)=     7.86 kcal/mol T*S(tot)=    25.29 kcal/mol
 sn= 3  qrot/sn=   86141.7437 T*S(rot)=     7.62 kcal/mol T*S(tot)=    25.05 kcal/mol
 sn= 4  qrot/sn=   64606.3078 T*S(rot)=     7.45 kcal/mol T*S(tot)=    24.88 kcal/mol
 sn= 5  qrot/sn=   51685.0462 T*S(rot)=     7.32 kcal/mol T*S(tot)=    24.74 kcal/mol
 sn= 6  qrot/sn=   43070.8718 T*S(rot)=     7.21 kcal/mol T*S(tot)=    24.64 kcal/mol
 sn= 7  qrot/sn=   36917.8901 T*S(rot)=     7.12 kcal/mol T*S(tot)=    24.54 kcal/mol
 sn= 8  qrot/sn=   32303.1539 T*S(rot)=     7.04 kcal/mol T*S(tot)=    24.47 kcal/mol
 sn= 9  qrot/sn=   28713.9146 T*S(rot)=     6.97 kcal/mol T*S(tot)=    24.40 kcal/mol
 sn=10  qrot/sn=   25842.5231 T*S(rot)=     6.91 kcal/mol T*S(tot)=    24.33 kcal/mol
 sn=11  qrot/sn=   23493.2028 T*S(rot)=     6.85 kcal/mol T*S(tot)=    24.28 kcal/mol
 sn=12  qrot/sn=   21535.4359 T*S(rot)=     6.80 kcal/mol T*S(tot)=    24.22 kcal/mol

-------------------
GIBBS FREE ENTHALPY
-------------------

The Gibbs free enthalpy is G = H - T*S

Total enthalpy                    ...   -288.65331250 Eh
Total entropy correction          ...     -0.03991368 Eh    -25.05 kcal/mol
-----------------------------------------------------------------------
Final Gibbs free enthalpy         ...   -288.69322618 Eh

For completeness - the Gibbs free enthalpy minus the electronic energy
G-E(el)                           ...      0.11984138 Eh     75.20 kcal/mol

                             ****ORCA TERMINATED NORMALLY****
TOTAL RUN TIME: 0 days 0 hours 29 minutes 19 seconds 525 msec
