                         Program Version 3.0.3 - RELEASE   -
|  1> ! NORI PBE0 def2-TZVP UseSym TightOPT Freq TightSCF Grid3 FinalGrid5 XYZFile
|  2> % pal
|  3>     nprocs 8
|  4> end
|  5> %method
|  6>     SymThresh 5.0e-2
|  7> end
|  8> % geom
|  9>     MaxIter 10
| 10> end
| 11> % maxcore 2000
| 12> % output
| 13>     printlevel mini
| 14>     print[ P_Basis ] 0
| 15>     print[ P_SCFInfo ] 1
| 16>     print[ P_SCFIterInfo ] 1
| 17>     print[ P_OrbEn ] 0
| 18>     print[ P_Cartesian ] 0
| 19> end
| 20> % elprop
| 21>     Dipole false
| 22> end
| 23> *xyz 1 1
| 24>  C        0.8844549782    -0.0270679616     0.0108462627
| 25>  C        2.0788657980    -0.1621811017     0.0257332205
| 26>  C        3.4794321252    -0.2946473255     0.0830997607
| 27>  C        4.2126997178    -0.9178806126    -0.8488420824
| 28>  C        5.6767174529    -1.0058850763    -0.7866642459
| 29>  C        6.4438720530    -0.9826078553     0.4666571967
| 30>  N        6.2667453148    -2.2848752807    -0.2132028916
| 31>  H       -0.1758765404     0.0920503756    -0.0074568088
| 32>  H        3.9642879391     0.1681970470     0.9410431056
| 33>  H        3.7399931552    -1.3352047653    -1.7315670839
| 34>  H        6.2208883697    -0.7285294071    -1.6851972158
| 35>  H        5.9236192634    -0.9162737873     1.4131670811
| 36>  H        7.4625392954    -0.6175134438     0.4623991942
| 37>  H        7.0673792199    -2.7109657777    -0.6672905316
| 38>  H        5.6099518578    -2.9417750275     0.1961950385
| 39> *
| 40>
| 41>                          ****END OF INPUT****
 Total Charge           Charge          ....    1
 Multiplicity           Mult            ....    1
 Number of Electrons    NEL             ....   50
FINAL SINGLE POINT ENERGY      -287.587041558105
FINAL SINGLE POINT ENERGY      -287.587043124029
FINAL SINGLE POINT ENERGY      -287.587044171572

CARTESIAN COORDINATES (ANGSTROEM)
---------------------------------
  C      1.272207   -0.000524   -3.249366
  C      0.698188   -0.093426   -2.197168
  C      0.007816   -0.244232   -0.979396
  C     -0.000868    0.673065   -0.003015
  C     -0.763686    0.508363    1.240344
  C     -1.080945   -0.797407    1.835779
  N     -0.001258    0.003297    2.454920
  H      1.781880    0.087481   -4.182610
  H     -0.561562   -1.165571   -0.869759
  H      0.519199    1.616511   -0.130825
  H     -1.403107    1.335952    1.534962
  H     -0.727476   -1.703482    1.361420
  H     -1.962800   -0.902417    2.454343
  H     -0.167590    0.431204    3.359474
  H      0.954725   -0.298784    2.296139

FINAL SINGLE POINT ENERGY      -287.587044681368
                    ***********************HURRAY********************
 Multiplicity           Mult            ....    1
 Number of Electrons    NEL             ....   50
 Basis Dimension        Dim             ....  265
FINAL SINGLE POINT ENERGY      -287.587044878642

VIBRATIONAL FREQUENCIES
-----------------------

   0:         0.00 cm**-1
   1:         0.00 cm**-1
   2:         0.00 cm**-1
   3:         0.00 cm**-1
   4:         0.00 cm**-1
   5:         0.00 cm**-1
   6:       103.43 cm**-1
   7:       129.13 cm**-1
   8:       136.89 cm**-1
   9:       250.26 cm**-1
  10:       332.55 cm**-1
  11:       463.76 cm**-1
  12:       488.13 cm**-1
  13:       569.70 cm**-1
  14:       719.90 cm**-1
  15:       740.00 cm**-1
  16:       743.37 cm**-1
  17:       842.68 cm**-1
  18:       860.01 cm**-1
  19:       891.25 cm**-1
  20:       899.17 cm**-1
  21:       991.89 cm**-1
  22:      1001.90 cm**-1
  23:      1019.42 cm**-1
  24:      1059.34 cm**-1
  25:      1132.49 cm**-1
  26:      1159.16 cm**-1
  27:      1195.07 cm**-1
  28:      1251.61 cm**-1
  29:      1276.62 cm**-1
  30:      1311.94 cm**-1
  31:      1329.62 cm**-1
  32:      1426.60 cm**-1
  33:      1494.04 cm**-1
  34:      1623.24 cm**-1
  35:      1697.51 cm**-1
  36:      2231.16 cm**-1
  37:      3153.83 cm**-1
  38:      3173.73 cm**-1
  39:      3177.95 cm**-1
  40:      3201.14 cm**-1
  41:      3276.71 cm**-1
  42:      3460.22 cm**-1
  43:      3503.05 cm**-1
  44:      3614.95 cm**-1

IR SPECTRUM
-----------

 Mode    freq (cm**-1)   T**2         TX         TY         TZ
-------------------------------------------------------------------
   6:       103.43    8.152905  ( -2.467767   1.095832   0.928540)
   7:       129.13    1.505180  ( -0.599208   0.376832  -1.002062)
   8:       136.89    4.221139  (  0.642333   1.572721   1.155464)
   9:       250.26    4.213080  ( -0.139633  -1.729149   1.097099)
  10:       332.55    5.037002  ( -1.720025   0.914634  -1.114432)
  11:       463.76    0.901276  (  0.646361  -0.551104   0.424002)
  12:       488.13    6.399881  ( -0.801436  -2.115389  -1.132568)
  13:       569.70    1.768001  ( -0.782917  -1.019861  -0.339006)
  14:       719.90   41.100682  (  2.144903   5.781491   1.753407)
  15:       740.00   48.824750  (  0.958705  -0.995686  -6.849397)
  16:       743.37   40.043685  ( -4.620573   2.176854  -3.735678)
  17:       842.68    6.764643  ( -2.417725  -0.270187  -0.919917)
  18:       860.01   30.265662  (  1.841048  -0.646125   5.143805)
  19:       891.25   19.524024  (  0.895943  -2.153596   3.752777)
  20:       899.17    2.792386  ( -0.319265   1.570678   0.472680)
  21:       991.89   66.875977  (  4.312457  -5.046149   4.776513)
  22:      1001.90   44.799442  ( -1.891857  -5.409139   3.458545)
  23:      1019.42   25.902570  (  2.322803   4.503198   0.477871)
  24:      1059.34   22.876873  ( -3.321054  -0.959007   3.305719)
  25:      1132.49    5.480770  (  2.193366   0.779786  -0.248699)
  26:      1159.16    5.970861  ( -0.909764   1.490609   1.709174)
  27:      1195.07    3.811347  ( -0.641052   1.064050  -1.506054)
  28:      1251.61    1.715756  (  1.144181   0.303676  -0.560702)
  29:      1276.62   10.150494  ( -2.162988   0.580944   2.265939)
  30:      1311.94    6.511872  ( -0.163792   1.832884   1.767931)
  31:      1329.62    2.454695  (  0.705719   0.260583   1.374319)
  32:      1426.60   59.244056  (  2.211038  -2.148482  -7.052616)
  33:      1494.04   21.062760  (  2.346368   2.874796  -2.700531)
  34:      1623.24   99.779903  (  4.519759   0.502588   8.893767)
  35:      1697.51   84.337874  (  3.652121  -1.591651  -8.274451)
  36:      2231.16   84.301821  (  3.632435  -0.318280  -8.426502)
  37:      3153.83    5.269875  (  1.025753   0.270610  -2.035798)
  38:      3173.73    3.286832  ( -0.298120   1.101176  -1.409031)
  39:      3177.95    2.656425  (  1.102842   1.103792  -0.470966)
  40:      3201.14    2.150949  ( -0.043642  -1.179309  -0.870791)
  41:      3276.71    5.515064  (  1.666482  -1.077265  -1.255947)
  42:      3460.22   94.504177  (  4.346790   0.517019  -8.679994)
  43:      3503.05  114.020319  ( -6.398589  -1.230002  -8.459637)
  44:      3614.95  125.920804  ( -7.033522   4.725037   7.356928)

--------------------------
THERMOCHEMISTRY AT 298.15K
--------------------------

Temperature         ... 298.15 K
Pressure            ... 1.00 atm
Total Mass          ... 94.14 AMU

Throughout the following assumptions are being made:
  (1) The electronic state is orbitally nondegenerate
  (2) There are no thermally accessible electronically excited states
  (3) Hindered rotations indicated by low frequency modes) are not
      treated as such but are treated as vibrations and this may
      case some error
  (4) All equations used are the standard statistical mechanics
      equations for an ideal gas
  (5) All vibrations are strinctly harmonic

------------
INNER ENERGY
------------

The inner energy is: U= E(el) + E(ZPE) + E(vib) + E(rot) + E(trans)
    E(el)   - is the total energy from the electronic structure calculation
              = E(kin-el) + E(nuc-el) + E(el-el) + E(nuc-nuc)
    E(ZPE)  - the the zero temperature vibrational energy from the frequency calculation
    E(vib)  - the the finite temperature correction to E(ZPE) due to population
              of excietd vibrational states
    E(rot)  - is the rotational thermal energy
    E(trans)- is the translational thermal energy

Summary of contributions to the inner energy U:
Electronic energy                ...   -287.58704488 Eh
Zero point energy                ...      0.12742573 Eh      79.96 kcal/mol
Thermal vibrational correction   ...      0.00440384 Eh       2.76 kcal/mol
Thermal rotational correction    ...      0.00141627 Eh       0.89 kcal/mol
Thermal translational correction ...      0.00141627 Eh       0.89 kcal/mol
-----------------------------------------------------------------------
Total thermal energy                   -287.45238276 Eh

Summary of corrections to the electronic energy:
(perhaps to be used in another calculation)
Total thermal correction                  0.00723638 Eh       4.54 kcal/mol
Non-thermal (ZPE) correction              0.12742573 Eh      79.96 kcal/mol
-----------------------------------------------------------------------
Total correction                          0.13466212 Eh      84.50 kcal/mol

--------
ENTHALPY
--------

The enthalpy is H = U + kB*T
                kB is Boltzmann's constant
Total free energy                 ...   -287.45238276 Eh
Thermal Enthalpy correction       ...      0.00094421 Eh       0.59 kcal/mol
-----------------------------------------------------------------------
Total Enthalpy                    ...   -287.45143855 Eh

-------
ENTROPY
-------

The entropy contributions are T*S = T*(S(el)+S(vib)+S(rot)+S(trans)
     S(el)   - electronic entropy
     S(vib)  - vibrational entropy
     S(rot)  - rotational entropy
     S(trans)- translational entropy
The entropies will be listed as mutliplied by the temperature to get
units of energy

Electronic entropy                ...      0.00000000 Eh      0.00 kcal/mol
Vibrational entropy               ...      0.00769574 Eh      4.83 kcal/mol
Rotational entropy                ...      0.01204741 Eh      7.56 kcal/mol
Translational entropy             ...      0.01878567 Eh     11.79 kcal/mol
-----------------------------------------------------------------------
Final entropy term                ...      0.03852882 Eh     24.18 kcal/mol

CAUTION: The rotational entropy is not quite correctly treated here
         because it includes a symmetry number that is not yet correctly
         implemented in ORCA!
For a nonlinear molecule the correct rotational entropy is:
    S(rot) = R*(ln(qrot/sn)+1.5)
    R    = 8.31441 J/mol/K = 1.987191683e-3 kcal/mol/K
    qrot = 232874.7672800
    sn is the rotational symmetry number. We have assumed 3 here
       if it is different for your molecule then you should correct
       the printed rotational entropy by manually evaluating the equation
       as given above

For convenience we print out the resulting values for sn=1 - 12:
 sn= 1  qrot/sn=  232874.7673 T*S(rot)=     8.21 kcal/mol T*S(tot)=    24.83 kcal/mol
 sn= 2  qrot/sn=  116437.3836 T*S(rot)=     7.80 kcal/mol T*S(tot)=    24.42 kcal/mol
 sn= 3  qrot/sn=   77624.9224 T*S(rot)=     7.56 kcal/mol T*S(tot)=    24.18 kcal/mol
 sn= 4  qrot/sn=   58218.6918 T*S(rot)=     7.39 kcal/mol T*S(tot)=    24.01 kcal/mol
 sn= 5  qrot/sn=   46574.9535 T*S(rot)=     7.26 kcal/mol T*S(tot)=    23.87 kcal/mol
 sn= 6  qrot/sn=   38812.4612 T*S(rot)=     7.15 kcal/mol T*S(tot)=    23.77 kcal/mol
 sn= 7  qrot/sn=   33267.8239 T*S(rot)=     7.06 kcal/mol T*S(tot)=    23.68 kcal/mol
 sn= 8  qrot/sn=   29109.3459 T*S(rot)=     6.98 kcal/mol T*S(tot)=    23.60 kcal/mol
 sn= 9  qrot/sn=   25874.9741 T*S(rot)=     6.91 kcal/mol T*S(tot)=    23.53 kcal/mol
 sn=10  qrot/sn=   23287.4767 T*S(rot)=     6.85 kcal/mol T*S(tot)=    23.46 kcal/mol
 sn=11  qrot/sn=   21170.4334 T*S(rot)=     6.79 kcal/mol T*S(tot)=    23.41 kcal/mol
 sn=12  qrot/sn=   19406.2306 T*S(rot)=     6.74 kcal/mol T*S(tot)=    23.36 kcal/mol

-------------------
GIBBS FREE ENTHALPY
-------------------

The Gibbs free enthalpy is G = H - T*S

Total enthalpy                    ...   -287.45143855 Eh
Total entropy correction          ...     -0.03852882 Eh    -24.18 kcal/mol
-----------------------------------------------------------------------
Final Gibbs free enthalpy         ...   -287.48996738 Eh

For completeness - the Gibbs free enthalpy minus the electronic energy
G-E(el)                           ...      0.09707750 Eh     60.92 kcal/mol

                             ****ORCA TERMINATED NORMALLY****
TOTAL RUN TIME: 0 days 0 hours 28 minutes 17 seconds 868 msec
