                         Program Version 3.0.3 - RELEASE   -
|  1> ! NORI PBE0 def2-TZVP UseSym TightOPT Freq TightSCF Grid3 FinalGrid5 XYZFile
|  2> % pal
|  3>     nprocs 8
|  4> end
|  5> %method
|  6>     SymThresh 5.0e-2
|  7> end
|  8> % geom
|  9>     MaxIter 10
| 10> end
| 11> % maxcore 2000
| 12> % output
| 13>     printlevel mini
| 14>     print[ P_Basis ] 0
| 15>     print[ P_SCFInfo ] 1
| 16>     print[ P_SCFIterInfo ] 1
| 17>     print[ P_OrbEn ] 0
| 18>     print[ P_Cartesian ] 0
| 19> end
| 20> % elprop
| 21>     Dipole false
| 22> end
| 23> *xyz 1 1
| 24>  C        0.8648754003    -0.0091673034    -0.0493676649
| 25>  C        2.0690155610    -0.0371008857    -0.0475652386
| 26>  C        3.4254617020    -0.0705401877    -0.0418163764
| 27>  C        4.6340195059    -0.0984875998    -0.0383564205
| 28>  C        6.0496581401    -0.1613002449     0.0066400106
| 29>  C        6.8352436426    -0.8477104689    -1.0430150308
| 30>  N        6.7937280661     0.6293799858    -1.0556152347
| 31>  H       -0.2025998912     0.0148006956    -0.0485047204
| 32>  H        6.5237054239    -0.0508027025     0.9782754361
| 33>  H        7.8038973538    -1.2605467685    -0.7930802907
| 34>  H        6.3062214609    -1.3092167805    -1.8665698693
| 35>  H        6.2213533060     1.0843024104    -1.7603886751
| 36>  H        7.6240803286     1.1458898499    -0.7841459255
| 37> *
| 38>
| 39>                          ****END OF INPUT****
 Total Charge           Charge          ....    1
 Multiplicity           Mult            ....    1
 Number of Electrons    NEL             ....   48
FINAL SINGLE POINT ENERGY      -286.334785335112

CARTESIAN COORDINATES (ANGSTROEM)
---------------------------------
  C      1.311087    0.000049   -3.428530
  C      0.820895    0.082927   -2.331385
  C      0.265393    0.178264   -1.097067
  C     -0.227221    0.262712    0.003587
  C     -0.847747    0.378771    1.273017
  C     -1.177035   -0.807981    2.093585
  N      0.000136   -0.000091    2.475085
  H      1.743766   -0.071811   -4.401892
  H     -1.419478    1.281912    1.468458
  H     -1.997859   -0.752798    2.796906
  H     -0.930816   -1.788453    1.707692
  H      0.921803   -0.375867    2.274278
  H     -0.050808    0.578859    3.307096

FINAL SINGLE POINT ENERGY      -286.334785512857
                    ***********************HURRAY********************
 Multiplicity           Mult            ....    1
 Number of Electrons    NEL             ....   48
 Basis Dimension        Dim             ....  253
FINAL SINGLE POINT ENERGY      -286.334785574076

VIBRATIONAL FREQUENCIES
-----------------------

   0:         0.00 cm**-1
   1:         0.00 cm**-1
   2:         0.00 cm**-1
   3:         0.00 cm**-1
   4:         0.00 cm**-1
   5:         0.00 cm**-1
   6:        90.92 cm**-1
   7:       100.19 cm**-1
   8:       235.90 cm**-1
   9:       243.23 cm**-1
  10:       429.12 cm**-1
  11:       459.72 cm**-1
  12:       539.91 cm**-1
  13:       552.53 cm**-1
  14:       661.83 cm**-1
  15:       721.06 cm**-1
  16:       737.30 cm**-1
  17:       742.62 cm**-1
  18:       864.13 cm**-1
  19:       886.67 cm**-1
  20:       930.44 cm**-1
  21:      1018.73 cm**-1
  22:      1056.01 cm**-1
  23:      1144.63 cm**-1
  24:      1171.55 cm**-1
  25:      1216.54 cm**-1
  26:      1254.70 cm**-1
  27:      1264.20 cm**-1
  28:      1425.21 cm**-1
  29:      1487.60 cm**-1
  30:      1621.21 cm**-1
  31:      2194.38 cm**-1
  32:      2363.03 cm**-1
  33:      3173.27 cm**-1
  34:      3175.94 cm**-1
  35:      3282.58 cm**-1
  36:      3455.20 cm**-1
  37:      3500.52 cm**-1
  38:      3611.50 cm**-1

IR SPECTRUM
-----------

 Mode    freq (cm**-1)   T**2         TX         TY         TZ
-------------------------------------------------------------------
   6:        90.92   11.275953  ( -2.681654   2.010551   0.205839)
   7:       100.19    8.798743  (  2.104772   2.085383   0.140909)
   8:       235.90    3.734029  ( -0.623628   1.286395  -1.300118)
   9:       243.23    2.253940  (  0.805815   0.752013   1.019352)
  10:       429.12    3.492208  (  0.425419  -1.123950   1.431071)
  11:       459.72    0.218475  (  0.321439   0.330982  -0.074851)
  12:       539.91    6.703521  (  0.061182  -2.402633   0.962878)
  13:       552.53    6.192373  (  2.271514   0.219533   0.992171)
  14:       661.83    1.133530  (  0.827107  -0.664994   0.084900)
  15:       721.06   38.682592  (  1.236163   6.095441   0.009850)
  16:       737.30   72.949207  ( -0.036638  -0.357683  -8.533459)
  17:       742.62   40.099762  (  5.310462  -1.136597   3.256824)
  18:       864.13    5.532385  (  1.900868   0.722498  -1.181982)
  19:       886.67    6.682758  ( -0.987080  -0.966668  -2.184945)
  20:       930.44   25.137065  (  2.957947  -1.436815   3.784597)
  21:      1018.73   88.237049  (  2.148877   7.758607  -4.839772)
  22:      1056.01   11.551519  (  1.059995  -1.221086  -2.989461)
  23:      1144.63    3.668296  ( -1.539468   0.100849   1.134973)
  24:      1171.55    1.641220  ( -0.045695  -0.938627   0.870696)
  25:      1216.54    4.167391  ( -2.003958   0.361463  -0.144527)
  26:      1254.70    1.992023  (  0.998636  -0.083444  -0.993874)
  27:      1264.20    7.505939  (  2.359204  -0.789116  -1.147777)
  28:      1425.21   85.270365  (  3.065103  -1.143991  -8.635206)
  29:      1487.60   23.938162  ( -2.456196  -2.622517   3.320793)
  30:      1621.21   77.890014  (  5.361389   0.793388   6.965347)
  31:      2194.38    0.211519  ( -0.349853   0.160111   0.251966)
  32:      2363.03  357.272189  (  6.812388  -0.511189 -17.623911)
  33:      3173.27    9.872172  ( -0.360535   2.401886  -1.993271)
  34:      3175.94    4.715844  ( -1.416490  -1.409431   0.850238)
  35:      3282.58    8.872426  ( -1.548033   2.054311   1.501941)
  36:      3455.20  124.935337  (  4.325514  -0.599984 -10.289086)
  37:      3500.52  136.334391  (  6.932824   1.604298   9.257244)
  38:      3611.50  137.579130  ( -6.560144   6.484783   7.245083)

--------------------------
THERMOCHEMISTRY AT 298.15K
--------------------------

Temperature         ... 298.15 K
Pressure            ... 1.00 atm
Total Mass          ... 92.12 AMU

Throughout the following assumptions are being made:
  (1) The electronic state is orbitally nondegenerate
  (2) There are no thermally accessible electronically excited states
  (3) Hindered rotations indicated by low frequency modes) are not
      treated as such but are treated as vibrations and this may
      case some error
  (4) All equations used are the standard statistical mechanics
      equations for an ideal gas
  (5) All vibrations are strinctly harmonic

------------
INNER ENERGY
------------

The inner energy is: U= E(el) + E(ZPE) + E(vib) + E(rot) + E(trans)
    E(el)   - is the total energy from the electronic structure calculation
              = E(kin-el) + E(nuc-el) + E(el-el) + E(nuc-nuc)
    E(ZPE)  - the the zero temperature vibrational energy from the frequency calculation
    E(vib)  - the the finite temperature correction to E(ZPE) due to population
              of excietd vibrational states
    E(rot)  - is the rotational thermal energy
    E(trans)- is the translational thermal energy

Summary of contributions to the inner energy U:
Electronic energy                ...   -286.33478557 Eh
Zero point energy                ...      0.10391259 Eh      65.21 kcal/mol
Thermal vibrational correction   ...      0.00416751 Eh       2.62 kcal/mol
Thermal rotational correction    ...      0.00141627 Eh       0.89 kcal/mol
Thermal translational correction ...      0.00141627 Eh       0.89 kcal/mol
-----------------------------------------------------------------------
Total thermal energy                   -286.22387293 Eh

Summary of corrections to the electronic energy:
(perhaps to be used in another calculation)
Total thermal correction                  0.00700005 Eh       4.39 kcal/mol
Non-thermal (ZPE) correction              0.10391259 Eh      65.21 kcal/mol
-----------------------------------------------------------------------
Total correction                          0.11091264 Eh      69.60 kcal/mol

--------
ENTHALPY
--------

The enthalpy is H = U + kB*T
                kB is Boltzmann's constant
Total free energy                 ...   -286.22387293 Eh
Thermal Enthalpy correction       ...      0.00094421 Eh       0.59 kcal/mol
-----------------------------------------------------------------------
Total Enthalpy                    ...   -286.22292872 Eh

-------
ENTROPY
-------

The entropy contributions are T*S = T*(S(el)+S(vib)+S(rot)+S(trans)
     S(el)   - electronic entropy
     S(vib)  - vibrational entropy
     S(rot)  - rotational entropy
     S(trans)- translational entropy
The entropies will be listed as mutliplied by the temperature to get
units of energy

Electronic entropy                ...      0.00000000 Eh      0.00 kcal/mol
Vibrational entropy               ...      0.00733092 Eh      4.60 kcal/mol
Rotational entropy                ...      0.01200866 Eh      7.54 kcal/mol
Translational entropy             ...      0.01875501 Eh     11.77 kcal/mol
-----------------------------------------------------------------------
Final entropy term                ...      0.03809459 Eh     23.90 kcal/mol

CAUTION: The rotational entropy is not quite correctly treated here
         because it includes a symmetry number that is not yet correctly
         implemented in ORCA!
For a nonlinear molecule the correct rotational entropy is:
    S(rot) = R*(ln(qrot/sn)+1.5)
    R    = 8.31441 J/mol/K = 1.987191683e-3 kcal/mol/K
    qrot = 223509.3885033
    sn is the rotational symmetry number. We have assumed 3 here
       if it is different for your molecule then you should correct
       the printed rotational entropy by manually evaluating the equation
       as given above

For convenience we print out the resulting values for sn=1 - 12:
 sn= 1  qrot/sn=  223509.3885 T*S(rot)=     8.19 kcal/mol T*S(tot)=    24.56 kcal/mol
 sn= 2  qrot/sn=  111754.6943 T*S(rot)=     7.78 kcal/mol T*S(tot)=    24.14 kcal/mol
 sn= 3  qrot/sn=   74503.1295 T*S(rot)=     7.54 kcal/mol T*S(tot)=    23.90 kcal/mol
 sn= 4  qrot/sn=   55877.3471 T*S(rot)=     7.37 kcal/mol T*S(tot)=    23.73 kcal/mol
 sn= 5  qrot/sn=   44701.8777 T*S(rot)=     7.23 kcal/mol T*S(tot)=    23.60 kcal/mol
 sn= 6  qrot/sn=   37251.5648 T*S(rot)=     7.12 kcal/mol T*S(tot)=    23.49 kcal/mol
 sn= 7  qrot/sn=   31929.9126 T*S(rot)=     7.03 kcal/mol T*S(tot)=    23.40 kcal/mol
 sn= 8  qrot/sn=   27938.6736 T*S(rot)=     6.95 kcal/mol T*S(tot)=    23.32 kcal/mol
 sn= 9  qrot/sn=   24834.3765 T*S(rot)=     6.88 kcal/mol T*S(tot)=    23.25 kcal/mol
 sn=10  qrot/sn=   22350.9389 T*S(rot)=     6.82 kcal/mol T*S(tot)=    23.19 kcal/mol
 sn=11  qrot/sn=   20319.0353 T*S(rot)=     6.77 kcal/mol T*S(tot)=    23.13 kcal/mol
 sn=12  qrot/sn=   18625.7824 T*S(rot)=     6.71 kcal/mol T*S(tot)=    23.08 kcal/mol

-------------------
GIBBS FREE ENTHALPY
-------------------

The Gibbs free enthalpy is G = H - T*S

Total enthalpy                    ...   -286.22292872 Eh
Total entropy correction          ...     -0.03809459 Eh    -23.90 kcal/mol
-----------------------------------------------------------------------
Final Gibbs free enthalpy         ...   -286.26102332 Eh

For completeness - the Gibbs free enthalpy minus the electronic energy
G-E(el)                           ...      0.07376226 Eh     46.29 kcal/mol

                             ****ORCA TERMINATED NORMALLY****
TOTAL RUN TIME: 0 days 0 hours 19 minutes 1 seconds 322 msec
