                         Program Version 3.0.3 - RELEASE   -
|  1> ! NORI PBE0 def2-TZVP UseSym TightOPT Freq TightSCF Grid3 FinalGrid5 XYZFile
|  2> % pal
|  3>     nprocs 8
|  4> end
|  5> %method
|  6>     SymThresh 5.0e-2
|  7> end
|  8> % geom
|  9>     MaxIter 10
| 10> end
| 11> % maxcore 2000
| 12> % output
| 13>     printlevel mini
| 14>     print[ P_Basis ] 0
| 15>     print[ P_SCFInfo ] 1
| 16>     print[ P_SCFIterInfo ] 1
| 17>     print[ P_OrbEn ] 0
| 18>     print[ P_Cartesian ] 0
| 19> end
| 20> % elprop
| 21>     Dipole false
| 22> end
| 23> *xyz 1 1
| 24>  C        2.4409195329    -1.0003560151     2.1885817558
| 25>  C        2.3375278576     0.1801554460     1.2949131344
| 26>  C        3.2985685804     0.9541909632     0.7758634106
| 27>  C        2.9884428191     2.1039364558    -0.1358972706
| 28>  C        4.7150333279     0.6580466108     1.0536527479
| 29>  C        5.8350982604     1.1995392202     0.2633750783
| 30>  N        5.5810152689     1.7949080159     1.5916438035
| 31>  H        1.8498213381    -0.8289829443     3.0929386477
| 32>  H        3.4527969088    -1.2616823287     2.4955496528
| 33>  H        1.9991320945    -1.8742635257     1.7006427792
| 34>  H        1.3192716261     0.4420730450     1.0154969899
| 35>  H        3.3439489860     1.9252464231    -1.1553604710
| 36>  H        3.4230815991     3.0544762183     0.1984219465
| 37>  H        1.9124117568     2.2634184587    -0.1890740872
| 38>  H        4.9270288471    -0.2505786666     1.6011482873
| 39>  H        5.6291251504     1.8729623434    -0.5581226302
| 40>  H        6.7625540631     0.6456914627     0.1985270078
| 41>  H        5.1626314504     2.7175305353     1.6257323465
| 42>  H        6.2282305321     1.6006482821     2.3466268707
| 43> *
| 44>
| 45>                          ****END OF INPUT****
 Total Charge           Charge          ....    1
 Multiplicity           Mult            ....    1
 Number of Electrons    NEL             ....   54
FINAL SINGLE POINT ENERGY      -290.077308019232
FINAL SINGLE POINT ENERGY      -290.077309409541

CARTESIAN COORDINATES (ANGSTROEM)
---------------------------------
  C      1.970456    0.000217   -1.766623
  C      0.589234   -0.501179   -1.558087
  C     -0.258029   -0.293632   -0.542383
  C     -1.638752   -0.878666   -0.525540
  C      0.137893    0.571132    0.583596
  C     -0.814269    1.149847    1.548894
  N     -0.000260   -0.000417    1.992554
  H      2.649323   -0.844541   -1.916092
  H      2.369188    0.609717   -0.956014
  H      2.015049    0.590476   -2.686699
  H      0.212842   -1.124051   -2.366757
  H     -2.410733   -0.107067   -0.602533
  H     -1.852314   -1.464171    0.377611
  H     -1.770569   -1.557327   -1.366828
  H      1.082628    1.090902    0.493360
  H     -1.868256    0.922534    1.457952
  H     -0.573599    2.079720    2.047423
  H     -0.459873   -0.899557    2.081717
  H      0.746893    0.156075    2.658767

FINAL SINGLE POINT ENERGY      -290.077310030373
                    ***********************HURRAY********************
 Multiplicity           Mult            ....    1
 Number of Electrons    NEL             ....   54
 Basis Dimension        Dim             ....  289
FINAL SINGLE POINT ENERGY      -290.077310260624

VIBRATIONAL FREQUENCIES
-----------------------

   0:         0.00 cm**-1
   1:         0.00 cm**-1
   2:         0.00 cm**-1
   3:         0.00 cm**-1
   4:         0.00 cm**-1
   5:         0.00 cm**-1
   6:        65.00 cm**-1
   7:       146.16 cm**-1
   8:       179.33 cm**-1
   9:       220.19 cm**-1
  10:       242.25 cm**-1
  11:       264.26 cm**-1
  12:       300.07 cm**-1
  13:       455.08 cm**-1
  14:       533.01 cm**-1
  15:       551.53 cm**-1
  16:       700.03 cm**-1
  17:       736.04 cm**-1
  18:       843.11 cm**-1
  19:       884.00 cm**-1
  20:       887.88 cm**-1
  21:       925.61 cm**-1
  22:       965.13 cm**-1
  23:       999.33 cm**-1
  24:      1040.16 cm**-1
  25:      1054.08 cm**-1
  26:      1060.89 cm**-1
  27:      1075.77 cm**-1
  28:      1143.95 cm**-1
  29:      1157.03 cm**-1
  30:      1180.40 cm**-1
  31:      1252.63 cm**-1
  32:      1267.45 cm**-1
  33:      1280.22 cm**-1
  34:      1348.56 cm**-1
  35:      1410.10 cm**-1
  36:      1420.47 cm**-1
  37:      1431.17 cm**-1
  38:      1461.39 cm**-1
  39:      1476.16 cm**-1
  40:      1479.74 cm**-1
  41:      1486.00 cm**-1
  42:      1495.40 cm**-1
  43:      1623.33 cm**-1
  44:      1734.51 cm**-1
  45:      3025.85 cm**-1
  46:      3053.57 cm**-1
  47:      3088.05 cm**-1
  48:      3109.70 cm**-1
  49:      3143.64 cm**-1
  50:      3157.49 cm**-1
  51:      3167.90 cm**-1
  52:      3177.26 cm**-1
  53:      3224.48 cm**-1
  54:      3276.81 cm**-1
  55:      3518.99 cm**-1
  56:      3627.97 cm**-1

IR SPECTRUM
-----------

 Mode    freq (cm**-1)   T**2         TX         TY         TZ
-------------------------------------------------------------------
   6:        65.00    3.431006  (  1.838446  -0.143132  -0.175029)
   7:       146.16    1.417639  ( -0.054976  -1.172547   0.199372)
   8:       179.33    0.834283  ( -0.689950   0.481959  -0.354919)
   9:       220.19    1.251167  (  0.879454   0.634623  -0.273826)
  10:       242.25    4.206170  ( -0.055375  -1.876306  -0.826184)
  11:       264.26    1.598595  (  0.447545   0.242501   1.157364)
  12:       300.07    1.282716  ( -0.568668   0.052020  -0.978073)
  13:       455.08    0.016507  (  0.001511   0.089974   0.091705)
  14:       533.01    1.876328  (  0.071293   0.351237  -1.322073)
  15:       551.53    6.902635  (  1.099647  -1.751925  -1.619929)
  16:       700.03   23.129482  (  0.468748  -0.328457   4.775131)
  17:       736.04   37.466798  (  0.855530   0.707011  -6.019552)
  18:       843.11    5.567618  (  0.937463  -2.161567  -0.128100)
  19:       884.00   11.283423  (  1.487846  -0.451051   2.977632)
  20:       887.88    1.867044  ( -0.310206  -0.433237   1.258222)
  21:       925.61   12.399558  (  0.687119   2.509367  -2.372868)
  22:       965.13   28.830599  (  1.423628   0.879189  -5.102050)
  23:       999.33   77.479859  ( -5.919374   4.317651   4.878398)
  24:      1040.16    4.183100  (  1.292099   1.038678  -1.197802)
  25:      1054.08    2.385406  (  0.275130   0.358356  -1.476919)
  26:      1060.89    8.000683  (  0.399360  -1.088630  -2.579938)
  27:      1075.77    0.845212  (  0.741729  -0.486025   0.242549)
  28:      1143.95   19.472184  ( -1.955374   1.507862   3.657191)
  29:      1157.03    0.488161  ( -0.544154  -0.433460   0.064576)
  30:      1180.40    2.803206  (  0.733034   0.322008  -1.470435)
  31:      1252.63    4.448293  (  0.522951   1.136558   1.697955)
  32:      1267.45    4.168402  (  0.269582  -1.856930  -0.804698)
  33:      1280.22    9.755181  ( -1.784346   0.430705   2.527011)
  34:      1348.56    1.819235  (  1.105976   0.208581   0.743334)
  35:      1410.10   10.880655  ( -3.003325  -0.905680   1.020020)
  36:      1420.47    2.918350  (  1.561268   0.657805   0.219284)
  37:      1431.17    5.199883  (  0.514643   0.069887   2.220392)
  38:      1461.39    9.230693  (  1.319109  -2.616792   0.801898)
  39:      1476.16   10.319638  (  0.110201  -3.168067   0.520428)
  40:      1479.74    1.546983  ( -0.443609  -0.258070  -1.132958)
  41:      1486.00   46.466791  (  1.103182  -3.393751  -5.807946)
  42:      1495.40    9.232333  ( -2.535994   1.454262  -0.828365)
  43:      1623.33   76.714084  ( -1.602336   4.929098  -7.060495)
  44:      1734.51   28.591561  (  2.800219  -0.430063  -4.534907)
  45:      3025.85   21.368518  (  2.342316   1.236120  -3.788678)
  46:      3053.57    2.716851  (  0.955289   0.903732   0.993752)
  47:      3088.05    7.644054  ( -1.161132   1.847868  -1.697413)
  48:      3109.70    0.352712  ( -0.261637   0.492472  -0.204276)
  49:      3143.64    9.236050  ( -0.879325  -1.717541  -2.347954)
  50:      3157.49    0.790414  (  0.700534  -0.108545  -0.536549)
  51:      3167.90    7.557809  ( -1.799854  -1.585493  -1.343334)
  52:      3177.26    1.780075  ( -0.767142   0.950234   0.537238)
  53:      3224.48    3.232260  (  0.664150  -0.390757  -1.624338)
  54:      3276.81    4.833306  (  1.583486   1.353241   0.703289)
  55:      3518.99  100.213189  ( -1.829385   5.245460  -8.327766)
  56:      3627.97  121.543566  ( -7.518238  -6.349445  -4.970332)

--------------------------
THERMOCHEMISTRY AT 298.15K
--------------------------

Temperature         ... 298.15 K
Pressure            ... 1.00 atm
Total Mass          ... 98.17 AMU

Throughout the following assumptions are being made:
  (1) The electronic state is orbitally nondegenerate
  (2) There are no thermally accessible electronically excited states
  (3) Hindered rotations indicated by low frequency modes) are not
      treated as such but are treated as vibrations and this may
      case some error
  (4) All equations used are the standard statistical mechanics
      equations for an ideal gas
  (5) All vibrations are strinctly harmonic

------------
INNER ENERGY
------------

The inner energy is: U= E(el) + E(ZPE) + E(vib) + E(rot) + E(trans)
    E(el)   - is the total energy from the electronic structure calculation
              = E(kin-el) + E(nuc-el) + E(el-el) + E(nuc-nuc)
    E(ZPE)  - the the zero temperature vibrational energy from the frequency calculation
    E(vib)  - the the finite temperature correction to E(ZPE) due to population
              of excietd vibrational states
    E(rot)  - is the rotational thermal energy
    E(trans)- is the translational thermal energy

Summary of contributions to the inner energy U:
Electronic energy                ...   -290.07731026 Eh
Zero point energy                ...      0.17393616 Eh     109.15 kcal/mol
Thermal vibrational correction   ...      0.00540806 Eh       3.39 kcal/mol
Thermal rotational correction    ...      0.00141627 Eh       0.89 kcal/mol
Thermal translational correction ...      0.00141627 Eh       0.89 kcal/mol
-----------------------------------------------------------------------
Total thermal energy                   -289.89513350 Eh

Summary of corrections to the electronic energy:
(perhaps to be used in another calculation)
Total thermal correction                  0.00824060 Eh       5.17 kcal/mol
Non-thermal (ZPE) correction              0.17393616 Eh     109.15 kcal/mol
-----------------------------------------------------------------------
Total correction                          0.18217676 Eh     114.32 kcal/mol

--------
ENTHALPY
--------

The enthalpy is H = U + kB*T
                kB is Boltzmann's constant
Total free energy                 ...   -289.89513350 Eh
Thermal Enthalpy correction       ...      0.00094421 Eh       0.59 kcal/mol
-----------------------------------------------------------------------
Total Enthalpy                    ...   -289.89418930 Eh

-------
ENTROPY
-------

The entropy contributions are T*S = T*(S(el)+S(vib)+S(rot)+S(trans)
     S(el)   - electronic entropy
     S(vib)  - vibrational entropy
     S(rot)  - rotational entropy
     S(trans)- translational entropy
The entropies will be listed as mutliplied by the temperature to get
units of energy

Electronic entropy                ...      0.00000000 Eh      0.00 kcal/mol
Vibrational entropy               ...      0.00955351 Eh      5.99 kcal/mol
Rotational entropy                ...      0.01217214 Eh      7.64 kcal/mol
Translational entropy             ...      0.01884507 Eh     11.83 kcal/mol
-----------------------------------------------------------------------
Final entropy term                ...      0.04057071 Eh     25.46 kcal/mol

CAUTION: The rotational entropy is not quite correctly treated here
         because it includes a symmetry number that is not yet correctly
         implemented in ORCA!
For a nonlinear molecule the correct rotational entropy is:
    S(rot) = R*(ln(qrot/sn)+1.5)
    R    = 8.31441 J/mol/K = 1.987191683e-3 kcal/mol/K
    qrot = 265760.8256043
    sn is the rotational symmetry number. We have assumed 3 here
       if it is different for your molecule then you should correct
       the printed rotational entropy by manually evaluating the equation
       as given above

For convenience we print out the resulting values for sn=1 - 12:
 sn= 1  qrot/sn=  265760.8256 T*S(rot)=     8.29 kcal/mol T*S(tot)=    26.11 kcal/mol
 sn= 2  qrot/sn=  132880.4128 T*S(rot)=     7.88 kcal/mol T*S(tot)=    25.70 kcal/mol
 sn= 3  qrot/sn=   88586.9419 T*S(rot)=     7.64 kcal/mol T*S(tot)=    25.46 kcal/mol
 sn= 4  qrot/sn=   66440.2064 T*S(rot)=     7.47 kcal/mol T*S(tot)=    25.29 kcal/mol
 sn= 5  qrot/sn=   53152.1651 T*S(rot)=     7.34 kcal/mol T*S(tot)=    25.16 kcal/mol
 sn= 6  qrot/sn=   44293.4709 T*S(rot)=     7.23 kcal/mol T*S(tot)=    25.05 kcal/mol
 sn= 7  qrot/sn=   37965.8322 T*S(rot)=     7.14 kcal/mol T*S(tot)=    24.96 kcal/mol
 sn= 8  qrot/sn=   33220.1032 T*S(rot)=     7.06 kcal/mol T*S(tot)=    24.88 kcal/mol
 sn= 9  qrot/sn=   29528.9806 T*S(rot)=     6.99 kcal/mol T*S(tot)=    24.81 kcal/mol
 sn=10  qrot/sn=   26576.0826 T*S(rot)=     6.92 kcal/mol T*S(tot)=    24.75 kcal/mol
 sn=11  qrot/sn=   24160.0751 T*S(rot)=     6.87 kcal/mol T*S(tot)=    24.69 kcal/mol
 sn=12  qrot/sn=   22146.7355 T*S(rot)=     6.82 kcal/mol T*S(tot)=    24.64 kcal/mol

-------------------
GIBBS FREE ENTHALPY
-------------------

The Gibbs free enthalpy is G = H - T*S

Total enthalpy                    ...   -289.89418930 Eh
Total entropy correction          ...     -0.04057071 Eh    -25.46 kcal/mol
-----------------------------------------------------------------------
Final Gibbs free enthalpy         ...   -289.93476001 Eh

For completeness - the Gibbs free enthalpy minus the electronic energy
G-E(el)                           ...      0.14255025 Eh     89.45 kcal/mol

                             ****ORCA TERMINATED NORMALLY****
TOTAL RUN TIME: 0 days 0 hours 46 minutes 37 seconds 113 msec
