                         Program Version 3.0.3 - RELEASE   -
|  1> ! NORI PBE0 def2-TZVP UseSym TightOPT Freq TightSCF Grid3 FinalGrid5 XYZFile
|  2> % pal
|  3>     nprocs 8
|  4> end
|  5> %method
|  6>     SymThresh 5.0e-2
|  7> end
|  8> % geom
|  9>     MaxIter 10
| 10> end
| 11> % maxcore 2000
| 12> % output
| 13>     printlevel mini
| 14>     print[ P_Basis ] 0
| 15>     print[ P_SCFInfo ] 1
| 16>     print[ P_SCFIterInfo ] 1
| 17>     print[ P_OrbEn ] 0
| 18>     print[ P_Cartesian ] 0
| 19> end
| 20> % elprop
| 21>     Dipole false
| 22> end
| 23> *xyz 1 1
| 24>  C        2.3133390462    -2.1830500255    -0.0713982052
| 25>  C        2.9128133217    -0.8730051730    -0.4741811950
| 26>  C        3.3250175885    -0.6080916481    -1.7084210431
| 27>  C        3.0091763696     0.1873427397     0.5968671894
| 28>  C        4.0356703203    -0.1870436768     1.6291812288
| 29>  C        5.4484121214     0.1821082297     1.4797297985
| 30>  N        4.6083729799     0.9282143746     2.4515230266
| 31>  H        2.2431571679    -2.8586026876    -0.9231832070
| 32>  H        1.3066129300    -2.0442779265     0.3351981436
| 33>  H        2.9018180444    -2.6900530143     0.7011172541
| 34>  H        3.2519876269    -1.3485831547    -2.4964578255
| 35>  H        3.7277276992     0.3600964012    -1.9854705931
| 36>  H        2.0411177024     0.3135771961     1.0943112178
| 37>  H        3.2816512416     1.1448722252     0.1413406388
| 38>  H        3.8242090443    -1.0539866590     2.2457381087
| 39>  H        5.7475498858     0.7687868591     0.6197705425
| 40>  H        6.2229928166    -0.4174252504     1.9397063167
| 41>  H        4.3326101243     1.8747552346     2.2123783325
| 42>  H        4.7705839693     0.7829559554     3.4420602708
| 43> *
| 44>
| 45>                          ****END OF INPUT****
 Total Charge           Charge          ....    1
 Multiplicity           Mult            ....    1
 Number of Electrons    NEL             ....   54
FINAL SINGLE POINT ENERGY      -290.071500082961
FINAL SINGLE POINT ENERGY      -290.071501690021
FINAL SINGLE POINT ENERGY      -290.071503405327
FINAL SINGLE POINT ENERGY      -290.071504206036
FINAL SINGLE POINT ENERGY      -290.071504816598

CARTESIAN COORDINATES (ANGSTROEM)
---------------------------------
  C      1.308288   -0.012008   -2.002082
  C     -0.023133   -0.310447   -1.389138
  C     -1.174543   -0.145594   -2.029821
  C     -0.012853   -0.854139    0.019965
  C      0.400239    0.209261    0.998803
  C     -0.582754    1.102801    1.623292
  N      0.005615    0.002668    2.430312
  H      1.197102    0.348078   -3.023940
  H      1.937028   -0.907882   -2.023227
  H      1.862152    0.751505   -1.444873
  H     -1.202530    0.230017   -3.045852
  H     -2.127226   -0.399524   -1.577473
  H      0.686182   -1.694362    0.097205
  H     -1.010894   -1.221432    0.279985
  H      1.416650    0.580422    0.925846
  H     -1.632515    0.963021    1.396474
  H     -0.293350    2.092093    1.953179
  H     -0.582666   -0.796092    2.642812
  H      0.661714    0.240012    3.166129

FINAL SINGLE POINT ENERGY      -290.071505136159
                    ***********************HURRAY********************
 Multiplicity           Mult            ....    1
 Number of Electrons    NEL             ....   54
 Basis Dimension        Dim             ....  289
FINAL SINGLE POINT ENERGY      -290.071505308356

VIBRATIONAL FREQUENCIES
-----------------------

   0:         0.00 cm**-1
   1:         0.00 cm**-1
   2:         0.00 cm**-1
   3:         0.00 cm**-1
   4:         0.00 cm**-1
   5:         0.00 cm**-1
   6:        43.33 cm**-1
   7:        72.82 cm**-1
   8:       161.42 cm**-1
   9:       176.73 cm**-1
  10:       311.40 cm**-1
  11:       359.99 cm**-1
  12:       408.42 cm**-1
  13:       445.77 cm**-1
  14:       529.97 cm**-1
  15:       715.34 cm**-1
  16:       798.86 cm**-1
  17:       829.46 cm**-1
  18:       856.64 cm**-1
  19:       863.98 cm**-1
  20:       884.20 cm**-1
  21:       939.10 cm**-1
  22:       970.44 cm**-1
  23:       985.55 cm**-1
  24:       994.53 cm**-1
  25:      1018.05 cm**-1
  26:      1034.34 cm**-1
  27:      1069.96 cm**-1
  28:      1131.40 cm**-1
  29:      1155.91 cm**-1
  30:      1190.30 cm**-1
  31:      1244.57 cm**-1
  32:      1251.23 cm**-1
  33:      1292.01 cm**-1
  34:      1298.15 cm**-1
  35:      1337.43 cm**-1
  36:      1412.59 cm**-1
  37:      1425.23 cm**-1
  38:      1448.43 cm**-1
  39:      1467.57 cm**-1
  40:      1476.27 cm**-1
  41:      1484.97 cm**-1
  42:      1497.04 cm**-1
  43:      1631.76 cm**-1
  44:      1735.40 cm**-1
  45:      3038.37 cm**-1
  46:      3044.21 cm**-1
  47:      3092.62 cm**-1
  48:      3096.22 cm**-1
  49:      3156.18 cm**-1
  50:      3160.46 cm**-1
  51:      3171.39 cm**-1
  52:      3199.75 cm**-1
  53:      3249.25 cm**-1
  54:      3273.53 cm**-1
  55:      3512.66 cm**-1
  56:      3616.90 cm**-1

IR SPECTRUM
-----------

 Mode    freq (cm**-1)   T**2         TX         TY         TZ
-------------------------------------------------------------------
   6:        43.33    0.065130  (  0.252988   0.015106   0.029983)
   7:        72.82    1.595210  (  1.069498  -0.149137   0.655089)
   8:       161.42    2.865156  ( -0.841498  -1.050572   1.026321)
   9:       176.73    0.168022  (  0.125875  -0.389767   0.016078)
  10:       311.40    4.073328  (  0.611743  -0.909088  -1.694892)
  11:       359.99    0.592144  ( -0.108265  -0.749807   0.134955)
  12:       408.42    0.978314  (  0.145457   0.199501  -0.957787)
  13:       445.77    3.438424  (  0.543722  -0.990994  -1.469939)
  14:       529.97    9.449576  ( -0.011242  -2.721910  -1.428516)
  15:       715.34    0.130291  (  0.243055   0.068999   0.257788)
  16:       798.86   15.284300  (  0.999989   0.290563   3.768275)
  17:       829.46    0.330988  (  0.113912   0.174195   0.536347)
  18:       856.64   27.117581  ( -0.290421   2.426880  -4.598205)
  19:       863.98    2.588645  ( -1.340216   0.199429   0.867579)
  20:       884.20    5.181625  (  0.697567   1.653694   1.400114)
  21:       939.10    2.734501  (  0.515091  -0.000377   1.571363)
  22:       970.44   42.471777  ( -0.787524   6.019796   2.369311)
  23:       985.55   14.560610  (  1.261592  -0.687998  -3.534919)
  24:       994.53    0.501351  ( -0.593627  -0.135264  -0.361472)
  25:      1018.05   59.104048  (  4.864007  -3.829340  -4.558688)
  26:      1034.34   36.416123  (  4.731738  -3.680722  -0.692144)
  27:      1069.96    1.201095  (  0.655349  -0.546359   0.687826)
  28:      1131.40    6.597900  (  1.022930   1.153893   2.054275)
  29:      1155.91    1.375053  ( -0.927066  -0.096502   0.711540)
  30:      1190.30    1.540918  (  1.157060   0.148539  -0.424342)
  31:      1244.57    3.452430  (  0.229134   0.609269   1.740321)
  32:      1251.23    2.408441  ( -0.366535  -1.493646   0.207638)
  33:      1292.01    4.387881  (  1.090147   0.120776  -1.784621)
  34:      1298.15    2.408557  ( -0.340889   0.975651   1.157781)
  35:      1337.43    1.820635  (  0.411486   0.625071  -1.122765)
  36:      1412.59   11.029479  (  2.967679   0.389332  -1.439021)
  37:      1425.23    4.366329  (  0.502148  -0.231619   2.015075)
  38:      1448.43    0.144337  ( -0.001438   0.239292  -0.295083)
  39:      1467.57    9.026916  ( -0.757653  -1.335698   2.582400)
  40:      1476.27   21.247923  ( -0.229061  -4.599551   0.198961)
  41:      1484.97   12.873356  ( -2.314089  -0.611885  -2.672816)
  42:      1497.04   11.984048  ( -2.914787   1.724050   0.718136)
  43:      1631.76   70.907250  (  0.335713   3.728689  -7.542641)
  44:      1735.40   11.196986  (  3.314892  -0.146468   0.432462)
  45:      3038.37   12.586026  ( -3.191690  -1.389878  -0.683651)
  46:      3044.21    9.506775  (  0.418306  -1.313665   2.757912)
  47:      3092.62    9.393962  ( -0.303664  -2.718276  -1.383014)
  48:      3096.22    7.094383  ( -2.273035   0.528455   1.283913)
  49:      3156.18    4.383505  ( -0.323133   0.508323  -2.005168)
  50:      3160.46    1.384780  (  1.072830   0.264107  -0.405047)
  51:      3171.39    2.467297  ( -0.825858   1.332321  -0.100883)
  52:      3199.75    0.755992  (  0.539918  -0.032129  -0.680770)
  53:      3249.25    2.856024  (  1.227588   0.436883  -1.076191)
  54:      3273.53    5.135821  ( -1.643544  -1.427345  -0.630293)
  55:      3512.66  114.613035  ( -0.999858   4.506389  -9.659492)
  56:      3616.90  120.040074  ( -7.899719  -6.400129  -4.083241)

--------------------------
THERMOCHEMISTRY AT 298.15K
--------------------------

Temperature         ... 298.15 K
Pressure            ... 1.00 atm
Total Mass          ... 98.17 AMU

Throughout the following assumptions are being made:
  (1) The electronic state is orbitally nondegenerate
  (2) There are no thermally accessible electronically excited states
  (3) Hindered rotations indicated by low frequency modes) are not
      treated as such but are treated as vibrations and this may
      case some error
  (4) All equations used are the standard statistical mechanics
      equations for an ideal gas
  (5) All vibrations are strinctly harmonic

------------
INNER ENERGY
------------

The inner energy is: U= E(el) + E(ZPE) + E(vib) + E(rot) + E(trans)
    E(el)   - is the total energy from the electronic structure calculation
              = E(kin-el) + E(nuc-el) + E(el-el) + E(nuc-nuc)
    E(ZPE)  - the the zero temperature vibrational energy from the frequency calculation
    E(vib)  - the the finite temperature correction to E(ZPE) due to population
              of excietd vibrational states
    E(rot)  - is the rotational thermal energy
    E(trans)- is the translational thermal energy

Summary of contributions to the inner energy U:
Electronic energy                ...   -290.07150531 Eh
Zero point energy                ...      0.17442132 Eh     109.45 kcal/mol
Thermal vibrational correction   ...      0.00524978 Eh       3.29 kcal/mol
Thermal rotational correction    ...      0.00141627 Eh       0.89 kcal/mol
Thermal translational correction ...      0.00141627 Eh       0.89 kcal/mol
-----------------------------------------------------------------------
Total thermal energy                   -289.88900166 Eh

Summary of corrections to the electronic energy:
(perhaps to be used in another calculation)
Total thermal correction                  0.00808232 Eh       5.07 kcal/mol
Non-thermal (ZPE) correction              0.17442132 Eh     109.45 kcal/mol
-----------------------------------------------------------------------
Total correction                          0.18250365 Eh     114.52 kcal/mol

--------
ENTHALPY
--------

The enthalpy is H = U + kB*T
                kB is Boltzmann's constant
Total free energy                 ...   -289.88900166 Eh
Thermal Enthalpy correction       ...      0.00094421 Eh       0.59 kcal/mol
-----------------------------------------------------------------------
Total Enthalpy                    ...   -289.88805745 Eh

-------
ENTROPY
-------

The entropy contributions are T*S = T*(S(el)+S(vib)+S(rot)+S(trans)
     S(el)   - electronic entropy
     S(vib)  - vibrational entropy
     S(rot)  - rotational entropy
     S(trans)- translational entropy
The entropies will be listed as mutliplied by the temperature to get
units of energy

Electronic entropy                ...      0.00000000 Eh      0.00 kcal/mol
Vibrational entropy               ...      0.01002405 Eh      6.29 kcal/mol
Rotational entropy                ...      0.01216950 Eh      7.64 kcal/mol
Translational entropy             ...      0.01884507 Eh     11.83 kcal/mol
-----------------------------------------------------------------------
Final entropy term                ...      0.04103862 Eh     25.75 kcal/mol

CAUTION: The rotational entropy is not quite correctly treated here
         because it includes a symmetry number that is not yet correctly
         implemented in ORCA!
For a nonlinear molecule the correct rotational entropy is:
    S(rot) = R*(ln(qrot/sn)+1.5)
    R    = 8.31441 J/mol/K = 1.987191683e-3 kcal/mol/K
    qrot = 265020.1404642
    sn is the rotational symmetry number. We have assumed 3 here
       if it is different for your molecule then you should correct
       the printed rotational entropy by manually evaluating the equation
       as given above

For convenience we print out the resulting values for sn=1 - 12:
 sn= 1  qrot/sn=  265020.1405 T*S(rot)=     8.29 kcal/mol T*S(tot)=    26.40 kcal/mol
 sn= 2  qrot/sn=  132510.0702 T*S(rot)=     7.88 kcal/mol T*S(tot)=    25.99 kcal/mol
 sn= 3  qrot/sn=   88340.0468 T*S(rot)=     7.64 kcal/mol T*S(tot)=    25.75 kcal/mol
 sn= 4  qrot/sn=   66255.0351 T*S(rot)=     7.47 kcal/mol T*S(tot)=    25.58 kcal/mol
 sn= 5  qrot/sn=   53004.0281 T*S(rot)=     7.33 kcal/mol T*S(tot)=    25.45 kcal/mol
 sn= 6  qrot/sn=   44170.0234 T*S(rot)=     7.23 kcal/mol T*S(tot)=    25.34 kcal/mol
 sn= 7  qrot/sn=   37860.0201 T*S(rot)=     7.13 kcal/mol T*S(tot)=    25.25 kcal/mol
 sn= 8  qrot/sn=   33127.5176 T*S(rot)=     7.06 kcal/mol T*S(tot)=    25.17 kcal/mol
 sn= 9  qrot/sn=   29446.6823 T*S(rot)=     6.99 kcal/mol T*S(tot)=    25.10 kcal/mol
 sn=10  qrot/sn=   26502.0140 T*S(rot)=     6.92 kcal/mol T*S(tot)=    25.04 kcal/mol
 sn=11  qrot/sn=   24092.7400 T*S(rot)=     6.87 kcal/mol T*S(tot)=    24.98 kcal/mol
 sn=12  qrot/sn=   22085.0117 T*S(rot)=     6.82 kcal/mol T*S(tot)=    24.93 kcal/mol

-------------------
GIBBS FREE ENTHALPY
-------------------

The Gibbs free enthalpy is G = H - T*S

Total enthalpy                    ...   -289.88805745 Eh
Total entropy correction          ...     -0.04103862 Eh    -25.75 kcal/mol
-----------------------------------------------------------------------
Final Gibbs free enthalpy         ...   -289.92909607 Eh

For completeness - the Gibbs free enthalpy minus the electronic energy
G-E(el)                           ...      0.14240924 Eh     89.36 kcal/mol

                             ****ORCA TERMINATED NORMALLY****
TOTAL RUN TIME: 0 days 0 hours 45 minutes 15 seconds 685 msec
