                         Program Version 3.0.3 - RELEASE   -
|  1> ! NORI PBE0 def2-TZVP UseSym TightOPT Freq TightSCF Grid3 FinalGrid5 XYZFile
|  2> % pal
|  3>     nprocs 8
|  4> end
|  5> %method
|  6>     SymThresh 5.0e-2
|  7> end
|  8> % geom
|  9>     MaxIter 10
| 10> end
| 11> % maxcore 2000
| 12> % output
| 13>     printlevel mini
| 14>     print[ P_Basis ] 0
| 15>     print[ P_SCFInfo ] 1
| 16>     print[ P_SCFIterInfo ] 1
| 17>     print[ P_OrbEn ] 0
| 18>     print[ P_Cartesian ] 0
| 19> end
| 20> % elprop
| 21>     Dipole false
| 22> end
| 23> *xyz 1 1
| 24>  C        0.7430485179    -0.0844027518    -0.0933411586
| 25>  C        2.2571624250     0.0683401274    -0.0419025944
| 26>  C        2.8820007200     0.6395208276    -1.2864304252
| 27>  C        2.2292901767     1.0489942521    -2.3631704431
| 28>  C        2.6057607234     0.9288003241     1.1466414145
| 29>  C        2.8346977087     0.3744571063     2.4885619511
| 30>  N        3.9998581476     0.8216002295     1.6853249622
| 31>  H        0.4628973216    -0.7405450470    -0.9174991291
| 32>  H        0.2476320474     0.8772326291    -0.2420910900
| 33>  H        0.3603689911    -0.5253373210     0.8290414451
| 34>  H        2.6950945481    -0.9265867039     0.1354873871
| 35>  H        3.9699766420     0.6987128999    -1.2850913648
| 36>  H        1.1492331003     1.0035269981    -2.4445318652
| 37>  H        2.7637658413     1.4396973049    -3.2202033621
| 38>  H        2.2873527395     1.9651701036     1.0909960911
| 39>  H        2.7925242636    -0.6989861431     2.6285060312
| 40>  H        2.6494851150     0.9764262226     3.3683895703
| 41>  H        4.4876713219     1.6647036622     1.9665687092
| 42>  H        4.6028496489     0.1077052796     1.2901038706
| 43> *
| 44>
| 45>                          ****END OF INPUT****
 Total Charge           Charge          ....    1
 Multiplicity           Mult            ....    1
 Number of Electrons    NEL             ....   54
FINAL SINGLE POINT ENERGY      -290.067125754172
FINAL SINGLE POINT ENERGY      -290.067126958157

CARTESIAN COORDINATES (ANGSTROEM)
---------------------------------
  C      1.069498    0.001718   -1.591211
  C      0.134340    0.396827   -0.456194
  C     -1.331906    0.339670   -0.792026
  C     -1.848092   -0.068252   -1.940814
  C      0.423525   -0.494188    0.725698
  C      1.435291   -0.165156    1.739747
  N     -0.000933   -0.001406    2.075867
  H      0.912553    0.657079   -2.447928
  H      0.893379   -1.026346   -1.914952
  H      2.114993    0.090084   -1.290135
  H      0.377896    1.428152   -0.155676
  H     -2.009682    0.681906   -0.010986
  H     -1.236516   -0.405126   -2.769406
  H     -2.919797   -0.067683   -2.097857
  H      0.179155   -1.544498    0.598521
  H      1.970745    0.773378    1.663677
  H      1.930157   -0.952093    2.294333
  H     -0.422668   -0.651577    2.729545
  H     -0.366394    0.942961    2.137685

FINAL SINGLE POINT ENERGY      -290.067127790892
                    ***********************HURRAY********************
 Multiplicity           Mult            ....    1
 Number of Electrons    NEL             ....   54
 Basis Dimension        Dim             ....  289
FINAL SINGLE POINT ENERGY      -290.067128069627

VIBRATIONAL FREQUENCIES
-----------------------

   0:         0.00 cm**-1
   1:         0.00 cm**-1
   2:         0.00 cm**-1
   3:         0.00 cm**-1
   4:         0.00 cm**-1
   5:         0.00 cm**-1
   6:        84.26 cm**-1
   7:        93.32 cm**-1
   8:       187.03 cm**-1
   9:       254.53 cm**-1
  10:       274.19 cm**-1
  11:       303.95 cm**-1
  12:       353.37 cm**-1
  13:       447.34 cm**-1
  14:       560.06 cm**-1
  15:       650.31 cm**-1
  16:       788.97 cm**-1
  17:       822.26 cm**-1
  18:       868.31 cm**-1
  19:       883.20 cm**-1
  20:       913.97 cm**-1
  21:       954.56 cm**-1
  22:       996.63 cm**-1
  23:      1004.11 cm**-1
  24:      1013.09 cm**-1
  25:      1019.25 cm**-1
  26:      1025.05 cm**-1
  27:      1093.83 cm**-1
  28:      1155.75 cm**-1
  29:      1167.23 cm**-1
  30:      1180.86 cm**-1
  31:      1218.24 cm**-1
  32:      1248.56 cm**-1
  33:      1272.46 cm**-1
  34:      1313.76 cm**-1
  35:      1331.85 cm**-1
  36:      1349.73 cm**-1
  37:      1407.36 cm**-1
  38:      1427.13 cm**-1
  39:      1451.10 cm**-1
  40:      1486.77 cm**-1
  41:      1494.09 cm**-1
  42:      1501.36 cm**-1
  43:      1630.89 cm**-1
  44:      1726.54 cm**-1
  45:      2994.06 cm**-1
  46:      3064.58 cm**-1
  47:      3137.25 cm**-1
  48:      3139.18 cm**-1
  49:      3155.92 cm**-1
  50:      3169.19 cm**-1
  51:      3174.83 cm**-1
  52:      3187.40 cm**-1
  53:      3261.35 cm**-1
  54:      3270.87 cm**-1
  55:      3513.88 cm**-1
  56:      3618.42 cm**-1

IR SPECTRUM
-----------

 Mode    freq (cm**-1)   T**2         TX         TY         TZ
-------------------------------------------------------------------
   6:        84.26    3.190728  (  1.216019   1.062279   0.763931)
   7:        93.32    0.719982  (  0.591571   0.247269   0.555774)
   8:       187.03    3.050657  ( -0.881037   1.133373  -0.994935)
   9:       254.53    0.279232  ( -0.103190   0.307419  -0.417226)
  10:       274.19    0.876496  ( -0.009783  -0.039885   0.935313)
  11:       303.95    0.188885  ( -0.232779   0.357653  -0.082360)
  12:       353.37    4.582216  (  0.443040   0.710264   1.970141)
  13:       447.34    2.958463  ( -0.550898   0.694758  -1.473868)
  14:       560.06    3.242985  ( -0.899951  -1.499253   0.430481)
  15:       650.31    9.852095  ( -0.041746   2.840223  -1.335473)
  16:       788.97    9.607961  ( -0.438541  -0.985161   2.906045)
  17:       822.26    8.301801  ( -2.407670   0.593424   1.467234)
  18:       868.31    4.191117  ( -1.389014   1.017450   1.107499)
  19:       883.20    9.636259  ( -1.257871   0.072326   2.837039)
  20:       913.97    4.635838  (  0.202151   1.480986   1.549727)
  21:       954.56   16.134128  ( -1.942078   1.611255   3.125111)
  22:       996.63   15.440031  (  0.203150   3.123427  -2.375492)
  23:      1004.11   39.441321  (  0.091674  -5.680752   2.676186)
  24:      1013.09   13.163602  (  2.148584   0.581862   2.865070)
  25:      1019.25   71.140805  ( -5.147658  -0.513934  -6.661703)
  26:      1025.05   32.122408  (  2.996578   3.813241   2.932937)
  27:      1093.83    2.106241  ( -0.992424  -0.035465  -1.058337)
  28:      1155.75    1.997347  (  0.664025  -1.228529   0.217106)
  29:      1167.23    1.703792  (  1.040752  -0.344249   0.708604)
  30:      1180.86    1.921760  (  0.479120   0.617245   1.145082)
  31:      1218.24    1.299427  (  0.108706   0.043767  -1.133885)
  32:      1248.56    3.657621  ( -0.413877   1.410669  -1.223250)
  33:      1272.46    3.154790  (  0.558456  -1.094603  -1.282482)
  34:      1313.76   11.623917  ( -1.354984  -0.399017  -3.103018)
  35:      1331.85    0.440119  ( -0.396056  -0.422990  -0.323013)
  36:      1349.73    3.107898  (  0.394390   0.575031   1.619164)
  37:      1407.36    2.984374  (  1.346502  -0.720620  -0.807473)
  38:      1427.13    6.124986  (  2.396265   0.512564  -0.346665)
  39:      1451.10   14.815701  ( -1.150231  -1.036831  -3.523869)
  40:      1486.77   14.847047  (  1.578453   3.500231  -0.322358)
  41:      1494.09    7.726065  (  1.912883  -0.368071   1.982792)
  42:      1501.36    6.969213  (  2.617008   0.023875   0.346284)
  43:      1630.89   64.707629  ( -4.606316   2.626396   6.049094)
  44:      1726.54    1.915116  (  1.147206   0.552753   0.541756)
  45:      2994.06   15.263178  (  1.233990   2.458633   2.774089)
  46:      3064.58    4.781669  ( -1.727493   1.185935   0.625296)
  47:      3137.25   12.069036  (  1.995231  -1.053292  -2.641716)
  48:      3139.18    9.085566  ( -2.299019  -1.614149  -1.092978)
  49:      3155.92    2.440550  ( -1.052064   1.002080  -0.574063)
  50:      3169.19    2.745158  ( -1.507983   0.017901  -0.686166)
  51:      3174.83    0.049754  ( -0.214479  -0.001338   0.061245)
  52:      3187.40    0.736507  (  0.174809   0.721657   0.430302)
  53:      3261.35    0.507705  ( -0.518445   0.184409   0.452673)
  54:      3270.87    5.100489  ( -0.041660   2.144672  -0.706497)
  55:      3513.88  104.347442  (  6.514620  -2.115737  -7.578313)
  56:      3618.42  121.404903  (  0.691654   9.859650  -4.869684)

--------------------------
THERMOCHEMISTRY AT 298.15K
--------------------------

Temperature         ... 298.15 K
Pressure            ... 1.00 atm
Total Mass          ... 98.17 AMU

Throughout the following assumptions are being made:
  (1) The electronic state is orbitally nondegenerate
  (2) There are no thermally accessible electronically excited states
  (3) Hindered rotations indicated by low frequency modes) are not
      treated as such but are treated as vibrations and this may
      case some error
  (4) All equations used are the standard statistical mechanics
      equations for an ideal gas
  (5) All vibrations are strinctly harmonic

------------
INNER ENERGY
------------

The inner energy is: U= E(el) + E(ZPE) + E(vib) + E(rot) + E(trans)
    E(el)   - is the total energy from the electronic structure calculation
              = E(kin-el) + E(nuc-el) + E(el-el) + E(nuc-nuc)
    E(ZPE)  - the the zero temperature vibrational energy from the frequency calculation
    E(vib)  - the the finite temperature correction to E(ZPE) due to population
              of excietd vibrational states
    E(rot)  - is the rotational thermal energy
    E(trans)- is the translational thermal energy

Summary of contributions to the inner energy U:
Electronic energy                ...   -290.06712807 Eh
Zero point energy                ...      0.17460373 Eh     109.57 kcal/mol
Thermal vibrational correction   ...      0.00512190 Eh       3.21 kcal/mol
Thermal rotational correction    ...      0.00141627 Eh       0.89 kcal/mol
Thermal translational correction ...      0.00141627 Eh       0.89 kcal/mol
-----------------------------------------------------------------------
Total thermal energy                   -289.88456990 Eh

Summary of corrections to the electronic energy:
(perhaps to be used in another calculation)
Total thermal correction                  0.00795444 Eh       4.99 kcal/mol
Non-thermal (ZPE) correction              0.17460373 Eh     109.57 kcal/mol
-----------------------------------------------------------------------
Total correction                          0.18255817 Eh     114.56 kcal/mol

--------
ENTHALPY
--------

The enthalpy is H = U + kB*T
                kB is Boltzmann's constant
Total free energy                 ...   -289.88456990 Eh
Thermal Enthalpy correction       ...      0.00094421 Eh       0.59 kcal/mol
-----------------------------------------------------------------------
Total Enthalpy                    ...   -289.88362569 Eh

-------
ENTROPY
-------

The entropy contributions are T*S = T*(S(el)+S(vib)+S(rot)+S(trans)
     S(el)   - electronic entropy
     S(vib)  - vibrational entropy
     S(rot)  - rotational entropy
     S(trans)- translational entropy
The entropies will be listed as mutliplied by the temperature to get
units of energy

Electronic entropy                ...      0.00000000 Eh      0.00 kcal/mol
Vibrational entropy               ...      0.00904173 Eh      5.67 kcal/mol
Rotational entropy                ...      0.01213472 Eh      7.61 kcal/mol
Translational entropy             ...      0.01884507 Eh     11.83 kcal/mol
-----------------------------------------------------------------------
Final entropy term                ...      0.04002152 Eh     25.11 kcal/mol

CAUTION: The rotational entropy is not quite correctly treated here
         because it includes a symmetry number that is not yet correctly
         implemented in ORCA!
For a nonlinear molecule the correct rotational entropy is:
    S(rot) = R*(ln(qrot/sn)+1.5)
    R    = 8.31441 J/mol/K = 1.987191683e-3 kcal/mol/K
    qrot = 255435.9469078
    sn is the rotational symmetry number. We have assumed 3 here
       if it is different for your molecule then you should correct
       the printed rotational entropy by manually evaluating the equation
       as given above

For convenience we print out the resulting values for sn=1 - 12:
 sn= 1  qrot/sn=  255435.9469 T*S(rot)=     8.27 kcal/mol T*S(tot)=    25.76 kcal/mol
 sn= 2  qrot/sn=  127717.9735 T*S(rot)=     7.85 kcal/mol T*S(tot)=    25.35 kcal/mol
 sn= 3  qrot/sn=   85145.3156 T*S(rot)=     7.61 kcal/mol T*S(tot)=    25.11 kcal/mol
 sn= 4  qrot/sn=   63858.9867 T*S(rot)=     7.44 kcal/mol T*S(tot)=    24.94 kcal/mol
 sn= 5  qrot/sn=   51087.1894 T*S(rot)=     7.31 kcal/mol T*S(tot)=    24.81 kcal/mol
 sn= 6  qrot/sn=   42572.6578 T*S(rot)=     7.20 kcal/mol T*S(tot)=    24.70 kcal/mol
 sn= 7  qrot/sn=   36490.8496 T*S(rot)=     7.11 kcal/mol T*S(tot)=    24.61 kcal/mol
 sn= 8  qrot/sn=   31929.4934 T*S(rot)=     7.03 kcal/mol T*S(tot)=    24.53 kcal/mol
 sn= 9  qrot/sn=   28381.7719 T*S(rot)=     6.96 kcal/mol T*S(tot)=    24.46 kcal/mol
 sn=10  qrot/sn=   25543.5947 T*S(rot)=     6.90 kcal/mol T*S(tot)=    24.40 kcal/mol
 sn=11  qrot/sn=   23221.4497 T*S(rot)=     6.84 kcal/mol T*S(tot)=    24.34 kcal/mol
 sn=12  qrot/sn=   21286.3289 T*S(rot)=     6.79 kcal/mol T*S(tot)=    24.29 kcal/mol

-------------------
GIBBS FREE ENTHALPY
-------------------

The Gibbs free enthalpy is G = H - T*S

Total enthalpy                    ...   -289.88362569 Eh
Total entropy correction          ...     -0.04002152 Eh    -25.11 kcal/mol
-----------------------------------------------------------------------
Final Gibbs free enthalpy         ...   -289.92364720 Eh

For completeness - the Gibbs free enthalpy minus the electronic energy
G-E(el)                           ...      0.14348087 Eh     90.04 kcal/mol

                             ****ORCA TERMINATED NORMALLY****
TOTAL RUN TIME: 0 days 0 hours 45 minutes 12 seconds 793 msec
