                         Program Version 3.0.3 - RELEASE   -
|  1> ! NORI PBE0 def2-TZVP UseSym TightOPT Freq TightSCF Grid3 FinalGrid5 XYZFile
|  2> % pal
|  3>     nprocs 8
|  4> end
|  5> %method
|  6>     SymThresh 5.0e-2
|  7> end
|  8> % geom
|  9>     MaxIter 10
| 10> end
| 11> % maxcore 2000
| 12> % output
| 13>     printlevel mini
| 14>     print[ P_Basis ] 0
| 15>     print[ P_SCFInfo ] 1
| 16>     print[ P_SCFIterInfo ] 1
| 17>     print[ P_OrbEn ] 0
| 18>     print[ P_Cartesian ] 0
| 19> end
| 20> % elprop
| 21>     Dipole false
| 22> end
| 23> *xyz 1 1
| 24>  C        1.0086584285    -0.6957418522    -0.5383052093
| 25>  C        2.0718950762     0.3879101048    -0.4318131329
| 26>  C        1.6730379046     1.6296040829    -1.2175139067
| 27>  C        2.3370791900     0.6949086659     1.0474901013
| 28>  C        3.4686508224     1.6569060510     1.2368773791
| 29>  C        3.2649547026     3.0985277912     1.4400603610
| 30>  N        3.6282571419     2.2546822131     2.6049834071
| 31>  H        0.8350104200    -0.9578677371    -1.5826788940
| 32>  H        0.0568975361    -0.3549573576    -0.1207654521
| 33>  H        1.3033575827    -1.6056830019    -0.0111633630
| 34>  H        3.0028439590    -0.0087778092    -0.8567466470
| 35>  H        0.7606966120     2.0759666802    -0.8095311594
| 36>  H        1.4683348777     1.3700742477    -2.2571183582
| 37>  H        2.4546956070     2.3946564138    -1.2305816747
| 38>  H        2.5803530270    -0.2356586535     1.5701964545
| 39>  H        1.4255120010     1.1015475160     1.5039955386
| 40>  H        4.4312889237     1.3593921709     0.8323232367
| 41>  H        2.2538378453     3.4832985787     1.4829949421
| 42>  H        4.0321513900     3.8063715368     1.1541703716
| 43>  H        4.5575437450     2.3488951699     2.9990555470
| 44>  H        2.9067832073     2.0515951888     3.2886604584
| 45> *
| 46>
| 47>                          ****END OF INPUT****
 Total Charge           Charge          ....    1
 Multiplicity           Mult            ....    1
 Number of Electrons    NEL             ....   56
FINAL SINGLE POINT ENERGY      -291.302360588533
FINAL SINGLE POINT ENERGY      -291.302362200534

CARTESIAN COORDINATES (ANGSTROEM)
---------------------------------
  C      1.374522   -0.000870   -2.361791
  C      0.270077    0.348280   -1.374358
  C     -1.019758   -0.389495   -1.706730
  C      0.756457    0.057005    0.051285
  C     -0.225712    0.497116    1.092433
  C     -1.194003   -0.417905    1.714207
  N      0.000250   -0.003083    2.490135
  H      1.066195    0.240625   -3.380207
  H      1.604741   -1.069844   -2.331208
  H      2.294101    0.550197   -2.152379
  H      0.081911    1.427371   -1.443753
  H     -0.885826   -1.472766   -1.623634
  H     -1.321617   -0.179361   -2.733946
  H     -1.854981   -0.095917   -1.065099
  H      1.703075    0.579189    0.222393
  H      0.949620   -1.018730    0.156276
  H     -0.488327    1.550607    1.097803
  H     -1.184452   -1.462741    1.430506
  H     -2.127810   -0.040313    2.110727
  H     -0.126749    0.632003    3.269966
  H      0.738604   -0.685197    2.626654

FINAL SINGLE POINT ENERGY      -291.302363146623
                    ***********************HURRAY********************
 Multiplicity           Mult            ....    1
 Number of Electrons    NEL             ....   56
 Basis Dimension        Dim             ....  301
FINAL SINGLE POINT ENERGY      -291.302363377071

VIBRATIONAL FREQUENCIES
-----------------------

   0:         0.00 cm**-1
   1:         0.00 cm**-1
   2:         0.00 cm**-1
   3:         0.00 cm**-1
   4:         0.00 cm**-1
   5:         0.00 cm**-1
   6:        69.10 cm**-1
   7:        93.97 cm**-1
   8:       161.43 cm**-1
   9:       230.20 cm**-1
  10:       258.69 cm**-1
  11:       314.09 cm**-1
  12:       318.97 cm**-1
  13:       394.35 cm**-1
  14:       433.18 cm**-1
  15:       454.00 cm**-1
  16:       795.77 cm**-1
  17:       815.34 cm**-1
  18:       852.14 cm**-1
  19:       860.76 cm**-1
  20:       879.84 cm**-1
  21:       914.50 cm**-1
  22:       930.82 cm**-1
  23:       965.99 cm**-1
  24:       980.95 cm**-1
  25:       990.16 cm**-1
  26:      1017.86 cm**-1
  27:      1074.11 cm**-1
  28:      1151.71 cm**-1
  29:      1159.19 cm**-1
  30:      1187.44 cm**-1
  31:      1198.30 cm**-1
  32:      1215.44 cm**-1
  33:      1250.12 cm**-1
  34:      1260.50 cm**-1
  35:      1292.91 cm**-1
  36:      1313.62 cm**-1
  37:      1365.17 cm**-1
  38:      1376.72 cm**-1
  39:      1404.33 cm**-1
  40:      1422.73 cm**-1
  41:      1427.08 cm**-1
  42:      1473.06 cm**-1
  43:      1479.48 cm**-1
  44:      1488.40 cm**-1
  45:      1496.08 cm**-1
  46:      1499.39 cm**-1
  47:      1503.20 cm**-1
  48:      1631.36 cm**-1
  49:      3023.26 cm**-1
  50:      3035.44 cm**-1
  51:      3043.10 cm**-1
  52:      3051.37 cm**-1
  53:      3091.88 cm**-1
  54:      3111.14 cm**-1
  55:      3124.15 cm**-1
  56:      3136.28 cm**-1
  57:      3141.72 cm**-1
  58:      3171.67 cm**-1
  59:      3186.40 cm**-1
  60:      3273.42 cm**-1
  61:      3514.86 cm**-1
  62:      3620.22 cm**-1

IR SPECTRUM
-----------

 Mode    freq (cm**-1)   T**2         TX         TY         TZ
-------------------------------------------------------------------
   6:        69.10    0.198468  ( -0.008199  -0.445394  -0.005017)
   7:        93.97    2.291849  (  0.442924   0.895712   1.137263)
   8:       161.43    1.774600  (  1.107870  -0.704127   0.226783)
   9:       230.20    0.004437  (  0.015743  -0.010492   0.063864)
  10:       258.69    0.000427  (  0.010646  -0.007901   0.015854)
  11:       314.09    0.702210  (  0.091303   0.352528  -0.754717)
  12:       318.97    3.802593  (  0.638097   0.204731  -1.831259)
  13:       394.35    0.113485  (  0.185821   0.100006  -0.262591)
  14:       433.18    0.284111  ( -0.000730  -0.515771  -0.134500)
  15:       454.00    0.504687  ( -0.469920  -0.261938   0.463952)
  16:       795.77   11.074054  ( -0.475567  -0.760554  -3.204598)
  17:       815.34    3.391654  (  0.229447  -0.976440   1.544530)
  18:       852.14   23.012028  ( -1.772461  -0.110550  -4.456253)
  19:       860.76    0.904476  ( -0.522458  -0.775340   0.174244)
  20:       879.84    3.932231  (  1.046352  -0.685415  -1.538696)
  21:       914.50    1.240984  ( -0.683060   0.817107  -0.326724)
  22:       930.82    1.702113  ( -1.280713  -0.235558  -0.080000)
  23:       965.99    9.764875  (  0.061072   0.738604  -3.035722)
  24:       980.95    1.939163  (  0.361919  -1.153206   0.691587)
  25:       990.16   12.469551  (  0.063399   0.560756  -3.485840)
  26:      1017.86   86.121038  (  5.663094   6.063185  -4.157907)
  27:      1074.11    8.907274  (  2.251370   1.248948  -1.509548)
  28:      1151.71    2.943655  (  1.160034   0.895760   0.891959)
  29:      1159.19    1.100595  (  0.314842  -0.963415   0.270743)
  30:      1187.44    0.184755  ( -0.025920  -0.429040  -0.002785)
  31:      1198.30    8.503016  ( -0.333258   0.679761  -2.816004)
  32:      1215.44    1.955743  (  0.444224  -0.952428   0.922653)
  33:      1250.12    3.556810  ( -1.288520   0.458925   1.298427)
  34:      1260.50    3.143728  ( -0.526931   0.579340  -1.590735)
  35:      1292.91    4.011496  (  0.819750  -0.308015  -1.801286)
  36:      1313.62    1.239274  (  0.503068  -0.089941   0.988993)
  37:      1365.17    0.378513  ( -0.094071  -0.270818  -0.544354)
  38:      1376.72    7.541454  (  0.970858   0.683919   2.476115)
  39:      1404.33    9.065907  (  2.963307   0.517961  -0.128196)
  40:      1422.73    9.861080  (  0.330682   2.043134   2.361638)
  41:      1427.08    2.299320  ( -0.251307   0.047611  -1.494623)
  42:      1473.06    0.703426  ( -0.599506   0.518312  -0.274539)
  43:      1479.48    3.057732  ( -0.301913   1.703650  -0.253296)
  44:      1488.40    7.134571  ( -2.612548  -0.183722   0.524797)
  45:      1496.08    7.494061  ( -2.531989  -0.877425   0.559657)
  46:      1499.39    6.324050  (  0.997820   0.675240   2.207364)
  47:      1503.20   26.227535  (  1.021710  -4.759280   1.591508)
  48:      1631.36   70.161077  (  3.906824  -1.276558   7.298507)
  49:      3023.26    3.430449  (  0.669225   0.274502   1.705062)
  50:      3035.44   10.883300  ( -1.836416   2.616598  -0.815039)
  51:      3043.10   20.511090  (  3.212396   2.476859  -2.014143)
  52:      3051.37   10.879066  (  2.190759  -2.343389  -0.766920)
  53:      3091.88    5.949046  ( -1.551726  -1.876838  -0.136654)
  54:      3111.14   25.723720  ( -3.370932   2.992593   2.324850)
  55:      3124.15   19.824875  (  1.092290   4.310636   0.224043)
  56:      3136.28    7.658161  ( -0.964484  -1.159163   2.320404)
  57:      3141.72   13.504052  (  1.885706  -0.628795   3.090758)
  58:      3171.67    2.312231  (  1.375358   0.616466  -0.201473)
  59:      3186.40    0.449986  (  0.002388   0.438240  -0.507864)
  60:      3273.42    4.796591  (  1.096682  -1.785622  -0.636737)
  61:      3514.86  115.073617  ( -4.862714   0.251588  -9.558469)
  62:      3620.22  122.034420  (  5.227826  -8.326446  -5.037315)

--------------------------
THERMOCHEMISTRY AT 298.15K
--------------------------

Temperature         ... 298.15 K
Pressure            ... 1.00 atm
Total Mass          ... 100.18 AMU

Throughout the following assumptions are being made:
  (1) The electronic state is orbitally nondegenerate
  (2) There are no thermally accessible electronically excited states
  (3) Hindered rotations indicated by low frequency modes) are not
      treated as such but are treated as vibrations and this may
      case some error
  (4) All equations used are the standard statistical mechanics
      equations for an ideal gas
  (5) All vibrations are strinctly harmonic

------------
INNER ENERGY
------------

The inner energy is: U= E(el) + E(ZPE) + E(vib) + E(rot) + E(trans)
    E(el)   - is the total energy from the electronic structure calculation
              = E(kin-el) + E(nuc-el) + E(el-el) + E(nuc-nuc)
    E(ZPE)  - the the zero temperature vibrational energy from the frequency calculation
    E(vib)  - the the finite temperature correction to E(ZPE) due to population
              of excietd vibrational states
    E(rot)  - is the rotational thermal energy
    E(trans)- is the translational thermal energy

Summary of contributions to the inner energy U:
Electronic energy                ...   -291.30236338 Eh
Zero point energy                ...      0.19803516 Eh     124.27 kcal/mol
Thermal vibrational correction   ...      0.00563920 Eh       3.54 kcal/mol
Thermal rotational correction    ...      0.00141627 Eh       0.89 kcal/mol
Thermal translational correction ...      0.00141627 Eh       0.89 kcal/mol
-----------------------------------------------------------------------
Total thermal energy                   -291.09585647 Eh

Summary of corrections to the electronic energy:
(perhaps to be used in another calculation)
Total thermal correction                  0.00847175 Eh       5.32 kcal/mol
Non-thermal (ZPE) correction              0.19803516 Eh     124.27 kcal/mol
-----------------------------------------------------------------------
Total correction                          0.20650691 Eh     129.58 kcal/mol

--------
ENTHALPY
--------

The enthalpy is H = U + kB*T
                kB is Boltzmann's constant
Total free energy                 ...   -291.09585647 Eh
Thermal Enthalpy correction       ...      0.00094421 Eh       0.59 kcal/mol
-----------------------------------------------------------------------
Total Enthalpy                    ...   -291.09491226 Eh

-------
ENTROPY
-------

The entropy contributions are T*S = T*(S(el)+S(vib)+S(rot)+S(trans)
     S(el)   - electronic entropy
     S(vib)  - vibrational entropy
     S(rot)  - rotational entropy
     S(trans)- translational entropy
The entropies will be listed as mutliplied by the temperature to get
units of energy

Electronic entropy                ...      0.00000000 Eh      0.00 kcal/mol
Vibrational entropy               ...      0.01008629 Eh      6.33 kcal/mol
Rotational entropy                ...      0.01222561 Eh      7.67 kcal/mol
Translational entropy             ...      0.01887386 Eh     11.84 kcal/mol
-----------------------------------------------------------------------
Final entropy term                ...      0.04118575 Eh     25.84 kcal/mol

CAUTION: The rotational entropy is not quite correctly treated here
         because it includes a symmetry number that is not yet correctly
         implemented in ORCA!
For a nonlinear molecule the correct rotational entropy is:
    S(rot) = R*(ln(qrot/sn)+1.5)
    R    = 8.31441 J/mol/K = 1.987191683e-3 kcal/mol/K
    qrot = 281245.6481308
    sn is the rotational symmetry number. We have assumed 3 here
       if it is different for your molecule then you should correct
       the printed rotational entropy by manually evaluating the equation
       as given above

For convenience we print out the resulting values for sn=1 - 12:
 sn= 1  qrot/sn=  281245.6481 T*S(rot)=     8.32 kcal/mol T*S(tot)=    26.50 kcal/mol
 sn= 2  qrot/sn=  140622.8241 T*S(rot)=     7.91 kcal/mol T*S(tot)=    26.08 kcal/mol
 sn= 3  qrot/sn=   93748.5494 T*S(rot)=     7.67 kcal/mol T*S(tot)=    25.84 kcal/mol
 sn= 4  qrot/sn=   70311.4120 T*S(rot)=     7.50 kcal/mol T*S(tot)=    25.67 kcal/mol
 sn= 5  qrot/sn=   56249.1296 T*S(rot)=     7.37 kcal/mol T*S(tot)=    25.54 kcal/mol
 sn= 6  qrot/sn=   46874.2747 T*S(rot)=     7.26 kcal/mol T*S(tot)=    25.43 kcal/mol
 sn= 7  qrot/sn=   40177.9497 T*S(rot)=     7.17 kcal/mol T*S(tot)=    25.34 kcal/mol
 sn= 8  qrot/sn=   35155.7060 T*S(rot)=     7.09 kcal/mol T*S(tot)=    25.26 kcal/mol
 sn= 9  qrot/sn=   31249.5165 T*S(rot)=     7.02 kcal/mol T*S(tot)=    25.19 kcal/mol
 sn=10  qrot/sn=   28124.5648 T*S(rot)=     6.96 kcal/mol T*S(tot)=    25.13 kcal/mol
 sn=11  qrot/sn=   25567.7862 T*S(rot)=     6.90 kcal/mol T*S(tot)=    25.07 kcal/mol
 sn=12  qrot/sn=   23437.1373 T*S(rot)=     6.85 kcal/mol T*S(tot)=    25.02 kcal/mol

-------------------
GIBBS FREE ENTHALPY
-------------------

The Gibbs free enthalpy is G = H - T*S

Total enthalpy                    ...   -291.09491226 Eh
Total entropy correction          ...     -0.04118575 Eh    -25.84 kcal/mol
-----------------------------------------------------------------------
Final Gibbs free enthalpy         ...   -291.13609802 Eh

For completeness - the Gibbs free enthalpy minus the electronic energy
G-E(el)                           ...      0.16626536 Eh    104.33 kcal/mol

                             ****ORCA TERMINATED NORMALLY****
TOTAL RUN TIME: 0 days 0 hours 47 minutes 19 seconds 896 msec
