                         Program Version 3.0.3 - RELEASE   -
|  1> ! NORI PBE0 def2-TZVP UseSym TightOPT Freq TightSCF Grid3 FinalGrid5 XYZFile
|  2> % pal
|  3>     nprocs 8
|  4> end
|  5> %method
|  6>     SymThresh 5.0e-2
|  7> end
|  8> % geom
|  9>     MaxIter 10
| 10> end
| 11> % maxcore 2000
| 12> % output
| 13>     printlevel mini
| 14>     print[ P_Basis ] 0
| 15>     print[ P_SCFInfo ] 1
| 16>     print[ P_SCFIterInfo ] 1
| 17>     print[ P_OrbEn ] 0
| 18>     print[ P_Cartesian ] 0
| 19> end
| 20> % elprop
| 21>     Dipole false
| 22> end
| 23> *xyz 1 1
| 24>  C        0.8802216876     0.1403447655     0.0762565880
| 25>  C        2.3659035952     0.0378190673    -0.0192207394
| 26>  C        2.8717023384    -0.6961450151    -1.2169525327
| 27>  C        3.1330458631     0.5522127266     0.9513671109
| 28>  C        4.6028730120     0.5051168521     1.0097896697
| 29>  C        5.4715355771     0.9144623691    -0.1066105373
| 30>  N        5.2969940328     1.8509752051     1.0233441707
| 31>  H        0.4348517971    -0.8578717971     0.1152784840
| 32>  H        0.4765999628     0.6235228836    -0.8186903745
| 33>  H        0.5556059345     0.7002933106     0.9527278398
| 34>  H        2.4023453664    -1.6826781934    -1.2565857144
| 35>  H        3.9495726661    -0.8494320210    -1.2314834143
| 36>  H        2.5710227596    -0.1821636814    -2.1349747857
| 37>  H        2.6561124857     0.9813602556     1.8287904054
| 38>  H        5.0634057336    -0.1403961657     1.7549471681
| 39>  H        5.0153984946     1.2624618697    -1.0235046846
| 40>  H        6.4709933807     0.5082426654    -0.1921921315
| 41>  H        4.7079507088     2.6629928737     0.8706676462
| 42>  H        6.0745846041     2.0017120293     1.6560558317
| 43> *
| 44>
| 45>                          ****END OF INPUT****
 Total Charge           Charge          ....    1
 Multiplicity           Mult            ....    1
 Number of Electrons    NEL             ....   54
FINAL SINGLE POINT ENERGY      -290.079155576341
FINAL SINGLE POINT ENERGY      -290.079156696683
FINAL SINGLE POINT ENERGY      -290.079157419967
FINAL SINGLE POINT ENERGY      -290.079157871652

CARTESIAN COORDINATES (ANGSTROEM)
---------------------------------
  C      1.477011    0.002185   -2.240120
  C      0.387423   -0.001361   -1.220290
  C     -0.888678   -0.637394   -1.663336
  C      0.588981    0.573503   -0.027093
  C     -0.395541    0.673832    1.062546
  C     -1.157201   -0.478606    1.573639
  N      0.000234   -0.000623    2.358943
  H      1.156532    0.550796   -3.130647
  H      1.691624   -1.019551   -2.567320
  H      2.396616    0.451503   -1.867125
  H     -1.207985   -0.182567   -2.605167
  H     -1.712469   -0.536786   -0.958850
  H     -0.731199   -1.698529   -1.879971
  H      1.526507    1.091395    0.157502
  H     -0.814918    1.652974    1.283430
  H     -0.999044   -1.450874    1.126863
  H     -2.112649   -0.324197    2.058464
  H      0.845591   -0.561359    2.333757
  H     -0.169860    0.474828    3.237958

FINAL SINGLE POINT ENERGY      -290.079158202956
                    ***********************HURRAY********************
 Multiplicity           Mult            ....    1
 Number of Electrons    NEL             ....   54
 Basis Dimension        Dim             ....  289
FINAL SINGLE POINT ENERGY      -290.079158271154

VIBRATIONAL FREQUENCIES
-----------------------

   0:         0.00 cm**-1
   1:         0.00 cm**-1
   2:         0.00 cm**-1
   3:         0.00 cm**-1
   4:         0.00 cm**-1
   5:         0.00 cm**-1
   6:        79.84 cm**-1
   7:       132.84 cm**-1
   8:       140.28 cm**-1
   9:       182.11 cm**-1
  10:       215.28 cm**-1
  11:       342.62 cm**-1
  12:       359.69 cm**-1
  13:       429.01 cm**-1
  14:       485.55 cm**-1
  15:       585.59 cm**-1
  16:       775.14 cm**-1
  17:       801.84 cm**-1
  18:       821.09 cm**-1
  19:       867.80 cm**-1
  20:       885.47 cm**-1
  21:       914.57 cm**-1
  22:       956.62 cm**-1
  23:       987.46 cm**-1
  24:      1000.02 cm**-1
  25:      1019.11 cm**-1
  26:      1082.58 cm**-1
  27:      1096.39 cm**-1
  28:      1144.95 cm**-1
  29:      1160.96 cm**-1
  30:      1197.67 cm**-1
  31:      1239.27 cm**-1
  32:      1254.22 cm**-1
  33:      1284.86 cm**-1
  34:      1368.21 cm**-1
  35:      1407.64 cm**-1
  36:      1413.05 cm**-1
  37:      1417.37 cm**-1
  38:      1455.16 cm**-1
  39:      1467.69 cm**-1
  40:      1478.87 cm**-1
  41:      1488.82 cm**-1
  42:      1491.85 cm**-1
  43:      1621.97 cm**-1
  44:      1725.37 cm**-1
  45:      3050.02 cm**-1
  46:      3055.75 cm**-1
  47:      3109.39 cm**-1
  48:      3114.06 cm**-1
  49:      3154.50 cm**-1
  50:      3156.80 cm**-1
  51:      3159.68 cm**-1
  52:      3170.08 cm**-1
  53:      3176.70 cm**-1
  54:      3278.86 cm**-1
  55:      3509.25 cm**-1
  56:      3620.59 cm**-1

IR SPECTRUM
-----------

 Mode    freq (cm**-1)   T**2         TX         TY         TZ
-------------------------------------------------------------------
   6:        79.84    3.482301  (  0.309573  -1.580115  -0.943240)
   7:       132.84    4.503597  (  1.130091  -1.655473  -0.697066)
   8:       140.28    0.357370  ( -0.502273   0.322740  -0.030497)
   9:       182.11    1.680662  ( -1.285402   0.010753  -0.168192)
  10:       215.28    2.677972  ( -0.095119   0.320322  -1.601973)
  11:       342.62    0.258653  ( -0.436418  -0.240028  -0.102856)
  12:       359.69    3.874400  ( -0.055159   1.419662  -1.362321)
  13:       429.01    3.919500  (  0.025580  -1.306024   1.487665)
  14:       485.55    2.170431  (  0.417437  -1.140088   0.834492)
  15:       585.59    0.240233  (  0.477892  -0.108858   0.001485)
  16:       775.14   32.096006  ( -0.574705   0.239235  -5.631029)
  17:       801.84   11.720222  ( -0.011914   1.399650  -3.124270)
  18:       821.09   28.691319  (  1.768974  -3.634377   3.514734)
  19:       867.80    6.968274  (  1.316915   1.061541   2.026607)
  20:       885.47   11.245683  (  0.756393   1.107269  -3.073680)
  21:       914.57    2.288967  (  0.056813   1.503499  -0.158837)
  22:       956.62    0.448518  (  0.146643  -0.278941   0.590936)
  23:       987.46   15.084606  ( -0.214760  -2.932913   2.537027)
  24:      1000.02   51.606265  ( -2.100735  -5.286715   4.386778)
  25:      1019.11   38.840609  ( -4.083756  -4.596946   1.015697)
  26:      1082.58    4.490067  (  0.728117  -1.164182  -1.613875)
  27:      1096.39    2.190482  (  0.427390  -0.938307   1.061791)
  28:      1144.95    7.073465  ( -2.614110  -0.024925  -0.489155)
  29:      1160.96    1.899779  ( -0.106713  -1.290560  -0.472067)
  30:      1197.67    5.970112  (  0.460946  -1.028253   2.168026)
  31:      1239.27    4.529739  (  1.401214  -0.044650  -1.601358)
  32:      1254.22    3.200179  ( -1.639217  -0.340043   0.630490)
  33:      1284.86    7.688342  (  1.083638  -1.567588  -2.014135)
  34:      1368.21    4.621167  (  0.761832   0.419129  -1.965988)
  35:      1407.64    3.683815  ( -1.573677  -0.713551  -0.835583)
  36:      1413.05   26.437843  ( -2.695123  -2.201222  -3.785337)
  37:      1417.37   38.288012  (  2.691376  -1.265207  -5.426210)
  38:      1455.16    2.114250  (  0.667377  -1.094220  -0.686687)
  39:      1467.69    7.312623  (  2.204449   1.533171  -0.320021)
  40:      1478.87   27.432389  (  1.942334  -1.752332   4.537517)
  41:      1488.82   22.585159  (  2.034302  -3.197583  -2.867444)
  42:      1491.85   14.318512  (  1.922284   3.178583  -0.721071)
  43:      1621.97   97.131343  (  4.294344  -0.989443   8.815382)
  44:      1725.37   57.879240  (  0.840458  -2.298732  -7.203381)
  45:      3050.02    1.847833  (  1.048599   0.112696  -0.857656)
  46:      3055.75    1.357111  (  0.676506   0.845812   0.429013)
  47:      3109.39    0.126934  ( -0.192511   0.293232  -0.062360)
  48:      3114.06    2.099406  ( -0.347362   1.364302  -0.342672)
  49:      3154.50    3.345821  (  0.125663   0.441081  -1.770728)
  50:      3156.80    9.230748  ( -2.833945  -1.094377   0.042942)
  51:      3159.68   15.703233  ( -2.871677   0.271371   2.717179)
  52:      3170.08    0.696899  ( -0.788053  -0.270581  -0.051539)
  53:      3176.70    1.380474  (  0.967416   0.664802  -0.051173)
  54:      3278.86    4.005072  ( -1.179500   1.423475   0.766531)
  55:      3509.25  103.302207  (  5.562653  -0.679602   8.479224)
  56:      3620.59  122.105742  ( -6.028352   6.470924   6.625093)

--------------------------
THERMOCHEMISTRY AT 298.15K
--------------------------

Temperature         ... 298.15 K
Pressure            ... 1.00 atm
Total Mass          ... 98.17 AMU

Throughout the following assumptions are being made:
  (1) The electronic state is orbitally nondegenerate
  (2) There are no thermally accessible electronically excited states
  (3) Hindered rotations indicated by low frequency modes) are not
      treated as such but are treated as vibrations and this may
      case some error
  (4) All equations used are the standard statistical mechanics
      equations for an ideal gas
  (5) All vibrations are strinctly harmonic

------------
INNER ENERGY
------------

The inner energy is: U= E(el) + E(ZPE) + E(vib) + E(rot) + E(trans)
    E(el)   - is the total energy from the electronic structure calculation
              = E(kin-el) + E(nuc-el) + E(el-el) + E(nuc-nuc)
    E(ZPE)  - the the zero temperature vibrational energy from the frequency calculation
    E(vib)  - the the finite temperature correction to E(ZPE) due to population
              of excietd vibrational states
    E(rot)  - is the rotational thermal energy
    E(trans)- is the translational thermal energy

Summary of contributions to the inner energy U:
Electronic energy                ...   -290.07915827 Eh
Zero point energy                ...      0.17390278 Eh     109.13 kcal/mol
Thermal vibrational correction   ...      0.00540962 Eh       3.39 kcal/mol
Thermal rotational correction    ...      0.00141627 Eh       0.89 kcal/mol
Thermal translational correction ...      0.00141627 Eh       0.89 kcal/mol
-----------------------------------------------------------------------
Total thermal energy                   -289.89701333 Eh

Summary of corrections to the electronic energy:
(perhaps to be used in another calculation)
Total thermal correction                  0.00824217 Eh       5.17 kcal/mol
Non-thermal (ZPE) correction              0.17390278 Eh     109.13 kcal/mol
-----------------------------------------------------------------------
Total correction                          0.18214495 Eh     114.30 kcal/mol

--------
ENTHALPY
--------

The enthalpy is H = U + kB*T
                kB is Boltzmann's constant
Total free energy                 ...   -289.89701333 Eh
Thermal Enthalpy correction       ...      0.00094421 Eh       0.59 kcal/mol
-----------------------------------------------------------------------
Total Enthalpy                    ...   -289.89606912 Eh

-------
ENTROPY
-------

The entropy contributions are T*S = T*(S(el)+S(vib)+S(rot)+S(trans)
     S(el)   - electronic entropy
     S(vib)  - vibrational entropy
     S(rot)  - rotational entropy
     S(trans)- translational entropy
The entropies will be listed as mutliplied by the temperature to get
units of energy

Electronic entropy                ...      0.00000000 Eh      0.00 kcal/mol
Vibrational entropy               ...      0.00961291 Eh      6.03 kcal/mol
Rotational entropy                ...      0.01214720 Eh      7.62 kcal/mol
Translational entropy             ...      0.01884507 Eh     11.83 kcal/mol
-----------------------------------------------------------------------
Final entropy term                ...      0.04060518 Eh     25.48 kcal/mol

CAUTION: The rotational entropy is not quite correctly treated here
         because it includes a symmetry number that is not yet correctly
         implemented in ORCA!
For a nonlinear molecule the correct rotational entropy is:
    S(rot) = R*(ln(qrot/sn)+1.5)
    R    = 8.31441 J/mol/K = 1.987191683e-3 kcal/mol/K
    qrot = 258834.2012434
    sn is the rotational symmetry number. We have assumed 3 here
       if it is different for your molecule then you should correct
       the printed rotational entropy by manually evaluating the equation
       as given above

For convenience we print out the resulting values for sn=1 - 12:
 sn= 1  qrot/sn=  258834.2012 T*S(rot)=     8.27 kcal/mol T*S(tot)=    26.13 kcal/mol
 sn= 2  qrot/sn=  129417.1006 T*S(rot)=     7.86 kcal/mol T*S(tot)=    25.72 kcal/mol
 sn= 3  qrot/sn=   86278.0671 T*S(rot)=     7.62 kcal/mol T*S(tot)=    25.48 kcal/mol
 sn= 4  qrot/sn=   64708.5503 T*S(rot)=     7.45 kcal/mol T*S(tot)=    25.31 kcal/mol
 sn= 5  qrot/sn=   51766.8402 T*S(rot)=     7.32 kcal/mol T*S(tot)=    25.18 kcal/mol
 sn= 6  qrot/sn=   43139.0335 T*S(rot)=     7.21 kcal/mol T*S(tot)=    25.07 kcal/mol
 sn= 7  qrot/sn=   36976.3145 T*S(rot)=     7.12 kcal/mol T*S(tot)=    24.98 kcal/mol
 sn= 8  qrot/sn=   32354.2752 T*S(rot)=     7.04 kcal/mol T*S(tot)=    24.90 kcal/mol
 sn= 9  qrot/sn=   28759.3557 T*S(rot)=     6.97 kcal/mol T*S(tot)=    24.83 kcal/mol
 sn=10  qrot/sn=   25883.4201 T*S(rot)=     6.91 kcal/mol T*S(tot)=    24.77 kcal/mol
 sn=11  qrot/sn=   23530.3819 T*S(rot)=     6.85 kcal/mol T*S(tot)=    24.71 kcal/mol
 sn=12  qrot/sn=   21569.5168 T*S(rot)=     6.80 kcal/mol T*S(tot)=    24.66 kcal/mol

-------------------
GIBBS FREE ENTHALPY
-------------------

The Gibbs free enthalpy is G = H - T*S

Total enthalpy                    ...   -289.89606912 Eh
Total entropy correction          ...     -0.04060518 Eh    -25.48 kcal/mol
-----------------------------------------------------------------------
Final Gibbs free enthalpy         ...   -289.93667429 Eh

For completeness - the Gibbs free enthalpy minus the electronic energy
G-E(el)                           ...      0.14248398 Eh     89.41 kcal/mol

                             ****ORCA TERMINATED NORMALLY****
TOTAL RUN TIME: 0 days 0 hours 43 minutes 15 seconds 586 msec
