                         Program Version 3.0.3 - RELEASE   -
|  1> ! NORI PBE0 def2-TZVP UseSym TightOPT Freq TightSCF Grid3 FinalGrid5 XYZFile
|  2> % pal
|  3>     nprocs 8
|  4> end
|  5> %method
|  6>     SymThresh 5.0e-2
|  7> end
|  8> % geom
|  9>     MaxIter 10
| 10> end
| 11> % maxcore 2000
| 12> % output
| 13>     printlevel mini
| 14>     print[ P_Basis ] 0
| 15>     print[ P_SCFInfo ] 1
| 16>     print[ P_SCFIterInfo ] 1
| 17>     print[ P_OrbEn ] 0
| 18>     print[ P_Cartesian ] 0
| 19> end
| 20> % elprop
| 21>     Dipole false
| 22> end
| 23> *xyz 1 1
| 24>  C        1.0712029779     0.1487125784     0.1572599269
| 25>  C        2.5844955203     0.1047383545    -0.0539291393
| 26>  C        2.9048629145    -0.3558962942    -1.4786232193
| 27>  C        3.1900329854     1.4829912038     0.1952750182
| 28>  C        3.1582902651    -0.9597003621     0.8587716320
| 29>  C        4.5094314504    -0.9449493418     1.4377701746
| 30>  N        3.3493101153    -0.6385540862     2.3094236935
| 31>  H        0.6190417410     0.8543191921    -0.5413285408
| 32>  H        0.8071781166     0.4757750558     1.1671525191
| 33>  H        0.6121902985    -0.8275076170    -0.0166058861
| 34>  H        2.4879414610     0.3544711903    -2.1942279390
| 35>  H        2.4676030286    -1.3342115437    -1.6924174012
| 36>  H        3.9817987278    -0.4136054366    -1.6535974598
| 37>  H        2.7291647435     2.2011839454    -0.4842530812
| 38>  H        4.2653743790     1.5154351128     0.0059326016
| 39>  H        2.9930295191     1.8663651746     1.2036359023
| 40>  H        2.7102613219    -1.9423410118     0.7448532650
| 41>  H        5.1554672191    -0.0928599583     1.2715144147
| 42>  H        5.0046585406    -1.8777934458     1.6745938281
| 43>  H        3.0712939924    -1.3159594085     3.0098909577
| 44>  H        3.2248806823     0.3288966982     2.5877887333
| 45> *
| 46>
| 47>                          ****END OF INPUT****
 Total Charge           Charge          ....    1
 Multiplicity           Mult            ....    1
 Number of Electrons    NEL             ....   56
FINAL SINGLE POINT ENERGY      -291.304034942787
FINAL SINGLE POINT ENERGY      -291.304037418688
FINAL SINGLE POINT ENERGY      -291.304039019449

CARTESIAN COORDINATES (ANGSTROEM)
---------------------------------
  C      1.776613    0.000847   -0.793447
  C      0.254426   -0.076451   -0.672971
  C     -0.405841    0.667420   -1.836947
  C     -0.201082   -1.533040   -0.665387
  C     -0.157628    0.673304    0.577375
  C     -1.341882    0.374205    1.395457
  N     -0.000780   -0.000830    1.906556
  H      2.100263   -0.471954   -1.721959
  H      2.280522   -0.516734    0.028163
  H      2.125305    1.036367   -0.811015
  H     -0.116483    0.200002   -2.779495
  H     -0.090716    1.712964   -1.876163
  H     -1.495967    0.637566   -1.770027
  H      0.130769   -2.011773   -1.587826
  H     -1.287750   -1.636665   -0.630734
  H      0.240086   -2.122996    0.146501
  H      0.200051    1.697322    0.628238
  H     -1.960722   -0.479366    1.152588
  H     -1.822835    1.164407    1.957277
  H      0.389361    0.517855    2.684799
  H      0.238379   -0.986744    1.896502

FINAL SINGLE POINT ENERGY      -291.304039538915
                    ***********************HURRAY********************
 Multiplicity           Mult            ....    1
 Number of Electrons    NEL             ....   56
 Basis Dimension        Dim             ....  301
FINAL SINGLE POINT ENERGY      -291.304040013537

VIBRATIONAL FREQUENCIES
-----------------------

   0:         0.00 cm**-1
   1:         0.00 cm**-1
   2:         0.00 cm**-1
   3:         0.00 cm**-1
   4:         0.00 cm**-1
   5:         0.00 cm**-1
   6:        62.50 cm**-1
   7:       196.10 cm**-1
   8:       231.97 cm**-1
   9:       250.78 cm**-1
  10:       270.75 cm**-1
  11:       282.20 cm**-1
  12:       319.78 cm**-1
  13:       355.63 cm**-1
  14:       385.44 cm**-1
  15:       481.33 cm**-1
  16:       487.44 cm**-1
  17:       692.90 cm**-1
  18:       809.77 cm**-1
  19:       849.18 cm**-1
  20:       880.37 cm**-1
  21:       894.25 cm**-1
  22:       944.91 cm**-1
  23:       948.92 cm**-1
  24:       956.33 cm**-1
  25:       963.09 cm**-1
  26:      1013.59 cm**-1
  27:      1018.88 cm**-1
  28:      1048.59 cm**-1
  29:      1106.87 cm**-1
  30:      1162.35 cm**-1
  31:      1187.05 cm**-1
  32:      1236.68 cm**-1
  33:      1243.94 cm**-1
  34:      1257.48 cm**-1
  35:      1279.06 cm**-1
  36:      1306.83 cm**-1
  37:      1400.35 cm**-1
  38:      1403.55 cm**-1
  39:      1407.10 cm**-1
  40:      1443.03 cm**-1
  41:      1468.07 cm**-1
  42:      1472.10 cm**-1
  43:      1474.53 cm**-1
  44:      1488.75 cm**-1
  45:      1500.63 cm**-1
  46:      1511.21 cm**-1
  47:      1511.58 cm**-1
  48:      1622.00 cm**-1
  49:      3034.85 cm**-1
  50:      3048.25 cm**-1
  51:      3054.75 cm**-1
  52:      3112.20 cm**-1
  53:      3120.59 cm**-1
  54:      3130.68 cm**-1
  55:      3141.14 cm**-1
  56:      3141.98 cm**-1
  57:      3145.49 cm**-1
  58:      3176.97 cm**-1
  59:      3182.21 cm**-1
  60:      3276.65 cm**-1
  61:      3512.63 cm**-1
  62:      3619.18 cm**-1

IR SPECTRUM
-----------

 Mode    freq (cm**-1)   T**2         TX         TY         TZ
-------------------------------------------------------------------
   6:        62.50    2.185959  ( -1.100784  -0.987033  -0.000155)
   7:       196.10    1.501380  ( -0.682017   0.735159   0.704112)
   8:       231.97    3.223322  (  0.323887  -1.270020  -1.226975)
   9:       250.78    0.842902  (  0.126981   0.588423   0.693207)
  10:       270.75    0.169766  ( -0.115621   0.279936   0.279346)
  11:       282.20    1.223405  ( -0.073000   0.518761   0.974148)
  12:       319.78    4.664980  ( -0.632901   0.111919   2.062011)
  13:       355.63    0.636010  ( -0.148655   0.195783   0.758670)
  14:       385.44    2.064376  ( -0.360274   0.151880   1.382574)
  15:       481.33    0.317118  ( -0.294436   0.143028   0.458222)
  16:       487.44    0.436099  (  0.283467  -0.082618  -0.590694)
  17:       692.90    0.792650  (  0.246559  -0.635926  -0.572238)
  18:       809.77   11.395791  ( -1.637730   0.606946  -2.888814)
  19:       849.18    8.960314  ( -1.543302   1.047029  -2.341423)
  20:       880.37    8.015746  (  0.159515  -0.623709  -2.757043)
  21:       894.25    2.488400  (  0.694596   1.415665   0.042773)
  22:       944.91    7.493586  (  1.768330  -0.942230   1.865154)
  23:       948.92    0.597259  ( -0.132894   0.194832  -0.735961)
  24:       956.33   11.883084  ( -0.510604   2.062232  -2.714695)
  25:       963.09    0.733191  ( -0.255257  -0.610325   0.543635)
  26:      1013.59   34.849418  ( -4.411406  -2.134493   3.291330)
  27:      1018.88   63.031439  (  5.357389   0.805449  -5.803540)
  28:      1048.59    2.957014  ( -1.676054   0.200315   0.328223)
  29:      1106.87   11.326607  ( -0.825808   1.604841   2.840622)
  30:      1162.35    1.181109  ( -0.226142  -0.795552   0.705029)
  31:      1187.05    0.824637  (  0.112108   0.633856  -0.640543)
  32:      1236.68   11.126743  (  1.137603  -0.146558  -3.132271)
  33:      1243.94    4.153746  (  1.039606  -0.862788  -1.525963)
  34:      1257.48    1.540974  ( -0.262137  -1.087523  -0.538100)
  35:      1279.06    2.078802  ( -0.739565   1.185714  -0.354865)
  36:      1306.83    3.079896  ( -0.557125   1.281335   1.061927)
  37:      1400.35    3.968881  (  1.064041   0.709546   1.527495)
  38:      1403.55   12.493547  (  0.979690  -3.227192   1.057823)
  39:      1407.10   13.209483  (  3.390416   1.279137  -0.279947)
  40:      1443.03    3.789489  (  0.527547   1.353176   1.296185)
  41:      1468.07    0.982154  ( -0.146839   0.480535   0.854212)
  42:      1472.10    0.260104  ( -0.171612   0.082574  -0.473112)
  43:      1474.53    1.819717  (  1.344319   0.000947   0.111900)
  44:      1488.75    4.440111  (  1.421323   0.473784  -1.481715)
  45:      1500.63   14.097112  ( -1.376770  -3.125169   1.560427)
  46:      1511.21   16.793424  (  3.281019   0.522038   2.399128)
  47:      1511.58   25.794462  ( -2.858556   2.483029   3.384921)
  48:      1622.00   77.881679  ( -3.770372   3.280747  -7.273423)
  49:      3034.85   20.853536  ( -0.592366  -2.603241   3.704831)
  50:      3048.25   14.239191  ( -2.909456   0.645941  -2.314523)
  51:      3054.75    3.026308  (  0.927792  -1.447958   0.262541)
  52:      3112.20   11.631957  (  2.790099  -0.452132   1.908633)
  53:      3120.59   16.103212  (  1.066785  -2.876471   2.586716)
  54:      3130.68   11.281191  (  2.640869   2.061384  -0.240209)
  55:      3141.14    5.234873  ( -1.811521  -1.323134  -0.450091)
  56:      3141.98    0.835928  (  0.620978  -0.195183   0.642041)
  57:      3145.49   10.153326  (  1.625118  -1.701168  -2.149034)
  58:      3176.97    1.227977  (  1.051902  -0.206865  -0.280512)
  59:      3182.21    0.141937  ( -0.069100  -0.038683  -0.368328)
  60:      3276.65    4.830680  ( -0.051730  -1.953031  -1.006813)
  61:      3512.63   79.613174  ( -4.780063   3.914291  -6.437585)
  62:      3619.18  136.733901  (  1.564850   8.921677   7.395190)

--------------------------
THERMOCHEMISTRY AT 298.15K
--------------------------

Temperature         ... 298.15 K
Pressure            ... 1.00 atm
Total Mass          ... 100.18 AMU

Throughout the following assumptions are being made:
  (1) The electronic state is orbitally nondegenerate
  (2) There are no thermally accessible electronically excited states
  (3) Hindered rotations indicated by low frequency modes) are not
      treated as such but are treated as vibrations and this may
      case some error
  (4) All equations used are the standard statistical mechanics
      equations for an ideal gas
  (5) All vibrations are strinctly harmonic

------------
INNER ENERGY
------------

The inner energy is: U= E(el) + E(ZPE) + E(vib) + E(rot) + E(trans)
    E(el)   - is the total energy from the electronic structure calculation
              = E(kin-el) + E(nuc-el) + E(el-el) + E(nuc-nuc)
    E(ZPE)  - the the zero temperature vibrational energy from the frequency calculation
    E(vib)  - the the finite temperature correction to E(ZPE) due to population
              of excietd vibrational states
    E(rot)  - is the rotational thermal energy
    E(trans)- is the translational thermal energy

Summary of contributions to the inner energy U:
Electronic energy                ...   -291.30404001 Eh
Zero point energy                ...      0.19711943 Eh     123.69 kcal/mol
Thermal vibrational correction   ...      0.00566090 Eh       3.55 kcal/mol
Thermal rotational correction    ...      0.00141627 Eh       0.89 kcal/mol
Thermal translational correction ...      0.00141627 Eh       0.89 kcal/mol
-----------------------------------------------------------------------
Total thermal energy                   -291.09842714 Eh

Summary of corrections to the electronic energy:
(perhaps to be used in another calculation)
Total thermal correction                  0.00849344 Eh       5.33 kcal/mol
Non-thermal (ZPE) correction              0.19711943 Eh     123.69 kcal/mol
-----------------------------------------------------------------------
Total correction                          0.20561287 Eh     129.02 kcal/mol

--------
ENTHALPY
--------

The enthalpy is H = U + kB*T
                kB is Boltzmann's constant
Total free energy                 ...   -291.09842714 Eh
Thermal Enthalpy correction       ...      0.00094421 Eh       0.59 kcal/mol
-----------------------------------------------------------------------
Total Enthalpy                    ...   -291.09748293 Eh

-------
ENTROPY
-------

The entropy contributions are T*S = T*(S(el)+S(vib)+S(rot)+S(trans)
     S(el)   - electronic entropy
     S(vib)  - vibrational entropy
     S(rot)  - rotational entropy
     S(trans)- translational entropy
The entropies will be listed as mutliplied by the temperature to get
units of energy

Electronic entropy                ...      0.00000000 Eh      0.00 kcal/mol
Vibrational entropy               ...      0.00963066 Eh      6.04 kcal/mol
Rotational entropy                ...      0.01203645 Eh      7.55 kcal/mol
Translational entropy             ...      0.01887386 Eh     11.84 kcal/mol
-----------------------------------------------------------------------
Final entropy term                ...      0.04054096 Eh     25.44 kcal/mol

CAUTION: The rotational entropy is not quite correctly treated here
         because it includes a symmetry number that is not yet correctly
         implemented in ORCA!
For a nonlinear molecule the correct rotational entropy is:
    S(rot) = R*(ln(qrot/sn)+1.5)
    R    = 8.31441 J/mol/K = 1.987191683e-3 kcal/mol/K
    qrot = 230185.5660408
    sn is the rotational symmetry number. We have assumed 3 here
       if it is different for your molecule then you should correct
       the printed rotational entropy by manually evaluating the equation
       as given above

For convenience we print out the resulting values for sn=1 - 12:
 sn= 1  qrot/sn=  230185.5660 T*S(rot)=     8.20 kcal/mol T*S(tot)=    26.09 kcal/mol
 sn= 2  qrot/sn=  115092.7830 T*S(rot)=     7.79 kcal/mol T*S(tot)=    25.68 kcal/mol
 sn= 3  qrot/sn=   76728.5220 T*S(rot)=     7.55 kcal/mol T*S(tot)=    25.44 kcal/mol
 sn= 4  qrot/sn=   57546.3915 T*S(rot)=     7.38 kcal/mol T*S(tot)=    25.27 kcal/mol
 sn= 5  qrot/sn=   46037.1132 T*S(rot)=     7.25 kcal/mol T*S(tot)=    25.14 kcal/mol
 sn= 6  qrot/sn=   38364.2610 T*S(rot)=     7.14 kcal/mol T*S(tot)=    25.03 kcal/mol
 sn= 7  qrot/sn=   32883.6523 T*S(rot)=     7.05 kcal/mol T*S(tot)=    24.94 kcal/mol
 sn= 8  qrot/sn=   28773.1958 T*S(rot)=     6.97 kcal/mol T*S(tot)=    24.86 kcal/mol
 sn= 9  qrot/sn=   25576.1740 T*S(rot)=     6.90 kcal/mol T*S(tot)=    24.79 kcal/mol
 sn=10  qrot/sn=   23018.5566 T*S(rot)=     6.84 kcal/mol T*S(tot)=    24.73 kcal/mol
 sn=11  qrot/sn=   20925.9605 T*S(rot)=     6.78 kcal/mol T*S(tot)=    24.67 kcal/mol
 sn=12  qrot/sn=   19182.1305 T*S(rot)=     6.73 kcal/mol T*S(tot)=    24.62 kcal/mol

-------------------
GIBBS FREE ENTHALPY
-------------------

The Gibbs free enthalpy is G = H - T*S

Total enthalpy                    ...   -291.09748293 Eh
Total entropy correction          ...     -0.04054096 Eh    -25.44 kcal/mol
-----------------------------------------------------------------------
Final Gibbs free enthalpy         ...   -291.13802389 Eh

For completeness - the Gibbs free enthalpy minus the electronic energy
G-E(el)                           ...      0.16601612 Eh    104.18 kcal/mol

                             ****ORCA TERMINATED NORMALLY****
TOTAL RUN TIME: 0 days 0 hours 55 minutes 0 seconds 730 msec
