                         Program Version 3.0.3 - RELEASE   -
|  1> ! NORI PBE0 def2-TZVP UseSym TightOPT Freq TightSCF Grid3 FinalGrid5 XYZFile
|  2> % pal
|  3>     nprocs 8
|  4> end
|  5> %method
|  6>     SymThresh 5.0e-2
|  7> end
|  8> % geom
|  9>     MaxIter 10
| 10> end
| 11> % maxcore 2000
| 12> % output
| 13>     printlevel mini
| 14>     print[ P_Basis ] 0
| 15>     print[ P_SCFInfo ] 1
| 16>     print[ P_SCFIterInfo ] 1
| 17>     print[ P_OrbEn ] 0
| 18>     print[ P_Cartesian ] 0
| 19> end
| 20> % elprop
| 21>     Dipole false
| 22> end
| 23> *xyz 1 1
| 24>  C        1.0178510007    -0.2651325523    -0.0880964315
| 25>  C        2.5247678755    -0.0005398628    -0.0791238897
| 26>  C        2.9966402822     0.4471526407     1.2248674193
| 27>  C        3.3874379125     0.7464675680     2.3207206724
| 28>  C        3.3060320871    -1.2291275117    -0.5126809650
| 29>  C        4.7429503740    -1.3910359499    -0.2553999871
| 30>  N        3.7657404562    -2.1252832816     0.5828342877
| 31>  H        0.6882654361    -0.5618438385    -1.0854685410
| 32>  H        0.4810584335     0.6399266069     0.1934707089
| 33>  H        0.7485400890    -1.0490639531     0.6225725848
| 34>  H        2.7545916581     0.7737270968    -0.8216713169
| 35>  H        3.7125718043     1.0648314610     3.2866662972
| 36>  H        2.8880469682    -1.7794541299    -1.3487834848
| 37>  H        5.2673022506    -0.6160773214     0.2907243560
| 38>  H        5.3354531107    -2.0208492285    -0.9059763224
| 39>  H        3.6808704912    -3.1307885908     0.4869116465
| 40>  H        3.6253397702    -1.7465391529     1.5224829655
| 41> *
| 42>
| 43>                          ****END OF INPUT****
 Total Charge           Charge          ....    1
 Multiplicity           Mult            ....    1
 Number of Electrons    NEL             ....   52
FINAL SINGLE POINT ENERGY      -288.820297712459

CARTESIAN COORDINATES (ANGSTROEM)
---------------------------------
  C      1.816568   -0.000266   -1.194220
  C      0.375592    0.364726   -0.831505
  C     -0.523309   -0.777588   -0.934398
  C     -1.241948   -1.740002   -0.952993
  C      0.289087    0.960891    0.563135
  C     -0.971944    1.061381    1.309476
  N      0.000323    0.000308    1.662319
  H      2.457624    0.881806   -1.144388
  H      1.854934   -0.393228   -2.209352
  H      2.212870   -0.765455   -0.523757
  H      0.025457    1.150846   -1.512072
  H     -1.880886   -2.592451   -1.026898
  H      1.074940    1.661787    0.822848
  H     -1.877618    0.670419    0.861763
  H     -1.088040    1.829109    2.062957
  H      0.509558    0.059695    2.536406
  H     -0.245696   -0.940108    1.344603

FINAL SINGLE POINT ENERGY      -288.820298202633
                    ***********************HURRAY********************
 Multiplicity           Mult            ....    1
 Number of Electrons    NEL             ....   52
 Basis Dimension        Dim             ....  277
FINAL SINGLE POINT ENERGY      -288.820298383950

VIBRATIONAL FREQUENCIES
-----------------------

   0:         0.00 cm**-1
   1:         0.00 cm**-1
   2:         0.00 cm**-1
   3:         0.00 cm**-1
   4:         0.00 cm**-1
   5:         0.00 cm**-1
   6:        92.11 cm**-1
   7:       151.84 cm**-1
   8:       199.12 cm**-1
   9:       222.11 cm**-1
  10:       257.97 cm**-1
  11:       372.21 cm**-1
  12:       413.97 cm**-1
  13:       547.68 cm**-1
  14:       620.51 cm**-1
  15:       715.49 cm**-1
  16:       735.75 cm**-1
  17:       756.06 cm**-1
  18:       832.59 cm**-1
  19:       873.73 cm**-1
  20:       896.96 cm**-1
  21:       913.68 cm**-1
  22:       960.72 cm**-1
  23:      1041.45 cm**-1
  24:      1047.85 cm**-1
  25:      1096.05 cm**-1
  26:      1104.74 cm**-1
  27:      1159.51 cm**-1
  28:      1172.59 cm**-1
  29:      1185.64 cm**-1
  30:      1254.41 cm**-1
  31:      1284.88 cm**-1
  32:      1310.21 cm**-1
  33:      1339.32 cm**-1
  34:      1400.43 cm**-1
  35:      1419.57 cm**-1
  36:      1481.32 cm**-1
  37:      1482.86 cm**-1
  38:      1493.13 cm**-1
  39:      1593.19 cm**-1
  40:      2232.24 cm**-1
  41:      3052.15 cm**-1
  42:      3066.00 cm**-1
  43:      3144.96 cm**-1
  44:      3165.42 cm**-1
  45:      3170.67 cm**-1
  46:      3200.52 cm**-1
  47:      3275.87 cm**-1
  48:      3410.70 cm**-1
  49:      3450.37 cm**-1
  50:      3595.42 cm**-1

IR SPECTRUM
-----------

 Mode    freq (cm**-1)   T**2         TX         TY         TZ
-------------------------------------------------------------------
   6:        92.11    3.056388  (  1.563554   0.685224   0.377035)
   7:       151.84    2.198020  ( -0.629700  -0.814753  -1.066619)
   8:       199.12    5.091583  ( -1.229232   1.568476   1.058515)
   9:       222.11    1.263539  (  0.042776  -0.364560  -1.062452)
  10:       257.97    0.295733  (  0.065208   0.531678  -0.093808)
  11:       372.21   22.390961  ( -0.907819  -1.228225  -4.478648)
  12:       413.97    3.442511  (  1.375687  -0.495626   1.142081)
  13:       547.68   10.815520  ( -2.389672   1.495466   1.693685)
  14:       620.51    4.134944  ( -0.264381   0.093149   2.014043)
  15:       715.49   42.490801  (  4.856713  -4.151995   1.289992)
  16:       735.75    5.630182  ( -1.560953  -0.369090   1.748537)
  17:       756.06   33.115324  ( -1.276126  -0.364918   5.599434)
  18:       832.59    6.076717  (  1.344509  -1.597540   1.310297)
  19:       873.73    6.779848  ( -1.681192   1.721260  -0.995341)
  20:       896.96   14.998883  (  0.189182   1.069080   3.717548)
  21:       913.68    9.680995  (  1.135520   2.458659  -1.531857)
  22:       960.72   12.685839  (  0.703732  -2.997118   1.791056)
  23:      1041.45   17.823827  (  3.463622   0.820525  -2.270218)
  24:      1047.85   43.781801  ( -5.638734  -0.097132   3.460787)
  25:      1096.05   42.684464  ( -1.690113   2.856273   5.627583)
  26:      1104.74    1.817186  (  0.796857   0.683357  -0.845711)
  27:      1159.51    1.632059  ( -0.468962  -0.409043   1.115714)
  28:      1172.59    1.182571  (  0.202194   0.791690  -0.717576)
  29:      1185.64    5.354279  (  1.047974   0.621986  -1.967019)
  30:      1254.41    0.817731  (  0.258973   0.670023   0.549302)
  31:      1284.88    9.556299  ( -0.050325  -2.788524  -1.333380)
  32:      1310.21    0.784454  ( -0.052974   0.662729  -0.585182)
  33:      1339.32    2.159292  ( -0.660579  -1.171472  -0.592099)
  34:      1400.43    6.184314  (  2.451935   0.213959  -0.355736)
  35:      1419.57    2.376364  ( -0.663557   1.380938  -0.170487)
  36:      1481.32   15.526561  (  3.251361  -2.132190   0.639513)
  37:      1482.86    9.830073  ( -0.785516   0.563680   2.982499)
  38:      1493.13   10.316014  (  0.427756   2.956077  -1.180952)
  39:      1593.19   79.064631  ( -1.811316   3.763919  -7.849629)
  40:      2232.24    4.401457  ( -0.617075  -1.459565  -1.374899)
  41:      3052.15    1.927734  ( -0.375732   0.006526  -1.336606)
  42:      3066.00    5.044026  (  2.112617   0.235273   0.724930)
  43:      3144.96    6.105744  (  0.265860   2.277942  -0.919805)
  44:      3165.42    1.314608  ( -0.640267  -0.412980  -0.856804)
  45:      3170.67    2.665065  (  1.597758  -0.334544  -0.017737)
  46:      3200.52    0.904508  (  0.735587   0.591114  -0.118336)
  47:      3275.87    8.244532  (  1.071120   1.797197   1.966550)
  48:      3410.70  101.165170  ( -0.298021  -9.696185  -2.657133)
  49:      3450.37  112.686910  (  6.249759   8.505445   1.133501)
  50:      3595.42  178.944035  (  5.596496   2.848820  11.811329)

--------------------------
THERMOCHEMISTRY AT 298.15K
--------------------------

Temperature         ... 298.15 K
Pressure            ... 1.00 atm
Total Mass          ... 96.15 AMU

Throughout the following assumptions are being made:
  (1) The electronic state is orbitally nondegenerate
  (2) There are no thermally accessible electronically excited states
  (3) Hindered rotations indicated by low frequency modes) are not
      treated as such but are treated as vibrations and this may
      case some error
  (4) All equations used are the standard statistical mechanics
      equations for an ideal gas
  (5) All vibrations are strinctly harmonic

------------
INNER ENERGY
------------

The inner energy is: U= E(el) + E(ZPE) + E(vib) + E(rot) + E(trans)
    E(el)   - is the total energy from the electronic structure calculation
              = E(kin-el) + E(nuc-el) + E(el-el) + E(nuc-nuc)
    E(ZPE)  - the the zero temperature vibrational energy from the frequency calculation
    E(vib)  - the the finite temperature correction to E(ZPE) due to population
              of excietd vibrational states
    E(rot)  - is the rotational thermal energy
    E(trans)- is the translational thermal energy

Summary of contributions to the inner energy U:
Electronic energy                ...   -288.82029838 Eh
Zero point energy                ...      0.15080096 Eh      94.63 kcal/mol
Thermal vibrational correction   ...      0.00475082 Eh       2.98 kcal/mol
Thermal rotational correction    ...      0.00141627 Eh       0.89 kcal/mol
Thermal translational correction ...      0.00141627 Eh       0.89 kcal/mol
-----------------------------------------------------------------------
Total thermal energy                   -288.66191406 Eh

Summary of corrections to the electronic energy:
(perhaps to be used in another calculation)
Total thermal correction                  0.00758336 Eh       4.76 kcal/mol
Non-thermal (ZPE) correction              0.15080096 Eh      94.63 kcal/mol
-----------------------------------------------------------------------
Total correction                          0.15838432 Eh      99.39 kcal/mol

--------
ENTHALPY
--------

The enthalpy is H = U + kB*T
                kB is Boltzmann's constant
Total free energy                 ...   -288.66191406 Eh
Thermal Enthalpy correction       ...      0.00094421 Eh       0.59 kcal/mol
-----------------------------------------------------------------------
Total Enthalpy                    ...   -288.66096985 Eh

-------
ENTROPY
-------

The entropy contributions are T*S = T*(S(el)+S(vib)+S(rot)+S(trans)
     S(el)   - electronic entropy
     S(vib)  - vibrational entropy
     S(rot)  - rotational entropy
     S(trans)- translational entropy
The entropies will be listed as mutliplied by the temperature to get
units of energy

Electronic entropy                ...      0.00000000 Eh      0.00 kcal/mol
Vibrational entropy               ...      0.00812651 Eh      5.10 kcal/mol
Rotational entropy                ...      0.01201723 Eh      7.54 kcal/mol
Translational entropy             ...      0.01881568 Eh     11.81 kcal/mol
-----------------------------------------------------------------------
Final entropy term                ...      0.03895942 Eh     24.45 kcal/mol

CAUTION: The rotational entropy is not quite correctly treated here
         because it includes a symmetry number that is not yet correctly
         implemented in ORCA!
For a nonlinear molecule the correct rotational entropy is:
    S(rot) = R*(ln(qrot/sn)+1.5)
    R    = 8.31441 J/mol/K = 1.987191683e-3 kcal/mol/K
    qrot = 225549.0236103
    sn is the rotational symmetry number. We have assumed 3 here
       if it is different for your molecule then you should correct
       the printed rotational entropy by manually evaluating the equation
       as given above

For convenience we print out the resulting values for sn=1 - 12:
 sn= 1  qrot/sn=  225549.0236 T*S(rot)=     8.19 kcal/mol T*S(tot)=    25.10 kcal/mol
 sn= 2  qrot/sn=  112774.5118 T*S(rot)=     7.78 kcal/mol T*S(tot)=    24.69 kcal/mol
 sn= 3  qrot/sn=   75183.0079 T*S(rot)=     7.54 kcal/mol T*S(tot)=    24.45 kcal/mol
 sn= 4  qrot/sn=   56387.2559 T*S(rot)=     7.37 kcal/mol T*S(tot)=    24.28 kcal/mol
 sn= 5  qrot/sn=   45109.8047 T*S(rot)=     7.24 kcal/mol T*S(tot)=    24.14 kcal/mol
 sn= 6  qrot/sn=   37591.5039 T*S(rot)=     7.13 kcal/mol T*S(tot)=    24.04 kcal/mol
 sn= 7  qrot/sn=   32221.2891 T*S(rot)=     7.04 kcal/mol T*S(tot)=    23.95 kcal/mol
 sn= 8  qrot/sn=   28193.6280 T*S(rot)=     6.96 kcal/mol T*S(tot)=    23.87 kcal/mol
 sn= 9  qrot/sn=   25061.0026 T*S(rot)=     6.89 kcal/mol T*S(tot)=    23.80 kcal/mol
 sn=10  qrot/sn=   22554.9024 T*S(rot)=     6.83 kcal/mol T*S(tot)=    23.73 kcal/mol
 sn=11  qrot/sn=   20504.4567 T*S(rot)=     6.77 kcal/mol T*S(tot)=    23.68 kcal/mol
 sn=12  qrot/sn=   18795.7520 T*S(rot)=     6.72 kcal/mol T*S(tot)=    23.63 kcal/mol

-------------------
GIBBS FREE ENTHALPY
-------------------

The Gibbs free enthalpy is G = H - T*S

Total enthalpy                    ...   -288.66096985 Eh
Total entropy correction          ...     -0.03895942 Eh    -24.45 kcal/mol
-----------------------------------------------------------------------
Final Gibbs free enthalpy         ...   -288.69992928 Eh

For completeness - the Gibbs free enthalpy minus the electronic energy
G-E(el)                           ...      0.12036911 Eh     75.53 kcal/mol

                             ****ORCA TERMINATED NORMALLY****
TOTAL RUN TIME: 0 days 0 hours 36 minutes 30 seconds 254 msec
