                         Program Version 3.0.3 - RELEASE   -
|  1> ! NORI PBE0 def2-TZVP UseSym TightOPT Freq TightSCF Grid3 FinalGrid5 XYZFile
|  2> % pal
|  3>     nprocs 8
|  4> end
|  5> %method
|  6>     SymThresh 5.0e-2
|  7> end
|  8> % geom
|  9>     MaxIter 10
| 10> end
| 11> % maxcore 2000
| 12> % output
| 13>     printlevel mini
| 14>     print[ P_Basis ] 0
| 15>     print[ P_SCFInfo ] 1
| 16>     print[ P_SCFIterInfo ] 1
| 17>     print[ P_OrbEn ] 0
| 18>     print[ P_Cartesian ] 0
| 19> end
| 20> % elprop
| 21>     Dipole false
| 22> end
| 23> *xyz 1 1
| 24>  C        1.0424960862    -0.0080695047    -0.1587554396
| 25>  C        2.4895380576     0.0477253474    -0.1259902799
| 26>  C        3.6902761225     0.0798103476    -0.0657221813
| 27>  C        5.1409151190     0.1172121412    -0.0052868546
| 28>  C        5.6913995091     1.3269819797    -0.7139068477
| 29>  C        6.8730082839     1.2590250116    -1.5868244164
| 30>  N        5.5222302277     1.3326006319    -2.1947691094
| 31>  H        0.6099648055     0.8515481014     0.3576966562
| 32>  H        0.6880114103    -0.9148746767     0.3364957855
| 33>  H        0.6705085104    -0.0153669028    -1.1851069412
| 34>  H        5.4920437701     0.1616041023     1.0316023586
| 35>  H        5.5754047621    -0.7952260341    -0.4321238694
| 36>  H        5.4426764174     2.2899821422    -0.2819672050
| 37>  H        7.4797188937     2.1405300990    -1.7509798906
| 38>  H        7.3665306950     0.3067230462    -1.7362142829
| 39>  H        5.1273772553     0.4949756258    -2.6119372454
| 40>  H        5.2393800743     2.1923085423    -2.6517202369
| 41> *
| 42>
| 43>                          ****END OF INPUT****
 Total Charge           Charge          ....    1
 Multiplicity           Mult            ....    1
 Number of Electrons    NEL             ....   52
FINAL SINGLE POINT ENERGY      -288.827407200163

CARTESIAN COORDINATES (ANGSTROEM)
---------------------------------
  C      2.275662    0.000409   -2.583380
  C      1.094575   -0.092489   -1.750051
  C      0.093704   -0.170488   -1.087888
  C     -1.108627   -0.270558   -0.279341
  C     -0.984855    0.524477    0.994061
  C     -1.451061    0.012021    2.291321
  N     -0.000282   -0.000383    1.982497
  H      2.445798    1.031523   -2.900247
  H      2.155670   -0.614134   -3.478374
  H      3.163463   -0.346602   -2.050684
  H     -1.980446    0.116017   -0.818865
  H     -1.338576   -1.317517   -0.045133
  H     -0.900291    1.599688    0.881494
  H     -1.728684    0.699549    3.079950
  H     -1.893946   -0.974890    2.342144
  H      0.444335   -0.885517    1.757771
  H      0.606271    0.654078    2.463798

FINAL SINGLE POINT ENERGY      -288.827407657534
                    ***********************HURRAY********************
 Multiplicity           Mult            ....    1
 Number of Electrons    NEL             ....   52
 Basis Dimension        Dim             ....  277
FINAL SINGLE POINT ENERGY      -288.827408043457

VIBRATIONAL FREQUENCIES
-----------------------

   0:         0.00 cm**-1
   1:         0.00 cm**-1
   2:         0.00 cm**-1
   3:         0.00 cm**-1
   4:         0.00 cm**-1
   5:         0.00 cm**-1
   6:       -18.83 cm**-1
   7:        53.60 cm**-1
   8:        99.09 cm**-1
   9:       208.03 cm**-1
  10:       264.97 cm**-1
  11:       347.82 cm**-1
  12:       381.62 cm**-1
  13:       403.95 cm**-1
  14:       511.22 cm**-1
  15:       765.48 cm**-1
  16:       783.06 cm**-1
  17:       840.89 cm**-1
  18:       862.37 cm**-1
  19:       921.60 cm**-1
  20:       954.20 cm**-1
  21:       967.00 cm**-1
  22:      1023.34 cm**-1
  23:      1039.75 cm**-1
  24:      1045.19 cm**-1
  25:      1137.81 cm**-1
  26:      1157.78 cm**-1
  27:      1183.93 cm**-1
  28:      1187.07 cm**-1
  29:      1243.83 cm**-1
  30:      1267.62 cm**-1
  31:      1292.34 cm**-1
  32:      1334.26 cm**-1
  33:      1406.37 cm**-1
  34:      1434.67 cm**-1
  35:      1457.20 cm**-1
  36:      1461.22 cm**-1
  37:      1461.74 cm**-1
  38:      1495.74 cm**-1
  39:      1637.44 cm**-1
  40:      2374.98 cm**-1
  41:      3035.01 cm**-1
  42:      3059.34 cm**-1
  43:      3080.17 cm**-1
  44:      3133.88 cm**-1
  45:      3135.50 cm**-1
  46:      3171.82 cm**-1
  47:      3202.48 cm**-1
  48:      3273.52 cm**-1
  49:      3507.28 cm**-1
  50:      3612.35 cm**-1

IR SPECTRUM
-----------

 Mode    freq (cm**-1)   T**2         TX         TY         TZ
-------------------------------------------------------------------
   7:        53.60    4.960509  (  1.454269   0.444241  -1.627347)
   8:        99.09    1.504994  ( -1.125665  -0.487043  -0.025697)
   9:       208.03   19.120376  ( -1.298406   2.565588  -3.294279)
  10:       264.97   18.196994  ( -0.595171  -2.750272  -3.206052)
  11:       347.82    1.129074  ( -0.228292   0.388801   0.962180)
  12:       381.62    1.426435  ( -0.812229   0.171455   0.858675)
  13:       403.95    0.781801  ( -0.327428  -0.440761   0.693053)
  14:       511.22    3.874400  (  0.261380   0.671402   1.831748)
  15:       765.48    1.959176  ( -0.554991  -0.750898  -1.042743)
  16:       783.06    0.609362  ( -0.122246   0.587863   0.498834)
  17:       840.89    8.266820  ( -2.295751   1.369962  -1.058087)
  18:       862.37   10.606801  (  3.251514  -0.143905   0.117266)
  19:       921.60    3.701421  (  0.012762   1.366448   1.354281)
  20:       954.20   22.892333  (  2.958078  -1.219657   3.557323)
  21:       967.00    5.411257  (  0.723576  -1.997891   0.946640)
  22:      1023.34  110.499467  (  2.888844   3.392706  -9.520693)
  23:      1039.75    2.139152  ( -0.087947  -1.095775  -0.964725)
  24:      1045.19    2.129790  ( -0.203044   0.859298  -1.161968)
  25:      1137.81    2.456238  ( -0.466726   0.147493   1.488842)
  26:      1157.78    2.489356  (  1.048314  -1.167333  -0.166517)
  27:      1183.93    1.509997  ( -0.704299   0.525652  -0.858865)
  28:      1187.07    0.566692  ( -0.130667  -0.412448   0.616039)
  29:      1243.83    2.988407  (  0.262797   1.306383   1.101231)
  30:      1267.62    2.379981  ( -0.289067   1.001959  -1.136881)
  31:      1292.34    4.569072  ( -1.559232   1.234700   0.783189)
  32:      1334.26   14.921924  ( -2.172799  -0.561108   3.144205)
  33:      1406.37    0.493084  (  0.685611   0.129207  -0.079538)
  34:      1434.67    6.164757  (  1.947053   1.450601  -0.519131)
  35:      1457.20   14.447537  ( -2.557021  -2.534547  -1.218709)
  36:      1461.22   12.736874  (  0.980830  -3.369009   0.651634)
  37:      1461.74   11.649114  (  1.739839   0.586978   2.877070)
  38:      1495.74   10.091666  (  1.793490   0.983227  -2.430704)
  39:      1637.44   53.829700  ( -6.280076   2.322085  -2.999712)
  40:      2374.98   60.931905  ( -5.677758  -0.222229   5.352157)
  41:      3035.01   14.835447  ( -2.087443  -1.206913   3.003563)
  42:      3059.34    1.261056  ( -1.074235  -0.140212   0.295661)
  43:      3080.17    0.924546  ( -0.469819  -0.242484  -0.803130)
  44:      3133.88    0.442831  (  0.628400  -0.217443   0.025758)
  45:      3135.50    0.142932  ( -0.029607   0.272785  -0.260084)
  46:      3171.82    2.992608  ( -1.180230  -0.237220   1.242333)
  47:      3202.48    1.991641  ( -0.149501   1.236454  -0.663681)
  48:      3273.52    5.858549  (  0.178376   2.254730   0.861929)
  49:      3507.28   93.106822  ( -8.841126   2.504858  -2.943978)
  50:      3612.35  132.177272  (  1.955603   9.665205   5.910728)

--------------------------
THERMOCHEMISTRY AT 298.15K
--------------------------

Temperature         ... 298.15 K
Pressure            ... 1.00 atm
Total Mass          ... 96.15 AMU

Throughout the following assumptions are being made:
  (1) The electronic state is orbitally nondegenerate
  (2) There are no thermally accessible electronically excited states
  (3) Hindered rotations indicated by low frequency modes) are not
      treated as such but are treated as vibrations and this may
      case some error
  (4) All equations used are the standard statistical mechanics
      equations for an ideal gas
  (5) All vibrations are strinctly harmonic

------------
INNER ENERGY
------------

The inner energy is: U= E(el) + E(ZPE) + E(vib) + E(rot) + E(trans)
    E(el)   - is the total energy from the electronic structure calculation
              = E(kin-el) + E(nuc-el) + E(el-el) + E(nuc-nuc)
    E(ZPE)  - the the zero temperature vibrational energy from the frequency calculation
    E(vib)  - the the finite temperature correction to E(ZPE) due to population
              of excietd vibrational states
    E(rot)  - is the rotational thermal energy
    E(trans)- is the translational thermal energy

Summary of contributions to the inner energy U:
Electronic energy                ...   -288.82740804 Eh
Zero point energy                ...      0.15085693 Eh      94.66 kcal/mol
Thermal vibrational correction   ...      0.00448842 Eh       2.82 kcal/mol
Thermal rotational correction    ...      0.00141627 Eh       0.89 kcal/mol
Thermal translational correction ...      0.00141627 Eh       0.89 kcal/mol
-----------------------------------------------------------------------
Total thermal energy                   -288.66923015 Eh

Summary of corrections to the electronic energy:
(perhaps to be used in another calculation)
Total thermal correction                  0.00732096 Eh       4.59 kcal/mol
Non-thermal (ZPE) correction              0.15085693 Eh      94.66 kcal/mol
-----------------------------------------------------------------------
Total correction                          0.15817789 Eh      99.26 kcal/mol

--------
ENTHALPY
--------

The enthalpy is H = U + kB*T
                kB is Boltzmann's constant
Total free energy                 ...   -288.66923015 Eh
Thermal Enthalpy correction       ...      0.00094421 Eh       0.59 kcal/mol
-----------------------------------------------------------------------
Total Enthalpy                    ...   -288.66828594 Eh

-------
ENTROPY
-------

The entropy contributions are T*S = T*(S(el)+S(vib)+S(rot)+S(trans)
     S(el)   - electronic entropy
     S(vib)  - vibrational entropy
     S(rot)  - rotational entropy
     S(trans)- translational entropy
The entropies will be listed as mutliplied by the temperature to get
units of energy

Electronic entropy                ...      0.00000000 Eh      0.00 kcal/mol
Vibrational entropy               ...      0.00827639 Eh      5.19 kcal/mol
Rotational entropy                ...      0.01222006 Eh      7.67 kcal/mol
Translational entropy             ...      0.01881568 Eh     11.81 kcal/mol
-----------------------------------------------------------------------
Final entropy term                ...      0.03931213 Eh     24.67 kcal/mol

CAUTION: The rotational entropy is not quite correctly treated here
         because it includes a symmetry number that is not yet correctly
         implemented in ORCA!
For a nonlinear molecule the correct rotational entropy is:
    S(rot) = R*(ln(qrot/sn)+1.5)
    R    = 8.31441 J/mol/K = 1.987191683e-3 kcal/mol/K
    qrot = 279597.1309511
    sn is the rotational symmetry number. We have assumed 3 here
       if it is different for your molecule then you should correct
       the printed rotational entropy by manually evaluating the equation
       as given above

For convenience we print out the resulting values for sn=1 - 12:
 sn= 1  qrot/sn=  279597.1310 T*S(rot)=     8.32 kcal/mol T*S(tot)=    25.32 kcal/mol
 sn= 2  qrot/sn=  139798.5655 T*S(rot)=     7.91 kcal/mol T*S(tot)=    24.91 kcal/mol
 sn= 3  qrot/sn=   93199.0437 T*S(rot)=     7.67 kcal/mol T*S(tot)=    24.67 kcal/mol
 sn= 4  qrot/sn=   69899.2827 T*S(rot)=     7.50 kcal/mol T*S(tot)=    24.50 kcal/mol
 sn= 5  qrot/sn=   55919.4262 T*S(rot)=     7.37 kcal/mol T*S(tot)=    24.37 kcal/mol
 sn= 6  qrot/sn=   46599.5218 T*S(rot)=     7.26 kcal/mol T*S(tot)=    24.26 kcal/mol
 sn= 7  qrot/sn=   39942.4473 T*S(rot)=     7.17 kcal/mol T*S(tot)=    24.17 kcal/mol
 sn= 8  qrot/sn=   34949.6414 T*S(rot)=     7.09 kcal/mol T*S(tot)=    24.09 kcal/mol
 sn= 9  qrot/sn=   31066.3479 T*S(rot)=     7.02 kcal/mol T*S(tot)=    24.02 kcal/mol
 sn=10  qrot/sn=   27959.7131 T*S(rot)=     6.95 kcal/mol T*S(tot)=    23.96 kcal/mol
 sn=11  qrot/sn=   25417.9210 T*S(rot)=     6.90 kcal/mol T*S(tot)=    23.90 kcal/mol
 sn=12  qrot/sn=   23299.7609 T*S(rot)=     6.85 kcal/mol T*S(tot)=    23.85 kcal/mol

-------------------
GIBBS FREE ENTHALPY
-------------------

The Gibbs free enthalpy is G = H - T*S

Total enthalpy                    ...   -288.66828594 Eh
Total entropy correction          ...     -0.03931213 Eh    -24.67 kcal/mol
-----------------------------------------------------------------------
Final Gibbs free enthalpy         ...   -288.70759807 Eh

For completeness - the Gibbs free enthalpy minus the electronic energy
G-E(el)                           ...      0.11980997 Eh     75.18 kcal/mol

                             ****ORCA TERMINATED NORMALLY****
TOTAL RUN TIME: 0 days 0 hours 30 minutes 19 seconds 781 msec
