                         Program Version 3.0.3 - RELEASE   -
|  1> ! NORI PBE0 def2-TZVP UseSym TightOPT Freq TightSCF Grid3 FinalGrid5 XYZFile
|  2> % pal
|  3>     nprocs 8
|  4> end
|  5> %method
|  6>     SymThresh 5.0e-2
|  7> end
|  8> % geom
|  9>     MaxIter 10
| 10> end
| 11> % maxcore 2000
| 12> % output
| 13>     printlevel mini
| 14>     print[ P_Basis ] 0
| 15>     print[ P_SCFInfo ] 1
| 16>     print[ P_SCFIterInfo ] 1
| 17>     print[ P_OrbEn ] 0
| 18>     print[ P_Cartesian ] 0
| 19> end
| 20> % elprop
| 21>     Dipole false
| 22> end
| 23> *xyz 1 1
| 24>  C        1.8250154900    -1.2236422005    -0.6135088952
| 25>  C        2.6254175525    -0.1196191119     0.0709970520
| 26>  C        3.1012630066     0.9130540852    -0.8881876496
| 27>  C        4.3719983183     1.2457916362    -1.0909299632
| 28>  C        4.8315629651     2.2744903608    -2.0474047762
| 29>  C        5.4998510735     1.9069965477    -3.3101480060
| 30>  N        4.0902260140     2.3657105735    -3.3381219564
| 31>  H        1.4574484446    -1.9373480150     0.1243546521
| 32>  H        2.4391886652    -1.7710291688    -1.3319517298
| 33>  H        0.9579733171    -0.8200228422    -1.1420617440
| 34>  H        1.9879066145     0.3774307390     0.8117936277
| 35>  H        3.4742873238    -0.5397361066     0.6154544682
| 36>  H        2.3159082310     1.4201432947    -1.4527814539
| 37>  H        5.1694139211     0.7805288135    -0.5177522501
| 38>  H        5.0694670736     3.2619075751    -1.6594372631
| 39>  H        6.1953586791     2.5932256235    -3.7753125304
| 40>  H        5.6160082620     0.8581980407    -3.5521393619
| 41>  H        3.3760746847     1.6617213342    -3.4958362848
| 42>  H        3.8830503632     3.2771088209    -3.7305559356
| 43> *
| 44>
| 45>                          ****END OF INPUT****
 Total Charge           Charge          ....    1
 Multiplicity           Mult            ....    1
 Number of Electrons    NEL             ....   54
FINAL SINGLE POINT ENERGY      -290.071803300747
FINAL SINGLE POINT ENERGY      -290.071804782138
FINAL SINGLE POINT ENERGY      -290.071806498777

CARTESIAN COORDINATES (ANGSTROEM)
---------------------------------
  C      1.925311    0.004641   -2.483308
  C      0.530281    0.560222   -2.213278
  C      0.202099    0.592797   -0.762456
  C     -0.838558   -0.012028   -0.198193
  C     -1.157165    0.028534    1.244212
  C     -0.942870   -1.144394    2.113433
  N     -0.001074   -0.001946    2.186012
  H      2.144610    0.033979   -3.551127
  H      2.010604   -1.032694   -2.152642
  H      2.694108    0.590636   -1.973303
  H      0.475043    1.586764   -2.593977
  H     -0.225490   -0.017433   -2.751229
  H      0.890171    1.171108   -0.141633
  H     -1.554695   -0.565861   -0.799526
  H     -1.919072    0.728898    1.578289
  H     -1.544308   -1.276606    3.003462
  H     -0.505106   -2.037130    1.684959
  H      0.914909   -0.128060    1.767067
  H     -0.014051    0.588848    3.009865

FINAL SINGLE POINT ENERGY      -290.071806945936
                    ***********************HURRAY********************
 Multiplicity           Mult            ....    1
 Number of Electrons    NEL             ....   54
 Basis Dimension        Dim             ....  289
FINAL SINGLE POINT ENERGY      -290.071807191784

VIBRATIONAL FREQUENCIES
-----------------------

   0:         0.00 cm**-1
   1:         0.00 cm**-1
   2:         0.00 cm**-1
   3:         0.00 cm**-1
   4:         0.00 cm**-1
   5:         0.00 cm**-1
   6:        49.30 cm**-1
   7:       100.84 cm**-1
   8:       127.70 cm**-1
   9:       164.97 cm**-1
  10:       242.35 cm**-1
  11:       324.12 cm**-1
  12:       396.71 cm**-1
  13:       419.92 cm**-1
  14:       565.26 cm**-1
  15:       772.59 cm**-1
  16:       784.60 cm**-1
  17:       836.31 cm**-1
  18:       854.61 cm**-1
  19:       890.16 cm**-1
  20:       915.34 cm**-1
  21:       952.30 cm**-1
  22:       986.29 cm**-1
  23:      1002.58 cm**-1
  24:      1028.96 cm**-1
  25:      1050.76 cm**-1
  26:      1093.13 cm**-1
  27:      1138.37 cm**-1
  28:      1158.57 cm**-1
  29:      1168.01 cm**-1
  30:      1184.33 cm**-1
  31:      1249.17 cm**-1
  32:      1265.80 cm**-1
  33:      1270.85 cm**-1
  34:      1311.05 cm**-1
  35:      1326.22 cm**-1
  36:      1366.71 cm**-1
  37:      1408.96 cm**-1
  38:      1414.42 cm**-1
  39:      1468.99 cm**-1
  40:      1489.73 cm**-1
  41:      1491.46 cm**-1
  42:      1496.05 cm**-1
  43:      1617.96 cm**-1
  44:      1738.06 cm**-1
  45:      3045.88 cm**-1
  46:      3056.12 cm**-1
  47:      3096.72 cm**-1
  48:      3114.60 cm**-1
  49:      3132.14 cm**-1
  50:      3146.73 cm**-1
  51:      3161.47 cm**-1
  52:      3172.11 cm**-1
  53:      3178.64 cm**-1
  54:      3277.46 cm**-1
  55:      3508.11 cm**-1
  56:      3615.58 cm**-1

IR SPECTRUM
-----------

 Mode    freq (cm**-1)   T**2         TX         TY         TZ
-------------------------------------------------------------------
   6:        49.30    0.616704  ( -0.515822   0.592137  -0.002284)
   7:       100.84    5.880613  ( -1.771751   0.845815   1.423414)
   8:       127.70    1.681159  ( -0.263361   0.306216   1.232084)
   9:       164.97    3.035706  ( -0.517648  -0.934669   1.376278)
  10:       242.35    1.571379  ( -0.036222   0.533532  -1.133760)
  11:       324.12    4.322286  ( -0.225859   0.423974  -2.022751)
  12:       396.71    1.591236  (  0.931348  -0.649550   0.549464)
  13:       419.92    2.021076  (  0.526016  -1.234192   0.470271)
  14:       565.26    2.809524  ( -0.056883   0.969661  -1.366033)
  15:       772.59    2.286216  (  1.390000   0.511935  -0.303380)
  16:       784.60    1.814114  ( -1.242658   0.339170   0.393547)
  17:       836.31   11.450341  (  1.416458   3.055429  -0.329153)
  18:       854.61   14.692458  ( -3.177227  -0.147251  -2.139159)
  19:       890.16    4.238991  ( -0.825533  -0.548055  -1.804750)
  20:       915.34   11.343647  ( -2.297855  -1.627356   1.848032)
  21:       952.30   12.383244  (  1.418702   1.404159   2.898080)
  22:       986.29    2.003433  (  1.338608   0.230877   0.397815)
  23:      1002.58   63.775888  (  4.336478  -6.438159   1.876422)
  24:      1028.96   79.413414  (  1.345678  -5.923514   6.520318)
  25:      1050.76    6.176770  (  2.114898  -0.705707  -1.098160)
  26:      1093.13    1.835041  (  0.563245  -0.996090   0.724983)
  27:      1138.37    2.157890  ( -0.766826  -1.125942  -0.549657)
  28:      1158.57    0.210109  (  0.412595   0.040989  -0.195434)
  29:      1168.01    1.948593  ( -1.121828   0.102620  -0.824357)
  30:      1184.33    0.703059  (  0.394964  -0.689324   0.268133)
  31:      1249.17    0.629314  ( -0.239583  -0.171643  -0.736514)
  32:      1265.80    1.302460  (  0.753607  -0.242945   0.821897)
  33:      1270.85   13.520972  ( -3.133926  -0.885865   1.707256)
  34:      1311.05    4.103910  (  0.922732   0.034740   1.803128)
  35:      1326.22    1.664730  (  0.161995  -0.685935   1.080731)
  36:      1366.71    1.716550  ( -0.762973  -0.844915  -0.648491)
  37:      1408.96    3.029489  (  1.216453  -0.860403   0.899687)
  38:      1414.42   18.700915  (  2.125668   0.041249  -3.765734)
  39:      1468.99    8.958793  ( -2.970257   0.361991  -0.072999)
  40:      1489.73   19.104654  ( -1.027582  -3.429982   2.506781)
  41:      1491.46   10.007439  ( -0.899243  -3.001768   0.433807)
  42:      1496.05    8.351302  ( -1.343580  -0.836483  -2.417931)
  43:      1617.96   63.232504  (  5.943237   1.553444   5.049481)
  44:      1738.06   28.877890  ( -3.000887  -1.201757   4.292825)
  45:      3045.88    2.154431  ( -1.183979   0.648022  -0.576795)
  46:      3056.12   16.688828  ( -3.875184   1.283407  -0.156988)
  47:      3096.72    1.054838  (  0.535023  -0.668223  -0.567508)
  48:      3114.60   11.820375  (  1.354648   0.448042   3.128029)
  49:      3132.14   24.654580  ( -2.039967  -4.075768  -1.970083)
  50:      3146.73    8.698430  (  0.310897  -0.872481   2.800098)
  51:      3161.47    3.985684  (  0.256288  -1.173898   1.594354)
  52:      3172.11    2.443192  ( -0.389692  -1.423044   0.516020)
  53:      3178.64    0.539043  ( -0.595153  -0.407990   0.135571)
  54:      3277.46    5.265689  ( -1.288315   1.226850   1.449404)
  55:      3508.11   77.660268  (  7.052933   3.776830   3.694855)
  56:      3615.58  137.211301  (  4.638789  -4.956798  -9.545841)

--------------------------
THERMOCHEMISTRY AT 298.15K
--------------------------

Temperature         ... 298.15 K
Pressure            ... 1.00 atm
Total Mass          ... 98.17 AMU

Throughout the following assumptions are being made:
  (1) The electronic state is orbitally nondegenerate
  (2) There are no thermally accessible electronically excited states
  (3) Hindered rotations indicated by low frequency modes) are not
      treated as such but are treated as vibrations and this may
      case some error
  (4) All equations used are the standard statistical mechanics
      equations for an ideal gas
  (5) All vibrations are strinctly harmonic

------------
INNER ENERGY
------------

The inner energy is: U= E(el) + E(ZPE) + E(vib) + E(rot) + E(trans)
    E(el)   - is the total energy from the electronic structure calculation
              = E(kin-el) + E(nuc-el) + E(el-el) + E(nuc-nuc)
    E(ZPE)  - the the zero temperature vibrational energy from the frequency calculation
    E(vib)  - the the finite temperature correction to E(ZPE) due to population
              of excietd vibrational states
    E(rot)  - is the rotational thermal energy
    E(trans)- is the translational thermal energy

Summary of contributions to the inner energy U:
Electronic energy                ...   -290.07180719 Eh
Zero point energy                ...      0.17457388 Eh     109.55 kcal/mol
Thermal vibrational correction   ...      0.00534558 Eh       3.35 kcal/mol
Thermal rotational correction    ...      0.00141627 Eh       0.89 kcal/mol
Thermal translational correction ...      0.00141627 Eh       0.89 kcal/mol
-----------------------------------------------------------------------
Total thermal energy                   -289.88905520 Eh

Summary of corrections to the electronic energy:
(perhaps to be used in another calculation)
Total thermal correction                  0.00817812 Eh       5.13 kcal/mol
Non-thermal (ZPE) correction              0.17457388 Eh     109.55 kcal/mol
-----------------------------------------------------------------------
Total correction                          0.18275199 Eh     114.68 kcal/mol

--------
ENTHALPY
--------

The enthalpy is H = U + kB*T
                kB is Boltzmann's constant
Total free energy                 ...   -289.88905520 Eh
Thermal Enthalpy correction       ...      0.00094421 Eh       0.59 kcal/mol
-----------------------------------------------------------------------
Total Enthalpy                    ...   -289.88811099 Eh

-------
ENTROPY
-------

The entropy contributions are T*S = T*(S(el)+S(vib)+S(rot)+S(trans)
     S(el)   - electronic entropy
     S(vib)  - vibrational entropy
     S(rot)  - rotational entropy
     S(trans)- translational entropy
The entropies will be listed as mutliplied by the temperature to get
units of energy

Electronic entropy                ...      0.00000000 Eh      0.00 kcal/mol
Vibrational entropy               ...      0.01010627 Eh      6.34 kcal/mol
Rotational entropy                ...      0.01227590 Eh      7.70 kcal/mol
Translational entropy             ...      0.01884507 Eh     11.83 kcal/mol
-----------------------------------------------------------------------
Final entropy term                ...      0.04122724 Eh     25.87 kcal/mol

CAUTION: The rotational entropy is not quite correctly treated here
         because it includes a symmetry number that is not yet correctly
         implemented in ORCA!
For a nonlinear molecule the correct rotational entropy is:
    S(rot) = R*(ln(qrot/sn)+1.5)
    R    = 8.31441 J/mol/K = 1.987191683e-3 kcal/mol/K
    qrot = 296633.4793802
    sn is the rotational symmetry number. We have assumed 3 here
       if it is different for your molecule then you should correct
       the printed rotational entropy by manually evaluating the equation
       as given above

For convenience we print out the resulting values for sn=1 - 12:
 sn= 1  qrot/sn=  296633.4794 T*S(rot)=     8.35 kcal/mol T*S(tot)=    26.52 kcal/mol
 sn= 2  qrot/sn=  148316.7397 T*S(rot)=     7.94 kcal/mol T*S(tot)=    26.11 kcal/mol
 sn= 3  qrot/sn=   98877.8265 T*S(rot)=     7.70 kcal/mol T*S(tot)=    25.87 kcal/mol
 sn= 4  qrot/sn=   74158.3698 T*S(rot)=     7.53 kcal/mol T*S(tot)=    25.70 kcal/mol
 sn= 5  qrot/sn=   59326.6959 T*S(rot)=     7.40 kcal/mol T*S(tot)=    25.57 kcal/mol
 sn= 6  qrot/sn=   49438.9132 T*S(rot)=     7.29 kcal/mol T*S(tot)=    25.46 kcal/mol
 sn= 7  qrot/sn=   42376.2113 T*S(rot)=     7.20 kcal/mol T*S(tot)=    25.37 kcal/mol
 sn= 8  qrot/sn=   37079.1849 T*S(rot)=     7.12 kcal/mol T*S(tot)=    25.29 kcal/mol
 sn= 9  qrot/sn=   32959.2755 T*S(rot)=     7.05 kcal/mol T*S(tot)=    25.22 kcal/mol
 sn=10  qrot/sn=   29663.3479 T*S(rot)=     6.99 kcal/mol T*S(tot)=    25.16 kcal/mol
 sn=11  qrot/sn=   26966.6799 T*S(rot)=     6.93 kcal/mol T*S(tot)=    25.10 kcal/mol
 sn=12  qrot/sn=   24719.4566 T*S(rot)=     6.88 kcal/mol T*S(tot)=    25.05 kcal/mol

-------------------
GIBBS FREE ENTHALPY
-------------------

The Gibbs free enthalpy is G = H - T*S

Total enthalpy                    ...   -289.88811099 Eh
Total entropy correction          ...     -0.04122724 Eh    -25.87 kcal/mol
-----------------------------------------------------------------------
Final Gibbs free enthalpy         ...   -289.92933823 Eh

For completeness - the Gibbs free enthalpy minus the electronic energy
G-E(el)                           ...      0.14246896 Eh     89.40 kcal/mol

                             ****ORCA TERMINATED NORMALLY****
TOTAL RUN TIME: 0 days 0 hours 39 minutes 25 seconds 241 msec
