                         Program Version 3.0.3 - RELEASE   -
|  1> ! NORI PBE0 def2-TZVP UseSym TightOPT Freq TightSCF Grid3 FinalGrid5 XYZFile
|  2> % pal
|  3>     nprocs 8
|  4> end
|  5> %method
|  6>     SymThresh 5.0e-2
|  7> end
|  8> % geom
|  9>     MaxIter 10
| 10> end
| 11> % maxcore 2000
| 12> % output
| 13>     printlevel mini
| 14>     print[ P_Basis ] 0
| 15>     print[ P_SCFInfo ] 1
| 16>     print[ P_SCFIterInfo ] 1
| 17>     print[ P_OrbEn ] 0
| 18>     print[ P_Cartesian ] 0
| 19> end
| 20> % elprop
| 21>     Dipole false
| 22> end
| 23> *xyz 1 1
| 24>  C        2.7713966797    -1.3380413615     0.3469638166
| 25>  C        2.6830906386     0.1723290393     0.1549678445
| 26>  C        3.3041651173     0.9805037668     1.2585231346
| 27>  C        2.6462300219     1.8915112884     1.9697353547
| 28>  C        4.7549499559     0.7652334538     1.4882828420
| 29>  C        5.4445632339     1.0825444370     2.7457923578
| 30>  N        5.1376819092    -0.3347227741     2.4539718582
| 31>  H        2.2649045445    -1.8527291398    -0.4700945494
| 32>  H        2.2892314217    -1.6528895827     1.2767033577
| 33>  H        3.8042699027    -1.6993823532     0.3466745069
| 34>  H        1.6382465380     0.4721408435     0.0593742202
| 35>  H        3.1662744079     0.4442092220    -0.7914886582
| 36>  H        1.5931827252     2.0767781555     1.7933236147
| 37>  H        3.1221468430     2.5071321683     2.7243811072
| 38>  H        5.3792675462     0.7107567733     0.6003881807
| 39>  H        4.8824888220     1.4834139020     3.5785233963
| 40>  H        6.5010683781     1.3164496525     2.7312259901
| 41>  H        5.8986249903    -0.9634728275     2.2206789997
| 42>  H        4.3752163240    -0.7647246635     2.9673626258
| 43> *
| 44>
| 45>                          ****END OF INPUT****
 Total Charge           Charge          ....    1
 Multiplicity           Mult            ....    1
 Number of Electrons    NEL             ....   54
FINAL SINGLE POINT ENERGY      -290.070868187936
FINAL SINGLE POINT ENERGY      -290.070871282177
FINAL SINGLE POINT ENERGY      -290.070874168335
FINAL SINGLE POINT ENERGY      -290.070874833467

CARTESIAN COORDINATES (ANGSTROEM)
---------------------------------
  C      2.252976   -0.017322   -0.676618
  C      0.981763    0.282744   -1.464756
  C     -0.292982   -0.080371   -0.757737
  C     -1.188061   -0.938177   -1.239229
  C     -0.560034    0.633921    0.516097
  C     -1.460179    0.137330    1.565484
  N     -0.001333    0.016624    1.778855
  H      3.132117    0.228346   -1.273153
  H      2.321193   -1.077309   -0.417276
  H      2.326580    0.574329    0.240870
  H      1.005588   -0.248255   -2.417755
  H      0.953230    1.351362   -1.710510
  H     -1.016793   -1.444638   -2.181837
  H     -2.129301   -1.149042   -0.744782
  H     -0.372363    1.704268    0.514358
  H     -1.958080   -0.814555    1.438080
  H     -1.945502    0.840867    2.229373
  H      0.443565    0.609548    2.470956
  H      0.411049   -0.905759    1.683943

FINAL SINGLE POINT ENERGY      -290.070875133116
                    ***********************HURRAY********************
 Multiplicity           Mult            ....    1
 Number of Electrons    NEL             ....   54
 Basis Dimension        Dim             ....  289
FINAL SINGLE POINT ENERGY      -290.070875200659

VIBRATIONAL FREQUENCIES
-----------------------

   0:         0.00 cm**-1
   1:         0.00 cm**-1
   2:         0.00 cm**-1
   3:         0.00 cm**-1
   4:         0.00 cm**-1
   5:         0.00 cm**-1
   6:        61.88 cm**-1
   7:        83.20 cm**-1
   8:       181.52 cm**-1
   9:       235.23 cm**-1
  10:       278.07 cm**-1
  11:       311.10 cm**-1
  12:       396.55 cm**-1
  13:       489.05 cm**-1
  14:       614.21 cm**-1
  15:       706.02 cm**-1
  16:       751.22 cm**-1
  17:       779.71 cm**-1
  18:       797.22 cm**-1
  19:       878.70 cm**-1
  20:       889.10 cm**-1
  21:       911.44 cm**-1
  22:       962.27 cm**-1
  23:       999.64 cm**-1
  24:      1012.53 cm**-1
  25:      1029.39 cm**-1
  26:      1078.03 cm**-1
  27:      1091.23 cm**-1
  28:      1126.19 cm**-1
  29:      1160.22 cm**-1
  30:      1184.24 cm**-1
  31:      1243.87 cm**-1
  32:      1254.44 cm**-1
  33:      1282.17 cm**-1
  34:      1305.27 cm**-1
  35:      1352.47 cm**-1
  36:      1406.43 cm**-1
  37:      1432.45 cm**-1
  38:      1453.84 cm**-1
  39:      1475.68 cm**-1
  40:      1493.30 cm**-1
  41:      1497.00 cm**-1
  42:      1497.96 cm**-1
  43:      1624.52 cm**-1
  44:      1722.30 cm**-1
  45:      3041.47 cm**-1
  46:      3046.07 cm**-1
  47:      3104.51 cm**-1
  48:      3127.08 cm**-1
  49:      3143.58 cm**-1
  50:      3169.40 cm**-1
  51:      3173.46 cm**-1
  52:      3179.12 cm**-1
  53:      3256.62 cm**-1
  54:      3278.34 cm**-1
  55:      3506.45 cm**-1
  56:      3616.40 cm**-1

IR SPECTRUM
-----------

 Mode    freq (cm**-1)   T**2         TX         TY         TZ
-------------------------------------------------------------------
   6:        61.88    2.183129  ( -0.354705  -1.425419   0.159669)
   7:        83.20    3.018761  (  1.304677   0.382905  -1.081648)
   8:       181.52    6.026622  (  1.865520  -0.920257  -1.303682)
   9:       235.23    0.331303  (  0.046426   0.557216  -0.136591)
  10:       278.07    1.988422  (  0.399371  -0.375376  -1.299237)
  11:       311.10    0.721288  (  0.043946   0.021163  -0.847885)
  12:       396.55    2.997822  (  0.261150   0.699339  -1.562225)
  13:       489.05    1.057333  ( -0.522739   0.656317  -0.594412)
  14:       614.21    7.392254  ( -1.089269   2.364271  -0.784838)
  15:       706.02    2.364151  ( -0.957555   0.617921  -1.032189)
  16:       751.22    1.649760  ( -0.764126   0.456956  -0.925777)
  17:       779.71   25.837258  ( -2.887477  -0.338833  -4.169524)
  18:       797.22    0.805219  (  0.247025  -0.832368  -0.226629)
  19:       878.70    2.484991  (  1.083640  -0.589621  -0.981357)
  20:       889.10   14.283743  ( -2.946232  -0.370899  -2.337925)
  21:       911.44    2.755864  (  0.708872  -1.130067   0.988086)
  22:       962.27   25.053370  ( -1.229131   2.603376  -4.094514)
  23:       999.64   26.353610  ( -2.959769   3.947051  -1.419214)
  24:      1012.53  113.021278  ( -5.637891  -3.975133   8.089114)
  25:      1029.39    0.482502  (  0.335724  -0.030330   0.607348)
  26:      1078.03    1.557168  ( -0.595911  -1.060308   0.278937)
  27:      1091.23    3.497315  (  0.310562  -0.259652  -1.825773)
  28:      1126.19    7.661535  ( -1.358785   2.089463   1.203903)
  29:      1160.22    2.828751  ( -0.929899  -1.244540   0.644328)
  30:      1184.24    3.592463  (  0.286551   0.586807  -1.779328)
  31:      1243.87    3.054127  ( -0.356516   0.177264   1.701647)
  32:      1254.44    3.421321  ( -0.256286   1.816912   0.233383)
  33:      1282.17    5.078837  ( -1.364311   1.656294   0.688610)
  34:      1305.27    1.562705  (  0.263383  -0.221443   1.201789)
  35:      1352.47    0.929274  (  0.825317  -0.088170  -0.490257)
  36:      1406.43    3.396966  (  1.258954  -1.009451   0.890510)
  37:      1432.45    8.702993  ( -1.901186  -1.897509  -1.219812)
  38:      1453.84   14.809665  (  2.097266   3.114477   0.843311)
  39:      1475.68   21.605863  (  3.261563   0.829920   3.206135)
  40:      1493.30   14.605384  (  2.620031  -0.107515  -2.780155)
  41:      1497.00   10.757516  ( -1.027253  -3.108317   0.201572)
  42:      1497.96    7.137230  (  0.771666  -1.409267  -2.134415)
  43:      1624.52   59.630422  ( -5.135853   2.768808  -5.058373)
  44:      1722.30    5.419268  (  2.195233   0.585521  -0.507333)
  45:      3041.47    3.722133  (  0.352946   1.417099   1.260711)
  46:      3046.07   22.849804  (  1.659982  -1.094451   4.347004)
  47:      3104.51    8.532051  ( -0.491771   2.748474   0.857966)
  48:      3127.08   16.236404  ( -0.222911   3.061638   2.610189)
  49:      3143.58    6.530323  ( -1.370758  -0.913544   1.953659)
  50:      3169.40    1.527518  ( -0.763963   0.314761   0.919132)
  51:      3173.46    1.394831  (  0.079758   0.431434  -1.096510)
  52:      3179.12    1.792672  (  1.235221  -0.032205  -0.515620)
  53:      3256.62    1.152034  (  0.904726   0.540163  -0.204277)
  54:      3278.34    5.484259  ( -0.098965   2.090270   1.051302)
  55:      3506.45   90.995321  (  7.069923  -2.095692   6.051412)
  56:      3616.40  112.494832  (  0.238308   9.104506   5.435624)

--------------------------
THERMOCHEMISTRY AT 298.15K
--------------------------

Temperature         ... 298.15 K
Pressure            ... 1.00 atm
Total Mass          ... 98.17 AMU

Throughout the following assumptions are being made:
  (1) The electronic state is orbitally nondegenerate
  (2) There are no thermally accessible electronically excited states
  (3) Hindered rotations indicated by low frequency modes) are not
      treated as such but are treated as vibrations and this may
      case some error
  (4) All equations used are the standard statistical mechanics
      equations for an ideal gas
  (5) All vibrations are strinctly harmonic

------------
INNER ENERGY
------------

The inner energy is: U= E(el) + E(ZPE) + E(vib) + E(rot) + E(trans)
    E(el)   - is the total energy from the electronic structure calculation
              = E(kin-el) + E(nuc-el) + E(el-el) + E(nuc-nuc)
    E(ZPE)  - the the zero temperature vibrational energy from the frequency calculation
    E(vib)  - the the finite temperature correction to E(ZPE) due to population
              of excietd vibrational states
    E(rot)  - is the rotational thermal energy
    E(trans)- is the translational thermal energy

Summary of contributions to the inner energy U:
Electronic energy                ...   -290.07087520 Eh
Zero point energy                ...      0.17471759 Eh     109.64 kcal/mol
Thermal vibrational correction   ...      0.00512682 Eh       3.22 kcal/mol
Thermal rotational correction    ...      0.00141627 Eh       0.89 kcal/mol
Thermal translational correction ...      0.00141627 Eh       0.89 kcal/mol
-----------------------------------------------------------------------
Total thermal energy                   -289.88819825 Eh

Summary of corrections to the electronic energy:
(perhaps to be used in another calculation)
Total thermal correction                  0.00795937 Eh       4.99 kcal/mol
Non-thermal (ZPE) correction              0.17471759 Eh     109.64 kcal/mol
-----------------------------------------------------------------------
Total correction                          0.18267696 Eh     114.63 kcal/mol

--------
ENTHALPY
--------

The enthalpy is H = U + kB*T
                kB is Boltzmann's constant
Total free energy                 ...   -289.88819825 Eh
Thermal Enthalpy correction       ...      0.00094421 Eh       0.59 kcal/mol
-----------------------------------------------------------------------
Total Enthalpy                    ...   -289.88725404 Eh

-------
ENTROPY
-------

The entropy contributions are T*S = T*(S(el)+S(vib)+S(rot)+S(trans)
     S(el)   - electronic entropy
     S(vib)  - vibrational entropy
     S(rot)  - rotational entropy
     S(trans)- translational entropy
The entropies will be listed as mutliplied by the temperature to get
units of energy

Electronic entropy                ...      0.00000000 Eh      0.00 kcal/mol
Vibrational entropy               ...      0.00934893 Eh      5.87 kcal/mol
Rotational entropy                ...      0.01210722 Eh      7.60 kcal/mol
Translational entropy             ...      0.01884507 Eh     11.83 kcal/mol
-----------------------------------------------------------------------
Final entropy term                ...      0.04030121 Eh     25.29 kcal/mol

CAUTION: The rotational entropy is not quite correctly treated here
         because it includes a symmetry number that is not yet correctly
         implemented in ORCA!
For a nonlinear molecule the correct rotational entropy is:
    S(rot) = R*(ln(qrot/sn)+1.5)
    R    = 8.31441 J/mol/K = 1.987191683e-3 kcal/mol/K
    qrot = 248101.8220825
    sn is the rotational symmetry number. We have assumed 3 here
       if it is different for your molecule then you should correct
       the printed rotational entropy by manually evaluating the equation
       as given above

For convenience we print out the resulting values for sn=1 - 12:
 sn= 1  qrot/sn=  248101.8221 T*S(rot)=     8.25 kcal/mol T*S(tot)=    25.94 kcal/mol
 sn= 2  qrot/sn=  124050.9110 T*S(rot)=     7.84 kcal/mol T*S(tot)=    25.53 kcal/mol
 sn= 3  qrot/sn=   82700.6074 T*S(rot)=     7.60 kcal/mol T*S(tot)=    25.29 kcal/mol
 sn= 4  qrot/sn=   62025.4555 T*S(rot)=     7.43 kcal/mol T*S(tot)=    25.12 kcal/mol
 sn= 5  qrot/sn=   49620.3644 T*S(rot)=     7.29 kcal/mol T*S(tot)=    24.99 kcal/mol
 sn= 6  qrot/sn=   41350.3037 T*S(rot)=     7.19 kcal/mol T*S(tot)=    24.88 kcal/mol
 sn= 7  qrot/sn=   35443.1174 T*S(rot)=     7.10 kcal/mol T*S(tot)=    24.79 kcal/mol
 sn= 8  qrot/sn=   31012.7278 T*S(rot)=     7.02 kcal/mol T*S(tot)=    24.71 kcal/mol
 sn= 9  qrot/sn=   27566.8691 T*S(rot)=     6.95 kcal/mol T*S(tot)=    24.64 kcal/mol
 sn=10  qrot/sn=   24810.1822 T*S(rot)=     6.88 kcal/mol T*S(tot)=    24.58 kcal/mol
 sn=11  qrot/sn=   22554.7111 T*S(rot)=     6.83 kcal/mol T*S(tot)=    24.52 kcal/mol
 sn=12  qrot/sn=   20675.1518 T*S(rot)=     6.78 kcal/mol T*S(tot)=    24.47 kcal/mol

-------------------
GIBBS FREE ENTHALPY
-------------------

The Gibbs free enthalpy is G = H - T*S

Total enthalpy                    ...   -289.88725404 Eh
Total entropy correction          ...     -0.04030121 Eh    -25.29 kcal/mol
-----------------------------------------------------------------------
Final Gibbs free enthalpy         ...   -289.92755525 Eh

For completeness - the Gibbs free enthalpy minus the electronic energy
G-E(el)                           ...      0.14331995 Eh     89.93 kcal/mol

                             ****ORCA TERMINATED NORMALLY****
TOTAL RUN TIME: 0 days 0 hours 46 minutes 33 seconds 491 msec
