                         Program Version 3.0.3 - RELEASE   -
|  1> ! NORI PBE0 def2-TZVP UseSym TightOPT Freq TightSCF Grid3 FinalGrid5 XYZFile
|  2> % pal
|  3>     nprocs 8
|  4> end
|  5> %method
|  6>     SymThresh 5.0e-2
|  7> end
|  8> % geom
|  9>     MaxIter 10
| 10> end
| 11> % maxcore 2000
| 12> % output
| 13>     printlevel mini
| 14>     print[ P_Basis ] 0
| 15>     print[ P_SCFInfo ] 1
| 16>     print[ P_SCFIterInfo ] 1
| 17>     print[ P_OrbEn ] 0
| 18>     print[ P_Cartesian ] 0
| 19> end
| 20> % elprop
| 21>     Dipole false
| 22> end
| 23> *xyz 1 1
| 24>  C        3.0331981401    -1.6402285374     0.4418686074
| 25>  C        2.4681257699    -0.2717679173     0.7842613744
| 26>  C        3.2530579327     0.9203251580     0.2256206253
| 27>  C        2.5442701446     2.2387367570     0.5110828135
| 28>  C        4.6394423088     0.9298222511     0.8064548276
| 29>  C        5.7906201064     0.2868980971     0.1573064181
| 30>  N        5.6653101827     1.7636615207     0.0960531188
| 31>  H        2.3657406896    -2.4250604578     0.7994542009
| 32>  H        4.0070049348    -1.8232324707     0.9037162290
| 33>  H        3.1362722179    -1.7718349133    -0.6389615642
| 34>  H        1.4510945275    -0.1892890319     0.3920877275
| 35>  H        2.3775197623    -0.1583808438     1.8704769551
| 36>  H        3.3469859107     0.7830864970    -0.8616207054
| 37>  H        2.4221136714     2.3938841293     1.5860306321
| 38>  H        1.5502862162     2.2319958666     0.0633397039
| 39>  H        3.0780484998     3.1015235411     0.1030003731
| 40>  H        4.7064921001     1.0695272339     1.8820502247
| 41>  H        6.6294009139    -0.0599206517     0.7476796667
| 42>  H        5.6511431808    -0.1987834317    -0.8003033661
| 43>  H        5.3948118994     2.1793917376    -0.7887301515
| 44>  H        6.3090208905     2.3274254660     0.6393622893
| 45> *
| 46>
| 47>                          ****END OF INPUT****
 Total Charge           Charge          ....    1
 Multiplicity           Mult            ....    1
 Number of Electrons    NEL             ....   56
FINAL SINGLE POINT ENERGY      -291.302866119747
FINAL SINGLE POINT ENERGY      -291.302868159936

CARTESIAN COORDINATES (ANGSTROEM)
---------------------------------
  C      1.424982   -0.001501   -1.960199
  C     -0.076602   -0.075301   -1.740094
  C     -0.559238    0.379371   -0.358267
  C     -2.080334    0.384610   -0.271591
  C      0.027354   -0.513463    0.699114
  C      1.285924   -0.216570    1.397007
  N      0.002592    0.000733    2.108794
  H      1.669168   -0.256983   -2.991947
  H      1.978723   -0.698432   -1.325304
  H      1.808157    1.006492   -1.778203
  H     -0.584786    0.555325   -2.474327
  H     -0.437963   -1.093758   -1.922714
  H     -0.179264    1.397169   -0.185325
  H     -2.487583   -0.612393   -0.458622
  H     -2.495011    1.056583   -1.023854
  H     -2.446297    0.721975    0.702189
  H     -0.271663   -1.557356    0.663939
  H      1.886721   -1.017975    1.807430
  H      1.811814    0.700890    1.164763
  H     -0.305160    0.957168    2.248926
  H     -0.245701   -0.629172    2.862978

FINAL SINGLE POINT ENERGY      -291.302868872347
                    ***********************HURRAY********************
 Multiplicity           Mult            ....    1
 Number of Electrons    NEL             ....   56
 Basis Dimension        Dim             ....  301
FINAL SINGLE POINT ENERGY      -291.302869050021

VIBRATIONAL FREQUENCIES
-----------------------

   0:         0.00 cm**-1
   1:         0.00 cm**-1
   2:         0.00 cm**-1
   3:         0.00 cm**-1
   4:         0.00 cm**-1
   5:         0.00 cm**-1
   6:        84.21 cm**-1
   7:       105.11 cm**-1
   8:       182.19 cm**-1
   9:       217.33 cm**-1
  10:       232.97 cm**-1
  11:       255.11 cm**-1
  12:       305.53 cm**-1
  13:       370.81 cm**-1
  14:       440.91 cm**-1
  15:       508.03 cm**-1
  16:       738.82 cm**-1
  17:       801.55 cm**-1
  18:       818.67 cm**-1
  19:       858.03 cm**-1
  20:       882.25 cm**-1
  21:       907.91 cm**-1
  22:       950.53 cm**-1
  23:       972.53 cm**-1
  24:      1013.76 cm**-1
  25:      1018.46 cm**-1
  26:      1046.28 cm**-1
  27:      1056.79 cm**-1
  28:      1134.01 cm**-1
  29:      1156.58 cm**-1
  30:      1182.09 cm**-1
  31:      1185.94 cm**-1
  32:      1225.54 cm**-1
  33:      1248.30 cm**-1
  34:      1275.22 cm**-1
  35:      1291.01 cm**-1
  36:      1316.28 cm**-1
  37:      1344.17 cm**-1
  38:      1375.41 cm**-1
  39:      1415.22 cm**-1
  40:      1417.51 cm**-1
  41:      1438.00 cm**-1
  42:      1476.78 cm**-1
  43:      1487.42 cm**-1
  44:      1493.70 cm**-1
  45:      1494.14 cm**-1
  46:      1496.64 cm**-1
  47:      1501.14 cm**-1
  48:      1630.55 cm**-1
  49:      3008.11 cm**-1
  50:      3046.79 cm**-1
  51:      3050.85 cm**-1
  52:      3052.75 cm**-1
  53:      3094.80 cm**-1
  54:      3120.42 cm**-1
  55:      3120.95 cm**-1
  56:      3141.35 cm**-1
  57:      3146.80 cm**-1
  58:      3171.77 cm**-1
  59:      3178.57 cm**-1
  60:      3272.99 cm**-1
  61:      3515.39 cm**-1
  62:      3620.86 cm**-1

IR SPECTRUM
-----------

 Mode    freq (cm**-1)   T**2         TX         TY         TZ
-------------------------------------------------------------------
   6:        84.21    1.059603  ( -0.683640  -0.767387  -0.057927)
   7:       105.11    1.866937  (  1.004025   0.481586  -0.791799)
   8:       182.19    1.961347  (  0.824888  -1.048195  -0.426841)
   9:       217.33    0.050259  (  0.169996   0.109704   0.096568)
  10:       232.97    1.673717  (  0.504442  -0.219648   1.170901)
  11:       255.11    3.160049  (  0.751859  -0.364934   1.568943)
  12:       305.53    0.009218  ( -0.092295   0.014360  -0.022224)
  13:       370.81    0.981549  (  0.393735   0.171146   0.892877)
  14:       440.91    2.773867  ( -0.828065  -0.346927  -1.402789)
  15:       508.03    0.369927  (  0.477249  -0.375854   0.029899)
  16:       738.82    1.088685  ( -0.056638  -1.010147   0.255110)
  17:       801.55    9.739159  (  0.458122   0.825443  -2.974547)
  18:       818.67   10.093295  ( -1.636067   0.444841   2.686763)
  19:       858.03    5.205621  (  1.562022  -1.008071  -1.322688)
  20:       882.25    4.973497  ( -0.271750  -0.810961   2.059609)
  21:       907.91    3.339946  (  0.312304   0.707144   1.656007)
  22:       950.53   27.528940  ( -0.433140   1.497522   5.009866)
  23:       972.53    4.132814  ( -0.093651   1.733696   1.057516)
  24:      1013.76   42.302713  ( -5.663672  -2.441818  -2.064716)
  25:      1018.46   60.919596  (  5.541845   0.654753   5.457000)
  26:      1046.28    2.878421  ( -1.411223   0.794049  -0.506315)
  27:      1056.79    1.315169  ( -1.043858  -0.048462  -0.472419)
  28:      1134.01    0.268127  (  0.492809   0.127082  -0.095484)
  29:      1156.58    1.828128  (  0.255456   1.211574   0.543101)
  30:      1182.09    1.365986  (  0.314981   0.770596   0.820339)
  31:      1185.94    1.423037  ( -0.540214  -0.316725  -1.015328)
  32:      1225.54    0.013966  ( -0.099611  -0.056773  -0.028651)
  33:      1248.30    3.170958  ( -0.563648   1.251463  -1.134504)
  34:      1275.22    1.974310  (  0.448697  -0.888141  -0.992062)
  35:      1291.01    1.132227  ( -0.382943   0.403980  -0.906853)
  36:      1316.28    0.839439  ( -0.000087  -0.072147  -0.913364)
  37:      1344.17    7.392780  ( -0.964710  -0.453270  -2.501332)
  38:      1375.41    1.909867  (  0.742188   0.595295  -1.002321)
  39:      1415.22    3.970581  (  1.826149   0.442952  -0.662989)
  40:      1417.51    9.400857  ( -3.032901  -0.388543   0.226722)
  41:      1438.00    1.580248  (  0.808323   0.546370   0.792680)
  42:      1476.78    3.937970  (  1.543377   0.812085  -0.946823)
  43:      1487.42   10.049542  ( -0.620110  -3.037303  -0.663171)
  44:      1493.70    8.370320  (  1.829855  -0.791426  -2.096568)
  45:      1494.14    3.773625  ( -0.451327  -1.889366   0.015022)
  46:      1496.64   15.900568  (  1.646855  -3.011606   2.029450)
  47:      1501.14   15.932578  (  1.947401   2.209844   2.693844)
  48:      1630.55   63.580540  (  2.883499  -2.936673  -6.829489)
  49:      3008.11    9.964904  ( -1.555314  -2.349389  -1.423472)
  50:      3046.79    3.755493  ( -1.626488   1.053579  -0.000866)
  51:      3050.85    8.911855  ( -0.227700   0.340025   2.957092)
  52:      3052.75   30.181002  ( -5.057586  -1.909894  -0.976798)
  53:      3094.80    0.197713  ( -0.393485  -0.181152   0.100332)
  54:      3120.42   14.140619  ( -0.020354  -0.526474  -3.723309)
  55:      3120.95   29.268421  ( -0.866163   5.319746  -0.467425)
  56:      3141.35    8.599859  ( -0.349433  -0.730768  -2.818463)
  57:      3146.80    4.920078  ( -0.171675  -1.555934   1.571520)
  58:      3171.77    2.061168  ( -1.407506   0.135613  -0.248403)
  59:      3178.57    0.133392  (  0.032638  -0.220651  -0.289206)
  60:      3272.99    4.513645  (  0.025391  -2.038519   0.597864)
  61:      3515.39  105.644779  (  4.389872  -2.438599  -8.968112)
  62:      3620.86  119.391468  (  0.116800  -9.666789   5.092250)

--------------------------
THERMOCHEMISTRY AT 298.15K
--------------------------

Temperature         ... 298.15 K
Pressure            ... 1.00 atm
Total Mass          ... 100.18 AMU

Throughout the following assumptions are being made:
  (1) The electronic state is orbitally nondegenerate
  (2) There are no thermally accessible electronically excited states
  (3) Hindered rotations indicated by low frequency modes) are not
      treated as such but are treated as vibrations and this may
      case some error
  (4) All equations used are the standard statistical mechanics
      equations for an ideal gas
  (5) All vibrations are strinctly harmonic

------------
INNER ENERGY
------------

The inner energy is: U= E(el) + E(ZPE) + E(vib) + E(rot) + E(trans)
    E(el)   - is the total energy from the electronic structure calculation
              = E(kin-el) + E(nuc-el) + E(el-el) + E(nuc-nuc)
    E(ZPE)  - the the zero temperature vibrational energy from the frequency calculation
    E(vib)  - the the finite temperature correction to E(ZPE) due to population
              of excietd vibrational states
    E(rot)  - is the rotational thermal energy
    E(trans)- is the translational thermal energy

Summary of contributions to the inner energy U:
Electronic energy                ...   -291.30286905 Eh
Zero point energy                ...      0.19796327 Eh     124.22 kcal/mol
Thermal vibrational correction   ...      0.00569564 Eh       3.57 kcal/mol
Thermal rotational correction    ...      0.00141627 Eh       0.89 kcal/mol
Thermal translational correction ...      0.00141627 Eh       0.89 kcal/mol
-----------------------------------------------------------------------
Total thermal energy                   -291.09637759 Eh

Summary of corrections to the electronic energy:
(perhaps to be used in another calculation)
Total thermal correction                  0.00852818 Eh       5.35 kcal/mol
Non-thermal (ZPE) correction              0.19796327 Eh     124.22 kcal/mol
-----------------------------------------------------------------------
Total correction                          0.20649146 Eh     129.58 kcal/mol

--------
ENTHALPY
--------

The enthalpy is H = U + kB*T
                kB is Boltzmann's constant
Total free energy                 ...   -291.09637759 Eh
Thermal Enthalpy correction       ...      0.00094421 Eh       0.59 kcal/mol
-----------------------------------------------------------------------
Total Enthalpy                    ...   -291.09543339 Eh

-------
ENTROPY
-------

The entropy contributions are T*S = T*(S(el)+S(vib)+S(rot)+S(trans)
     S(el)   - electronic entropy
     S(vib)  - vibrational entropy
     S(rot)  - rotational entropy
     S(trans)- translational entropy
The entropies will be listed as mutliplied by the temperature to get
units of energy

Electronic entropy                ...      0.00000000 Eh      0.00 kcal/mol
Vibrational entropy               ...      0.01001953 Eh      6.29 kcal/mol
Rotational entropy                ...      0.01221693 Eh      7.67 kcal/mol
Translational entropy             ...      0.01887386 Eh     11.84 kcal/mol
-----------------------------------------------------------------------
Final entropy term                ...      0.04111033 Eh     25.80 kcal/mol

CAUTION: The rotational entropy is not quite correctly treated here
         because it includes a symmetry number that is not yet correctly
         implemented in ORCA!
For a nonlinear molecule the correct rotational entropy is:
    S(rot) = R*(ln(qrot/sn)+1.5)
    R    = 8.31441 J/mol/K = 1.987191683e-3 kcal/mol/K
    qrot = 278674.3955677
    sn is the rotational symmetry number. We have assumed 3 here
       if it is different for your molecule then you should correct
       the printed rotational entropy by manually evaluating the equation
       as given above

For convenience we print out the resulting values for sn=1 - 12:
 sn= 1  qrot/sn=  278674.3956 T*S(rot)=     8.32 kcal/mol T*S(tot)=    26.45 kcal/mol
 sn= 2  qrot/sn=  139337.1978 T*S(rot)=     7.91 kcal/mol T*S(tot)=    26.04 kcal/mol
 sn= 3  qrot/sn=   92891.4652 T*S(rot)=     7.67 kcal/mol T*S(tot)=    25.80 kcal/mol
 sn= 4  qrot/sn=   69668.5989 T*S(rot)=     7.50 kcal/mol T*S(tot)=    25.63 kcal/mol
 sn= 5  qrot/sn=   55734.8791 T*S(rot)=     7.36 kcal/mol T*S(tot)=    25.49 kcal/mol
 sn= 6  qrot/sn=   46445.7326 T*S(rot)=     7.26 kcal/mol T*S(tot)=    25.39 kcal/mol
 sn= 7  qrot/sn=   39810.6279 T*S(rot)=     7.16 kcal/mol T*S(tot)=    25.30 kcal/mol
 sn= 8  qrot/sn=   34834.2994 T*S(rot)=     7.09 kcal/mol T*S(tot)=    25.22 kcal/mol
 sn= 9  qrot/sn=   30963.8217 T*S(rot)=     7.02 kcal/mol T*S(tot)=    25.15 kcal/mol
 sn=10  qrot/sn=   27867.4396 T*S(rot)=     6.95 kcal/mol T*S(tot)=    25.08 kcal/mol
 sn=11  qrot/sn=   25334.0360 T*S(rot)=     6.90 kcal/mol T*S(tot)=    25.03 kcal/mol
 sn=12  qrot/sn=   23222.8663 T*S(rot)=     6.84 kcal/mol T*S(tot)=    24.98 kcal/mol

-------------------
GIBBS FREE ENTHALPY
-------------------

The Gibbs free enthalpy is G = H - T*S

Total enthalpy                    ...   -291.09543339 Eh
Total entropy correction          ...     -0.04111033 Eh    -25.80 kcal/mol
-----------------------------------------------------------------------
Final Gibbs free enthalpy         ...   -291.13654371 Eh

For completeness - the Gibbs free enthalpy minus the electronic energy
G-E(el)                           ...      0.16632534 Eh    104.37 kcal/mol

                             ****ORCA TERMINATED NORMALLY****
TOTAL RUN TIME: 0 days 0 hours 49 minutes 3 seconds 997 msec
