                         Program Version 3.0.3 - RELEASE   -
|  1> ! NORI PBE0 def2-TZVP UseSym TightOPT Freq TightSCF Grid3 FinalGrid5 XYZFile
|  2> % pal
|  3>     nprocs 8
|  4> end
|  5> %method
|  6>     SymThresh 5.0e-2
|  7> end
|  8> % geom
|  9>     MaxIter 10
| 10> end
| 11> % maxcore 2000
| 12> % output
| 13>     printlevel mini
| 14>     print[ P_Basis ] 0
| 15>     print[ P_SCFInfo ] 1
| 16>     print[ P_SCFIterInfo ] 1
| 17>     print[ P_OrbEn ] 0
| 18>     print[ P_Cartesian ] 0
| 19> end
| 20> % elprop
| 21>     Dipole false
| 22> end
| 23> *xyz 1 1
| 24>  C        1.2802646575     0.5063533525    -0.4900234159
| 25>  C        2.2010970084    -0.2282658734     0.4836838847
| 26>  C        2.7395580859    -1.4596458434    -0.0552958893
| 27>  C        3.1795224751    -2.4809319709    -0.5193135674
| 28>  C        3.7433084101    -3.6494527874    -1.0950984586
| 29>  C        4.5845312618    -4.5803541713    -0.3135258363
| 30>  N        3.1904409094    -4.9783106001    -0.6041064180
| 31>  H        0.9178716938     1.4237869060    -0.0264845666
| 32>  H        0.4182863286    -0.1066694523    -0.7546376093
| 33>  H        1.8093717407     0.7726480252    -1.4052627260
| 34>  H        3.0442684984     0.4088290815     0.7719810387
| 35>  H        1.6707169882    -0.4662820898     1.4119850761
| 36>  H        3.8772519636    -3.6637973401    -2.1731869612
| 37>  H        5.3282919890    -5.1793485857    -0.8225285899
| 38>  H        4.7694708188    -4.3593629141     0.7292816167
| 39>  H        3.0224580554    -5.7173486480    -1.2784563115
| 40>  H        2.5137791152    -4.9275470887     0.1504887338
| 41> *
| 42>
| 43>                          ****END OF INPUT****
 Total Charge           Charge          ....    1
 Multiplicity           Mult            ....    1
 Number of Electrons    NEL             ....   52
FINAL SINGLE POINT ENERGY      -288.823153481106
FINAL SINGLE POINT ENERGY      -288.823154336775
FINAL SINGLE POINT ENERGY      -288.823155459962
FINAL SINGLE POINT ENERGY      -288.823156828423
FINAL SINGLE POINT ENERGY      -288.823158293953
FINAL SINGLE POINT ENERGY      -288.823160502977
FINAL SINGLE POINT ENERGY      -288.823162378473
FINAL SINGLE POINT ENERGY      -288.823163828211
FINAL SINGLE POINT ENERGY      -288.823164620971

CARTESIAN COORDINATES (ANGSTROEM)
---------------------------------
  C      1.416295    0.046584   -3.096900
  C      0.434433   -0.819935   -2.308948
  C      0.136064   -0.290744   -0.994459
  C     -0.103683    0.170434    0.092529
  C     -0.412641    0.754485    1.348840
  C     -1.463117    0.204709    2.231900
  N     -0.051000   -0.061853    2.579545
  H      1.595295   -0.402866   -4.073856
  H      2.371631    0.129507   -2.577743
  H      1.017765    1.049839   -3.250478
  H     -0.509631   -0.926635   -2.853883
  H      0.830193   -1.833908   -2.185282
  H     -0.156926    1.800361    1.492673
  H     -1.970889    0.861229    2.926576
  H     -2.007471   -0.671380    1.905207
  H      0.354399    0.412266    3.379385
  H      0.314577   -0.992245    2.404841

FINAL SINGLE POINT ENERGY      -288.823164880452
                    ***********************HURRAY********************
 Multiplicity           Mult            ....    1
 Number of Electrons    NEL             ....   52
 Basis Dimension        Dim             ....  277
FINAL SINGLE POINT ENERGY      -288.823165045999

VIBRATIONAL FREQUENCIES
-----------------------

   0:         0.00 cm**-1
   1:         0.00 cm**-1
   2:         0.00 cm**-1
   3:         0.00 cm**-1
   4:         0.00 cm**-1
   5:         0.00 cm**-1
   6:         8.14 cm**-1
   7:        98.84 cm**-1
   8:       116.25 cm**-1
   9:       190.46 cm**-1
  10:       218.73 cm**-1
  11:       357.11 cm**-1
  12:       463.58 cm**-1
  13:       493.26 cm**-1
  14:       533.06 cm**-1
  15:       684.60 cm**-1
  16:       733.48 cm**-1
  17:       777.57 cm**-1
  18:       862.08 cm**-1
  19:       884.71 cm**-1
  20:       924.81 cm**-1
  21:       973.49 cm**-1
  22:      1012.87 cm**-1
  23:      1061.89 cm**-1
  24:      1084.38 cm**-1
  25:      1097.13 cm**-1
  26:      1147.47 cm**-1
  27:      1171.04 cm**-1
  28:      1211.02 cm**-1
  29:      1252.48 cm**-1
  30:      1264.47 cm**-1
  31:      1279.64 cm**-1
  32:      1339.62 cm**-1
  33:      1411.14 cm**-1
  34:      1426.54 cm**-1
  35:      1448.64 cm**-1
  36:      1488.46 cm**-1
  37:      1489.57 cm**-1
  38:      1495.67 cm**-1
  39:      1620.81 cm**-1
  40:      2358.50 cm**-1
  41:      3052.37 cm**-1
  42:      3072.21 cm**-1
  43:      3087.83 cm**-1
  44:      3155.02 cm**-1
  45:      3157.80 cm**-1
  46:      3175.91 cm**-1
  47:      3176.80 cm**-1
  48:      3282.18 cm**-1
  49:      3506.63 cm**-1
  50:      3618.58 cm**-1

IR SPECTRUM
-----------

 Mode    freq (cm**-1)   T**2         TX         TY         TZ
-------------------------------------------------------------------
   7:        98.84    6.394800  ( -1.202996  -2.209698   0.254631)
   8:       116.25    9.395837  (  2.418181  -1.858183  -0.308858)
   9:       190.46    1.036223  (  0.375297   0.273040   0.905993)
  10:       218.73    0.369379  (  0.491407  -0.266186  -0.238836)
  11:       357.11    3.691145  ( -1.101419   0.902999  -1.289424)
  12:       463.58   10.446793  ( -1.545021  -2.178211   1.820741)
  13:       493.26    2.415882  (  1.412203  -0.273872   0.588692)
  14:       533.06    0.474507  ( -0.457379   0.497353  -0.133985)
  15:       684.60    1.418812  (  0.206200  -0.998496   0.615874)
  16:       733.48   65.060606  (  0.968109  -0.215511   8.004806)
  17:       777.57    4.642038  ( -1.590912   1.086636  -0.964500)
  18:       862.08    5.113224  (  1.824673  -0.901269  -0.985651)
  19:       884.71    7.531092  ( -1.239727   0.203604  -2.439819)
  20:       924.81   20.137199  ( -0.854350   2.945160  -3.276175)
  21:       973.49    7.027812  (  0.278624  -1.213198   2.340584)
  22:      1012.87   87.819862  (  7.001323   3.551046  -5.117755)
  23:      1061.89   12.112844  ( -0.073414   1.650364   3.063291)
  24:      1084.38    3.384570  (  0.121594  -0.651596  -1.716161)
  25:      1097.13    0.352828  ( -0.564733   0.163247  -0.085183)
  26:      1147.47    2.527646  (  0.777035  -1.102365  -0.841816)
  27:      1171.04    1.666615  ( -0.658107  -0.366402   1.048456)
  28:      1211.02    3.302226  ( -0.846110   1.554640  -0.411604)
  29:      1252.48    1.566514  ( -0.379919   0.430751   1.112038)
  30:      1264.47    6.805479  ( -1.081135   2.238136   0.792067)
  31:      1279.64    0.034943  ( -0.172473   0.029902   0.065592)
  32:      1339.62    2.339580  ( -0.114919  -0.890134  -1.238562)
  33:      1411.14    1.526881  (  0.768392   0.926922  -0.277978)
  34:      1426.54   66.209943  (  0.866090  -2.931046  -7.541141)
  35:      1448.64    9.753572  ( -1.749445  -2.573895   0.260918)
  36:      1488.46   24.035488  ( -3.456860   0.091445   3.475233)
  37:      1489.57   11.962637  ( -2.569359   1.950050  -1.248333)
  38:      1495.67    4.137177  ( -1.035569  -1.416634  -1.028553)
  39:      1620.81   73.462474  (  4.342059  -3.326731   6.598626)
  40:      2358.50  252.394844  (  3.701993  -4.047703 -14.909936)
  41:      3052.37    2.502490  ( -0.788204  -0.577273   1.244178)
  42:      3072.21   11.518701  (  2.164129   1.474694  -2.158825)
  43:      3087.83    0.066063  (  0.192012  -0.146905   0.087252)
  44:      3155.02    8.482988  (  2.281626  -1.272938   1.287167)
  45:      3157.80    5.457486  ( -0.131361  -1.773616  -1.514766)
  46:      3175.91    9.024545  ( -2.119987  -0.974934   1.892010)
  47:      3176.80    2.734096  ( -0.100415   1.031732  -1.288233)
  48:      3282.18    7.393762  ( -0.446896  -2.378203  -1.240242)
  49:      3506.63  119.645946  (  6.162892  -3.652769   8.265712)
  50:      3618.58  130.310511  (  0.294450   9.216525   6.729003)

--------------------------
THERMOCHEMISTRY AT 298.15K
--------------------------

Temperature         ... 298.15 K
Pressure            ... 1.00 atm
Total Mass          ... 96.15 AMU

Throughout the following assumptions are being made:
  (1) The electronic state is orbitally nondegenerate
  (2) There are no thermally accessible electronically excited states
  (3) Hindered rotations indicated by low frequency modes) are not
      treated as such but are treated as vibrations and this may
      case some error
  (4) All equations used are the standard statistical mechanics
      equations for an ideal gas
  (5) All vibrations are strinctly harmonic

------------
INNER ENERGY
------------

The inner energy is: U= E(el) + E(ZPE) + E(vib) + E(rot) + E(trans)
    E(el)   - is the total energy from the electronic structure calculation
              = E(kin-el) + E(nuc-el) + E(el-el) + E(nuc-nuc)
    E(ZPE)  - the the zero temperature vibrational energy from the frequency calculation
    E(vib)  - the the finite temperature correction to E(ZPE) due to population
              of excietd vibrational states
    E(rot)  - is the rotational thermal energy
    E(trans)- is the translational thermal energy

Summary of contributions to the inner energy U:
Electronic energy                ...   -288.82316505 Eh
Zero point energy                ...      0.15094846 Eh      94.72 kcal/mol
Thermal vibrational correction   ...      0.00435588 Eh       2.73 kcal/mol
Thermal rotational correction    ...      0.00141627 Eh       0.89 kcal/mol
Thermal translational correction ...      0.00141627 Eh       0.89 kcal/mol
-----------------------------------------------------------------------
Total thermal energy                   -288.66502817 Eh

Summary of corrections to the electronic energy:
(perhaps to be used in another calculation)
Total thermal correction                  0.00718842 Eh       4.51 kcal/mol
Non-thermal (ZPE) correction              0.15094846 Eh      94.72 kcal/mol
-----------------------------------------------------------------------
Total correction                          0.15813688 Eh      99.23 kcal/mol

--------
ENTHALPY
--------

The enthalpy is H = U + kB*T
                kB is Boltzmann's constant
Total free energy                 ...   -288.66502817 Eh
Thermal Enthalpy correction       ...      0.00094421 Eh       0.59 kcal/mol
-----------------------------------------------------------------------
Total Enthalpy                    ...   -288.66408396 Eh

-------
ENTROPY
-------

The entropy contributions are T*S = T*(S(el)+S(vib)+S(rot)+S(trans)
     S(el)   - electronic entropy
     S(vib)  - vibrational entropy
     S(rot)  - rotational entropy
     S(trans)- translational entropy
The entropies will be listed as mutliplied by the temperature to get
units of energy

Electronic entropy                ...      0.00000000 Eh      0.00 kcal/mol
Vibrational entropy               ...      0.00759155 Eh      4.76 kcal/mol
Rotational entropy                ...      0.01222512 Eh      7.67 kcal/mol
Translational entropy             ...      0.01881568 Eh     11.81 kcal/mol
-----------------------------------------------------------------------
Final entropy term                ...      0.03863235 Eh     24.24 kcal/mol

CAUTION: The rotational entropy is not quite correctly treated here
         because it includes a symmetry number that is not yet correctly
         implemented in ORCA!
For a nonlinear molecule the correct rotational entropy is:
    S(rot) = R*(ln(qrot/sn)+1.5)
    R    = 8.31441 J/mol/K = 1.987191683e-3 kcal/mol/K
    qrot = 281101.9466127
    sn is the rotational symmetry number. We have assumed 3 here
       if it is different for your molecule then you should correct
       the printed rotational entropy by manually evaluating the equation
       as given above

For convenience we print out the resulting values for sn=1 - 12:
 sn= 1  qrot/sn=  281101.9466 T*S(rot)=     8.32 kcal/mol T*S(tot)=    24.89 kcal/mol
 sn= 2  qrot/sn=  140550.9733 T*S(rot)=     7.91 kcal/mol T*S(tot)=    24.48 kcal/mol
 sn= 3  qrot/sn=   93700.6489 T*S(rot)=     7.67 kcal/mol T*S(tot)=    24.24 kcal/mol
 sn= 4  qrot/sn=   70275.4867 T*S(rot)=     7.50 kcal/mol T*S(tot)=    24.07 kcal/mol
 sn= 5  qrot/sn=   56220.3893 T*S(rot)=     7.37 kcal/mol T*S(tot)=    23.94 kcal/mol
 sn= 6  qrot/sn=   46850.3244 T*S(rot)=     7.26 kcal/mol T*S(tot)=    23.83 kcal/mol
 sn= 7  qrot/sn=   40157.4209 T*S(rot)=     7.17 kcal/mol T*S(tot)=    23.74 kcal/mol
 sn= 8  qrot/sn=   35137.7433 T*S(rot)=     7.09 kcal/mol T*S(tot)=    23.66 kcal/mol
 sn= 9  qrot/sn=   31233.5496 T*S(rot)=     7.02 kcal/mol T*S(tot)=    23.59 kcal/mol
 sn=10  qrot/sn=   28110.1947 T*S(rot)=     6.96 kcal/mol T*S(tot)=    23.53 kcal/mol
 sn=11  qrot/sn=   25554.7224 T*S(rot)=     6.90 kcal/mol T*S(tot)=    23.47 kcal/mol
 sn=12  qrot/sn=   23425.1622 T*S(rot)=     6.85 kcal/mol T*S(tot)=    23.42 kcal/mol

-------------------
GIBBS FREE ENTHALPY
-------------------

The Gibbs free enthalpy is G = H - T*S

Total enthalpy                    ...   -288.66408396 Eh
Total entropy correction          ...     -0.03863235 Eh    -24.24 kcal/mol
-----------------------------------------------------------------------
Final Gibbs free enthalpy         ...   -288.70271631 Eh

For completeness - the Gibbs free enthalpy minus the electronic energy
G-E(el)                           ...      0.12044874 Eh     75.58 kcal/mol

                             ****ORCA TERMINATED NORMALLY****
TOTAL RUN TIME: 0 days 0 hours 39 minutes 15 seconds 272 msec
