                         Program Version 3.0.3 - RELEASE   -
|  1> ! NORI PBE0 def2-TZVP UseSym TightOPT Freq TightSCF Grid3 FinalGrid5 XYZFile
|  2> % pal
|  3>     nprocs 8
|  4> end
|  5> %method
|  6>     SymThresh 5.0e-2
|  7> end
|  8> % geom
|  9>     MaxIter 10
| 10> end
| 11> % maxcore 2000
| 12> % output
| 13>     printlevel mini
| 14>     print[ P_Basis ] 0
| 15>     print[ P_SCFInfo ] 1
| 16>     print[ P_SCFIterInfo ] 1
| 17>     print[ P_OrbEn ] 0
| 18>     print[ P_Cartesian ] 0
| 19> end
| 20> % elprop
| 21>     Dipole false
| 22> end
| 23> *xyz 1 1
| 24>  C        3.0999458808     0.8054930174    -0.4040178757
| 25>  C        2.2669280548    -0.4230177392    -0.0759760386
| 26>  C        2.3890339142    -0.9008420745     1.3658231232
| 27>  C        3.7783838335    -1.4029708555     1.7407137725
| 28>  C        3.8431157120    -1.8957226691     3.1809972001
| 29>  C        5.1607902397    -2.5292413244     3.5658153754
| 30>  N        6.2868481715    -1.5338873105     3.4304804704
| 31>  H        2.9059999489     1.1452507496    -1.4226271701
| 32>  H        4.1747167783     0.6130143415    -0.3355085334
| 33>  H        2.8631759493     1.6354214125     0.2682142252
| 34>  H        2.5293716413    -1.2433524802    -0.7536572164
| 35>  H        1.2135849221    -0.2019482697    -0.2698571853
| 36>  H        1.6713588476    -1.7093772651     1.5408864714
| 37>  H        2.1063949862    -0.0870636553     2.0449226561
| 38>  H        4.4947019145    -0.5857869362     1.5744593052
| 39>  H        4.0645151176    -2.2157722887     1.0607223780
| 40>  H        3.0769034121    -2.6600672374     3.3424028394
| 41>  H        3.6017714870    -1.0840862465     3.8781517110
| 42>  H        5.4187298620    -3.3644914915     2.9129066984
| 43>  H        5.1765296277    -2.8729310305     4.6002597274
| 44>  H        6.3205458830    -1.1705168834     2.4750664303
| 45>  H        7.1945765061    -1.9477659793     3.6489234542
| 46>  H        6.1444873099    -0.7366477839     4.0541481815
| 47> *
| 48>
| 49>                          ****END OF INPUT****
 Total Charge           Charge          ....    1
 Multiplicity           Mult            ....    1
 Number of Electrons    NEL             ....   58
FINAL SINGLE POINT ENERGY      -292.537632643819

CARTESIAN COORDINATES (ANGSTROEM)
---------------------------------
  C      2.180138   -0.000329   -2.164854
  C      0.728842   -0.307844   -2.497281
  C     -0.282511    0.314241   -1.542345
  C     -0.208193   -0.223992   -0.118346
  C     -1.256719    0.405142    0.790569
  C     -1.316192   -0.188445    2.179739
  N      0.000024    0.000365    2.893762
  H      2.847089   -0.403119   -2.928752
  H      2.492634   -0.437133   -1.212034
  H      2.354666    1.078302   -2.114046
  H      0.575940   -1.392457   -2.531467
  H      0.509009    0.055779   -3.504718
  H     -1.294224    0.140678   -1.924091
  H     -0.144047    1.401946   -1.522630
  H      0.804972   -0.037977    0.266102
  H     -0.343268   -1.313049   -0.136098
  H     -2.250816    0.266600    0.355320
  H     -1.111568    1.490314    0.854521
  H     -1.493419   -1.264921    2.156979
  H     -2.075917    0.280328    2.805743
  H      0.757613   -0.418209    2.348761
  H     -0.001241   -0.425637    3.821921
  H      0.215861    0.993693    3.001921

FINAL SINGLE POINT ENERGY      -292.537633329672
                    ***********************HURRAY********************
 Multiplicity           Mult            ....    1
 Number of Electrons    NEL             ....   58
 Basis Dimension        Dim             ....  313
FINAL SINGLE POINT ENERGY      -292.537633542143

VIBRATIONAL FREQUENCIES
-----------------------

   0:         0.00 cm**-1
   1:         0.00 cm**-1
   2:         0.00 cm**-1
   3:         0.00 cm**-1
   4:         0.00 cm**-1
   5:         0.00 cm**-1
   6:        45.60 cm**-1
   7:        76.14 cm**-1
   8:       109.72 cm**-1
   9:       144.42 cm**-1
  10:       166.32 cm**-1
  11:       216.86 cm**-1
  12:       259.27 cm**-1
  13:       301.18 cm**-1
  14:       322.73 cm**-1
  15:       456.58 cm**-1
  16:       468.38 cm**-1
  17:       728.13 cm**-1
  18:       767.55 cm**-1
  19:       799.92 cm**-1
  20:       839.85 cm**-1
  21:       878.17 cm**-1
  22:       896.53 cm**-1
  23:       951.09 cm**-1
  24:       977.01 cm**-1
  25:       999.87 cm**-1
  26:      1036.40 cm**-1
  27:      1059.84 cm**-1
  28:      1088.52 cm**-1
  29:      1108.05 cm**-1
  30:      1156.93 cm**-1
  31:      1192.88 cm**-1
  32:      1239.66 cm**-1
  33:      1271.60 cm**-1
  34:      1309.48 cm**-1
  35:      1320.60 cm**-1
  36:      1341.73 cm**-1
  37:      1350.59 cm**-1
  38:      1380.40 cm**-1
  39:      1385.53 cm**-1
  40:      1402.85 cm**-1
  41:      1413.13 cm**-1
  42:      1413.15 cm**-1
  43:      1469.41 cm**-1
  44:      1472.92 cm**-1
  45:      1480.77 cm**-1
  46:      1491.79 cm**-1
  47:      1494.41 cm**-1
  48:      1496.54 cm**-1
  49:      1499.02 cm**-1
  50:      1500.99 cm**-1
  51:      1652.10 cm**-1
  52:      1664.42 cm**-1
  53:      2998.74 cm**-1
  54:      3034.04 cm**-1
  55:      3039.78 cm**-1
  56:      3043.73 cm**-1
  57:      3047.24 cm**-1
  58:      3052.74 cm**-1
  59:      3084.13 cm**-1
  60:      3088.90 cm**-1
  61:      3095.24 cm**-1
  62:      3105.72 cm**-1
  63:      3115.51 cm**-1
  64:      3133.52 cm**-1
  65:      3157.96 cm**-1
  66:      3420.73 cm**-1
  67:      3497.24 cm**-1
  68:      3515.65 cm**-1

IR SPECTRUM
-----------

 Mode    freq (cm**-1)   T**2         TX         TY         TZ
-------------------------------------------------------------------
   6:        45.60    3.615434  ( -0.056466  -1.893424  -0.164903)
   7:        76.14    8.719958  ( -1.859876  -0.001829   2.293647)
   8:       109.72    5.511252  (  0.875191  -0.955602  -1.957579)
   9:       144.42    3.780752  (  0.451091  -0.061808  -1.890357)
  10:       166.32    1.097274  (  0.038340  -0.352780  -0.985571)
  11:       216.86    6.632989  ( -0.334192   0.164853  -2.548358)
  12:       259.27    0.019554  (  0.094605   0.084339   0.059087)
  13:       301.18   10.257451  (  0.382785  -0.744921   3.091281)
  14:       322.73    4.503481  ( -0.302431   0.537008  -2.030675)
  15:       456.58    0.149069  ( -0.084532   0.313488  -0.208923)
  16:       468.38    5.011947  (  0.168767  -0.754806   2.100889)
  17:       728.13    6.284269  ( -1.213075  -1.708118  -1.376608)
  18:       767.55    5.049558  (  0.256570   0.518888  -2.171286)
  19:       799.92    7.094185  (  1.706633  -1.199039  -1.656471)
  20:       839.85   10.425266  (  0.552924  -1.063456  -2.998100)
  21:       878.17    4.043797  ( -0.624953   1.246498  -1.448956)
  22:       896.53    0.785364  ( -0.529063   0.708160  -0.062971)
  23:       951.09    4.071589  ( -0.253377   1.998619  -0.113636)
  24:       977.01    4.773005  ( -0.368758   0.494318  -2.095870)
  25:       999.87    5.407289  (  1.562687   0.375574   1.680549)
  26:      1036.40   13.013505  ( -1.295430  -0.676694   3.298098)
  27:      1059.84    3.996848  (  1.732597  -0.489151   0.869302)
  28:      1088.52    2.415973  (  0.867158  -0.263201   1.262828)
  29:      1108.05    0.623813  (  0.660741  -0.414870   0.122952)
  30:      1156.93    6.917849  (  0.310555   1.507551  -2.132767)
  31:      1192.88    1.439647  (  0.187386   1.094899   0.453574)
  32:      1239.66    9.060520  (  1.545116   1.051374  -2.359608)
  33:      1271.60    3.211414  ( -0.866541   0.206863   1.554904)
  34:      1309.48    2.193003  ( -0.157574   1.472441   0.009486)
  35:      1320.60    2.228901  (  1.256902   0.439256  -0.675390)
  36:      1341.73    1.924376  ( -0.572317  -0.786239  -0.989272)
  37:      1350.59    9.152364  (  1.655205  -1.938569  -1.629298)
  38:      1380.40    2.783432  (  0.687182   0.672908  -1.363234)
  39:      1385.53    1.948475  (  0.904896  -0.357465  -1.000928)
  40:      1402.85    5.400812  (  0.583246   0.006948   2.249575)
  41:      1413.13    4.932279  ( -0.524580  -0.279068   2.139910)
  42:      1413.15    7.896031  ( -2.677555  -0.707122  -0.476142)
  43:      1469.41    4.943484  ( -1.620522   1.334392  -0.732660)
  44:      1472.92   11.747052  ( -1.377907  -0.089331  -3.136948)
  45:      1480.77    2.734236  (  0.659101   1.510135   0.138977)
  46:      1491.79   41.473962  ( -5.902372   0.414704  -2.542437)
  47:      1494.41    6.120839  (  0.465970  -1.000290   2.214302)
  48:      1496.54   16.760706  ( -1.994394  -2.192846   2.823920)
  49:      1499.02   16.549502  ( -2.123807   3.441216  -0.443818)
  50:      1500.99  110.411529  (  7.787226   1.491166   6.895438)
  51:      1652.10   47.730049  ( -2.019021   6.593721   0.420061)
  52:      1664.42   42.562111  ( -1.706629  -1.038300   6.210593)
  53:      2998.74   32.421607  ( -3.564454   1.071696  -4.309031)
  54:      3034.04   14.302012  (  3.218268  -1.671799   1.072311)
  55:      3039.78    2.661640  ( -0.680082   0.842648  -1.220276)
  56:      3043.73   11.842162  ( -2.678804   2.075260  -0.599554)
  57:      3047.24   25.959630  ( -2.278660  -3.128189  -3.313876)
  58:      3052.74   16.632792  (  0.458014  -3.934302  -0.971742)
  59:      3084.13   29.688431  (  3.898600   3.289846   1.914748)
  60:      3088.90    1.976932  ( -0.508041  -1.302629   0.148268)
  61:      3095.24    3.916377  ( -0.958827  -0.723568  -1.572729)
  62:      3105.72    9.537064  ( -2.034767  -2.275272   0.468962)
  63:      3115.51   47.467717  (  0.295528  -5.115707   4.605423)
  64:      3133.52   17.220660  (  1.291228  -2.091567  -3.343462)
  65:      3157.96    1.381736  (  0.333053  -0.773173  -0.820375)
  66:      3420.73   26.399848  ( -4.786113  -0.515909  -1.796333)
  67:      3497.24  109.987320  ( -2.817588   6.631982   7.620061)
  68:      3515.65  111.768931  ( -1.959388  -6.455488   8.139804)

--------------------------
THERMOCHEMISTRY AT 298.15K
--------------------------

Temperature         ... 298.15 K
Pressure            ... 1.00 atm
Total Mass          ... 102.20 AMU

Throughout the following assumptions are being made:
  (1) The electronic state is orbitally nondegenerate
  (2) There are no thermally accessible electronically excited states
  (3) Hindered rotations indicated by low frequency modes) are not
      treated as such but are treated as vibrations and this may
      case some error
  (4) All equations used are the standard statistical mechanics
      equations for an ideal gas
  (5) All vibrations are strinctly harmonic

------------
INNER ENERGY
------------

The inner energy is: U= E(el) + E(ZPE) + E(vib) + E(rot) + E(trans)
    E(el)   - is the total energy from the electronic structure calculation
              = E(kin-el) + E(nuc-el) + E(el-el) + E(nuc-nuc)
    E(ZPE)  - the the zero temperature vibrational energy from the frequency calculation
    E(vib)  - the the finite temperature correction to E(ZPE) due to population
              of excietd vibrational states
    E(rot)  - is the rotational thermal energy
    E(trans)- is the translational thermal energy

Summary of contributions to the inner energy U:
Electronic energy                ...   -292.53763354 Eh
Zero point energy                ...      0.22218943 Eh     139.43 kcal/mol
Thermal vibrational correction   ...      0.00680686 Eh       4.27 kcal/mol
Thermal rotational correction    ...      0.00141627 Eh       0.89 kcal/mol
Thermal translational correction ...      0.00141627 Eh       0.89 kcal/mol
-----------------------------------------------------------------------
Total thermal energy                   -292.30580471 Eh

Summary of corrections to the electronic energy:
(perhaps to be used in another calculation)
Total thermal correction                  0.00963941 Eh       6.05 kcal/mol
Non-thermal (ZPE) correction              0.22218943 Eh     139.43 kcal/mol
-----------------------------------------------------------------------
Total correction                          0.23182883 Eh     145.47 kcal/mol

--------
ENTHALPY
--------

The enthalpy is H = U + kB*T
                kB is Boltzmann's constant
Total free energy                 ...   -292.30580471 Eh
Thermal Enthalpy correction       ...      0.00094421 Eh       0.59 kcal/mol
-----------------------------------------------------------------------
Total Enthalpy                    ...   -292.30486050 Eh

-------
ENTROPY
-------

The entropy contributions are T*S = T*(S(el)+S(vib)+S(rot)+S(trans)
     S(el)   - electronic entropy
     S(vib)  - vibrational entropy
     S(rot)  - rotational entropy
     S(trans)- translational entropy
The entropies will be listed as mutliplied by the temperature to get
units of energy

Electronic entropy                ...      0.00000000 Eh      0.00 kcal/mol
Vibrational entropy               ...      0.01311072 Eh      8.23 kcal/mol
Rotational entropy                ...      0.01256827 Eh      7.89 kcal/mol
Translational entropy             ...      0.01890208 Eh     11.86 kcal/mol
-----------------------------------------------------------------------
Final entropy term                ...      0.04458106 Eh     27.97 kcal/mol

CAUTION: The rotational entropy is not quite correctly treated here
         because it includes a symmetry number that is not yet correctly
         implemented in ORCA!
For a nonlinear molecule the correct rotational entropy is:
    S(rot) = R*(ln(qrot/sn)+1.5)
    R    = 8.31441 J/mol/K = 1.987191683e-3 kcal/mol/K
    qrot = 404296.1158354
    sn is the rotational symmetry number. We have assumed 3 here
       if it is different for your molecule then you should correct
       the printed rotational entropy by manually evaluating the equation
       as given above

For convenience we print out the resulting values for sn=1 - 12:
 sn= 1  qrot/sn=  404296.1158 T*S(rot)=     8.54 kcal/mol T*S(tot)=    28.63 kcal/mol
 sn= 2  qrot/sn=  202148.0579 T*S(rot)=     8.13 kcal/mol T*S(tot)=    28.22 kcal/mol
 sn= 3  qrot/sn=  134765.3719 T*S(rot)=     7.89 kcal/mol T*S(tot)=    27.97 kcal/mol
 sn= 4  qrot/sn=  101074.0290 T*S(rot)=     7.72 kcal/mol T*S(tot)=    27.80 kcal/mol
 sn= 5  qrot/sn=   80859.2232 T*S(rot)=     7.58 kcal/mol T*S(tot)=    27.67 kcal/mol
 sn= 6  qrot/sn=   67382.6860 T*S(rot)=     7.48 kcal/mol T*S(tot)=    27.56 kcal/mol
 sn= 7  qrot/sn=   57756.5880 T*S(rot)=     7.38 kcal/mol T*S(tot)=    27.47 kcal/mol
 sn= 8  qrot/sn=   50537.0145 T*S(rot)=     7.31 kcal/mol T*S(tot)=    27.39 kcal/mol
 sn= 9  qrot/sn=   44921.7906 T*S(rot)=     7.24 kcal/mol T*S(tot)=    27.32 kcal/mol
 sn=10  qrot/sn=   40429.6116 T*S(rot)=     7.17 kcal/mol T*S(tot)=    27.26 kcal/mol
 sn=11  qrot/sn=   36754.1923 T*S(rot)=     7.12 kcal/mol T*S(tot)=    27.21 kcal/mol
 sn=12  qrot/sn=   33691.3430 T*S(rot)=     7.07 kcal/mol T*S(tot)=    27.15 kcal/mol

-------------------
GIBBS FREE ENTHALPY
-------------------

The Gibbs free enthalpy is G = H - T*S

Total enthalpy                    ...   -292.30486050 Eh
Total entropy correction          ...     -0.04458106 Eh    -27.97 kcal/mol
-----------------------------------------------------------------------
Final Gibbs free enthalpy         ...   -292.34944156 Eh

For completeness - the Gibbs free enthalpy minus the electronic energy
G-E(el)                           ...      0.18819198 Eh    118.09 kcal/mol

                             ****ORCA TERMINATED NORMALLY****
TOTAL RUN TIME: 0 days 0 hours 46 minutes 55 seconds 721 msec
