                         Program Version 3.0.3 - RELEASE   -
|  1> ! NORI PBE0 def2-TZVP UseSym TightOPT Freq TightSCF Grid3 FinalGrid5 XYZFile
|  2> % pal
|  3>     nprocs 8
|  4> end
|  5> %method
|  6>     SymThresh 5.0e-2
|  7> end
|  8> % geom
|  9>     MaxIter 10
| 10> end
| 11> % maxcore 2000
| 12> % output
| 13>     printlevel mini
| 14>     print[ P_Basis ] 0
| 15>     print[ P_SCFInfo ] 1
| 16>     print[ P_SCFIterInfo ] 1
| 17>     print[ P_OrbEn ] 0
| 18>     print[ P_Cartesian ] 0
| 19> end
| 20> % elprop
| 21>     Dipole false
| 22> end
| 23> *xyz 1 1
| 24>  C        0.7891500236    -0.4643845765    -0.8607279006
| 25>  C        2.2705280547    -0.3899018420    -0.9717410167
| 26>  C        2.9914934442     0.7258329534    -0.9228068369
| 27>  C        4.4845622986     0.7798944079    -0.9869463269
| 28>  C        5.0029700763     1.5739190488    -2.1915879770
| 29>  C        4.6135771722     0.8961450236    -3.4839941387
| 30>  N        5.0125052820     1.7357004520    -4.6721594215
| 31>  H        0.3523198780    -0.9707545169    -1.7267601280
| 32>  H        0.3375327863     0.5244977095    -0.7718653458
| 33>  H        0.5001396833    -1.0521855091     0.0157395484
| 34>  H        2.7945119851    -1.3412992591    -1.0697445712
| 35>  H        2.4800395719     1.6802719825    -0.7955626782
| 36>  H        4.8822254282     1.2587693966    -0.0867461401
| 37>  H        4.8992896133    -0.2327796005    -1.0070347237
| 38>  H        4.5785525911     2.5849291115    -2.1626027386
| 39>  H        6.0920510053     1.6732238208    -2.1299360071
| 40>  H        5.1067600178    -0.0687504025    -3.6097083725
| 41>  H        3.5346286473     0.7482449645    -3.5495068391
| 42>  H        6.0217752504     1.8975379281    -4.6840854260
| 43>  H        4.5588275459     2.6508729274    -4.6356699454
| 44>  H        4.7548096443     1.2931759801    -5.5564830145
| 45> *
| 46>
| 47>                          ****END OF INPUT****
 Total Charge           Charge          ....    1
 Multiplicity           Mult            ....    1
 Number of Electrons    NEL             ....   56
FINAL SINGLE POINT ENERGY      -291.312141980497

CARTESIAN COORDINATES (ANGSTROEM)
---------------------------------
  C      1.939187    0.000440   -2.695578
  C      0.737551   -0.398350   -1.914833
  C     -0.070547    0.434385   -1.265979
  C     -1.303165    0.023018   -0.525773
  C     -1.244475    0.360668    0.968575
  C     -0.144157   -0.419034    1.648758
  N     -0.001216    0.000519    3.090602
  H      2.833522   -0.518485   -2.338054
  H      2.117755    1.075640   -2.646421
  H      1.822378   -0.278890   -3.746886
  H      0.496526   -1.461776   -1.911502
  H      0.144330    1.503129   -1.287648
  H     -2.177888    0.533968   -0.940021
  H     -1.481720   -1.049309   -0.654838
  H     -1.061387    1.436078    1.084892
  H     -2.209545    0.139542    1.437088
  H     -0.343016   -1.491744    1.658624
  H      0.822075   -0.247240    1.172351
  H     -0.871441   -0.152614    3.604648
  H      0.218826    0.996704    3.156106
  H      0.740312   -0.516365    3.567322

FINAL SINGLE POINT ENERGY      -291.312142743053
                    ***********************HURRAY********************
 Multiplicity           Mult            ....    1
 Number of Electrons    NEL             ....   56
 Basis Dimension        Dim             ....  301
FINAL SINGLE POINT ENERGY      -291.312143025187

VIBRATIONAL FREQUENCIES
-----------------------

   0:         0.00 cm**-1
   1:         0.00 cm**-1
   2:         0.00 cm**-1
   3:         0.00 cm**-1
   4:         0.00 cm**-1
   5:         0.00 cm**-1
   6:        59.85 cm**-1
   7:        81.01 cm**-1
   8:       109.31 cm**-1
   9:       186.74 cm**-1
  10:       211.13 cm**-1
  11:       223.84 cm**-1
  12:       239.28 cm**-1
  13:       293.81 cm**-1
  14:       346.69 cm**-1
  15:       487.97 cm**-1
  16:       502.81 cm**-1
  17:       761.47 cm**-1
  18:       791.72 cm**-1
  19:       851.88 cm**-1
  20:       885.74 cm**-1
  21:       924.76 cm**-1
  22:       952.87 cm**-1
  23:       968.99 cm**-1
  24:      1008.58 cm**-1
  25:      1011.30 cm**-1
  26:      1061.61 cm**-1
  27:      1069.46 cm**-1
  28:      1112.53 cm**-1
  29:      1131.95 cm**-1
  30:      1182.92 cm**-1
  31:      1244.16 cm**-1
  32:      1293.17 cm**-1
  33:      1323.50 cm**-1
  34:      1330.68 cm**-1
  35:      1342.01 cm**-1
  36:      1355.61 cm**-1
  37:      1375.11 cm**-1
  38:      1409.71 cm**-1
  39:      1410.01 cm**-1
  40:      1467.37 cm**-1
  41:      1473.60 cm**-1
  42:      1479.67 cm**-1
  43:      1483.02 cm**-1
  44:      1502.06 cm**-1
  45:      1507.30 cm**-1
  46:      1657.65 cm**-1
  47:      1664.87 cm**-1
  48:      1750.39 cm**-1
  49:      3031.98 cm**-1
  50:      3046.58 cm**-1
  51:      3051.03 cm**-1
  52:      3081.93 cm**-1
  53:      3095.45 cm**-1
  54:      3097.60 cm**-1
  55:      3104.69 cm**-1
  56:      3124.99 cm**-1
  57:      3132.94 cm**-1
  58:      3145.17 cm**-1
  59:      3157.40 cm**-1
  60:      3422.33 cm**-1
  61:      3503.83 cm**-1
  62:      3509.23 cm**-1

IR SPECTRUM
-----------

 Mode    freq (cm**-1)   T**2         TX         TY         TZ
-------------------------------------------------------------------
   6:        59.85   10.344417  ( -2.501508  -0.399303   1.981776)
   7:        81.01    1.699380  ( -0.216685   1.280791   0.109549)
   8:       109.31    2.797029  (  0.826670   0.799816  -1.214059)
   9:       186.74    1.529995  (  0.034187   0.350488  -1.185742)
  10:       211.13    3.087150  (  0.238208   0.248682   1.722952)
  11:       223.84    0.397837  ( -0.373783   0.407315  -0.303675)
  12:       239.28    1.797921  ( -0.632735   0.711012   0.944473)
  13:       293.81    7.965103  ( -1.943059   1.153296  -1.691015)
  14:       346.69    9.555525  ( -1.018807   0.132736  -2.915465)
  15:       487.97    0.957222  (  0.144418  -0.157471   0.954761)
  16:       502.81    0.634868  ( -0.497192   0.026279  -0.622075)
  17:       761.47    7.095279  (  1.684541   1.458958  -1.459124)
  18:       791.72    2.792740  ( -1.095310  -0.849812   0.933197)
  19:       851.88    7.522522  (  1.070723  -0.189674   2.517955)
  20:       885.74    2.480800  ( -0.886880  -0.891912   0.948017)
  21:       924.76   10.511949  ( -1.827965  -0.370726  -2.651991)
  22:       952.87   12.947541  (  2.377012  -2.564459   0.849063)
  23:       968.99    8.314322  ( -1.077143   2.666651   0.207502)
  24:      1008.58   46.076348  ( -1.416405   0.399548  -6.626500)
  25:      1011.30   11.832261  (  3.224894  -0.796774  -0.893013)
  26:      1061.61    0.713563  (  0.324996   0.704883  -0.333288)
  27:      1069.46    2.839592  ( -1.276052   0.560211  -0.947337)
  28:      1112.53    4.080322  ( -1.020495   1.334630  -1.121461)
  29:      1131.95   14.550555  ( -1.929772   0.176053  -3.285656)
  30:      1182.92    1.274400  (  0.709776   0.866099  -0.143147)
  31:      1244.16    1.984939  (  0.177997  -1.383029   0.201216)
  32:      1293.17    4.428910  (  0.682150  -0.176454  -1.983039)
  33:      1323.50    3.202019  ( -1.133533   0.856146   1.088180)
  34:      1330.68    0.589791  (  0.507096   0.576311  -0.022590)
  35:      1342.01    7.898449  (  1.745608   0.944787  -1.989643)
  36:      1355.61    3.235393  ( -0.972950  -1.308364   0.759568)
  37:      1375.11    3.274171  ( -0.430146   0.310042   1.730035)
  38:      1409.71    4.271150  (  1.154278   0.921507  -1.445551)
  39:      1410.01    4.876342  ( -1.565500  -0.720059  -1.380966)
  40:      1467.37   12.140118  ( -1.874185   0.245348  -2.927004)
  41:      1473.60    9.720481  ( -1.735127  -2.040126  -1.596152)
  42:      1479.67   14.180632  ( -1.609475   3.253369   1.002903)
  43:      1483.02    8.527295  ( -0.253531  -2.417803  -1.617790)
  44:      1502.06   31.707155  ( -2.743905   0.091709  -4.916272)
  45:      1507.30  129.607634  ( -0.330675   3.755674  10.742123)
  46:      1657.65   50.423204  (  5.097673   4.670023  -1.621057)
  47:      1664.87   36.813129  ( -3.916489   4.404254  -1.441105)
  48:      1750.39   10.395144  ( -1.897052  -0.047945   2.606538)
  49:      3031.98   17.905298  ( -1.300453   2.311633   3.297040)
  50:      3046.58    8.773194  (  2.609062   0.345230  -1.358972)
  51:      3051.03    7.064094  (  2.128216   1.436161   0.687191)
  52:      3081.93   15.280592  (  3.304866   1.298536  -1.634704)
  53:      3095.45    1.894963  ( -0.216151  -1.303560  -0.385971)
  54:      3097.60    7.220390  (  0.783464  -2.364171   1.008597)
  55:      3104.69    5.248020  (  1.656688  -0.450403   1.516753)
  56:      3124.99    1.160934  ( -0.913683   0.178603   0.542419)
  57:      3132.94    7.190487  ( -1.130901  -2.342904   0.649884)
  58:      3145.17   26.402449  ( -1.381413  -4.921948   0.518240)
  59:      3157.40    1.355141  (  0.577997   0.751392   0.675625)
  60:      3422.33   45.284968  ( -0.701951  -1.301572  -6.564918)
  61:      3503.83   89.826319  (  6.298304   6.513747  -2.780068)
  62:      3509.23   93.482426  ( -7.259768   6.249417  -1.312623)

--------------------------
THERMOCHEMISTRY AT 298.15K
--------------------------

Temperature         ... 298.15 K
Pressure            ... 1.00 atm
Total Mass          ... 100.18 AMU

Throughout the following assumptions are being made:
  (1) The electronic state is orbitally nondegenerate
  (2) There are no thermally accessible electronically excited states
  (3) Hindered rotations indicated by low frequency modes) are not
      treated as such but are treated as vibrations and this may
      case some error
  (4) All equations used are the standard statistical mechanics
      equations for an ideal gas
  (5) All vibrations are strinctly harmonic

------------
INNER ENERGY
------------

The inner energy is: U= E(el) + E(ZPE) + E(vib) + E(rot) + E(trans)
    E(el)   - is the total energy from the electronic structure calculation
              = E(kin-el) + E(nuc-el) + E(el-el) + E(nuc-nuc)
    E(ZPE)  - the the zero temperature vibrational energy from the frequency calculation
    E(vib)  - the the finite temperature correction to E(ZPE) due to population
              of excietd vibrational states
    E(rot)  - is the rotational thermal energy
    E(trans)- is the translational thermal energy

Summary of contributions to the inner energy U:
Electronic energy                ...   -291.31214303 Eh
Zero point energy                ...      0.19827642 Eh     124.42 kcal/mol
Thermal vibrational correction   ...      0.00644652 Eh       4.05 kcal/mol
Thermal rotational correction    ...      0.00141627 Eh       0.89 kcal/mol
Thermal translational correction ...      0.00141627 Eh       0.89 kcal/mol
-----------------------------------------------------------------------
Total thermal energy                   -291.10458754 Eh

Summary of corrections to the electronic energy:
(perhaps to be used in another calculation)
Total thermal correction                  0.00927906 Eh       5.82 kcal/mol
Non-thermal (ZPE) correction              0.19827642 Eh     124.42 kcal/mol
-----------------------------------------------------------------------
Total correction                          0.20755548 Eh     130.24 kcal/mol

--------
ENTHALPY
--------

The enthalpy is H = U + kB*T
                kB is Boltzmann's constant
Total free energy                 ...   -291.10458754 Eh
Thermal Enthalpy correction       ...      0.00094421 Eh       0.59 kcal/mol
-----------------------------------------------------------------------
Total Enthalpy                    ...   -291.10364333 Eh

-------
ENTROPY
-------

The entropy contributions are T*S = T*(S(el)+S(vib)+S(rot)+S(trans)
     S(el)   - electronic entropy
     S(vib)  - vibrational entropy
     S(rot)  - rotational entropy
     S(trans)- translational entropy
The entropies will be listed as mutliplied by the temperature to get
units of energy

Electronic entropy                ...      0.00000000 Eh      0.00 kcal/mol
Vibrational entropy               ...      0.01212219 Eh      7.61 kcal/mol
Rotational entropy                ...      0.01253966 Eh      7.87 kcal/mol
Translational entropy             ...      0.01887386 Eh     11.84 kcal/mol
-----------------------------------------------------------------------
Final entropy term                ...      0.04353571 Eh     27.32 kcal/mol

CAUTION: The rotational entropy is not quite correctly treated here
         because it includes a symmetry number that is not yet correctly
         implemented in ORCA!
For a nonlinear molecule the correct rotational entropy is:
    S(rot) = R*(ln(qrot/sn)+1.5)
    R    = 8.31441 J/mol/K = 1.987191683e-3 kcal/mol/K
    qrot = 392228.9268733
    sn is the rotational symmetry number. We have assumed 3 here
       if it is different for your molecule then you should correct
       the printed rotational entropy by manually evaluating the equation
       as given above

For convenience we print out the resulting values for sn=1 - 12:
 sn= 1  qrot/sn=  392228.9269 T*S(rot)=     8.52 kcal/mol T*S(tot)=    27.97 kcal/mol
 sn= 2  qrot/sn=  196114.4634 T*S(rot)=     8.11 kcal/mol T*S(tot)=    27.56 kcal/mol
 sn= 3  qrot/sn=  130742.9756 T*S(rot)=     7.87 kcal/mol T*S(tot)=    27.32 kcal/mol
 sn= 4  qrot/sn=   98057.2317 T*S(rot)=     7.70 kcal/mol T*S(tot)=    27.15 kcal/mol
 sn= 5  qrot/sn=   78445.7854 T*S(rot)=     7.57 kcal/mol T*S(tot)=    27.02 kcal/mol
 sn= 6  qrot/sn=   65371.4878 T*S(rot)=     7.46 kcal/mol T*S(tot)=    26.91 kcal/mol
 sn= 7  qrot/sn=   56032.7038 T*S(rot)=     7.37 kcal/mol T*S(tot)=    26.82 kcal/mol
 sn= 8  qrot/sn=   49028.6159 T*S(rot)=     7.29 kcal/mol T*S(tot)=    26.74 kcal/mol
 sn= 9  qrot/sn=   43580.9919 T*S(rot)=     7.22 kcal/mol T*S(tot)=    26.67 kcal/mol
 sn=10  qrot/sn=   39222.8927 T*S(rot)=     7.16 kcal/mol T*S(tot)=    26.61 kcal/mol
 sn=11  qrot/sn=   35657.1752 T*S(rot)=     7.10 kcal/mol T*S(tot)=    26.55 kcal/mol
 sn=12  qrot/sn=   32685.7439 T*S(rot)=     7.05 kcal/mol T*S(tot)=    26.50 kcal/mol

-------------------
GIBBS FREE ENTHALPY
-------------------

The Gibbs free enthalpy is G = H - T*S

Total enthalpy                    ...   -291.10364333 Eh
Total entropy correction          ...     -0.04353571 Eh    -27.32 kcal/mol
-----------------------------------------------------------------------
Final Gibbs free enthalpy         ...   -291.14717904 Eh

For completeness - the Gibbs free enthalpy minus the electronic energy
G-E(el)                           ...      0.16496399 Eh    103.52 kcal/mol

                             ****ORCA TERMINATED NORMALLY****
TOTAL RUN TIME: 0 days 0 hours 41 minutes 2 seconds 675 msec
