                         Program Version 3.0.3 - RELEASE   -
|  1> ! NORI PBE0 def2-TZVP UseSym TightOPT Freq TightSCF Grid3 FinalGrid5 XYZFile
|  2> % pal
|  3>     nprocs 8
|  4> end
|  5> %method
|  6>     SymThresh 5.0e-2
|  7> end
|  8> % geom
|  9>     MaxIter 10
| 10> end
| 11> % maxcore 2000
| 12> % output
| 13>     printlevel mini
| 14>     print[ P_Basis ] 0
| 15>     print[ P_SCFInfo ] 1
| 16>     print[ P_SCFIterInfo ] 1
| 17>     print[ P_OrbEn ] 0
| 18>     print[ P_Cartesian ] 0
| 19> end
| 20> % elprop
| 21>     Dipole false
| 22> end
| 23> *xyz 1 1
| 24>  C        0.6087242330     1.3572016991     1.2537561680
| 25>  C        2.0044036982     0.9048473880     1.0644745975
| 26>  C        3.0945730334     1.5453149894     1.5080082374
| 27>  C        4.4209458084     1.0399534531     1.2930461734
| 28>  C        5.5519636867     1.6187398858     1.7304969673
| 29>  C        6.8839072562     1.0227020324     1.5032494008
| 30>  N        7.6621146895     1.8327314264     0.4604415770
| 31>  H        0.1128460136     1.4834184288     0.2861035527
| 32>  H        0.5509463039     2.2964992775     1.8038143454
| 33>  H        0.0321996707     0.5979855448     1.7924896841
| 34>  H        2.1426889375    -0.0295408176     0.5218917816
| 35>  H        2.9891149084     2.4773986420     2.0575011561
| 36>  H        4.4929475677     0.0999075216     0.7455661386
| 37>  H        5.5058451011     2.5333492833     2.3164051116
| 38>  H        7.5206650158     1.0212944622     2.3906277947
| 39>  H        6.8249641272     0.0094718472     1.1055347139
| 40>  H        7.7719411908     2.7991978344     0.7725554121
| 41>  H        7.1392521288     1.8566291807    -0.4172090200
| 42>  H        8.5921266291     1.4477779207     0.2799462078
| 43> *
| 44>
| 45>                          ****END OF INPUT****
 Total Charge           Charge          ....    1
 Multiplicity           Mult            ....    1
 Number of Electrons    NEL             ....   54
FINAL SINGLE POINT ENERGY      -290.094665226251

CARTESIAN COORDINATES (ANGSTROEM)
---------------------------------
  C      1.003278   -0.000155   -3.661524
  C      0.539277   -0.473559   -2.339045
  C      0.231336    0.311775   -1.297896
  C     -0.220758   -0.220818   -0.043698
  C     -0.567695    0.509522    1.029529
  C     -1.059702   -0.105419    2.278764
  N      0.000219   -0.000253    3.380694
  H      1.980551   -0.431542   -3.901071
  H      1.077534    1.086432   -3.707819
  H      0.321644   -0.340048   -4.447911
  H      0.440474   -1.551523   -2.216323
  H      0.314293    1.391865   -1.390806
  H     -0.300151   -1.306679    0.015153
  H     -0.539412    1.595412    0.983176
  H     -1.943402    0.386356    2.690927
  H     -1.264281   -1.170348    2.167008
  H      0.234647    0.978789    3.554515
  H      0.857912   -0.466844    3.079066
  H     -0.308958   -0.416029    4.262413

FINAL SINGLE POINT ENERGY      -290.094665557423
                    ***********************HURRAY********************
 Multiplicity           Mult            ....    1
 Number of Electrons    NEL             ....   54
 Basis Dimension        Dim             ....  289
FINAL SINGLE POINT ENERGY      -290.094665694862

VIBRATIONAL FREQUENCIES
-----------------------

   0:         0.00 cm**-1
   1:         0.00 cm**-1
   2:         0.00 cm**-1
   3:         0.00 cm**-1
   4:         0.00 cm**-1
   5:         0.00 cm**-1
   6:        68.17 cm**-1
   7:       111.13 cm**-1
   8:       142.79 cm**-1
   9:       153.52 cm**-1
  10:       214.22 cm**-1
  11:       228.05 cm**-1
  12:       314.89 cm**-1
  13:       338.95 cm**-1
  14:       393.51 cm**-1
  15:       487.76 cm**-1
  16:       538.26 cm**-1
  17:       785.73 cm**-1
  18:       823.77 cm**-1
  19:       840.08 cm**-1
  20:       882.46 cm**-1
  21:       939.83 cm**-1
  22:       973.16 cm**-1
  23:       979.87 cm**-1
  24:      1032.79 cm**-1
  25:      1065.66 cm**-1
  26:      1074.08 cm**-1
  27:      1124.07 cm**-1
  28:      1162.09 cm**-1
  29:      1221.76 cm**-1
  30:      1268.84 cm**-1
  31:      1315.99 cm**-1
  32:      1332.97 cm**-1
  33:      1336.13 cm**-1
  34:      1367.83 cm**-1
  35:      1393.24 cm**-1
  36:      1403.32 cm**-1
  37:      1460.89 cm**-1
  38:      1472.36 cm**-1
  39:      1483.75 cm**-1
  40:      1485.65 cm**-1
  41:      1647.62 cm**-1
  42:      1659.76 cm**-1
  43:      1687.66 cm**-1
  44:      1714.93 cm**-1
  45:      3044.10 cm**-1
  46:      3089.68 cm**-1
  47:      3099.09 cm**-1
  48:      3136.12 cm**-1
  49:      3139.45 cm**-1
  50:      3151.65 cm**-1
  51:      3156.08 cm**-1
  52:      3169.01 cm**-1
  53:      3171.91 cm**-1
  54:      3413.20 cm**-1
  55:      3507.28 cm**-1
  56:      3512.17 cm**-1

IR SPECTRUM
-----------

 Mode    freq (cm**-1)   T**2         TX         TY         TZ
-------------------------------------------------------------------
   6:        68.17   14.600419  ( -3.219911   1.189770   1.678404)
   7:       111.13    5.552800  (  0.944817   1.907797   1.010165)
   8:       142.79    0.708746  (  0.447610  -0.010428   0.712939)
   9:       153.52    4.397539  ( -0.310863  -0.363359   2.041782)
  10:       214.22    0.036128  ( -0.075640   0.096372  -0.145326)
  11:       228.05    2.589152  (  0.885232   0.483190  -1.253811)
  12:       314.89    1.028859  (  0.491210  -0.792690   0.399016)
  13:       338.95    1.242575  ( -0.500310   0.187117  -0.978392)
  14:       393.51    4.711800  (  0.790419  -0.597709   1.931264)
  15:       487.76    1.004370  (  0.558387  -0.543471   0.630248)
  16:       538.26    0.216933  (  0.182850   0.274164  -0.329140)
  17:       785.73    8.289863  (  2.065289  -0.331457  -1.978530)
  18:       823.77   86.283660  (  0.543135  -0.001020   9.273007)
  19:       840.08    9.665235  (  0.976453  -2.585012   1.424601)
  20:       882.46   29.185189  (  2.317146  -0.053956   4.879868)
  21:       939.83   22.565571  ( -1.817839   2.370796   3.693286)
  22:       973.16    1.356441  (  0.466920  -0.678241  -0.823660)
  23:       979.87   10.871070  ( -2.293659  -1.534606  -1.804212)
  24:      1032.79   64.402160  (  7.337906  -0.413191   3.222820)
  25:      1065.66    7.509262  ( -2.637938   0.037064  -0.741060)
  26:      1074.08    5.720652  (  2.304491   0.635247   0.080210)
  27:      1124.07   12.028849  ( -1.349880  -0.517272   3.152634)
  28:      1162.09   33.992753  ( -1.919613  -1.144470   5.384982)
  29:      1221.76   53.726076  ( -2.078411   0.491168   7.011779)
  30:      1268.84    4.877038  (  0.424987   1.152799  -1.835069)
  31:      1315.99   41.876190  ( -1.437838   1.999808   5.984110)
  32:      1332.97    1.420396  ( -0.302474   0.979111  -0.608479)
  33:      1336.13    2.794673  (  0.008302   1.646471   0.289376)
  34:      1367.83   11.666653  (  1.142654  -0.489320  -3.181440)
  35:      1393.24   77.941763  ( -1.446128   1.239169   8.620611)
  36:      1403.32   37.368756  ( -1.502031  -0.373355   5.913820)
  37:      1460.89   11.990391  ( -3.291592   0.207042  -1.054962)
  38:      1472.36   25.558237  ( -0.971113   4.132845   2.744953)
  39:      1483.75  156.172253  ( -6.621488  -0.544400 -10.584507)
  40:      1485.65   21.029730  ( -4.080522  -1.717062  -1.196149)
  41:      1647.62   46.198384  ( -1.945130   6.502044   0.371851)
  42:      1659.76   54.149548  (  4.098473   1.219736  -5.988682)
  43:      1687.66   39.904375  (  0.869940  -1.625468  -6.041973)
  44:      1714.93  305.015586  (  4.588504  -1.350226 -16.796967)
  45:      3044.10    0.547845  ( -0.329917  -0.376185   0.545422)
  46:      3089.68    9.509757  ( -1.361506  -0.575179   2.706516)
  47:      3099.09    1.630193  (  1.236177  -0.104884   0.301761)
  48:      3136.12    3.926070  ( -0.510078  -1.511393   1.175407)
  49:      3139.45    0.557806  (  0.171127   0.713807  -0.137846)
  50:      3151.65    0.624036  ( -0.257868  -0.039075   0.745663)
  51:      3156.08   11.244531  (  0.550776   3.069871  -1.231694)
  52:      3169.01    3.804255  ( -0.312431  -1.626678   1.029835)
  53:      3171.91    8.254466  (  0.712218   2.318381  -1.540234)
  54:      3413.20   31.220066  (  2.840050   0.071646   4.811346)
  55:      3507.28   64.492276  (  6.441729   2.224496  -4.248297)
  56:      3512.17   92.153884  ( -1.696935   9.169418   2.279488)

--------------------------
THERMOCHEMISTRY AT 298.15K
--------------------------

Temperature         ... 298.15 K
Pressure            ... 1.00 atm
Total Mass          ... 98.17 AMU

Throughout the following assumptions are being made:
  (1) The electronic state is orbitally nondegenerate
  (2) There are no thermally accessible electronically excited states
  (3) Hindered rotations indicated by low frequency modes) are not
      treated as such but are treated as vibrations and this may
      case some error
  (4) All equations used are the standard statistical mechanics
      equations for an ideal gas
  (5) All vibrations are strinctly harmonic

------------
INNER ENERGY
------------

The inner energy is: U= E(el) + E(ZPE) + E(vib) + E(rot) + E(trans)
    E(el)   - is the total energy from the electronic structure calculation
              = E(kin-el) + E(nuc-el) + E(el-el) + E(nuc-nuc)
    E(ZPE)  - the the zero temperature vibrational energy from the frequency calculation
    E(vib)  - the the finite temperature correction to E(ZPE) due to population
              of excietd vibrational states
    E(rot)  - is the rotational thermal energy
    E(trans)- is the translational thermal energy

Summary of contributions to the inner energy U:
Electronic energy                ...   -290.09466569 Eh
Zero point energy                ...      0.17431923 Eh     109.39 kcal/mol
Thermal vibrational correction   ...      0.00603335 Eh       3.79 kcal/mol
Thermal rotational correction    ...      0.00141627 Eh       0.89 kcal/mol
Thermal translational correction ...      0.00141627 Eh       0.89 kcal/mol
-----------------------------------------------------------------------
Total thermal energy                   -289.91148057 Eh

Summary of corrections to the electronic energy:
(perhaps to be used in another calculation)
Total thermal correction                  0.00886589 Eh       5.56 kcal/mol
Non-thermal (ZPE) correction              0.17431923 Eh     109.39 kcal/mol
-----------------------------------------------------------------------
Total correction                          0.18318512 Eh     114.95 kcal/mol

--------
ENTHALPY
--------

The enthalpy is H = U + kB*T
                kB is Boltzmann's constant
Total free energy                 ...   -289.91148057 Eh
Thermal Enthalpy correction       ...      0.00094421 Eh       0.59 kcal/mol
-----------------------------------------------------------------------
Total Enthalpy                    ...   -289.91053636 Eh

-------
ENTROPY
-------

The entropy contributions are T*S = T*(S(el)+S(vib)+S(rot)+S(trans)
     S(el)   - electronic entropy
     S(vib)  - vibrational entropy
     S(rot)  - rotational entropy
     S(trans)- translational entropy
The entropies will be listed as mutliplied by the temperature to get
units of energy

Electronic entropy                ...      0.00000000 Eh      0.00 kcal/mol
Vibrational entropy               ...      0.01102795 Eh      6.92 kcal/mol
Rotational entropy                ...      0.01233173 Eh      7.74 kcal/mol
Translational entropy             ...      0.01884507 Eh     11.83 kcal/mol
-----------------------------------------------------------------------
Final entropy term                ...      0.04220474 Eh     26.48 kcal/mol

CAUTION: The rotational entropy is not quite correctly treated here
         because it includes a symmetry number that is not yet correctly
         implemented in ORCA!
For a nonlinear molecule the correct rotational entropy is:
    S(rot) = R*(ln(qrot/sn)+1.5)
    R    = 8.31441 J/mol/K = 1.987191683e-3 kcal/mol/K
    qrot = 314702.0519467
    sn is the rotational symmetry number. We have assumed 3 here
       if it is different for your molecule then you should correct
       the printed rotational entropy by manually evaluating the equation
       as given above

For convenience we print out the resulting values for sn=1 - 12:
 sn= 1  qrot/sn=  314702.0519 T*S(rot)=     8.39 kcal/mol T*S(tot)=    27.13 kcal/mol
 sn= 2  qrot/sn=  157351.0260 T*S(rot)=     7.98 kcal/mol T*S(tot)=    26.72 kcal/mol
 sn= 3  qrot/sn=  104900.6840 T*S(rot)=     7.74 kcal/mol T*S(tot)=    26.48 kcal/mol
 sn= 4  qrot/sn=   78675.5130 T*S(rot)=     7.57 kcal/mol T*S(tot)=    26.31 kcal/mol
 sn= 5  qrot/sn=   62940.4104 T*S(rot)=     7.44 kcal/mol T*S(tot)=    26.18 kcal/mol
 sn= 6  qrot/sn=   52450.3420 T*S(rot)=     7.33 kcal/mol T*S(tot)=    26.07 kcal/mol
 sn= 7  qrot/sn=   44957.4360 T*S(rot)=     7.24 kcal/mol T*S(tot)=    25.98 kcal/mol
 sn= 8  qrot/sn=   39337.7565 T*S(rot)=     7.16 kcal/mol T*S(tot)=    25.90 kcal/mol
 sn= 9  qrot/sn=   34966.8947 T*S(rot)=     7.09 kcal/mol T*S(tot)=    25.83 kcal/mol
 sn=10  qrot/sn=   31470.2052 T*S(rot)=     7.02 kcal/mol T*S(tot)=    25.77 kcal/mol
 sn=11  qrot/sn=   28609.2774 T*S(rot)=     6.97 kcal/mol T*S(tot)=    25.71 kcal/mol
 sn=12  qrot/sn=   26225.1710 T*S(rot)=     6.92 kcal/mol T*S(tot)=    25.66 kcal/mol

-------------------
GIBBS FREE ENTHALPY
-------------------

The Gibbs free enthalpy is G = H - T*S

Total enthalpy                    ...   -289.91053636 Eh
Total entropy correction          ...     -0.04220474 Eh    -26.48 kcal/mol
-----------------------------------------------------------------------
Final Gibbs free enthalpy         ...   -289.95274111 Eh

For completeness - the Gibbs free enthalpy minus the electronic energy
G-E(el)                           ...      0.14192459 Eh     89.06 kcal/mol

                             ****ORCA TERMINATED NORMALLY****
TOTAL RUN TIME: 0 days 0 hours 34 minutes 14 seconds 351 msec
