                         Program Version 3.0.3 - RELEASE   -
|  1> ! NORI PBE0 def2-TZVP UseSym TightOPT Freq TightSCF Grid3 FinalGrid5 XYZFile
|  2> % pal
|  3>     nprocs 8
|  4> end
|  5> %method
|  6>     SymThresh 5.0e-2
|  7> end
|  8> % geom
|  9>     MaxIter 10
| 10> end
| 11> % maxcore 2000
| 12> % output
| 13>     printlevel mini
| 14>     print[ P_Basis ] 0
| 15>     print[ P_SCFInfo ] 1
| 16>     print[ P_SCFIterInfo ] 1
| 17>     print[ P_OrbEn ] 0
| 18>     print[ P_Cartesian ] 0
| 19> end
| 20> % elprop
| 21>     Dipole false
| 22> end
| 23> *xyz 1 1
| 24>  C        1.2100110401     2.0531067964    -1.6468515010
| 25>  C        2.6915499027     1.9006715786    -1.5442763486
| 26>  C        3.3020263764     1.0217315186    -0.7445769056
| 27>  C        4.7382991637     0.8368322963    -0.6121009918
| 28>  C        5.2534383365    -0.0751111776     0.2191246994
| 29>  C        5.5968436939     1.7266984934    -1.4612545103
| 30>  N        7.0553729655     1.4679068469    -1.2471721772
| 31>  H        0.9330916628     2.8311536938    -2.3567747119
| 32>  H        0.7738095990     2.3111759548    -0.6781875879
| 33>  H        0.7410561346     1.1202530115    -1.9714060395
| 34>  H        3.2853068257     2.5616280109    -2.1735106979
| 35>  H        2.6998312855     0.3660513250    -0.1203998607
| 36>  H        6.3121427359    -0.2640109887     0.3632750507
| 37>  H        4.5988907757    -0.6984587540     0.8151197325
| 38>  H        5.4041888944     1.5729963225    -2.5251793278
| 39>  H        5.4287544745     2.7814573537    -1.2335429511
| 40>  H        7.2849517380     0.4982602721    -1.4778122790
| 41>  H        7.3040557943     1.6148618442    -0.2658894521
| 42>  H        7.6335386007     2.0819356018    -1.8224541403
| 43> *
| 44>
| 45>                          ****END OF INPUT****
 Total Charge           Charge          ....    1
 Multiplicity           Mult            ....    1
 Number of Electrons    NEL             ....   54
FINAL SINGLE POINT ENERGY      -290.082582057606

CARTESIAN COORDINATES (ANGSTROEM)
---------------------------------
  C      1.291873   -0.000227   -3.008339
  C      0.960568   -0.002006   -1.552764
  C     -0.283636    0.003463   -1.066002
  C     -0.654245    0.001107    0.340231
  C     -1.934051    0.005906    0.727455
  C      0.481741   -0.007633    1.319718
  N     -0.000202   -0.000372    2.736644
  H      2.367554   -0.001297   -3.176642
  H      0.874826    0.879909   -3.504723
  H      0.873177   -0.878359   -3.506991
  H      1.807859   -0.008512   -0.869480
  H     -1.122664    0.009690   -1.757069
  H     -2.276769    0.003366    1.756659
  H     -2.725436    0.012235   -0.011317
  H      1.103361   -0.897982    1.204740
  H      1.119514    0.870680    1.201264
  H     -0.580507   -0.821853    2.922175
  H     -0.576258    0.825980    2.914134
  H      0.778370    0.000553    3.397262

FINAL SINGLE POINT ENERGY      -290.082582767583
                    ***********************HURRAY********************
 Multiplicity           Mult            ....    1
 Number of Electrons    NEL             ....   54
 Basis Dimension        Dim             ....  289
FINAL SINGLE POINT ENERGY      -290.082583099824

VIBRATIONAL FREQUENCIES
-----------------------

   0:         0.00 cm**-1
   1:         0.00 cm**-1
   2:         0.00 cm**-1
   3:         0.00 cm**-1
   4:         0.00 cm**-1
   5:         0.00 cm**-1
   6:      -199.30 cm**-1 ***imaginary mode***
   7:        74.26 cm**-1
   8:       133.32 cm**-1
   9:       157.61 cm**-1
  10:       190.35 cm**-1
  11:       224.53 cm**-1
  12:       307.21 cm**-1
  13:       357.24 cm**-1
  14:       459.46 cm**-1
  15:       500.34 cm**-1
  16:       597.52 cm**-1
  17:       674.87 cm**-1
  18:       809.40 cm**-1
  19:       829.96 cm**-1
  20:       879.27 cm**-1
  21:       919.41 cm**-1
  22:       954.96 cm**-1
  23:       995.31 cm**-1
  24:       996.00 cm**-1
  25:      1027.86 cm**-1
  26:      1055.22 cm**-1
  27:      1086.56 cm**-1
  28:      1107.07 cm**-1
  29:      1111.01 cm**-1
  30:      1303.67 cm**-1
  31:      1310.88 cm**-1
  32:      1343.60 cm**-1
  33:      1345.45 cm**-1
  34:      1403.22 cm**-1
  35:      1422.46 cm**-1
  36:      1462.01 cm**-1
  37:      1478.18 cm**-1
  38:      1479.76 cm**-1
  39:      1490.21 cm**-1
  40:      1504.51 cm**-1
  41:      1643.08 cm**-1
  42:      1665.93 cm**-1
  43:      1686.15 cm**-1
  44:      1721.02 cm**-1
  45:      3058.33 cm**-1
  46:      3088.37 cm**-1
  47:      3118.13 cm**-1
  48:      3139.41 cm**-1
  49:      3144.92 cm**-1
  50:      3163.89 cm**-1
  51:      3167.67 cm**-1
  52:      3172.98 cm**-1
  53:      3250.56 cm**-1
  54:      3420.70 cm**-1
  55:      3494.27 cm**-1
  56:      3515.84 cm**-1

IR SPECTRUM
-----------

 Mode    freq (cm**-1)   T**2         TX         TY         TZ
-------------------------------------------------------------------
   7:        74.26    5.933044  (  0.012065   2.435728  -0.011308)
   8:       133.32    0.122841  (  0.001235   0.350442   0.005469)
   9:       157.61    7.089829  ( -2.276053  -0.000637   1.381814)
  10:       190.35    3.752845  (  0.004741   1.937192   0.010540)
  11:       224.53    1.031352  ( -0.003236  -1.015232  -0.025398)
  12:       307.21   12.510154  (  1.478930  -0.005238   3.212926)
  13:       357.24   18.890064  ( -1.082814   0.008834  -4.209216)
  14:       459.46    2.591040  ( -0.370330   0.009251   1.566464)
  15:       500.34    5.118684  ( -0.018638  -2.262364  -0.006732)
  16:       597.52    2.356482  ( -1.133696  -0.008978  -1.034956)
  17:       674.87    0.000361  ( -0.002444   0.017032  -0.008053)
  18:       809.40    5.598468  ( -1.356116   0.009933  -1.938896)
  19:       829.96   10.765781  (  0.008976   3.281069   0.016900)
  20:       879.27    1.680142  (  0.010742   1.296007  -0.019790)
  21:       919.41   42.931951  ( -0.022767  -6.552198  -0.011445)
  22:       954.96    1.279029  (  0.267612   0.002815   1.098820)
  23:       995.31    5.372718  ( -0.404139  -0.413540  -2.244632)
  24:       996.00   40.359167  ( -0.008927   6.351758  -0.119425)
  25:      1027.86    4.137607  ( -1.082948  -0.010145  -1.721838)
  26:      1055.22    0.641711  ( -0.040933  -0.798274   0.052869)
  27:      1086.56   17.046263  ( -2.288638   0.022716  -3.436260)
  28:      1107.07    7.522990  (  0.000909  -2.742522  -0.039544)
  29:      1111.01   18.018004  ( -3.342418  -0.010513   2.616512)
  30:      1303.67   15.409586  ( -0.598899  -0.007296   3.879543)
  31:      1310.88    6.024666  (  1.821313   0.005624  -1.645434)
  32:      1343.60    2.987353  ( -0.044471  -1.727523   0.032270)
  33:      1345.45    1.589511  (  1.229997  -0.096586  -0.259404)
  34:      1403.22    9.741476  (  2.146665  -0.000777   2.265680)
  35:      1422.46    0.791987  ( -0.602172  -0.001968  -0.655265)
  36:      1462.01   12.587351  ( -2.322502   0.009604  -2.682022)
  37:      1478.18   12.256837  (  0.087604  -3.499772  -0.027546)
  38:      1479.76    4.270523  ( -2.044563  -0.128544  -0.271593)
  39:      1490.21   13.101453  (  2.592645  -0.007553   2.525785)
  40:      1504.51  175.473718  (  4.209842  -0.071121 -12.559693)
  41:      1643.08   59.951619  (  0.047526   7.742691   0.010099)
  42:      1665.93   44.460066  ( -4.094955   0.051961  -5.262007)
  43:      1686.15    7.716351  (  2.601647  -0.001639  -0.973540)
  44:      1721.02   56.926765  (  5.086051  -0.009601  -5.573039)
  45:      3058.33    1.058605  (  0.139220   0.001478  -1.019422)
  46:      3088.37    1.976639  (  1.272964   0.004819  -0.596808)
  47:      3118.13    1.685174  ( -0.009700  -1.298053   0.011786)
  48:      3139.41    0.261561  (  0.002968  -0.510210  -0.035184)
  49:      3144.92   17.298592  ( -0.252492   0.020784  -4.151434)
  50:      3163.89    7.561581  (  2.749746  -0.011703   0.018437)
  51:      3167.67   10.296415  ( -1.508076   0.015819  -2.832291)
  52:      3172.98    3.346993  ( -0.871389   0.008701  -1.608602)
  53:      3250.56    3.839375  ( -1.061796   0.001790   1.646804)
  54:      3420.70   39.904747  (  1.889954  -0.070267  -6.027262)
  55:      3494.27   91.054018  ( -0.051354   9.540675  -0.164025)
  56:      3515.84  107.291056  ( -8.860681  -0.093118  -5.363834)

--------------------------
THERMOCHEMISTRY AT 298.15K
--------------------------

Temperature         ... 298.15 K
Pressure            ... 1.00 atm
Total Mass          ... 98.17 AMU

Throughout the following assumptions are being made:
  (1) The electronic state is orbitally nondegenerate
  (2) There are no thermally accessible electronically excited states
  (3) Hindered rotations indicated by low frequency modes) are not
      treated as such but are treated as vibrations and this may
      case some error
  (4) All equations used are the standard statistical mechanics
      equations for an ideal gas
  (5) All vibrations are strinctly harmonic

------------
INNER ENERGY
------------

The inner energy is: U= E(el) + E(ZPE) + E(vib) + E(rot) + E(trans)
    E(el)   - is the total energy from the electronic structure calculation
              = E(kin-el) + E(nuc-el) + E(el-el) + E(nuc-nuc)
    E(ZPE)  - the the zero temperature vibrational energy from the frequency calculation
    E(vib)  - the the finite temperature correction to E(ZPE) due to population
              of excietd vibrational states
    E(rot)  - is the rotational thermal energy
    E(trans)- is the translational thermal energy

Summary of contributions to the inner energy U:
Electronic energy                ...   -290.08258310 Eh
Zero point energy                ...      0.17415215 Eh     109.28 kcal/mol
Thermal vibrational correction   ...      0.00531719 Eh       3.34 kcal/mol
Thermal rotational correction    ...      0.00141627 Eh       0.89 kcal/mol
Thermal translational correction ...      0.00141627 Eh       0.89 kcal/mol
-----------------------------------------------------------------------
Total thermal energy                   -289.90028122 Eh

Summary of corrections to the electronic energy:
(perhaps to be used in another calculation)
Total thermal correction                  0.00814973 Eh       5.11 kcal/mol
Non-thermal (ZPE) correction              0.17415215 Eh     109.28 kcal/mol
-----------------------------------------------------------------------
Total correction                          0.18230188 Eh     114.40 kcal/mol

--------
ENTHALPY
--------

The enthalpy is H = U + kB*T
                kB is Boltzmann's constant
Total free energy                 ...   -289.90028122 Eh
Thermal Enthalpy correction       ...      0.00094421 Eh       0.59 kcal/mol
-----------------------------------------------------------------------
Total Enthalpy                    ...   -289.89933701 Eh

-------
ENTROPY
-------

The entropy contributions are T*S = T*(S(el)+S(vib)+S(rot)+S(trans)
     S(el)   - electronic entropy
     S(vib)  - vibrational entropy
     S(rot)  - rotational entropy
     S(trans)- translational entropy
The entropies will be listed as mutliplied by the temperature to get
units of energy

Electronic entropy                ...      0.00000000 Eh      0.00 kcal/mol
Vibrational entropy               ...      0.00946342 Eh      5.94 kcal/mol
Rotational entropy                ...      0.01231786 Eh      7.73 kcal/mol
Translational entropy             ...      0.01884507 Eh     11.83 kcal/mol
-----------------------------------------------------------------------
Final entropy term                ...      0.04062635 Eh     25.49 kcal/mol

CAUTION: The rotational entropy is not quite correctly treated here
         because it includes a symmetry number that is not yet correctly
         implemented in ORCA!
For a nonlinear molecule the correct rotational entropy is:
    S(rot) = R*(ln(qrot/sn)+1.5)
    R    = 8.31441 J/mol/K = 1.987191683e-3 kcal/mol/K
    qrot = 310112.4797878
    sn is the rotational symmetry number. We have assumed 3 here
       if it is different for your molecule then you should correct
       the printed rotational entropy by manually evaluating the equation
       as given above

For convenience we print out the resulting values for sn=1 - 12:
 sn= 1  qrot/sn=  310112.4798 T*S(rot)=     8.38 kcal/mol T*S(tot)=    26.14 kcal/mol
 sn= 2  qrot/sn=  155056.2399 T*S(rot)=     7.97 kcal/mol T*S(tot)=    25.73 kcal/mol
 sn= 3  qrot/sn=  103370.8266 T*S(rot)=     7.73 kcal/mol T*S(tot)=    25.49 kcal/mol
 sn= 4  qrot/sn=   77528.1199 T*S(rot)=     7.56 kcal/mol T*S(tot)=    25.32 kcal/mol
 sn= 5  qrot/sn=   62022.4960 T*S(rot)=     7.43 kcal/mol T*S(tot)=    25.19 kcal/mol
 sn= 6  qrot/sn=   51685.4133 T*S(rot)=     7.32 kcal/mol T*S(tot)=    25.08 kcal/mol
 sn= 7  qrot/sn=   44301.7828 T*S(rot)=     7.23 kcal/mol T*S(tot)=    24.99 kcal/mol
 sn= 8  qrot/sn=   38764.0600 T*S(rot)=     7.15 kcal/mol T*S(tot)=    24.91 kcal/mol
 sn= 9  qrot/sn=   34456.9422 T*S(rot)=     7.08 kcal/mol T*S(tot)=    24.84 kcal/mol
 sn=10  qrot/sn=   31011.2480 T*S(rot)=     7.02 kcal/mol T*S(tot)=    24.78 kcal/mol
 sn=11  qrot/sn=   28192.0436 T*S(rot)=     6.96 kcal/mol T*S(tot)=    24.72 kcal/mol
 sn=12  qrot/sn=   25842.7066 T*S(rot)=     6.91 kcal/mol T*S(tot)=    24.67 kcal/mol

-------------------
GIBBS FREE ENTHALPY
-------------------

The Gibbs free enthalpy is G = H - T*S

Total enthalpy                    ...   -289.89933701 Eh
Total entropy correction          ...     -0.04062635 Eh    -25.49 kcal/mol
-----------------------------------------------------------------------
Final Gibbs free enthalpy         ...   -289.93996336 Eh

For completeness - the Gibbs free enthalpy minus the electronic energy
G-E(el)                           ...      0.14261974 Eh     89.50 kcal/mol

                             ****ORCA TERMINATED NORMALLY****
TOTAL RUN TIME: 0 days 0 hours 40 minutes 10 seconds 932 msec
