                         Program Version 3.0.3 - RELEASE   -
|  1> ! NORI PBE0 def2-TZVP UseSym TightOPT Freq TightSCF Grid3 FinalGrid5 XYZFile
|  2> % pal
|  3>     nprocs 8
|  4> end
|  5> %method
|  6>     SymThresh 5.0e-2
|  7> end
|  8> % geom
|  9>     MaxIter 10
| 10> end
| 11> % maxcore 2000
| 12> % output
| 13>     printlevel mini
| 14>     print[ P_Basis ] 0
| 15>     print[ P_SCFInfo ] 1
| 16>     print[ P_SCFIterInfo ] 1
| 17>     print[ P_OrbEn ] 0
| 18>     print[ P_Cartesian ] 0
| 19> end
| 20> % elprop
| 21>     Dipole false
| 22> end
| 23> *xyz 1 1
| 24>  C        0.9378925144     1.7758267148    -0.5365602803
| 25>  C        2.1400511044     0.9302162178    -0.7661547798
| 26>  C        3.3607174275     1.2151606378    -0.3271350218
| 27>  C        4.6222140052     0.4243265257    -0.5106758258
| 28>  C        5.1775666973    -0.0585591390     0.8225624849
| 29>  C        5.6606484417     1.2067093864    -1.3034136327
| 30>  N        4.2963316250    -0.8178986587    -1.3230225707
| 31>  H        0.4981319274     2.0855428708    -1.4883627507
| 32>  H        1.1756493991     2.6683663652     0.0422160158
| 33>  H        0.1667741712     1.2114156278    -0.0044798399
| 34>  H        1.9475506070     0.0227519165    -1.3416204638
| 35>  H        3.5181635090     2.1270863813     0.2434889272
| 36>  H        6.1072418355    -0.6197428009     0.6925465320
| 37>  H        4.4525575563    -0.6731557091     1.3618661439
| 38>  H        5.4011006247     0.8061383261     1.4476571877
| 39>  H        5.2786794172     1.5094292157    -2.2807103886
| 40>  H        6.5838083076     0.6351952837    -1.4322837130
| 41>  H        5.9123930493     2.1153849305    -0.7564280236
| 42>  H        3.9148325441    -0.5613643872    -2.2359202257
| 43>  H        3.6022099204    -1.3913783437    -0.8389070945
| 44>  H        5.1358453157    -1.3804613616    -1.4692026805
| 45> *
| 46>
| 47>                          ****END OF INPUT****
 Total Charge           Charge          ....    1
 Multiplicity           Mult            ....    1
 Number of Electrons    NEL             ....   56
FINAL SINGLE POINT ENERGY      -291.320675908913
FINAL SINGLE POINT ENERGY      -291.320677598652

CARTESIAN COORDINATES (ANGSTROEM)
---------------------------------
  C     -1.865730   -2.415471    0.000000
  C     -0.676372   -1.521988    0.000001
  C     -0.728705   -0.194807   -0.000001
  C      0.410111    0.782069   -0.000000
  C      0.411442    1.636191    1.260577
  C      0.411442    1.636192   -1.260577
  N      1.714291    0.002063   -0.000001
  H     -1.856211   -3.068667   -0.877009
  H     -2.796555   -1.848507   -0.000002
  H     -1.856213   -3.068665    0.877011
  H      0.280275   -2.047846    0.000002
  H     -1.699264    0.295047   -0.000001
  H      1.232582    2.358611    1.258333
  H      0.467348    1.022889    2.162953
  H     -0.520334    2.200060    1.307698
  H      0.467347    1.022890   -2.162954
  H      1.232582    2.358612   -1.258333
  H     -0.520334    2.200061   -1.307698
  H      1.776744   -0.594767   -0.827437
  H      1.776744   -0.594769    0.827435
  H      2.511681    0.639701    0.000000

FINAL SINGLE POINT ENERGY      -291.320678008410
                    ***********************HURRAY********************
 Multiplicity           Mult            ....    1
 Number of Electrons    NEL             ....   56
 Basis Dimension        Dim             ....  301
FINAL SINGLE POINT ENERGY      -291.320678062159

VIBRATIONAL FREQUENCIES
-----------------------

   0:         0.00 cm**-1
   1:         0.00 cm**-1
   2:         0.00 cm**-1
   3:         0.00 cm**-1
   4:         0.00 cm**-1
   5:         0.00 cm**-1
   6:        69.47 cm**-1
   7:       152.18 cm**-1
   8:       197.25 cm**-1
   9:       202.73 cm**-1
  10:       219.35 cm**-1
  11:       259.67 cm**-1
  12:       280.04 cm**-1
  13:       328.35 cm**-1
  14:       344.58 cm**-1
  15:       347.42 cm**-1
  16:       430.18 cm**-1
  17:       451.39 cm**-1
  18:       543.18 cm**-1
  19:       736.30 cm**-1
  20:       809.67 cm**-1
  21:       901.51 cm**-1
  22:       915.74 cm**-1
  23:       944.29 cm**-1
  24:       950.97 cm**-1
  25:       998.37 cm**-1
  26:      1001.33 cm**-1
  27:      1031.01 cm**-1
  28:      1048.26 cm**-1
  29:      1065.31 cm**-1
  30:      1128.09 cm**-1
  31:      1201.41 cm**-1
  32:      1282.21 cm**-1
  33:      1293.97 cm**-1
  34:      1334.45 cm**-1
  35:      1354.17 cm**-1
  36:      1407.83 cm**-1
  37:      1411.26 cm**-1
  38:      1423.39 cm**-1
  39:      1462.40 cm**-1
  40:      1465.32 cm**-1
  41:      1475.98 cm**-1
  42:      1478.87 cm**-1
  43:      1483.73 cm**-1
  44:      1489.76 cm**-1
  45:      1498.42 cm**-1
  46:      1639.70 cm**-1
  47:      1652.32 cm**-1
  48:      1750.30 cm**-1
  49:      3051.28 cm**-1
  50:      3053.58 cm**-1
  51:      3054.49 cm**-1
  52:      3109.93 cm**-1
  53:      3114.19 cm**-1
  54:      3130.14 cm**-1
  55:      3132.78 cm**-1
  56:      3154.33 cm**-1
  57:      3155.28 cm**-1
  58:      3157.67 cm**-1
  59:      3173.03 cm**-1
  60:      3418.41 cm**-1
  61:      3504.85 cm**-1
  62:      3517.96 cm**-1

IR SPECTRUM
-----------

 Mode    freq (cm**-1)   T**2         TX         TY         TZ
-------------------------------------------------------------------
   6:        69.47    0.176482  ( -0.000095  -0.000226  -0.420098)
   7:       152.18    1.006004  (  0.000262  -0.000053   1.002998)
   8:       197.25    7.771786  (  2.225879   1.678463  -0.002730)
   9:       202.73    1.359921  (  0.004658   0.004116   1.166140)
  10:       219.35    0.123091  ( -0.000131   0.000098   0.350844)
  11:       259.67    0.356393  ( -0.000192  -0.000439  -0.596986)
  12:       280.04    1.619075  (  0.805060   0.985370  -0.000180)
  13:       328.35    0.225365  (  0.147538  -0.451218  -0.000012)
  14:       344.58    5.976586  (  1.727899   1.729435   0.001892)
  15:       347.42    9.365533  ( -0.001100  -0.000681   3.060316)
  16:       430.18    6.592275  (  2.143699  -1.413093  -0.000119)
  17:       451.39    0.150607  (  0.000024  -0.000484  -0.388081)
  18:       543.18    1.925606  (  0.839374   1.105014  -0.000040)
  19:       736.30    1.340873  ( -0.483174  -1.052338  -0.000053)
  20:       809.67    0.294500  (  0.000359  -0.001123  -0.542677)
  21:       901.51    2.300079  ( -1.309352  -0.765295  -0.000231)
  22:       915.74    3.181652  ( -1.776836  -0.156539   0.000543)
  23:       944.29    3.235361  (  0.000183   0.000339   1.798711)
  24:       950.97    0.020816  (  0.000461   0.000044  -0.144278)
  25:       998.37   18.714246  (  0.849105   4.241843   0.005844)
  26:      1001.33   43.171869  ( -0.001169   0.006833  -6.570527)
  27:      1031.01   10.076721  ( -0.428633  -3.145313   0.000857)
  28:      1048.26    0.037933  ( -0.000218   0.000313   0.194763)
  29:      1065.31    0.150936  ( -0.000266  -0.000853   0.388504)
  30:      1128.09    3.392100  ( -1.549721   0.995221  -0.000481)
  31:      1201.41   15.414231  ( -3.149732   2.343805   0.000218)
  32:      1282.21   18.060141  ( -0.000560  -0.000491  -4.249722)
  33:      1293.97   24.852721  (  4.568030   1.996454  -0.000206)
  34:      1334.45    2.547104  ( -1.153788  -1.102668   0.000527)
  35:      1354.17   10.627910  ( -1.387702  -2.949948   0.000451)
  36:      1407.83   19.727518  ( -0.000177   0.000711   4.441567)
  37:      1411.26    3.467223  (  1.122085   1.485984   0.000071)
  38:      1423.39   37.964005  (  4.095378  -4.603465   0.000365)
  39:      1462.40    0.078872  ( -0.000097   0.000035   0.280842)
  40:      1465.32   11.853509  ( -0.001885   0.001736  -3.442892)
  41:      1475.98   19.351168  ( -3.790892  -2.231660  -0.001544)
  42:      1478.87    3.018588  (  0.000246   0.000205  -1.737408)
  43:      1483.73  142.950453  ( 10.438469  -5.829993  -0.000884)
  44:      1489.76   20.209985  ( -3.685631   2.574124   0.000040)
  45:      1498.42    6.497133  (  2.437310   0.746093   0.000140)
  46:      1639.70   48.100759  (  0.000414   0.000746   6.935471)
  47:      1652.32   56.644280  (  5.515511   5.120880  -0.000826)
  48:      1750.30   10.691297  ( -1.933649  -2.636721  -0.000012)
  49:      3051.28    1.958348  (  0.000139   0.000161   1.399410)
  50:      3053.58    1.522279  ( -0.903041  -0.840712   0.000146)
  51:      3054.49    8.231276  ( -2.697268  -0.977763   0.000142)
  52:      3109.93   22.158756  (  4.703721  -0.183759  -0.000439)
  53:      3114.19    1.774280  (  0.000156   0.000345   1.332021)
  54:      3130.14    2.306926  (  0.000173   0.000461  -1.518857)
  55:      3132.78   13.034016  ( -1.737873  -3.164461  -0.000419)
  56:      3154.33    1.889880  ( -0.000241  -0.000036  -1.374729)
  57:      3155.28    8.591733  ( -2.787199   0.907335  -0.000835)
  58:      3157.67    0.877813  (  0.846561   0.401431  -0.000487)
  59:      3173.03    0.375791  (  0.602644   0.112296   0.000126)
  60:      3418.41   26.635429  ( -4.438089   2.634159  -0.000368)
  61:      3504.85   62.337748  (  0.000091   0.000120  -7.895426)
  62:      3517.96   71.676114  (  5.341187   6.568701   0.000116)

--------------------------
THERMOCHEMISTRY AT 298.15K
--------------------------

Temperature         ... 298.15 K
Pressure            ... 1.00 atm
Total Mass          ... 100.18 AMU

Throughout the following assumptions are being made:
  (1) The electronic state is orbitally nondegenerate
  (2) There are no thermally accessible electronically excited states
  (3) Hindered rotations indicated by low frequency modes) are not
      treated as such but are treated as vibrations and this may
      case some error
  (4) All equations used are the standard statistical mechanics
      equations for an ideal gas
  (5) All vibrations are strinctly harmonic

------------
INNER ENERGY
------------

The inner energy is: U= E(el) + E(ZPE) + E(vib) + E(rot) + E(trans)
    E(el)   - is the total energy from the electronic structure calculation
              = E(kin-el) + E(nuc-el) + E(el-el) + E(nuc-nuc)
    E(ZPE)  - the the zero temperature vibrational energy from the frequency calculation
    E(vib)  - the the finite temperature correction to E(ZPE) due to population
              of excietd vibrational states
    E(rot)  - is the rotational thermal energy
    E(trans)- is the translational thermal energy

Summary of contributions to the inner energy U:
Electronic energy                ...   -291.32067806 Eh
Zero point energy                ...      0.19635537 Eh     123.21 kcal/mol
Thermal vibrational correction   ...      0.00654277 Eh       4.11 kcal/mol
Thermal rotational correction    ...      0.00141627 Eh       0.89 kcal/mol
Thermal translational correction ...      0.00141627 Eh       0.89 kcal/mol
-----------------------------------------------------------------------
Total thermal energy                   -291.11494738 Eh

Summary of corrections to the electronic energy:
(perhaps to be used in another calculation)
Total thermal correction                  0.00937531 Eh       5.88 kcal/mol
Non-thermal (ZPE) correction              0.19635537 Eh     123.21 kcal/mol
-----------------------------------------------------------------------
Total correction                          0.20573068 Eh     129.10 kcal/mol

--------
ENTHALPY
--------

The enthalpy is H = U + kB*T
                kB is Boltzmann's constant
Total free energy                 ...   -291.11494738 Eh
Thermal Enthalpy correction       ...      0.00094421 Eh       0.59 kcal/mol
-----------------------------------------------------------------------
Total Enthalpy                    ...   -291.11400317 Eh

-------
ENTROPY
-------

The entropy contributions are T*S = T*(S(el)+S(vib)+S(rot)+S(trans)
     S(el)   - electronic entropy
     S(vib)  - vibrational entropy
     S(rot)  - rotational entropy
     S(trans)- translational entropy
The entropies will be listed as mutliplied by the temperature to get
units of energy

Electronic entropy                ...      0.00000000 Eh      0.00 kcal/mol
Vibrational entropy               ...      0.01132214 Eh      7.10 kcal/mol
Rotational entropy                ...      0.01227204 Eh      7.70 kcal/mol
Translational entropy             ...      0.01887386 Eh     11.84 kcal/mol
-----------------------------------------------------------------------
Final entropy term                ...      0.04246804 Eh     26.65 kcal/mol

CAUTION: The rotational entropy is not quite correctly treated here
         because it includes a symmetry number that is not yet correctly
         implemented in ORCA!
For a nonlinear molecule the correct rotational entropy is:
    S(rot) = R*(ln(qrot/sn)+1.5)
    R    = 8.31441 J/mol/K = 1.987191683e-3 kcal/mol/K
    qrot = 295423.3442848
    sn is the rotational symmetry number. We have assumed 3 here
       if it is different for your molecule then you should correct
       the printed rotational entropy by manually evaluating the equation
       as given above

For convenience we print out the resulting values for sn=1 - 12:
 sn= 1  qrot/sn=  295423.3443 T*S(rot)=     8.35 kcal/mol T*S(tot)=    27.30 kcal/mol
 sn= 2  qrot/sn=  147711.6721 T*S(rot)=     7.94 kcal/mol T*S(tot)=    26.89 kcal/mol
 sn= 3  qrot/sn=   98474.4481 T*S(rot)=     7.70 kcal/mol T*S(tot)=    26.65 kcal/mol
 sn= 4  qrot/sn=   73855.8361 T*S(rot)=     7.53 kcal/mol T*S(tot)=    26.48 kcal/mol
 sn= 5  qrot/sn=   59084.6689 T*S(rot)=     7.40 kcal/mol T*S(tot)=    26.35 kcal/mol
 sn= 6  qrot/sn=   49237.2240 T*S(rot)=     7.29 kcal/mol T*S(tot)=    26.24 kcal/mol
 sn= 7  qrot/sn=   42203.3349 T*S(rot)=     7.20 kcal/mol T*S(tot)=    26.15 kcal/mol
 sn= 8  qrot/sn=   36927.9180 T*S(rot)=     7.12 kcal/mol T*S(tot)=    26.07 kcal/mol
 sn= 9  qrot/sn=   32824.8160 T*S(rot)=     7.05 kcal/mol T*S(tot)=    26.00 kcal/mol
 sn=10  qrot/sn=   29542.3344 T*S(rot)=     6.99 kcal/mol T*S(tot)=    25.94 kcal/mol
 sn=11  qrot/sn=   26856.6677 T*S(rot)=     6.93 kcal/mol T*S(tot)=    25.88 kcal/mol
 sn=12  qrot/sn=   24618.6120 T*S(rot)=     6.88 kcal/mol T*S(tot)=    25.83 kcal/mol

-------------------
GIBBS FREE ENTHALPY
-------------------

The Gibbs free enthalpy is G = H - T*S

Total enthalpy                    ...   -291.11400317 Eh
Total entropy correction          ...     -0.04246804 Eh    -26.65 kcal/mol
-----------------------------------------------------------------------
Final Gibbs free enthalpy         ...   -291.15647121 Eh

For completeness - the Gibbs free enthalpy minus the electronic energy
G-E(el)                           ...      0.16420685 Eh    103.04 kcal/mol

                             ****ORCA TERMINATED NORMALLY****
TOTAL RUN TIME: 0 days 0 hours 49 minutes 18 seconds 948 msec
