                         Program Version 3.0.3 - RELEASE   -
|  1> ! NORI PBE0 def2-TZVP UseSym TightOPT Freq TightSCF Grid3 FinalGrid5 XYZFile
|  2> % pal
|  3>     nprocs 8
|  4> end
|  5> %method
|  6>     SymThresh 5.0e-2
|  7> end
|  8> % geom
|  9>     MaxIter 10
| 10> end
| 11> % maxcore 2000
| 12> % output
| 13>     printlevel mini
| 14>     print[ P_Basis ] 0
| 15>     print[ P_SCFInfo ] 1
| 16>     print[ P_SCFIterInfo ] 1
| 17>     print[ P_OrbEn ] 0
| 18>     print[ P_Cartesian ] 0
| 19> end
| 20> % elprop
| 21>     Dipole false
| 22> end
| 23> *xyz 1 1
| 24>  C        0.6815909338     0.6900479542     0.2290619885
| 25>  C        2.1555245185     0.8654555187     0.2836294366
| 26>  C        2.9278105247     1.1906009893    -0.7473321156
| 27>  C        4.4154776806     1.3273365837    -0.6716328203
| 28>  C        4.8715107649     2.7459113078    -0.9918105656
| 29>  C        4.4999392392     3.7765573194     0.0459168786
| 30>  N        6.3858027086     2.7327917793    -1.1329261269
| 31>  H        0.1848803306     1.3612407606     0.9354197677
| 32>  H        0.4065667262    -0.3264878390     0.5247241244
| 33>  H        0.2839137354     0.8787263391    -0.7687572183
| 34>  H        2.6255769703     0.6947648756     1.2520252774
| 35>  H        2.4776290367     1.3473161651    -1.7263514491
| 36>  H        4.7646030305     1.0485864199     0.3294023567
| 37>  H        4.8809602471     0.6328834390    -1.3854007823
| 38>  H        4.5066516281     3.0428397614    -1.9788940061
| 39>  H        4.9180955856     3.5251384451     1.0251831243
| 40>  H        3.4150431846     3.7906825517     0.1494257920
| 41>  H        4.8230937766     4.7821431333    -0.2332478895
| 42>  H        6.8203887893     2.4641222821    -0.2470420368
| 43>  H        6.7472196883     3.6533612762    -1.3887446078
| 44>  H        6.6855509004     2.0609009374    -1.8421191280
| 45> *
| 46>
| 47>                          ****END OF INPUT****
 Total Charge           Charge          ....    1
 Multiplicity           Mult            ....    1
 Number of Electrons    NEL             ....   56
FINAL SINGLE POINT ENERGY      -291.317625787103
FINAL SINGLE POINT ENERGY      -291.317627569467
FINAL SINGLE POINT ENERGY      -291.317629055839

CARTESIAN COORDINATES (ANGSTROEM)
---------------------------------
  C      0.352403   -0.004686   -3.384391
  C      0.366480   -0.492475   -1.981294
  C      0.691201    0.237186   -0.919691
  C      0.729521   -0.290159    0.479548
  C     -0.270153    0.424111    1.381622
  C     -1.718377    0.141550    1.063737
  N     -0.001318   -0.006505    2.815645
  H     -0.636307   -0.140124   -3.832322
  H      1.050591   -0.582563   -3.997021
  H      0.624156    1.049345   -3.452778
  H      0.101252   -1.539090   -1.831900
  H      0.977151    1.279478   -1.051522
  H      0.515894   -1.365449    0.477033
  H      1.740458   -0.157730    0.891134
  H     -0.076309    1.500275    1.377518
  H     -1.940034   -0.927881    1.128961
  H     -1.915586    0.452579    0.037919
  H     -2.401667    0.689661    1.716675
  H     -0.155742   -1.012390    2.917176
  H     -0.621466    0.470344    3.472789
  H      0.964890    0.187890    3.086009

FINAL SINGLE POINT ENERGY      -291.317629462427
                    ***********************HURRAY********************
 Multiplicity           Mult            ....    1
 Number of Electrons    NEL             ....   56
 Basis Dimension        Dim             ....  301
FINAL SINGLE POINT ENERGY      -291.317629619864

VIBRATIONAL FREQUENCIES
-----------------------

   0:         0.00 cm**-1
   1:         0.00 cm**-1
   2:         0.00 cm**-1
   3:         0.00 cm**-1
   4:         0.00 cm**-1
   5:         0.00 cm**-1
   6:        72.48 cm**-1
   7:        75.47 cm**-1
   8:       143.26 cm**-1
   9:       205.62 cm**-1
  10:       214.50 cm**-1
  11:       240.06 cm**-1
  12:       271.80 cm**-1
  13:       309.03 cm**-1
  14:       331.24 cm**-1
  15:       413.25 cm**-1
  16:       427.28 cm**-1
  17:       543.71 cm**-1
  18:       769.42 cm**-1
  19:       823.47 cm**-1
  20:       890.17 cm**-1
  21:       911.87 cm**-1
  22:       934.32 cm**-1
  23:       947.09 cm**-1
  24:       966.53 cm**-1
  25:      1002.20 cm**-1
  26:      1070.01 cm**-1
  27:      1071.12 cm**-1
  28:      1090.10 cm**-1
  29:      1113.62 cm**-1
  30:      1187.67 cm**-1
  31:      1212.10 cm**-1
  32:      1261.93 cm**-1
  33:      1314.74 cm**-1
  34:      1334.79 cm**-1
  35:      1356.86 cm**-1
  36:      1386.62 cm**-1
  37:      1395.22 cm**-1
  38:      1410.04 cm**-1
  39:      1419.48 cm**-1
  40:      1461.82 cm**-1
  41:      1466.09 cm**-1
  42:      1478.47 cm**-1
  43:      1482.40 cm**-1
  44:      1487.55 cm**-1
  45:      1494.48 cm**-1
  46:      1651.90 cm**-1
  47:      1657.36 cm**-1
  48:      1751.18 cm**-1
  49:      3006.39 cm**-1
  50:      3049.29 cm**-1
  51:      3052.54 cm**-1
  52:      3065.91 cm**-1
  53:      3094.54 cm**-1
  54:      3108.41 cm**-1
  55:      3130.53 cm**-1
  56:      3131.28 cm**-1
  57:      3147.34 cm**-1
  58:      3152.40 cm**-1
  59:      3159.07 cm**-1
  60:      3418.08 cm**-1
  61:      3503.21 cm**-1
  62:      3512.92 cm**-1

IR SPECTRUM
-----------

 Mode    freq (cm**-1)   T**2         TX         TY         TZ
-------------------------------------------------------------------
   6:        72.48    5.785880  ( -0.173914  -2.399033  -0.016584)
   7:        75.47    3.042480  ( -1.695438  -0.113798  -0.393726)
   8:       143.26    2.158479  (  0.784277  -1.175331  -0.402474)
   9:       205.62    0.667577  (  0.700526  -0.402668  -0.121235)
  10:       214.50    1.166414  ( -0.998427   0.175300   0.372594)
  11:       240.06    1.099853  ( -0.207835  -0.920353  -0.457830)
  12:       271.80    3.511782  (  1.370102  -0.170521   1.267093)
  13:       309.03    2.342322  ( -0.693616   0.423269   1.296943)
  14:       331.24    8.829357  (  2.623572  -0.214335  -1.378510)
  15:       413.25    1.264071  ( -0.421684  -0.320245   0.991815)
  16:       427.28    4.490265  (  1.234672   0.665648   1.588321)
  17:       543.71    2.801379  (  0.230675  -0.548355  -1.564441)
  18:       769.42    1.338491  ( -0.814704  -0.672094  -0.472268)
  19:       823.47    5.183450  ( -0.471693   0.930702   2.023549)
  20:       890.17    1.139931  (  0.807185  -0.484192   0.503926)
  21:       911.87    3.238354  (  0.943663  -1.512880  -0.243001)
  22:       934.32    6.991283  ( -2.207712  -1.051111  -1.006209)
  23:       947.09    5.766346  ( -2.306983   0.363208  -0.558799)
  24:       966.53   16.982846  (  1.842223  -1.460156  -3.384820)
  25:      1002.20   39.816647  (  6.011065  -1.258878  -1.448783)
  26:      1070.01    7.637428  (  0.994472   1.181628   2.291770)
  27:      1071.12   17.255681  (  0.640845  -1.916557  -3.629298)
  28:      1090.10   12.896614  ( -0.077304   1.486965  -3.267961)
  29:      1113.62    6.630128  (  0.518335  -0.429197   2.485407)
  30:      1187.67    2.854670  (  0.677551   1.447856   0.547091)
  31:      1212.10   17.454081  (  3.004438  -0.210468  -2.895365)
  32:      1261.93    1.325005  (  0.578274  -0.707805  -0.699726)
  33:      1314.74    8.611226  ( -0.025495  -1.225433  -2.666250)
  34:      1334.79    3.484107  ( -0.274583   0.990748   1.557925)
  35:      1356.86    1.302292  ( -0.237669   1.114453  -0.061648)
  36:      1386.62    4.344751  ( -0.531017   0.242488   2.000993)
  37:      1395.22    7.268172  (  0.208722  -0.708224  -2.592880)
  38:      1410.04    8.877841  (  0.368345  -1.035784   2.769353)
  39:      1419.48   29.435530  ( -4.773072   0.319475  -2.559540)
  40:      1461.82    2.866714  ( -0.339824   0.591735   1.549543)
  41:      1466.09   10.814963  ( -3.165914   0.820585   0.344370)
  42:      1478.47   20.714193  ( -1.150648  -3.945969  -1.954362)
  43:      1482.40   21.013283  (  0.189718   1.714099   4.247252)
  44:      1487.55   13.905941  ( -1.670996   2.589117  -2.100044)
  45:      1494.48  149.121695  (  1.440431  -3.979436  11.454735)
  46:      1651.90   56.327145  (  1.135982   6.884250   2.764740)
  47:      1657.36   35.784656  ( -5.825337   0.520652   1.256593)
  48:      1751.18   15.546869  ( -0.167929  -0.113589   3.937736)
  49:      3006.39   30.455517  (  2.757527  -1.091635   4.654019)
  50:      3049.29    4.650033  (  0.161241  -0.575305   2.071970)
  51:      3052.54    6.194680  ( -1.030387  -0.944531   2.059331)
  52:      3065.91    4.289343  (  1.216236   1.670867   0.135337)
  53:      3094.54    4.378287  ( -1.403115  -1.551533  -0.047968)
  54:      3108.41    3.337557  ( -1.776013   0.428131  -0.006350)
  55:      3130.53    7.264531  ( -0.777068   2.061256   1.553036)
  56:      3131.28    1.931648  ( -0.265937   1.104035  -0.801269)
  57:      3147.34    0.388551  (  0.127132   0.604196   0.085651)
  58:      3152.40   23.814576  (  1.214891   4.436316  -1.630251)
  59:      3159.07    0.393263  (  0.619120  -0.048643   0.087101)
  60:      3418.08   40.314378  ( -1.117762   1.416255  -6.087627)
  61:      3503.21   75.120636  ( -3.280050  -7.749341  -2.075964)
  62:      3512.92   81.562304  (  8.025573  -2.814617  -3.038159)

--------------------------
THERMOCHEMISTRY AT 298.15K
--------------------------

Temperature         ... 298.15 K
Pressure            ... 1.00 atm
Total Mass          ... 100.18 AMU

Throughout the following assumptions are being made:
  (1) The electronic state is orbitally nondegenerate
  (2) There are no thermally accessible electronically excited states
  (3) Hindered rotations indicated by low frequency modes) are not
      treated as such but are treated as vibrations and this may
      case some error
  (4) All equations used are the standard statistical mechanics
      equations for an ideal gas
  (5) All vibrations are strinctly harmonic

------------
INNER ENERGY
------------

The inner energy is: U= E(el) + E(ZPE) + E(vib) + E(rot) + E(trans)
    E(el)   - is the total energy from the electronic structure calculation
              = E(kin-el) + E(nuc-el) + E(el-el) + E(nuc-nuc)
    E(ZPE)  - the the zero temperature vibrational energy from the frequency calculation
    E(vib)  - the the finite temperature correction to E(ZPE) due to population
              of excietd vibrational states
    E(rot)  - is the rotational thermal energy
    E(trans)- is the translational thermal energy

Summary of contributions to the inner energy U:
Electronic energy                ...   -291.31762962 Eh
Zero point energy                ...      0.19724419 Eh     123.77 kcal/mol
Thermal vibrational correction   ...      0.00652815 Eh       4.10 kcal/mol
Thermal rotational correction    ...      0.00141627 Eh       0.89 kcal/mol
Thermal translational correction ...      0.00141627 Eh       0.89 kcal/mol
-----------------------------------------------------------------------
Total thermal energy                   -291.11102474 Eh

Summary of corrections to the electronic energy:
(perhaps to be used in another calculation)
Total thermal correction                  0.00936069 Eh       5.87 kcal/mol
Non-thermal (ZPE) correction              0.19724419 Eh     123.77 kcal/mol
-----------------------------------------------------------------------
Total correction                          0.20660488 Eh     129.65 kcal/mol

--------
ENTHALPY
--------

The enthalpy is H = U + kB*T
                kB is Boltzmann's constant
Total free energy                 ...   -291.11102474 Eh
Thermal Enthalpy correction       ...      0.00094421 Eh       0.59 kcal/mol
-----------------------------------------------------------------------
Total Enthalpy                    ...   -291.11008053 Eh

-------
ENTROPY
-------

The entropy contributions are T*S = T*(S(el)+S(vib)+S(rot)+S(trans)
     S(el)   - electronic entropy
     S(vib)  - vibrational entropy
     S(rot)  - rotational entropy
     S(trans)- translational entropy
The entropies will be listed as mutliplied by the temperature to get
units of energy

Electronic entropy                ...      0.00000000 Eh      0.00 kcal/mol
Vibrational entropy               ...      0.01189735 Eh      7.47 kcal/mol
Rotational entropy                ...      0.01237677 Eh      7.77 kcal/mol
Translational entropy             ...      0.01887386 Eh     11.84 kcal/mol
-----------------------------------------------------------------------
Final entropy term                ...      0.04314798 Eh     27.08 kcal/mol

CAUTION: The rotational entropy is not quite correctly treated here
         because it includes a symmetry number that is not yet correctly
         implemented in ORCA!
For a nonlinear molecule the correct rotational entropy is:
    S(rot) = R*(ln(qrot/sn)+1.5)
    R    = 8.31441 J/mol/K = 1.987191683e-3 kcal/mol/K
    qrot = 330078.7504139
    sn is the rotational symmetry number. We have assumed 3 here
       if it is different for your molecule then you should correct
       the printed rotational entropy by manually evaluating the equation
       as given above

For convenience we print out the resulting values for sn=1 - 12:
 sn= 1  qrot/sn=  330078.7504 T*S(rot)=     8.42 kcal/mol T*S(tot)=    27.73 kcal/mol
 sn= 2  qrot/sn=  165039.3752 T*S(rot)=     8.01 kcal/mol T*S(tot)=    27.32 kcal/mol
 sn= 3  qrot/sn=  110026.2501 T*S(rot)=     7.77 kcal/mol T*S(tot)=    27.08 kcal/mol
 sn= 4  qrot/sn=   82519.6876 T*S(rot)=     7.60 kcal/mol T*S(tot)=    26.91 kcal/mol
 sn= 5  qrot/sn=   66015.7501 T*S(rot)=     7.46 kcal/mol T*S(tot)=    26.77 kcal/mol
 sn= 6  qrot/sn=   55013.1251 T*S(rot)=     7.36 kcal/mol T*S(tot)=    26.67 kcal/mol
 sn= 7  qrot/sn=   47154.1072 T*S(rot)=     7.26 kcal/mol T*S(tot)=    26.57 kcal/mol
 sn= 8  qrot/sn=   41259.8438 T*S(rot)=     7.19 kcal/mol T*S(tot)=    26.49 kcal/mol
 sn= 9  qrot/sn=   36675.4167 T*S(rot)=     7.12 kcal/mol T*S(tot)=    26.42 kcal/mol
 sn=10  qrot/sn=   33007.8750 T*S(rot)=     7.05 kcal/mol T*S(tot)=    26.36 kcal/mol
 sn=11  qrot/sn=   30007.1591 T*S(rot)=     7.00 kcal/mol T*S(tot)=    26.31 kcal/mol
 sn=12  qrot/sn=   27506.5625 T*S(rot)=     6.95 kcal/mol T*S(tot)=    26.25 kcal/mol

-------------------
GIBBS FREE ENTHALPY
-------------------

The Gibbs free enthalpy is G = H - T*S

Total enthalpy                    ...   -291.11008053 Eh
Total entropy correction          ...     -0.04314798 Eh    -27.08 kcal/mol
-----------------------------------------------------------------------
Final Gibbs free enthalpy         ...   -291.15322851 Eh

For completeness - the Gibbs free enthalpy minus the electronic energy
G-E(el)                           ...      0.16440111 Eh    103.16 kcal/mol

                             ****ORCA TERMINATED NORMALLY****
TOTAL RUN TIME: 0 days 0 hours 45 minutes 41 seconds 650 msec
