                         Program Version 3.0.3 - RELEASE   -
|  1> ! NORI PBE0 def2-TZVP UseSym TightOPT Freq TightSCF Grid3 FinalGrid5 XYZFile
|  2> % pal
|  3>     nprocs 8
|  4> end
|  5> %method
|  6>     SymThresh 5.0e-2
|  7> end
|  8> % geom
|  9>     MaxIter 10
| 10> end
| 11> % maxcore 2000
| 12> % output
| 13>     printlevel mini
| 14>     print[ P_Basis ] 0
| 15>     print[ P_SCFInfo ] 1
| 16>     print[ P_SCFIterInfo ] 1
| 17>     print[ P_OrbEn ] 0
| 18>     print[ P_Cartesian ] 0
| 19> end
| 20> % elprop
| 21>     Dipole false
| 22> end
| 23> *xyz 1 1
| 24>  C        2.9695624859    -2.0016749759     1.2887808140
| 25>  C        2.9253743274    -0.5096845780     1.1788347030
| 26>  C        2.4485292944     0.2624939805     2.1512170477
| 27>  C        3.4202641804     0.0890949975    -0.1109040921
| 28>  C        4.9404182964    -0.0047400742    -0.2883810872
| 29>  C        5.6537058720     0.7648267726     0.7984457133
| 30>  N        7.1488960048     0.6281229107     0.6585896455
| 31>  H        3.9804782944    -2.4011566254     1.1522822352
| 32>  H        2.3494840574    -2.4611419293     0.5123926610
| 33>  H        2.6062477135    -2.3420753328     2.2580469065
| 34>  H        2.3782898190     1.3400976921     2.0413893497
| 35>  H        2.0757212739    -0.1589862512     3.0777859372
| 36>  H        2.9586253239    -0.4241134535    -0.9597075727
| 37>  H        3.1165929725     1.1377571823    -0.1748720824
| 38>  H        5.2126061651     0.3935764321    -1.2717447236
| 39>  H        5.2529578988    -1.0548953693    -0.2664973894
| 40>  H        5.3943487032     0.3976737416     1.7923475596
| 41>  H        5.4363237258     1.8333439085     0.7573127151
| 42>  H        7.4292303603    -0.3531657857     0.7157593830
| 43>  H        7.6485120030     1.1394626369     1.3887216873
| 44>  H        7.4668912278     0.9824241204    -0.2460394107
| 45> *
| 46>
| 47>                          ****END OF INPUT****
 Total Charge           Charge          ....    1
 Multiplicity           Mult            ....    1
 Number of Electrons    NEL             ....   56
FINAL SINGLE POINT ENERGY      -291.310282550504
FINAL SINGLE POINT ENERGY      -291.310283981049
FINAL SINGLE POINT ENERGY      -291.310285027006

CARTESIAN COORDINATES (ANGSTROEM)
---------------------------------
  C      1.558913    0.006084   -1.804226
  C      0.129172   -0.282591   -1.467515
  C     -0.459295   -1.433164   -1.782718
  C     -0.636788    0.813514   -0.775364
  C     -0.208059    1.036477    0.680115
  C     -0.477897   -0.195919    1.511686
  N     -0.000292   -0.000501    2.929081
  H      2.153146    0.262215   -0.920260
  H      1.626977    0.864498   -2.480233
  H      2.034359   -0.846173   -2.288824
  H     -1.509137   -1.612220   -1.574293
  H      0.078173   -2.222808   -2.295560
  H     -0.493668    1.758924   -1.307446
  H     -1.708170    0.595794   -0.804550
  H     -0.755086    1.892795    1.089362
  H      0.858977    1.283938    0.718078
  H      0.040889   -1.072150    1.120499
  H     -1.542957   -0.424660    1.574382
  H      1.004076    0.188793    2.949751
  H     -0.175433   -0.824925    3.507114
  H     -0.468774    0.795535    3.367226

FINAL SINGLE POINT ENERGY      -291.310285447251
                    ***********************HURRAY********************
 Multiplicity           Mult            ....    1
 Number of Electrons    NEL             ....   56
 Basis Dimension        Dim             ....  301
FINAL SINGLE POINT ENERGY      -291.310285918983

VIBRATIONAL FREQUENCIES
-----------------------

   0:         0.00 cm**-1
   1:         0.00 cm**-1
   2:         0.00 cm**-1
   3:         0.00 cm**-1
   4:         0.00 cm**-1
   5:         0.00 cm**-1
   6:        41.12 cm**-1
   7:        74.97 cm**-1
   8:       103.54 cm**-1
   9:       173.67 cm**-1
  10:       215.61 cm**-1
  11:       235.57 cm**-1
  12:       269.64 cm**-1
  13:       394.02 cm**-1
  14:       408.24 cm**-1
  15:       435.14 cm**-1
  16:       567.21 cm**-1
  17:       730.33 cm**-1
  18:       756.91 cm**-1
  19:       818.45 cm**-1
  20:       847.86 cm**-1
  21:       916.46 cm**-1
  22:       939.41 cm**-1
  23:       959.79 cm**-1
  24:       964.36 cm**-1
  25:       984.23 cm**-1
  26:      1016.57 cm**-1
  27:      1049.80 cm**-1
  28:      1061.70 cm**-1
  29:      1116.52 cm**-1
  30:      1134.88 cm**-1
  31:      1246.06 cm**-1
  32:      1294.15 cm**-1
  33:      1300.33 cm**-1
  34:      1342.84 cm**-1
  35:      1353.44 cm**-1
  36:      1370.18 cm**-1
  37:      1408.96 cm**-1
  38:      1412.14 cm**-1
  39:      1444.57 cm**-1
  40:      1466.15 cm**-1
  41:      1476.12 cm**-1
  42:      1485.06 cm**-1
  43:      1488.51 cm**-1
  44:      1501.36 cm**-1
  45:      1507.85 cm**-1
  46:      1657.93 cm**-1
  47:      1664.56 cm**-1
  48:      1729.48 cm**-1
  49:      3036.68 cm**-1
  50:      3041.50 cm**-1
  51:      3057.57 cm**-1
  52:      3084.68 cm**-1
  53:      3090.90 cm**-1
  54:      3097.09 cm**-1
  55:      3107.04 cm**-1
  56:      3150.27 cm**-1
  57:      3153.25 cm**-1
  58:      3157.34 cm**-1
  59:      3240.85 cm**-1
  60:      3422.64 cm**-1
  61:      3504.27 cm**-1
  62:      3509.17 cm**-1

IR SPECTRUM
-----------

 Mode    freq (cm**-1)   T**2         TX         TY         TZ
-------------------------------------------------------------------
   6:        41.12    1.186185  (  0.874307   0.647976   0.043587)
   7:        74.97    7.728708  (  2.115406  -0.873165  -1.578401)
   8:       103.54    6.353782  (  0.447414  -1.399308  -2.048301)
   9:       173.67    0.369461  ( -0.184315  -0.562814  -0.136854)
  10:       215.61    0.343104  (  0.304332   0.315406   0.388594)
  11:       235.57    1.206624  ( -0.609646  -0.905923  -0.119410)
  12:       269.64    3.073724  ( -0.563962  -1.444913   0.817250)
  13:       394.02    1.145150  ( -0.113854   0.641615  -0.848833)
  14:       408.24   19.390969  ( -0.337379   1.122655  -4.244619)
  15:       435.14    1.755419  (  0.928213  -0.702041   0.633229)
  16:       567.21    3.119151  (  0.279303   0.026227   1.743690)
  17:       730.33    1.371725  ( -0.866881   0.436756   0.655352)
  18:       756.91    6.780280  (  1.778139  -1.204752  -1.472099)
  19:       818.45    4.320739  (  1.774145  -0.904864   0.595288)
  20:       847.86    6.446720  (  0.047839  -0.928494   2.362695)
  21:       916.46    2.659049  (  1.113550  -1.176748   0.185255)
  22:       939.41   12.003287  ( -0.880954  -1.630218   2.927387)
  23:       959.79   43.976722  ( -1.074290   3.065777  -5.781318)
  24:       964.36    6.052103  (  1.867445  -0.163474   1.593119)
  25:       984.23    2.114022  ( -0.362093   1.035093   0.954722)
  26:      1016.57    9.013715  ( -1.871733  -2.204525   0.806473)
  27:      1049.80    6.777408  ( -0.037058  -2.048001  -1.606775)
  28:      1061.70    3.235696  (  0.063260   0.399600  -1.752716)
  29:      1116.52    4.032910  ( -1.426314   1.223533   0.708170)
  30:      1134.88   13.800190  ( -0.585531   2.346893  -2.819474)
  31:      1246.06    1.737936  (  1.129630   0.646111   0.210741)
  32:      1294.15    1.339719  (  0.131907  -0.251991   1.121971)
  33:      1300.33    2.288326  ( -0.848335  -0.056591   1.251180)
  34:      1342.84    8.888425  (  1.999893  -1.195698  -1.859881)
  35:      1353.44    0.953879  ( -0.748927  -0.329962  -0.533022)
  36:      1370.18    2.054399  (  0.300564  -0.636497  -1.248572)
  37:      1408.96   10.897101  (  2.444890   0.446069  -2.172702)
  38:      1412.14    5.189148  (  1.602993   0.215182   1.604138)
  39:      1444.57    0.551464  ( -0.118311   0.513203   0.523535)
  40:      1466.15    2.781901  ( -0.853758   0.367650   1.384858)
  41:      1476.12   20.991943  ( -2.409347   3.591363  -1.512977)
  42:      1485.06    3.395364  (  1.044517   0.322537   1.483347)
  43:      1488.51   14.456360  ( -2.024065  -2.176526  -2.371129)
  44:      1501.36   26.924072  (  1.102919  -1.621393   4.804032)
  45:      1507.85  136.888259  (  3.752366   2.579471  10.777492)
  46:      1657.93   50.891177  (  6.266151  -3.081261  -1.460259)
  47:      1664.56   37.231642  ( -2.457103  -5.203536   2.029162)
  48:      1729.48   14.328931  ( -2.228999  -3.058519   0.077165)
  49:      3036.68    5.803687  (  2.317999   0.608127   0.246472)
  50:      3041.50   28.293850  (  2.738682   2.927065   3.496535)
  51:      3057.57    5.549721  ( -1.441999   1.826299  -0.367409)
  52:      3084.68   10.563384  (  2.018689  -1.972612  -1.611545)
  53:      3090.90   13.507879  ( -1.559257   0.917546  -3.199173)
  54:      3097.09    1.323398  (  0.574128   0.693619  -0.716008)
  55:      3107.04   12.290077  (  3.171933   1.239291  -0.832513)
  56:      3150.27    7.224091  ( -0.999092   1.974210   1.525910)
  57:      3153.25    2.183708  ( -1.088510  -0.978857  -0.201722)
  58:      3157.34    1.312372  (  0.899866  -0.042657   0.707668)
  59:      3240.85    5.206146  (  1.967899  -0.517868  -1.032149)
  60:      3422.64   45.168324  (  1.483239   0.391604   6.543315)
  61:      3504.27   88.912134  (  7.972130  -4.514360  -2.231105)
  62:      3509.17   94.127613  ( -3.762046  -8.492839   2.801126)

--------------------------
THERMOCHEMISTRY AT 298.15K
--------------------------

Temperature         ... 298.15 K
Pressure            ... 1.00 atm
Total Mass          ... 100.18 AMU

Throughout the following assumptions are being made:
  (1) The electronic state is orbitally nondegenerate
  (2) There are no thermally accessible electronically excited states
  (3) Hindered rotations indicated by low frequency modes) are not
      treated as such but are treated as vibrations and this may
      case some error
  (4) All equations used are the standard statistical mechanics
      equations for an ideal gas
  (5) All vibrations are strinctly harmonic

------------
INNER ENERGY
------------

The inner energy is: U= E(el) + E(ZPE) + E(vib) + E(rot) + E(trans)
    E(el)   - is the total energy from the electronic structure calculation
              = E(kin-el) + E(nuc-el) + E(el-el) + E(nuc-nuc)
    E(ZPE)  - the the zero temperature vibrational energy from the frequency calculation
    E(vib)  - the the finite temperature correction to E(ZPE) due to population
              of excietd vibrational states
    E(rot)  - is the rotational thermal energy
    E(trans)- is the translational thermal energy

Summary of contributions to the inner energy U:
Electronic energy                ...   -291.31028592 Eh
Zero point energy                ...      0.19824370 Eh     124.40 kcal/mol
Thermal vibrational correction   ...      0.00635834 Eh       3.99 kcal/mol
Thermal rotational correction    ...      0.00141627 Eh       0.89 kcal/mol
Thermal translational correction ...      0.00141627 Eh       0.89 kcal/mol
-----------------------------------------------------------------------
Total thermal energy                   -291.10285134 Eh

Summary of corrections to the electronic energy:
(perhaps to be used in another calculation)
Total thermal correction                  0.00919088 Eh       5.77 kcal/mol
Non-thermal (ZPE) correction              0.19824370 Eh     124.40 kcal/mol
-----------------------------------------------------------------------
Total correction                          0.20743458 Eh     130.17 kcal/mol

--------
ENTHALPY
--------

The enthalpy is H = U + kB*T
                kB is Boltzmann's constant
Total free energy                 ...   -291.10285134 Eh
Thermal Enthalpy correction       ...      0.00094421 Eh       0.59 kcal/mol
-----------------------------------------------------------------------
Total Enthalpy                    ...   -291.10190713 Eh

-------
ENTROPY
-------

The entropy contributions are T*S = T*(S(el)+S(vib)+S(rot)+S(trans)
     S(el)   - electronic entropy
     S(vib)  - vibrational entropy
     S(rot)  - rotational entropy
     S(trans)- translational entropy
The entropies will be listed as mutliplied by the temperature to get
units of energy

Electronic entropy                ...      0.00000000 Eh      0.00 kcal/mol
Vibrational entropy               ...      0.01225775 Eh      7.69 kcal/mol
Rotational entropy                ...      0.01237075 Eh      7.76 kcal/mol
Translational entropy             ...      0.01887386 Eh     11.84 kcal/mol
-----------------------------------------------------------------------
Final entropy term                ...      0.04350236 Eh     27.30 kcal/mol

CAUTION: The rotational entropy is not quite correctly treated here
         because it includes a symmetry number that is not yet correctly
         implemented in ORCA!
For a nonlinear molecule the correct rotational entropy is:
    S(rot) = R*(ln(qrot/sn)+1.5)
    R    = 8.31441 J/mol/K = 1.987191683e-3 kcal/mol/K
    qrot = 327980.4846305
    sn is the rotational symmetry number. We have assumed 3 here
       if it is different for your molecule then you should correct
       the printed rotational entropy by manually evaluating the equation
       as given above

For convenience we print out the resulting values for sn=1 - 12:
 sn= 1  qrot/sn=  327980.4846 T*S(rot)=     8.41 kcal/mol T*S(tot)=    27.95 kcal/mol
 sn= 2  qrot/sn=  163990.2423 T*S(rot)=     8.00 kcal/mol T*S(tot)=    27.54 kcal/mol
 sn= 3  qrot/sn=  109326.8282 T*S(rot)=     7.76 kcal/mol T*S(tot)=    27.30 kcal/mol
 sn= 4  qrot/sn=   81995.1212 T*S(rot)=     7.59 kcal/mol T*S(tot)=    27.13 kcal/mol
 sn= 5  qrot/sn=   65596.0969 T*S(rot)=     7.46 kcal/mol T*S(tot)=    27.00 kcal/mol
 sn= 6  qrot/sn=   54663.4141 T*S(rot)=     7.35 kcal/mol T*S(tot)=    26.89 kcal/mol
 sn= 7  qrot/sn=   46854.3549 T*S(rot)=     7.26 kcal/mol T*S(tot)=    26.80 kcal/mol
 sn= 8  qrot/sn=   40997.5606 T*S(rot)=     7.18 kcal/mol T*S(tot)=    26.72 kcal/mol
 sn= 9  qrot/sn=   36442.2761 T*S(rot)=     7.11 kcal/mol T*S(tot)=    26.65 kcal/mol
 sn=10  qrot/sn=   32798.0485 T*S(rot)=     7.05 kcal/mol T*S(tot)=    26.58 kcal/mol
 sn=11  qrot/sn=   29816.4077 T*S(rot)=     6.99 kcal/mol T*S(tot)=    26.53 kcal/mol
 sn=12  qrot/sn=   27331.7071 T*S(rot)=     6.94 kcal/mol T*S(tot)=    26.48 kcal/mol

-------------------
GIBBS FREE ENTHALPY
-------------------

The Gibbs free enthalpy is G = H - T*S

Total enthalpy                    ...   -291.10190713 Eh
Total entropy correction          ...     -0.04350236 Eh    -27.30 kcal/mol
-----------------------------------------------------------------------
Final Gibbs free enthalpy         ...   -291.14540949 Eh

For completeness - the Gibbs free enthalpy minus the electronic energy
G-E(el)                           ...      0.16487643 Eh    103.46 kcal/mol

                             ****ORCA TERMINATED NORMALLY****
TOTAL RUN TIME: 0 days 0 hours 48 minutes 34 seconds 12 msec
