                         Program Version 3.0.3 - RELEASE   -
|  1> ! NORI PBE0 def2-TZVP UseSym TightOPT Freq TightSCF Grid3 FinalGrid5 XYZFile
|  2> % pal
|  3>     nprocs 8
|  4> end
|  5> %method
|  6>     SymThresh 5.0e-2
|  7> end
|  8> % geom
|  9>     MaxIter 10
| 10> end
| 11> % maxcore 2000
| 12> % output
| 13>     printlevel mini
| 14>     print[ P_Basis ] 0
| 15>     print[ P_SCFInfo ] 1
| 16>     print[ P_SCFIterInfo ] 1
| 17>     print[ P_OrbEn ] 0
| 18>     print[ P_Cartesian ] 0
| 19> end
| 20> % elprop
| 21>     Dipole false
| 22> end
| 23> *xyz 1 1
| 24>  C        3.5796969783     1.1596831047    -0.9887259385
| 25>  C        2.7945974498     0.0590020330    -0.3423238259
| 26>  C        1.5609601161    -0.2785881431    -0.7245911701
| 27>  C        3.4580531207    -0.6869701266     0.7618407332
| 28>  C        3.1514962034    -0.5589515719     2.0472981610
| 29>  C        4.5195186399    -1.6451995333     0.3114590248
| 30>  N        3.8726961203    -2.6500552089    -0.6145967359
| 31>  H        3.0418498991     1.5830848707    -1.8362830620
| 32>  H        4.5599921907     0.8243167897    -1.3404543650
| 33>  H        3.7688999206     1.9559707917    -0.2629551196
| 34>  H        1.0595235921     0.2440177159    -1.5320936045
| 35>  H        0.9943142937    -1.0459365490    -0.2060906183
| 36>  H        2.3970464445     0.1467925174     2.3742042497
| 37>  H        3.6566056059    -1.1345421153     2.8160024808
| 38>  H        5.3022780172    -1.1582681824    -0.2737541192
| 39>  H        4.9751878834    -2.1923388338     1.1348346182
| 40>  H        3.2246126519    -2.1323399397    -1.2302144929
| 41>  H        3.3122376147    -3.3209429857    -0.0861295253
| 42>  H        4.5465732576    -3.1661346336    -1.1817866904
| 43> *
| 44>
| 45>                          ****END OF INPUT****
 Total Charge           Charge          ....    1
 Multiplicity           Mult            ....    1
 Number of Electrons    NEL             ....   54
FINAL SINGLE POINT ENERGY      -290.083271637488

CARTESIAN COORDINATES (ANGSTROEM)
---------------------------------
  C      1.684791   -0.000258   -1.332326
  C      0.418709   -0.530657   -0.730998
  C      0.145060   -1.833913   -0.638142
  C     -0.550931    0.468777   -0.205289
  C     -1.697878    0.786913   -0.793854
  C     -0.146476    1.101289    1.092323
  N      0.000540   -0.000227    2.117665
  H      2.360811   -0.809224   -1.607333
  H      2.218992    0.675449   -0.656869
  H      1.454056    0.580941   -2.229730
  H      0.838246   -2.581942   -1.007013
  H     -0.802357   -2.189792   -0.245705
  H     -1.981970    0.343064   -1.740472
  H     -2.378177    1.515139   -0.364825
  H      0.828495    1.589007    1.034234
  H     -0.881555    1.812041    1.466240
  H      0.477807   -0.791619    1.656586
  H     -0.915008   -0.337582    2.420136
  H      0.529316    0.286342    2.942398

FINAL SINGLE POINT ENERGY      -290.083272623811
                    ***********************HURRAY********************
 Multiplicity           Mult            ....    1
 Number of Electrons    NEL             ....   54
 Basis Dimension        Dim             ....  289
FINAL SINGLE POINT ENERGY      -290.083272917367

VIBRATIONAL FREQUENCIES
-----------------------

   0:         0.00 cm**-1
   1:         0.00 cm**-1
   2:         0.00 cm**-1
   3:         0.00 cm**-1
   4:         0.00 cm**-1
   5:         0.00 cm**-1
   6:        45.05 cm**-1
   7:       108.50 cm**-1
   8:       170.50 cm**-1
   9:       184.99 cm**-1
  10:       225.26 cm**-1
  11:       253.24 cm**-1
  12:       318.79 cm**-1
  13:       380.80 cm**-1
  14:       442.39 cm**-1
  15:       563.89 cm**-1
  16:       652.81 cm**-1
  17:       716.16 cm**-1
  18:       741.90 cm**-1
  19:       785.94 cm**-1
  20:       871.03 cm**-1
  21:       893.64 cm**-1
  22:       944.22 cm**-1
  23:       971.46 cm**-1
  24:       983.24 cm**-1
  25:      1006.96 cm**-1
  26:      1021.62 cm**-1
  27:      1056.06 cm**-1
  28:      1080.53 cm**-1
  29:      1109.55 cm**-1
  30:      1215.95 cm**-1
  31:      1323.47 cm**-1
  32:      1324.49 cm**-1
  33:      1382.28 cm**-1
  34:      1407.03 cm**-1
  35:      1434.71 cm**-1
  36:      1457.11 cm**-1
  37:      1467.11 cm**-1
  38:      1480.74 cm**-1
  39:      1486.92 cm**-1
  40:      1491.25 cm**-1
  41:      1636.31 cm**-1
  42:      1662.78 cm**-1
  43:      1700.02 cm**-1
  44:      1730.43 cm**-1
  45:      3046.85 cm**-1
  46:      3097.48 cm**-1
  47:      3105.05 cm**-1
  48:      3151.97 cm**-1
  49:      3155.66 cm**-1
  50:      3162.88 cm**-1
  51:      3168.45 cm**-1
  52:      3243.75 cm**-1
  53:      3257.72 cm**-1
  54:      3290.34 cm**-1
  55:      3465.88 cm**-1
  56:      3523.08 cm**-1

IR SPECTRUM
-----------

 Mode    freq (cm**-1)   T**2         TX         TY         TZ
-------------------------------------------------------------------
   6:        45.05    2.300891  ( -1.139136  -0.725902  -0.690165)
   7:       108.50   12.659861  (  2.766856  -0.920938  -2.038687)
   8:       170.50    2.690746  (  0.280471   0.886985   1.351051)
   9:       184.99   11.885854  (  0.160831   1.685989   3.002904)
  10:       225.26    1.325751  (  0.365666   1.039272  -0.334595)
  11:       253.24    0.023478  (  0.141211   0.004467  -0.059310)
  12:       318.79    4.035541  (  0.040381   0.424441   1.963100)
  13:       380.80   17.586091  (  1.474368   0.725023   3.858325)
  14:       442.39    0.954531  ( -0.234628   0.152323   0.936097)
  15:       563.89   17.820410  ( -0.096667   0.040971   4.220117)
  16:       652.81    9.860244  ( -1.856953  -1.422185   2.095080)
  17:       716.16    0.773692  ( -0.194305  -0.330730  -0.791552)
  18:       741.90    1.823041  (  0.580012  -0.846536  -0.877498)
  19:       785.94    2.791552  ( -1.182299  -1.180517  -0.010013)
  20:       871.03   12.340703  (  2.891534  -1.755523   0.947562)
  21:       893.64   18.838832  ( -1.056293   0.484098   4.181952)
  22:       944.22    0.674112  (  0.214168  -0.192523  -0.768881)
  23:       971.46   14.887511  ( -1.667710   1.956347  -2.877318)
  24:       983.24   42.083771  ( -2.054599   1.130919  -6.048423)
  25:      1006.96   36.034574  ( -2.794682  -4.844888   2.179768)
  26:      1021.62    4.261541  ( -0.848118   1.882021  -0.015288)
  27:      1056.06    8.345143  ( -0.417437   0.911513   2.709250)
  28:      1080.53   26.194691  ( -0.315041  -3.281281  -3.915180)
  29:      1109.55   18.293191  (  1.240816   3.607959   1.932925)
  30:      1215.95    3.592263  (  1.753163  -0.037389   0.719224)
  31:      1323.47   13.071223  ( -2.959149   2.064926   0.225249)
  32:      1324.49    3.859420  ( -0.512052  -0.310842   1.870989)
  33:      1382.28   11.328224  ( -1.954019   0.024253  -2.740336)
  34:      1407.03    9.093420  (  1.876473   1.166823  -2.052022)
  35:      1434.71    0.879184  ( -0.786858   0.139562   0.490470)
  36:      1457.11   14.048715  (  3.303196  -0.063413   1.770195)
  37:      1467.11    8.887890  (  1.982105  -0.773087   2.088418)
  38:      1480.74   25.711788  (  0.495129   5.030013   0.406946)
  39:      1486.92   22.011442  ( -0.190108  -4.669161   0.417417)
  40:      1491.25  158.212301  ( -2.014572   5.029983 -11.351347)
  41:      1636.31   28.277265  ( -5.246795   0.469546   0.726591)
  42:      1662.78   32.369976  (  0.474776   2.305630   5.179637)
  43:      1700.02   17.988194  ( -1.683885  -2.981391   2.502805)
  44:      1730.43    1.346958  ( -1.135033  -0.069692   0.231952)
  45:      3046.85    6.363565  (  1.740581   1.642407   0.797773)
  46:      3097.48    1.156480  (  0.621993   0.539363   0.691875)
  47:      3105.05    7.147824  ( -1.156657  -1.405807  -1.957977)
  48:      3151.97    0.260011  ( -0.438698  -0.085328   0.245507)
  49:      3155.66    3.684889  ( -1.107336   1.323693   0.840555)
  50:      3162.88    1.055799  (  0.113068   0.631861   0.802351)
  51:      3168.45    0.828651  (  0.398672  -0.602083  -0.554263)
  52:      3243.75    1.025725  ( -0.898615  -0.093964   0.457587)
  53:      3257.72    0.651122  (  0.664218  -0.229441   0.396602)
  54:      3290.34  143.402041  ( -3.931756   7.180483   8.739794)
  55:      3465.88  112.733034  (  3.345026  -1.098031 -10.016894)
  56:      3523.08   91.046963  (  7.802250   3.835883   3.931648)

--------------------------
THERMOCHEMISTRY AT 298.15K
--------------------------

Temperature         ... 298.15 K
Pressure            ... 1.00 atm
Total Mass          ... 98.17 AMU

Throughout the following assumptions are being made:
  (1) The electronic state is orbitally nondegenerate
  (2) There are no thermally accessible electronically excited states
  (3) Hindered rotations indicated by low frequency modes) are not
      treated as such but are treated as vibrations and this may
      case some error
  (4) All equations used are the standard statistical mechanics
      equations for an ideal gas
  (5) All vibrations are strinctly harmonic

------------
INNER ENERGY
------------

The inner energy is: U= E(el) + E(ZPE) + E(vib) + E(rot) + E(trans)
    E(el)   - is the total energy from the electronic structure calculation
              = E(kin-el) + E(nuc-el) + E(el-el) + E(nuc-nuc)
    E(ZPE)  - the the zero temperature vibrational energy from the frequency calculation
    E(vib)  - the the finite temperature correction to E(ZPE) due to population
              of excietd vibrational states
    E(rot)  - is the rotational thermal energy
    E(trans)- is the translational thermal energy

Summary of contributions to the inner energy U:
Electronic energy                ...   -290.08327292 Eh
Zero point energy                ...      0.17404797 Eh     109.22 kcal/mol
Thermal vibrational correction   ...      0.00584317 Eh       3.67 kcal/mol
Thermal rotational correction    ...      0.00141627 Eh       0.89 kcal/mol
Thermal translational correction ...      0.00141627 Eh       0.89 kcal/mol
-----------------------------------------------------------------------
Total thermal energy                   -289.90054924 Eh

Summary of corrections to the electronic energy:
(perhaps to be used in another calculation)
Total thermal correction                  0.00867572 Eh       5.44 kcal/mol
Non-thermal (ZPE) correction              0.17404797 Eh     109.22 kcal/mol
-----------------------------------------------------------------------
Total correction                          0.18272368 Eh     114.66 kcal/mol

--------
ENTHALPY
--------

The enthalpy is H = U + kB*T
                kB is Boltzmann's constant
Total free energy                 ...   -289.90054924 Eh
Thermal Enthalpy correction       ...      0.00094421 Eh       0.59 kcal/mol
-----------------------------------------------------------------------
Total Enthalpy                    ...   -289.89960503 Eh

-------
ENTROPY
-------

The entropy contributions are T*S = T*(S(el)+S(vib)+S(rot)+S(trans)
     S(el)   - electronic entropy
     S(vib)  - vibrational entropy
     S(rot)  - rotational entropy
     S(trans)- translational entropy
The entropies will be listed as mutliplied by the temperature to get
units of energy

Electronic entropy                ...      0.00000000 Eh      0.00 kcal/mol
Vibrational entropy               ...      0.01078599 Eh      6.77 kcal/mol
Rotational entropy                ...      0.01213367 Eh      7.61 kcal/mol
Translational entropy             ...      0.01884507 Eh     11.83 kcal/mol
-----------------------------------------------------------------------
Final entropy term                ...      0.04176473 Eh     26.21 kcal/mol

CAUTION: The rotational entropy is not quite correctly treated here
         because it includes a symmetry number that is not yet correctly
         implemented in ORCA!
For a nonlinear molecule the correct rotational entropy is:
    S(rot) = R*(ln(qrot/sn)+1.5)
    R    = 8.31441 J/mol/K = 1.987191683e-3 kcal/mol/K
    qrot = 255151.8684364
    sn is the rotational symmetry number. We have assumed 3 here
       if it is different for your molecule then you should correct
       the printed rotational entropy by manually evaluating the equation
       as given above

For convenience we print out the resulting values for sn=1 - 12:
 sn= 1  qrot/sn=  255151.8684 T*S(rot)=     8.26 kcal/mol T*S(tot)=    26.86 kcal/mol
 sn= 2  qrot/sn=  127575.9342 T*S(rot)=     7.85 kcal/mol T*S(tot)=    26.45 kcal/mol
 sn= 3  qrot/sn=   85050.6228 T*S(rot)=     7.61 kcal/mol T*S(tot)=    26.21 kcal/mol
 sn= 4  qrot/sn=   63787.9671 T*S(rot)=     7.44 kcal/mol T*S(tot)=    26.04 kcal/mol
 sn= 5  qrot/sn=   51030.3737 T*S(rot)=     7.31 kcal/mol T*S(tot)=    25.91 kcal/mol
 sn= 6  qrot/sn=   42525.3114 T*S(rot)=     7.20 kcal/mol T*S(tot)=    25.80 kcal/mol
 sn= 7  qrot/sn=   36450.2669 T*S(rot)=     7.11 kcal/mol T*S(tot)=    25.71 kcal/mol
 sn= 8  qrot/sn=   31893.9836 T*S(rot)=     7.03 kcal/mol T*S(tot)=    25.63 kcal/mol
 sn= 9  qrot/sn=   28350.2076 T*S(rot)=     6.96 kcal/mol T*S(tot)=    25.56 kcal/mol
 sn=10  qrot/sn=   25515.1868 T*S(rot)=     6.90 kcal/mol T*S(tot)=    25.49 kcal/mol
 sn=11  qrot/sn=   23195.6244 T*S(rot)=     6.84 kcal/mol T*S(tot)=    25.44 kcal/mol
 sn=12  qrot/sn=   21262.6557 T*S(rot)=     6.79 kcal/mol T*S(tot)=    25.39 kcal/mol

-------------------
GIBBS FREE ENTHALPY
-------------------

The Gibbs free enthalpy is G = H - T*S

Total enthalpy                    ...   -289.89960503 Eh
Total entropy correction          ...     -0.04176473 Eh    -26.21 kcal/mol
-----------------------------------------------------------------------
Final Gibbs free enthalpy         ...   -289.94136976 Eh

For completeness - the Gibbs free enthalpy minus the electronic energy
G-E(el)                           ...      0.14190316 Eh     89.05 kcal/mol

                             ****ORCA TERMINATED NORMALLY****
TOTAL RUN TIME: 0 days 0 hours 45 minutes 7 seconds 988 msec
