                         Program Version 3.0.3 - RELEASE   -
|  1> ! NORI PBE0 def2-TZVP UseSym TightOPT Freq TightSCF Grid3 FinalGrid5 XYZFile
|  2> % pal
|  3>     nprocs 8
|  4> end
|  5> %method
|  6>     SymThresh 5.0e-2
|  7> end
|  8> % geom
|  9>     MaxIter 10
| 10> end
| 11> % maxcore 2000
| 12> % output
| 13>     printlevel mini
| 14>     print[ P_Basis ] 0
| 15>     print[ P_SCFInfo ] 1
| 16>     print[ P_SCFIterInfo ] 1
| 17>     print[ P_OrbEn ] 0
| 18>     print[ P_Cartesian ] 0
| 19> end
| 20> % elprop
| 21>     Dipole false
| 22> end
| 23> *xyz 1 1
| 24>  C        2.9828969216    -1.3554957151     0.4490033009
| 25>  C        2.5790198910     0.0676104282     0.1888206515
| 26>  C        1.7238478371     0.7000722542     0.9851238485
| 27>  C        3.1605939586     0.7427517904    -1.0432390038
| 28>  C        3.0803510214    -0.1348110737    -2.2837462938
| 29>  C        2.6321446660     2.1356713751    -1.3270402963
| 30>  N        4.6612726423     0.9219962486    -0.7384400097
| 31>  H        4.0673883929    -1.5205325222     0.4265996088
| 32>  H        2.5504744258    -2.0367943930    -0.2881630303
| 33>  H        2.6398337476    -1.6722442826     1.4325516043
| 34>  H        1.3805448254     1.7102955596     0.8067103933
| 35>  H        1.3112214849     0.2005398131     1.8535501746
| 36>  H        3.5111443851     0.3675869113    -3.1533135154
| 37>  H        2.0318581819    -0.3363874425    -2.5044654689
| 38>  H        3.5800628543    -1.0955693708    -2.1503303893
| 39>  H        3.1293171800     2.5690090776    -2.1982737474
| 40>  H        2.7598278516     2.8130643386    -0.4802190490
| 41>  H        1.5682013567     2.0799898121    -1.5563260004
| 42>  H        5.1539819741     1.3270772908    -1.5365364647
| 43>  H        5.0928956297     0.0228598035    -0.5183927110
| 44>  H        4.7839607719     1.5374900969     0.0678363982
| 45> *
| 46>
| 47>                          ****END OF INPUT****
 Total Charge           Charge          ....    1
 Multiplicity           Mult            ....    1
 Number of Electrons    NEL             ....   56
FINAL SINGLE POINT ENERGY      -291.316570953370
FINAL SINGLE POINT ENERGY      -291.316573631438
FINAL SINGLE POINT ENERGY      -291.316575039029

CARTESIAN COORDINATES (ANGSTROEM)
---------------------------------
  C      1.969143   -0.004687   -0.640558
  C      0.548881   -0.492058   -0.610110
  C      0.159878   -1.533718   -1.337750
  C     -0.435178    0.277549    0.256964
  C     -0.336871    1.783075    0.059839
  C     -1.875848   -0.187794    0.170517
  N      0.000334    0.003839    1.710168
  H      2.413036    0.137185    0.352945
  H      2.053710    0.954205   -1.158478
  H      2.602606   -0.719844   -1.163261
  H     -0.861898   -1.888212   -1.370084
  H      0.870453   -2.064716   -1.960351
  H     -1.043796    2.313306    0.703095
  H     -0.590086    2.020079   -0.974048
  H      0.667005    2.166799    0.249699
  H     -2.507485    0.384024    0.855019
  H     -1.988589   -1.249748    0.397975
  H     -2.253929   -0.017830   -0.837191
  H     -0.577627    0.525683    2.371505
  H      0.974538    0.276148    1.851836
  H     -0.082766   -0.992720    1.919681

FINAL SINGLE POINT ENERGY      -291.316575225273
                    ***********************HURRAY********************
 Multiplicity           Mult            ....    1
 Number of Electrons    NEL             ....   56
 Basis Dimension        Dim             ....  301
FINAL SINGLE POINT ENERGY      -291.316575263850

VIBRATIONAL FREQUENCIES
-----------------------

   0:         0.00 cm**-1
   1:         0.00 cm**-1
   2:         0.00 cm**-1
   3:         0.00 cm**-1
   4:         0.00 cm**-1
   5:         0.00 cm**-1
   6:        64.42 cm**-1
   7:       175.35 cm**-1
   8:       201.67 cm**-1
   9:       239.07 cm**-1
  10:       265.25 cm**-1
  11:       295.79 cm**-1
  12:       308.56 cm**-1
  13:       347.17 cm**-1
  14:       372.75 cm**-1
  15:       389.29 cm**-1
  16:       466.95 cm**-1
  17:       483.81 cm**-1
  18:       559.17 cm**-1
  19:       671.42 cm**-1
  20:       735.57 cm**-1
  21:       801.33 cm**-1
  22:       898.13 cm**-1
  23:       936.70 cm**-1
  24:       954.95 cm**-1
  25:       962.92 cm**-1
  26:       997.53 cm**-1
  27:      1006.36 cm**-1
  28:      1028.04 cm**-1
  29:      1052.01 cm**-1
  30:      1067.88 cm**-1
  31:      1164.58 cm**-1
  32:      1219.05 cm**-1
  33:      1285.98 cm**-1
  34:      1345.54 cm**-1
  35:      1408.58 cm**-1
  36:      1417.09 cm**-1
  37:      1421.04 cm**-1
  38:      1444.29 cm**-1
  39:      1464.42 cm**-1
  40:      1469.71 cm**-1
  41:      1477.20 cm**-1
  42:      1481.38 cm**-1
  43:      1490.80 cm**-1
  44:      1496.48 cm**-1
  45:      1509.58 cm**-1
  46:      1642.52 cm**-1
  47:      1652.74 cm**-1
  48:      1726.64 cm**-1
  49:      3027.88 cm**-1
  50:      3059.35 cm**-1
  51:      3062.99 cm**-1
  52:      3097.89 cm**-1
  53:      3133.46 cm**-1
  54:      3138.98 cm**-1
  55:      3156.33 cm**-1
  56:      3158.85 cm**-1
  57:      3162.77 cm**-1
  58:      3179.50 cm**-1
  59:      3266.21 cm**-1
  60:      3418.39 cm**-1
  61:      3511.96 cm**-1
  62:      3515.25 cm**-1

IR SPECTRUM
-----------

 Mode    freq (cm**-1)   T**2         TX         TY         TZ
-------------------------------------------------------------------
   6:        64.42    1.565359  (  0.584545   1.106045  -0.018188)
   7:       175.35    0.381054  (  0.189766   0.061272  -0.584199)
   8:       201.67    0.224518  (  0.079963  -0.440617   0.154855)
   9:       239.07    5.890451  (  1.461690  -1.074513  -1.612245)
  10:       265.25    4.685425  ( -1.438005   1.004019   1.268666)
  11:       295.79    0.808103  ( -0.045158  -0.889135  -0.124507)
  12:       308.56    1.773704  ( -1.080316   0.457371   0.630423)
  13:       347.17    4.806393  (  1.014498   1.819668  -0.682640)
  14:       372.75    2.989573  ( -1.626516  -0.439906  -0.387947)
  15:       389.29    1.461367  (  0.979207  -0.614384  -0.353630)
  16:       466.95    0.889297  (  0.827758  -0.450769  -0.030344)
  17:       483.81    1.701308  (  0.643463   0.540138  -0.997754)
  18:       559.17   13.863027  ( -0.641648   1.789881  -3.201193)
  19:       671.42    0.349763  (  0.069372   0.013808  -0.587163)
  20:       735.57    0.097985  (  0.300309   0.085001  -0.023968)
  21:       801.33    7.678843  (  1.239838  -0.630842   2.396598)
  22:       898.13   14.951139  (  1.561191  -1.656306  -3.125775)
  23:       936.70    4.616134  ( -1.817222  -1.084226   0.371875)
  24:       954.95    3.064327  ( -1.573769  -0.652733   0.401892)
  25:       962.92    0.475637  (  0.237199  -0.368548   0.532490)
  26:       997.53   31.285335  ( -1.181169   3.202607  -4.430969)
  27:      1006.36    3.493028  ( -0.661279  -1.656839   0.557334)
  28:      1028.04   10.739159  (  1.937128  -2.541330   0.726868)
  29:      1052.01    6.848226  ( -0.798831  -2.388643  -0.710267)
  30:      1067.88    1.463633  ( -0.940683  -0.421597  -0.633249)
  31:      1164.58   38.277579  ( -0.617987   0.239180  -6.151298)
  32:      1219.05   19.264997  ( -3.866647   1.652198   1.258681)
  33:      1285.98   13.869376  ( -0.501942  -3.665405  -0.426890)
  34:      1345.54   17.813258  ( -2.346225   2.215264   2.720494)
  35:      1408.58   11.291575  ( -2.060409  -2.561866   0.695076)
  36:      1417.09   17.363441  ( -2.083942  -3.005982   1.996171)
  37:      1421.04   41.013096  ( -4.555190   2.301017  -3.868936)
  38:      1444.29   15.243197  (  1.382123   0.638766   3.595123)
  39:      1464.42   52.106135  ( -0.149471  -1.292094  -7.100302)
  40:      1469.71   32.398254  (  0.361702   2.269417   5.207415)
  41:      1477.20    8.464811  ( -1.835398   2.100996  -0.825797)
  42:      1481.38   56.241749  ( -0.331744   1.268320  -7.383973)
  43:      1490.80   36.494420  (  1.253245  -2.318575   5.435808)
  44:      1496.48   19.750222  ( -2.264020   2.216113  -3.116613)
  45:      1509.58    2.012722  ( -1.138596  -0.636107   0.558292)
  46:      1642.52   38.658963  (  4.326818   4.463750   0.112020)
  47:      1652.74   45.866333  ( -4.462413   4.268407   2.780990)
  48:      1726.64    2.799877  (  0.853665   1.431820   0.145003)
  49:      3027.88   23.761041  ( -1.623895  -1.658527  -4.286408)
  50:      3059.35    1.729101  (  0.696227   1.103404   0.163912)
  51:      3062.99    7.055543  ( -0.378517   0.440370   2.591976)
  52:      3097.89    5.974106  (  0.289420  -0.626818   2.344662)
  53:      3133.46    4.283879  ( -0.258891   1.993526   0.492656)
  54:      3138.98    9.906473  (  2.661542  -1.292588  -1.073259)
  55:      3156.33    1.768615  (  1.066930   0.783374  -0.128847)
  56:      3158.85    2.357181  (  0.119424  -1.335490  -0.747920)
  57:      3162.77    0.888374  (  0.728128   0.139474  -0.582023)
  58:      3179.50    0.025685  (  0.104724  -0.055953  -0.107642)
  59:      3266.21    0.482613  (  0.685566   0.087680  -0.070170)
  60:      3418.39   27.177333  (  1.543007  -1.049221   4.867812)
  61:      3511.96   70.491692  (  7.329153   3.026246  -2.759899)
  62:      3515.25   64.127027  ( -2.881194   7.178294   2.073123)

--------------------------
THERMOCHEMISTRY AT 298.15K
--------------------------

Temperature         ... 298.15 K
Pressure            ... 1.00 atm
Total Mass          ... 100.18 AMU

Throughout the following assumptions are being made:
  (1) The electronic state is orbitally nondegenerate
  (2) There are no thermally accessible electronically excited states
  (3) Hindered rotations indicated by low frequency modes) are not
      treated as such but are treated as vibrations and this may
      case some error
  (4) All equations used are the standard statistical mechanics
      equations for an ideal gas
  (5) All vibrations are strinctly harmonic

------------
INNER ENERGY
------------

The inner energy is: U= E(el) + E(ZPE) + E(vib) + E(rot) + E(trans)
    E(el)   - is the total energy from the electronic structure calculation
              = E(kin-el) + E(nuc-el) + E(el-el) + E(nuc-nuc)
    E(ZPE)  - the the zero temperature vibrational energy from the frequency calculation
    E(vib)  - the the finite temperature correction to E(ZPE) due to population
              of excietd vibrational states
    E(rot)  - is the rotational thermal energy
    E(trans)- is the translational thermal energy

Summary of contributions to the inner energy U:
Electronic energy                ...   -291.31657526 Eh
Zero point energy                ...      0.19658206 Eh     123.36 kcal/mol
Thermal vibrational correction   ...      0.00623866 Eh       3.91 kcal/mol
Thermal rotational correction    ...      0.00141627 Eh       0.89 kcal/mol
Thermal translational correction ...      0.00141627 Eh       0.89 kcal/mol
-----------------------------------------------------------------------
Total thermal energy                   -291.11092201 Eh

Summary of corrections to the electronic energy:
(perhaps to be used in another calculation)
Total thermal correction                  0.00907120 Eh       5.69 kcal/mol
Non-thermal (ZPE) correction              0.19658206 Eh     123.36 kcal/mol
-----------------------------------------------------------------------
Total correction                          0.20565326 Eh     129.05 kcal/mol

--------
ENTHALPY
--------

The enthalpy is H = U + kB*T
                kB is Boltzmann's constant
Total free energy                 ...   -291.11092201 Eh
Thermal Enthalpy correction       ...      0.00094421 Eh       0.59 kcal/mol
-----------------------------------------------------------------------
Total Enthalpy                    ...   -291.10997780 Eh

-------
ENTROPY
-------

The entropy contributions are T*S = T*(S(el)+S(vib)+S(rot)+S(trans)
     S(el)   - electronic entropy
     S(vib)  - vibrational entropy
     S(rot)  - rotational entropy
     S(trans)- translational entropy
The entropies will be listed as mutliplied by the temperature to get
units of energy

Electronic entropy                ...      0.00000000 Eh      0.00 kcal/mol
Vibrational entropy               ...      0.01059688 Eh      6.65 kcal/mol
Rotational entropy                ...      0.01207423 Eh      7.58 kcal/mol
Translational entropy             ...      0.01887386 Eh     11.84 kcal/mol
-----------------------------------------------------------------------
Final entropy term                ...      0.04154497 Eh     26.07 kcal/mol

CAUTION: The rotational entropy is not quite correctly treated here
         because it includes a symmetry number that is not yet correctly
         implemented in ORCA!
For a nonlinear molecule the correct rotational entropy is:
    S(rot) = R*(ln(qrot/sn)+1.5)
    R    = 8.31441 J/mol/K = 1.987191683e-3 kcal/mol/K
    qrot = 239584.5881129
    sn is the rotational symmetry number. We have assumed 3 here
       if it is different for your molecule then you should correct
       the printed rotational entropy by manually evaluating the equation
       as given above

For convenience we print out the resulting values for sn=1 - 12:
 sn= 1  qrot/sn=  239584.5881 T*S(rot)=     8.23 kcal/mol T*S(tot)=    26.72 kcal/mol
 sn= 2  qrot/sn=  119792.2941 T*S(rot)=     7.82 kcal/mol T*S(tot)=    26.31 kcal/mol
 sn= 3  qrot/sn=   79861.5294 T*S(rot)=     7.58 kcal/mol T*S(tot)=    26.07 kcal/mol
 sn= 4  qrot/sn=   59896.1470 T*S(rot)=     7.41 kcal/mol T*S(tot)=    25.90 kcal/mol
 sn= 5  qrot/sn=   47916.9176 T*S(rot)=     7.27 kcal/mol T*S(tot)=    25.77 kcal/mol
 sn= 6  qrot/sn=   39930.7647 T*S(rot)=     7.17 kcal/mol T*S(tot)=    25.66 kcal/mol
 sn= 7  qrot/sn=   34226.3697 T*S(rot)=     7.07 kcal/mol T*S(tot)=    25.57 kcal/mol
 sn= 8  qrot/sn=   29948.0735 T*S(rot)=     7.00 kcal/mol T*S(tot)=    25.49 kcal/mol
 sn= 9  qrot/sn=   26620.5098 T*S(rot)=     6.93 kcal/mol T*S(tot)=    25.42 kcal/mol
 sn=10  qrot/sn=   23958.4588 T*S(rot)=     6.86 kcal/mol T*S(tot)=    25.36 kcal/mol
 sn=11  qrot/sn=   21780.4171 T*S(rot)=     6.81 kcal/mol T*S(tot)=    25.30 kcal/mol
 sn=12  qrot/sn=   19965.3823 T*S(rot)=     6.76 kcal/mol T*S(tot)=    25.25 kcal/mol

-------------------
GIBBS FREE ENTHALPY
-------------------

The Gibbs free enthalpy is G = H - T*S

Total enthalpy                    ...   -291.10997780 Eh
Total entropy correction          ...     -0.04154497 Eh    -26.07 kcal/mol
-----------------------------------------------------------------------
Final Gibbs free enthalpy         ...   -291.15152277 Eh

For completeness - the Gibbs free enthalpy minus the electronic energy
G-E(el)                           ...      0.16505250 Eh    103.57 kcal/mol

                             ****ORCA TERMINATED NORMALLY****
TOTAL RUN TIME: 0 days 0 hours 55 minutes 52 seconds 548 msec
