                         Program Version 3.0.3 - RELEASE   -
|  1> ! NORI PBE0 def2-TZVP UseSym TightOPT Freq TightSCF Grid3 FinalGrid5 XYZFile
|  2> % pal
|  3>     nprocs 8
|  4> end
|  5> %method
|  6>     SymThresh 5.0e-2
|  7> end
|  8> % geom
|  9>     MaxIter 10
| 10> end
| 11> % maxcore 2000
| 12> % output
| 13>     printlevel mini
| 14>     print[ P_Basis ] 0
| 15>     print[ P_SCFInfo ] 1
| 16>     print[ P_SCFIterInfo ] 1
| 17>     print[ P_OrbEn ] 0
| 18>     print[ P_Cartesian ] 0
| 19> end
| 20> % elprop
| 21>     Dipole false
| 22> end
| 23> *xyz 1 1
| 24>  C        1.3557458281    -0.4461565782    -0.8076908559
| 25>  C        2.2997860452     0.1642305309     0.1853951582
| 26>  C        2.5416234663    -0.3401168532     1.3991612884
| 27>  C        2.9613349813     1.3618306740    -0.2073827951
| 28>  C        3.4981477554     2.3786612348    -0.5756478690
| 29>  C        4.1221998033     3.6050269330    -0.9847485550
| 30>  N        5.4823352090     3.3109499926    -1.6065501993
| 31>  H        0.5592432216     0.2551900535    -1.0672981848
| 32>  H        0.9040250086    -1.3483105122    -0.3974257681
| 33>  H        1.8750813114    -0.7077822566    -1.7327751587
| 34>  H        3.2258885882     0.1376172021     2.0891833029
| 35>  H        2.0498579304    -1.2476087046     1.7286702598
| 36>  H        3.5484769579     4.1387828938    -1.7464210737
| 37>  H        4.3101462810     4.2842505803    -0.1494730402
| 38>  H        5.3702670226     2.6927590140    -2.4133363882
| 39>  H        6.0756105999     2.8233498414    -0.9312046732
| 40>  H        5.9602799899     4.1631059544    -1.9093054480
| 41> *
| 42>
| 43>                          ****END OF INPUT****
 Total Charge           Charge          ....    1
 Multiplicity           Mult            ....    1
 Number of Electrons    NEL             ....   52
FINAL SINGLE POINT ENERGY      -288.833624726151

CARTESIAN COORDINATES (ANGSTROEM)
---------------------------------
  C      1.400436   -0.000125   -2.342524
  C      0.113776   -0.401690   -1.684238
  C     -0.823433   -1.155909   -2.266494
  C     -0.106288    0.069891   -0.359279
  C     -0.257832    0.493860    0.760961
  C     -0.468721    1.014372    2.082073
  N      0.000090    0.000016    3.118376
  H      1.481798    1.087729   -2.403983
  H      1.455422   -0.409951   -3.350413
  H      2.260945   -0.360613   -1.773500
  H     -1.743023   -1.416419   -1.757749
  H     -0.686889   -1.525603   -3.275971
  H      0.098599    1.928506    2.272600
  H     -1.522444    1.205961    2.299034
  H      0.992103   -0.205728    2.980616
  H     -0.510513   -0.878088    3.001716
  H     -0.136271    0.335007    4.075154

FINAL SINGLE POINT ENERGY      -288.833625066925
                    ***********************HURRAY********************
 Multiplicity           Mult            ....    1
 Number of Electrons    NEL             ....   52
 Basis Dimension        Dim             ....  277
FINAL SINGLE POINT ENERGY      -288.833625165241

VIBRATIONAL FREQUENCIES
-----------------------

   0:         0.00 cm**-1
   1:         0.00 cm**-1
   2:         0.00 cm**-1
   3:         0.00 cm**-1
   4:         0.00 cm**-1
   5:         0.00 cm**-1
   6:        27.73 cm**-1
   7:        92.80 cm**-1
   8:       112.25 cm**-1
   9:       166.91 cm**-1
  10:       209.61 cm**-1
  11:       267.94 cm**-1
  12:       306.93 cm**-1
  13:       360.19 cm**-1
  14:       476.42 cm**-1
  15:       563.21 cm**-1
  16:       583.34 cm**-1
  17:       671.37 cm**-1
  18:       745.43 cm**-1
  19:       850.00 cm**-1
  20:       854.83 cm**-1
  21:       941.43 cm**-1
  22:       988.45 cm**-1
  23:      1023.47 cm**-1
  24:      1058.18 cm**-1
  25:      1069.48 cm**-1
  26:      1100.97 cm**-1
  27:      1138.70 cm**-1
  28:      1322.01 cm**-1
  29:      1330.98 cm**-1
  30:      1398.98 cm**-1
  31:      1410.68 cm**-1
  32:      1438.21 cm**-1
  33:      1467.75 cm**-1
  34:      1478.65 cm**-1
  35:      1484.29 cm**-1
  36:      1495.83 cm**-1
  37:      1643.48 cm**-1
  38:      1660.53 cm**-1
  39:      1687.80 cm**-1
  40:      2335.96 cm**-1
  41:      3057.97 cm**-1
  42:      3078.81 cm**-1
  43:      3122.83 cm**-1
  44:      3128.44 cm**-1
  45:      3159.50 cm**-1
  46:      3171.79 cm**-1
  47:      3267.78 cm**-1
  48:      3412.39 cm**-1
  49:      3504.26 cm**-1
  50:      3505.76 cm**-1

IR SPECTRUM
-----------

 Mode    freq (cm**-1)   T**2         TX         TY         TZ
-------------------------------------------------------------------
   7:        92.80   16.517221  (  1.642587  -3.390832  -1.523610)
   8:       112.25    4.941021  (  1.994437   0.981269  -0.018755)
   9:       166.91    0.702372  (  0.335923  -0.698900  -0.317908)
  10:       209.61    0.401179  (  0.624193   0.096590  -0.047256)
  11:       267.94    8.746257  ( -1.051100   1.023540  -2.567842)
  12:       306.93    8.958760  ( -2.628644  -1.254544   0.689282)
  13:       360.19    4.514681  (  0.554091   0.509903  -1.986873)
  14:       476.42   10.460218  ( -0.523446   0.872817  -3.069921)
  15:       563.21   12.077661  (  1.319205  -2.256643   2.290179)
  16:       583.34    3.611254  ( -0.611984   0.659297   1.673935)
  17:       671.37    1.264265  ( -0.038418  -0.622276   0.935714)
  18:       745.43    0.823998  (  0.279707  -0.496196   0.706789)
  19:       850.00   58.448282  ( -0.462615   0.097754  -7.630512)
  20:       854.83    8.543374  ( -2.680988  -1.157365  -0.127212)
  21:       941.43   14.311998  ( -1.011092  -0.658038  -3.585621)
  22:       988.45   35.380637  (  2.569536  -4.945712   2.077994)
  23:      1023.47    5.642701  (  1.486394   0.759248   1.690230)
  24:      1058.18   16.429239  (  0.818349  -3.597302  -1.678977)
  25:      1069.48    0.655449  ( -0.280091   0.734649  -0.193107)
  26:      1100.97    6.216062  ( -2.192020  -1.184536  -0.089349)
  27:      1138.70   12.601935  ( -0.554885   2.040317   2.851516)
  28:      1322.01    6.980654  ( -2.456569  -0.944116   0.233599)
  29:      1330.98    2.288117  (  1.254458   0.844615  -0.032827)
  30:      1398.98   90.049662  (  0.538698   3.148091   8.935826)
  31:      1410.68   51.798096  ( -2.552915   0.917797   6.666211)
  32:      1438.21    1.358987  ( -0.926915  -0.255537   0.659178)
  33:      1467.75   12.392641  (  1.478661  -2.937968   1.254810)
  34:      1478.65    5.405563  ( -0.828729   1.666928   1.392882)
  35:      1484.29   18.371978  (  2.089000   2.303843   2.949638)
  36:      1495.83  158.926386  ( -3.551881   7.156903  -9.751373)
  37:      1643.48   51.550228  ( -6.537823  -2.967676   0.001292)
  38:      1660.53   36.810962  ( -1.318610   3.362613   4.874942)
  39:      1687.80   10.257301  (  1.835808   0.077231  -2.623193)
  40:      2335.96  289.675416  (  0.601146   5.163223  16.206640)
  41:      3057.97    5.418820  ( -2.135576  -0.475847   0.794799)
  42:      3078.81    5.982284  (  0.166500  -0.540053  -2.379686)
  43:      3122.83    4.660932  ( -1.129395   1.614827  -0.881891)
  44:      3128.44    1.022645  ( -0.918622  -0.422775   0.006291)
  45:      3159.50    2.773741  ( -0.194015  -0.688693  -1.503929)
  46:      3171.79    0.042049  (  0.044285  -0.048160  -0.194342)
  47:      3267.78    0.376129  ( -0.547275  -0.276793   0.002281)
  48:      3412.39   41.458238  ( -1.638194   3.135990  -5.379603)
  49:      3504.26  100.710087  ( -9.286545  -3.765689   0.538296)
  50:      3505.76   76.256522  ( -2.368199   6.348126   5.509034)

--------------------------
THERMOCHEMISTRY AT 298.15K
--------------------------

Temperature         ... 298.15 K
Pressure            ... 1.00 atm
Total Mass          ... 96.15 AMU

Throughout the following assumptions are being made:
  (1) The electronic state is orbitally nondegenerate
  (2) There are no thermally accessible electronically excited states
  (3) Hindered rotations indicated by low frequency modes) are not
      treated as such but are treated as vibrations and this may
      case some error
  (4) All equations used are the standard statistical mechanics
      equations for an ideal gas
  (5) All vibrations are strinctly harmonic

------------
INNER ENERGY
------------

The inner energy is: U= E(el) + E(ZPE) + E(vib) + E(rot) + E(trans)
    E(el)   - is the total energy from the electronic structure calculation
              = E(kin-el) + E(nuc-el) + E(el-el) + E(nuc-nuc)
    E(ZPE)  - the the zero temperature vibrational energy from the frequency calculation
    E(vib)  - the the finite temperature correction to E(ZPE) due to population
              of excietd vibrational states
    E(rot)  - is the rotational thermal energy
    E(trans)- is the translational thermal energy

Summary of contributions to the inner energy U:
Electronic energy                ...   -288.83362517 Eh
Zero point energy                ...      0.15069301 Eh      94.56 kcal/mol
Thermal vibrational correction   ...      0.00507826 Eh       3.19 kcal/mol
Thermal rotational correction    ...      0.00141627 Eh       0.89 kcal/mol
Thermal translational correction ...      0.00141627 Eh       0.89 kcal/mol
-----------------------------------------------------------------------
Total thermal energy                   -288.67502135 Eh

Summary of corrections to the electronic energy:
(perhaps to be used in another calculation)
Total thermal correction                  0.00791081 Eh       4.96 kcal/mol
Non-thermal (ZPE) correction              0.15069301 Eh      94.56 kcal/mol
-----------------------------------------------------------------------
Total correction                          0.15860381 Eh      99.53 kcal/mol

--------
ENTHALPY
--------

The enthalpy is H = U + kB*T
                kB is Boltzmann's constant
Total free energy                 ...   -288.67502135 Eh
Thermal Enthalpy correction       ...      0.00094421 Eh       0.59 kcal/mol
-----------------------------------------------------------------------
Total Enthalpy                    ...   -288.67407714 Eh

-------
ENTROPY
-------

The entropy contributions are T*S = T*(S(el)+S(vib)+S(rot)+S(trans)
     S(el)   - electronic entropy
     S(vib)  - vibrational entropy
     S(rot)  - rotational entropy
     S(trans)- translational entropy
The entropies will be listed as mutliplied by the temperature to get
units of energy

Electronic entropy                ...      0.00000000 Eh      0.00 kcal/mol
Vibrational entropy               ...      0.00895092 Eh      5.62 kcal/mol
Rotational entropy                ...      0.01238570 Eh      7.77 kcal/mol
Translational entropy             ...      0.01881568 Eh     11.81 kcal/mol
-----------------------------------------------------------------------
Final entropy term                ...      0.04015230 Eh     25.20 kcal/mol

CAUTION: The rotational entropy is not quite correctly treated here
         because it includes a symmetry number that is not yet correctly
         implemented in ORCA!
For a nonlinear molecule the correct rotational entropy is:
    S(rot) = R*(ln(qrot/sn)+1.5)
    R    = 8.31441 J/mol/K = 1.987191683e-3 kcal/mol/K
    qrot = 333213.0691884
    sn is the rotational symmetry number. We have assumed 3 here
       if it is different for your molecule then you should correct
       the printed rotational entropy by manually evaluating the equation
       as given above

For convenience we print out the resulting values for sn=1 - 12:
 sn= 1  qrot/sn=  333213.0692 T*S(rot)=     8.42 kcal/mol T*S(tot)=    25.85 kcal/mol
 sn= 2  qrot/sn=  166606.5346 T*S(rot)=     8.01 kcal/mol T*S(tot)=    25.44 kcal/mol
 sn= 3  qrot/sn=  111071.0231 T*S(rot)=     7.77 kcal/mol T*S(tot)=    25.20 kcal/mol
 sn= 4  qrot/sn=   83303.2673 T*S(rot)=     7.60 kcal/mol T*S(tot)=    25.03 kcal/mol
 sn= 5  qrot/sn=   66642.6138 T*S(rot)=     7.47 kcal/mol T*S(tot)=    24.89 kcal/mol
 sn= 6  qrot/sn=   55535.5115 T*S(rot)=     7.36 kcal/mol T*S(tot)=    24.79 kcal/mol
 sn= 7  qrot/sn=   47601.8670 T*S(rot)=     7.27 kcal/mol T*S(tot)=    24.69 kcal/mol
 sn= 8  qrot/sn=   41651.6336 T*S(rot)=     7.19 kcal/mol T*S(tot)=    24.61 kcal/mol
 sn= 9  qrot/sn=   37023.6744 T*S(rot)=     7.12 kcal/mol T*S(tot)=    24.54 kcal/mol
 sn=10  qrot/sn=   33321.3069 T*S(rot)=     7.06 kcal/mol T*S(tot)=    24.48 kcal/mol
 sn=11  qrot/sn=   30292.0972 T*S(rot)=     7.00 kcal/mol T*S(tot)=    24.43 kcal/mol
 sn=12  qrot/sn=   27767.7558 T*S(rot)=     6.95 kcal/mol T*S(tot)=    24.37 kcal/mol

-------------------
GIBBS FREE ENTHALPY
-------------------

The Gibbs free enthalpy is G = H - T*S

Total enthalpy                    ...   -288.67407714 Eh
Total entropy correction          ...     -0.04015230 Eh    -25.20 kcal/mol
-----------------------------------------------------------------------
Final Gibbs free enthalpy         ...   -288.71422944 Eh

For completeness - the Gibbs free enthalpy minus the electronic energy
G-E(el)                           ...      0.11939573 Eh     74.92 kcal/mol

                             ****ORCA TERMINATED NORMALLY****
TOTAL RUN TIME: 0 days 0 hours 28 minutes 16 seconds 98 msec
