                         Program Version 3.0.3 - RELEASE   -
|  1> ! NORI PBE0 def2-TZVP UseSym TightOPT Freq TightSCF Grid3 FinalGrid5 XYZFile
|  2> % pal
|  3>     nprocs 8
|  4> end
|  5> %method
|  6>     SymThresh 5.0e-2
|  7> end
|  8> % geom
|  9>     MaxIter 10
| 10> end
| 11> % maxcore 2000
| 12> % output
| 13>     printlevel mini
| 14>     print[ P_Basis ] 0
| 15>     print[ P_SCFInfo ] 1
| 16>     print[ P_SCFIterInfo ] 1
| 17>     print[ P_OrbEn ] 0
| 18>     print[ P_Cartesian ] 0
| 19> end
| 20> % elprop
| 21>     Dipole false
| 22> end
| 23> *xyz 1 1
| 24>  C        0.9927444290    -0.2437164249     0.1906204463
| 25>  C        2.4730816713    -0.1847525152    -0.0018236085
| 26>  C        2.9924230249     0.6310707046    -1.0940407809
| 27>  C        2.2467424100     1.4069243427    -1.8802657040
| 28>  C        3.2736748346    -0.8906911184     0.8233283188
| 29>  C        4.7536537346    -0.9377551816     0.7584841772
| 30>  N        5.3542225998     0.1126692701     1.6924030419
| 31>  H        0.5815747321     0.7539788888     0.3647015066
| 32>  H        0.7247655120    -0.8776539355     1.0345561777
| 33>  H        0.5073679406    -0.6388138478    -0.7054448898
| 34>  H        4.0601024200     0.5948623188    -1.2956360240
| 35>  H        1.1738659648     1.4971307856    -1.7584448383
| 36>  H        2.6945099241     1.9801971619    -2.6825409979
| 37>  H        2.8155831209    -1.4940794684     1.6013381666
| 38>  H        5.1657490927    -0.7235094897    -0.2262765347
| 39>  H        5.1527573210    -1.8929517786     1.1009965233
| 40>  H        5.0386669631     1.0431959154     1.4115384777
| 41>  H        6.3770524936     0.0998081505     1.6942221107
| 42>  H        5.0291518108    -0.0383437785     2.6493644312
| 43> *
| 44>
| 45>                          ****END OF INPUT****
 Total Charge           Charge          ....    1
 Multiplicity           Mult            ....    1
 Number of Electrons    NEL             ....   54
FINAL SINGLE POINT ENERGY      -290.087708622394
FINAL SINGLE POINT ENERGY      -290.087712447795
FINAL SINGLE POINT ENERGY      -290.087714371574

CARTESIAN COORDINATES (ANGSTROEM)
---------------------------------
  C      1.373613    0.001178   -1.766034
  C      0.351186    0.106993   -0.681652
  C     -0.921390   -0.582751   -0.864854
  C     -1.213394   -1.371777   -1.898476
  C      0.630252    0.837806    0.417605
  C     -0.279502    1.044724    1.569567
  N     -0.006810   -0.001530    2.650746
  H      1.648120   -1.041751   -1.943606
  H      2.276780    0.556250   -1.517452
  H      0.975589    0.393079   -2.705357
  H     -1.694156   -0.434972   -0.115087
  H     -0.508156   -1.568285   -2.697038
  H     -2.182442   -1.848771   -1.978369
  H      1.591412    1.338604    0.478974
  H     -1.336522    0.947235    1.328631
  H     -0.121973    2.009360    2.052795
  H     -0.162653   -0.937263    2.270553
  H     -0.599533    0.120569    3.475204
  H      0.969921    0.043077    2.947281

FINAL SINGLE POINT ENERGY      -290.087714698633
                    ***********************HURRAY********************
 Multiplicity           Mult            ....    1
 Number of Electrons    NEL             ....   54
 Basis Dimension        Dim             ....  289
FINAL SINGLE POINT ENERGY      -290.087715037538

VIBRATIONAL FREQUENCIES
-----------------------

   0:         0.00 cm**-1
   1:         0.00 cm**-1
   2:         0.00 cm**-1
   3:         0.00 cm**-1
   4:         0.00 cm**-1
   5:         0.00 cm**-1
   6:        29.83 cm**-1
   7:       119.06 cm**-1
   8:       153.04 cm**-1
   9:       200.92 cm**-1
  10:       205.80 cm**-1
  11:       265.50 cm**-1
  12:       332.98 cm**-1
  13:       392.06 cm**-1
  14:       428.92 cm**-1
  15:       505.20 cm**-1
  16:       565.20 cm**-1
  17:       724.93 cm**-1
  18:       762.19 cm**-1
  19:       819.67 cm**-1
  20:       855.64 cm**-1
  21:       863.83 cm**-1
  22:       969.49 cm**-1
  23:      1002.54 cm**-1
  24:      1013.74 cm**-1
  25:      1025.29 cm**-1
  26:      1059.59 cm**-1
  27:      1071.81 cm**-1
  28:      1087.71 cm**-1
  29:      1153.14 cm**-1
  30:      1279.28 cm**-1
  31:      1331.20 cm**-1
  32:      1341.91 cm**-1
  33:      1378.97 cm**-1
  34:      1396.63 cm**-1
  35:      1413.58 cm**-1
  36:      1454.85 cm**-1
  37:      1468.19 cm**-1
  38:      1485.04 cm**-1
  39:      1491.33 cm**-1
  40:      1495.26 cm**-1
  41:      1648.67 cm**-1
  42:      1656.34 cm**-1
  43:      1665.82 cm**-1
  44:      1707.28 cm**-1
  45:      3060.52 cm**-1
  46:      3109.96 cm**-1
  47:      3124.21 cm**-1
  48:      3157.73 cm**-1
  49:      3161.19 cm**-1
  50:      3168.73 cm**-1
  51:      3177.74 cm**-1
  52:      3186.36 cm**-1
  53:      3266.27 cm**-1
  54:      3414.17 cm**-1
  55:      3506.96 cm**-1
  56:      3510.74 cm**-1

IR SPECTRUM
-----------

 Mode    freq (cm**-1)   T**2         TX         TY         TZ
-------------------------------------------------------------------
   7:       119.06    6.742827  (  2.138528  -1.415545   0.407132)
   8:       153.04    6.154094  (  1.268650  -0.940354  -1.913206)
   9:       200.92    0.881596  (  0.054323   0.311511  -0.884085)
  10:       205.80    1.067711  (  0.378133   0.261424  -0.925410)
  11:       265.50    0.122770  ( -0.283497  -0.192661  -0.072673)
  12:       332.98    0.240143  (  0.111632   0.368859   0.302695)
  13:       392.06   15.565441  (  0.239741  -2.259576   3.225257)
  14:       428.92    3.050069  (  1.033873  -1.371127  -0.318099)
  15:       505.20    1.215242  ( -1.073068  -0.250798  -0.029469)
  16:       565.20    3.642618  ( -1.267229  -1.079030  -0.934047)
  17:       724.93    5.143861  ( -0.467391   2.179513  -0.418484)
  18:       762.19    4.260138  (  0.270390   0.578929   1.962618)
  19:       819.67   15.505063  (  1.145801  -1.413885  -3.491867)
  20:       855.64   55.141870  (  1.225557  -1.586508   7.150026)
  21:       863.83    9.522341  ( -2.053989  -2.177204   0.750502)
  22:       969.49    6.584483  ( -0.156124   1.171301  -2.277754)
  23:      1002.54   44.750336  ( -2.168628   5.491651  -3.144703)
  24:      1013.74    5.077052  ( -0.856304   1.884956  -0.889234)
  25:      1025.29    8.410462  ( -2.025874   1.964453  -0.668745)
  26:      1059.59    1.896672  (  0.489131  -0.862229   0.956025)
  27:      1071.81    9.004292  (  1.284760  -2.309894  -1.420590)
  28:      1087.71    8.653821  ( -1.170225   2.305720   1.402871)
  29:      1153.14   19.179403  ( -1.915989   1.438681   3.665868)
  30:      1279.28    4.927394  ( -1.793002  -0.473993   1.219782)
  31:      1331.20    1.847428  ( -0.914128  -0.318269   0.954203)
  32:      1341.91   26.391888  (  1.416506   2.340188   4.348438)
  33:      1378.97   18.484941  ( -0.279627  -1.149869  -4.133346)
  34:      1396.63   18.803405  (  0.605788   1.002786   4.175026)
  35:      1413.58   24.808004  ( -2.525200   0.576276   4.254324)
  36:      1454.85   29.966942  (  3.165744   3.546103   2.714803)
  37:      1468.19   13.218075  (  1.178412  -3.124894   1.436822)
  38:      1485.04  107.833749  ( -2.433494   5.247952  -8.623854)
  39:      1491.33   51.156010  (  0.381866  -4.544802   5.509534)
  40:      1495.26   17.793581  (  3.213224  -2.254486  -1.544690)
  41:      1648.67   55.239886  (  4.814607   4.545641   3.375885)
  42:      1656.34   64.847641  ( -3.003277   3.392488   6.657251)
  43:      1665.82   11.191610  ( -1.721836  -0.594775  -2.805910)
  44:      1707.28   43.336573  (  1.559573   2.638747   5.825918)
  45:      3060.52    1.218279  ( -0.499841   0.544173   0.819947)
  46:      3109.96    3.900305  (  0.802630  -0.860372  -1.586143)
  47:      3124.21    1.001221  ( -0.317368   0.916096  -0.247523)
  48:      3157.73   10.217356  (  2.010300  -0.317980  -2.464739)
  49:      3161.19    6.936729  (  2.345316   1.190854  -0.134493)
  50:      3168.73    2.518854  (  1.025768  -0.322490  -1.167328)
  51:      3177.74    0.488901  (  0.323294  -0.139077  -0.604185)
  52:      3186.36    2.100088  (  0.987819  -0.304745  -1.015594)
  53:      3266.27    0.405952  (  0.430701  -0.055097  -0.466276)
  54:      3414.17   31.514945  ( -0.611543   2.569455  -4.953671)
  55:      3506.96   69.161686  (  5.194701  -4.793410  -4.381780)
  56:      3510.74   90.993165  ( -7.750728  -4.370705  -3.437486)

--------------------------
THERMOCHEMISTRY AT 298.15K
--------------------------

Temperature         ... 298.15 K
Pressure            ... 1.00 atm
Total Mass          ... 98.17 AMU

Throughout the following assumptions are being made:
  (1) The electronic state is orbitally nondegenerate
  (2) There are no thermally accessible electronically excited states
  (3) Hindered rotations indicated by low frequency modes) are not
      treated as such but are treated as vibrations and this may
      case some error
  (4) All equations used are the standard statistical mechanics
      equations for an ideal gas
  (5) All vibrations are strinctly harmonic

------------
INNER ENERGY
------------

The inner energy is: U= E(el) + E(ZPE) + E(vib) + E(rot) + E(trans)
    E(el)   - is the total energy from the electronic structure calculation
              = E(kin-el) + E(nuc-el) + E(el-el) + E(nuc-nuc)
    E(ZPE)  - the the zero temperature vibrational energy from the frequency calculation
    E(vib)  - the the finite temperature correction to E(ZPE) due to population
              of excietd vibrational states
    E(rot)  - is the rotational thermal energy
    E(trans)- is the translational thermal energy

Summary of contributions to the inner energy U:
Electronic energy                ...   -290.08771504 Eh
Zero point energy                ...      0.17459226 Eh     109.56 kcal/mol
Thermal vibrational correction   ...      0.00502568 Eh       3.15 kcal/mol
Thermal rotational correction    ...      0.00141627 Eh       0.89 kcal/mol
Thermal translational correction ...      0.00141627 Eh       0.89 kcal/mol
-----------------------------------------------------------------------
Total thermal energy                   -289.90526456 Eh

Summary of corrections to the electronic energy:
(perhaps to be used in another calculation)
Total thermal correction                  0.00785822 Eh       4.93 kcal/mol
Non-thermal (ZPE) correction              0.17459226 Eh     109.56 kcal/mol
-----------------------------------------------------------------------
Total correction                          0.18245048 Eh     114.49 kcal/mol

--------
ENTHALPY
--------

The enthalpy is H = U + kB*T
                kB is Boltzmann's constant
Total free energy                 ...   -289.90526456 Eh
Thermal Enthalpy correction       ...      0.00094421 Eh       0.59 kcal/mol
-----------------------------------------------------------------------
Total Enthalpy                    ...   -289.90432035 Eh

-------
ENTROPY
-------

The entropy contributions are T*S = T*(S(el)+S(vib)+S(rot)+S(trans)
     S(el)   - electronic entropy
     S(vib)  - vibrational entropy
     S(rot)  - rotational entropy
     S(trans)- translational entropy
The entropies will be listed as mutliplied by the temperature to get
units of energy

Electronic entropy                ...      0.00000000 Eh      0.00 kcal/mol
Vibrational entropy               ...      0.00842265 Eh      5.29 kcal/mol
Rotational entropy                ...      0.01230601 Eh      7.72 kcal/mol
Translational entropy             ...      0.01884507 Eh     11.83 kcal/mol
-----------------------------------------------------------------------
Final entropy term                ...      0.03957373 Eh     24.83 kcal/mol

CAUTION: The rotational entropy is not quite correctly treated here
         because it includes a symmetry number that is not yet correctly
         implemented in ORCA!
For a nonlinear molecule the correct rotational entropy is:
    S(rot) = R*(ln(qrot/sn)+1.5)
    R    = 8.31441 J/mol/K = 1.987191683e-3 kcal/mol/K
    qrot = 306244.8194058
    sn is the rotational symmetry number. We have assumed 3 here
       if it is different for your molecule then you should correct
       the printed rotational entropy by manually evaluating the equation
       as given above

For convenience we print out the resulting values for sn=1 - 12:
 sn= 1  qrot/sn=  306244.8194 T*S(rot)=     8.37 kcal/mol T*S(tot)=    25.48 kcal/mol
 sn= 2  qrot/sn=  153122.4097 T*S(rot)=     7.96 kcal/mol T*S(tot)=    25.07 kcal/mol
 sn= 3  qrot/sn=  102081.6065 T*S(rot)=     7.72 kcal/mol T*S(tot)=    24.83 kcal/mol
 sn= 4  qrot/sn=   76561.2049 T*S(rot)=     7.55 kcal/mol T*S(tot)=    24.66 kcal/mol
 sn= 5  qrot/sn=   61248.9639 T*S(rot)=     7.42 kcal/mol T*S(tot)=    24.53 kcal/mol
 sn= 6  qrot/sn=   51040.8032 T*S(rot)=     7.31 kcal/mol T*S(tot)=    24.42 kcal/mol
 sn= 7  qrot/sn=   43749.2599 T*S(rot)=     7.22 kcal/mol T*S(tot)=    24.33 kcal/mol
 sn= 8  qrot/sn=   38280.6024 T*S(rot)=     7.14 kcal/mol T*S(tot)=    24.25 kcal/mol
 sn= 9  qrot/sn=   34027.2022 T*S(rot)=     7.07 kcal/mol T*S(tot)=    24.18 kcal/mol
 sn=10  qrot/sn=   30624.4819 T*S(rot)=     7.01 kcal/mol T*S(tot)=    24.12 kcal/mol
 sn=11  qrot/sn=   27840.4381 T*S(rot)=     6.95 kcal/mol T*S(tot)=    24.06 kcal/mol
 sn=12  qrot/sn=   25520.4016 T*S(rot)=     6.90 kcal/mol T*S(tot)=    24.01 kcal/mol

-------------------
GIBBS FREE ENTHALPY
-------------------

The Gibbs free enthalpy is G = H - T*S

Total enthalpy                    ...   -289.90432035 Eh
Total entropy correction          ...     -0.03957373 Eh    -24.83 kcal/mol
-----------------------------------------------------------------------
Final Gibbs free enthalpy         ...   -289.94389407 Eh

For completeness - the Gibbs free enthalpy minus the electronic energy
G-E(el)                           ...      0.14382096 Eh     90.25 kcal/mol

                             ****ORCA TERMINATED NORMALLY****
TOTAL RUN TIME: 0 days 0 hours 44 minutes 28 seconds 465 msec
