                         Program Version 3.0.3 - RELEASE   -
|  1> ! NORI PBE0 def2-TZVP UseSym TightOPT Freq TightSCF Grid3 FinalGrid5 XYZFile
|  2> % pal
|  3>     nprocs 8
|  4> end
|  5> %method
|  6>     SymThresh 5.0e-2
|  7> end
|  8> % geom
|  9>     MaxIter 10
| 10> end
| 11> % maxcore 2000
| 12> % output
| 13>     printlevel mini
| 14>     print[ P_Basis ] 0
| 15>     print[ P_SCFInfo ] 1
| 16>     print[ P_SCFIterInfo ] 1
| 17>     print[ P_OrbEn ] 0
| 18>     print[ P_Cartesian ] 0
| 19> end
| 20> % elprop
| 21>     Dipole false
| 22> end
| 23> *xyz 1 1
| 24>  C        3.4342118415    -1.2678605289     2.1967925229
| 25>  C        2.9002161347    -0.9803601103     0.7999475828
| 26>  C        1.3802311700    -1.0515675257     0.7784900613
| 27>  C        3.3590442537     0.3789565615     0.2708459306
| 28>  C        4.8686550903     0.5000160169     0.0910690648
| 29>  C        5.2339592941     1.8436731544    -0.4922540691
| 30>  N        6.7297551535     1.9652302251    -0.6616380759
| 31>  H        4.5264083872    -1.3068253131     2.2350716740
| 32>  H        3.0701756919    -2.2326843391     2.5542029830
| 33>  H        3.0960248259    -0.5074129131     2.9080102671
| 34>  H        3.2848480767    -1.7500251573     0.1175829467
| 35>  H        0.9441702031    -0.2994348861     1.4426555192
| 36>  H        1.0311127190    -2.0294554554     1.1151617129
| 37>  H        0.9830333050    -0.8838719530    -0.2256104625
| 38>  H        2.8708716573     0.5657113507    -0.6927719271
| 39>  H        3.0098712935     1.1630614145     0.9541894689
| 40>  H        5.3718185920     0.3705110357     1.0556797495
| 41>  H        5.2212130749    -0.3008553610    -0.5706055920
| 42>  H        4.8013289642     1.9984681091    -1.4817759049
| 43>  H        4.9307566114     2.6697731421     0.1525197813
| 44>  H        7.0840792393     1.2309905651    -1.2785076829
| 45>  H        7.2060560859     1.8629387474     0.2370686456
| 46>  H        6.9999483352     2.8671432206    -1.0591141960
| 47> *
| 48>
| 49>                          ****END OF INPUT****
 Total Charge           Charge          ....    1
 Multiplicity           Mult            ....    1
 Number of Electrons    NEL             ....   58
FINAL SINGLE POINT ENERGY      -292.538401874932
FINAL SINGLE POINT ENERGY      -292.538405372475
FINAL SINGLE POINT ENERGY      -292.538410809306
FINAL SINGLE POINT ENERGY      -292.538411920006

CARTESIAN COORDINATES (ANGSTROEM)
---------------------------------
  C      1.573376    0.024883   -1.819359
  C      0.109647    0.414103   -1.662667
  C     -0.684895    0.037169   -2.905311
  C     -0.534822   -0.220697   -0.429801
  C      0.108662    0.189518    0.890824
  C     -0.639754   -0.405371    2.059554
  N      0.007751   -0.010672    3.366038
  H      2.196505    0.370240   -0.990363
  H      1.989063    0.460550   -2.729737
  H      1.681746   -1.061653   -1.897745
  H      0.053223    1.504326   -1.542013
  H     -0.656327   -1.043667   -3.073361
  H     -0.270411    0.519384   -3.792360
  H     -1.732404    0.336535   -2.821344
  H     -1.596415    0.050864   -0.408514
  H     -0.494922   -1.312653   -0.528692
  H      1.152547   -0.142133    0.915804
  H      0.111986    1.283917    0.970440
  H     -1.672016   -0.056363    2.111959
  H     -0.641546   -1.496171    2.036721
  H      0.024028    1.006361    3.468342
  H      0.976672   -0.334700    3.400576
  H     -0.483882   -0.400436    4.172717

FINAL SINGLE POINT ENERGY      -292.538412505047
                    ***********************HURRAY********************
 Multiplicity           Mult            ....    1
 Number of Electrons    NEL             ....   58
 Basis Dimension        Dim             ....  313
FINAL SINGLE POINT ENERGY      -292.538412731666

VIBRATIONAL FREQUENCIES
-----------------------

   0:         0.00 cm**-1
   1:         0.00 cm**-1
   2:         0.00 cm**-1
   3:         0.00 cm**-1
   4:         0.00 cm**-1
   5:         0.00 cm**-1
   6:        60.06 cm**-1
   7:        80.05 cm**-1
   8:       123.80 cm**-1
   9:       143.55 cm**-1
  10:       222.71 cm**-1
  11:       226.05 cm**-1
  12:       251.47 cm**-1
  13:       293.99 cm**-1
  14:       303.98 cm**-1
  15:       406.23 cm**-1
  16:       432.14 cm**-1
  17:       479.04 cm**-1
  18:       753.22 cm**-1
  19:       814.04 cm**-1
  20:       841.16 cm**-1
  21:       899.38 cm**-1
  22:       926.64 cm**-1
  23:       929.64 cm**-1
  24:       958.45 cm**-1
  25:       974.44 cm**-1
  26:       989.10 cm**-1
  27:      1040.60 cm**-1
  28:      1068.46 cm**-1
  29:      1111.33 cm**-1
  30:      1182.36 cm**-1
  31:      1200.27 cm**-1
  32:      1204.00 cm**-1
  33:      1274.63 cm**-1
  34:      1286.36 cm**-1
  35:      1331.22 cm**-1
  36:      1346.82 cm**-1
  37:      1349.39 cm**-1
  38:      1373.10 cm**-1
  39:      1391.82 cm**-1
  40:      1401.27 cm**-1
  41:      1408.90 cm**-1
  42:      1421.07 cm**-1
  43:      1469.91 cm**-1
  44:      1478.65 cm**-1
  45:      1485.43 cm**-1
  46:      1487.83 cm**-1
  47:      1498.16 cm**-1
  48:      1502.30 cm**-1
  49:      1503.92 cm**-1
  50:      1508.16 cm**-1
  51:      1656.92 cm**-1
  52:      1664.49 cm**-1
  53:      3017.00 cm**-1
  54:      3025.66 cm**-1
  55:      3035.30 cm**-1
  56:      3042.19 cm**-1
  57:      3047.54 cm**-1
  58:      3065.01 cm**-1
  59:      3087.71 cm**-1
  60:      3097.65 cm**-1
  61:      3111.44 cm**-1
  62:      3118.66 cm**-1
  63:      3130.33 cm**-1
  64:      3135.47 cm**-1
  65:      3157.35 cm**-1
  66:      3422.35 cm**-1
  67:      3504.59 cm**-1
  68:      3509.90 cm**-1

IR SPECTRUM
-----------

 Mode    freq (cm**-1)   T**2         TX         TY         TZ
-------------------------------------------------------------------
   6:        60.06    3.382107  (  1.178374  -1.365126  -0.360516)
   7:        80.05    3.353300  (  1.219868  -1.292702  -0.440616)
   8:       123.80    7.236047  ( -1.794056  -1.602459   1.203967)
   9:       143.55    1.149675  (  0.907080  -0.569989   0.044652)
  10:       222.71    0.012380  ( -0.031531   0.030640   0.102213)
  11:       226.05    0.078286  (  0.042637   0.178001  -0.211622)
  12:       251.47    0.331292  ( -0.056222  -0.028615   0.572112)
  13:       293.99    0.459539  (  0.511210   0.428097   0.122216)
  14:       303.98   10.813156  (  0.319764   0.300414  -3.258935)
  15:       406.23    1.455115  (  0.098160  -0.159864  -1.191605)
  16:       432.14    0.470123  ( -0.089047   0.064290  -0.676801)
  17:       479.04    1.929296  ( -0.020391   0.518732  -1.288331)
  18:       753.22    5.996958  (  1.653903  -1.791705  -0.226621)
  19:       814.04    1.412149  (  0.473513  -1.053561   0.279182)
  20:       841.16    2.196472  ( -0.334549   1.422860  -0.244988)
  21:       899.38   26.461023  ( -1.032648  -0.672707   4.994209)
  22:       926.64    4.498554  (  1.692287  -1.275887   0.082646)
  23:       929.64    2.343626  ( -0.306414   1.113128   1.005327)
  24:       958.45    1.774362  (  1.204729   0.281584  -0.493660)
  25:       974.44    1.494915  ( -1.157134   0.351639   0.179738)
  26:       989.10    3.648056  ( -1.354865  -1.323441  -0.246786)
  27:      1040.60    3.563105  ( -0.721588   1.516296  -0.862127)
  28:      1068.46    5.801802  ( -0.493046  -0.151280  -2.352833)
  29:      1111.33   17.574378  (  2.087499   1.480053  -3.320567)
  30:      1182.36    7.867393  (  1.249884   1.307896  -2.143500)
  31:      1200.27    2.549050  (  0.145191   0.032134  -1.589634)
  32:      1204.00    0.189608  (  0.015694   0.416238   0.126914)
  33:      1274.63    3.497071  (  0.324157  -1.244317   1.357817)
  34:      1286.36    1.237772  ( -1.056121   0.096328  -0.336304)
  35:      1331.22    0.039205  (  0.197015   0.004536   0.019215)
  36:      1346.82    3.563335  (  0.260200  -1.246702  -1.393329)
  37:      1349.39    3.341844  ( -1.492746   1.008696   0.309978)
  38:      1373.10    2.130981  (  0.600170  -0.122015  -1.325100)
  39:      1391.82    3.747043  ( -1.440868  -0.340466   1.247007)
  40:      1401.27    7.170894  ( -2.544372   0.167879   0.817850)
  41:      1408.90   21.425391  ( -1.708790  -0.274690  -4.293014)
  42:      1421.07    8.676317  (  0.919384  -1.671906  -2.244054)
  43:      1469.91    0.600018  ( -0.192016  -0.222974   0.716540)
  44:      1478.65    0.856747  (  0.151490  -0.909518   0.081086)
  45:      1485.43    2.871570  ( -1.212527  -0.365133  -1.126066)
  46:      1487.83    4.963171  ( -2.044684   0.364693  -0.805878)
  47:      1498.16    3.437624  (  0.287317  -1.229157  -1.358030)
  48:      1502.30   80.762420  (  1.093025   0.576760   8.901408)
  49:      1503.92   18.811421  (  0.757426   4.065816  -1.306471)
  50:      1508.16   86.293478  (  5.543768   3.755224   6.438821)
  51:      1656.92   52.833425  ( -4.180997   5.940988   0.239473)
  52:      1664.49   36.304604  ( -3.974501  -2.886432   3.489478)
  53:      3017.00    7.043120  ( -0.834899   2.275988   1.079788)
  54:      3025.66    4.831696  (  0.686592   0.846205  -1.908985)
  55:      3035.30   27.556593  ( -3.551858  -3.660714  -1.240995)
  56:      3042.19   21.544674  (  3.973127  -1.153554   2.104341)
  57:      3047.54   13.679067  ( -1.521822  -2.662248  -2.067743)
  58:      3065.01    2.095513  (  0.818501  -0.835741  -0.852705)
  59:      3087.71   23.416901  (  3.086033  -3.722478  -0.190937)
  60:      3097.65    3.108129  ( -1.461347  -0.590219   0.790087)
  61:      3111.44   28.024864  ( -2.871062  -2.797631  -3.457619)
  62:      3118.66   28.852026  (  2.236036  -4.769891  -1.048954)
  63:      3130.33    9.925030  ( -1.014648   1.379141  -2.644521)
  64:      3135.47   22.465944  ( -2.581690  -2.048899   3.406293)
  65:      3157.35    1.523311  ( -0.793427   0.945101  -0.023852)
  66:      3422.35   46.075308  (  2.052825   1.257140   6.346717)
  67:      3504.59   89.357180  ( -5.257715   7.851931   0.246572)
  68:      3509.90   95.784268  ( -6.823578  -4.766935   5.147755)

--------------------------
THERMOCHEMISTRY AT 298.15K
--------------------------

Temperature         ... 298.15 K
Pressure            ... 1.00 atm
Total Mass          ... 102.20 AMU

Throughout the following assumptions are being made:
  (1) The electronic state is orbitally nondegenerate
  (2) There are no thermally accessible electronically excited states
  (3) Hindered rotations indicated by low frequency modes) are not
      treated as such but are treated as vibrations and this may
      case some error
  (4) All equations used are the standard statistical mechanics
      equations for an ideal gas
  (5) All vibrations are strinctly harmonic

------------
INNER ENERGY
------------

The inner energy is: U= E(el) + E(ZPE) + E(vib) + E(rot) + E(trans)
    E(el)   - is the total energy from the electronic structure calculation
              = E(kin-el) + E(nuc-el) + E(el-el) + E(nuc-nuc)
    E(ZPE)  - the the zero temperature vibrational energy from the frequency calculation
    E(vib)  - the the finite temperature correction to E(ZPE) due to population
              of excietd vibrational states
    E(rot)  - is the rotational thermal energy
    E(trans)- is the translational thermal energy

Summary of contributions to the inner energy U:
Electronic energy                ...   -292.53841273 Eh
Zero point energy                ...      0.22158521 Eh     139.05 kcal/mol
Thermal vibrational correction   ...      0.00690836 Eh       4.34 kcal/mol
Thermal rotational correction    ...      0.00141627 Eh       0.89 kcal/mol
Thermal translational correction ...      0.00141627 Eh       0.89 kcal/mol
-----------------------------------------------------------------------
Total thermal energy                   -292.30708662 Eh

Summary of corrections to the electronic energy:
(perhaps to be used in another calculation)
Total thermal correction                  0.00974090 Eh       6.11 kcal/mol
Non-thermal (ZPE) correction              0.22158521 Eh     139.05 kcal/mol
-----------------------------------------------------------------------
Total correction                          0.23132611 Eh     145.16 kcal/mol

--------
ENTHALPY
--------

The enthalpy is H = U + kB*T
                kB is Boltzmann's constant
Total free energy                 ...   -292.30708662 Eh
Thermal Enthalpy correction       ...      0.00094421 Eh       0.59 kcal/mol
-----------------------------------------------------------------------
Total Enthalpy                    ...   -292.30614241 Eh

-------
ENTROPY
-------

The entropy contributions are T*S = T*(S(el)+S(vib)+S(rot)+S(trans)
     S(el)   - electronic entropy
     S(vib)  - vibrational entropy
     S(rot)  - rotational entropy
     S(trans)- translational entropy
The entropies will be listed as mutliplied by the temperature to get
units of energy

Electronic entropy                ...      0.00000000 Eh      0.00 kcal/mol
Vibrational entropy               ...      0.01285044 Eh      8.06 kcal/mol
Rotational entropy                ...      0.01249216 Eh      7.84 kcal/mol
Translational entropy             ...      0.01890208 Eh     11.86 kcal/mol
-----------------------------------------------------------------------
Final entropy term                ...      0.04424468 Eh     27.76 kcal/mol

CAUTION: The rotational entropy is not quite correctly treated here
         because it includes a symmetry number that is not yet correctly
         implemented in ORCA!
For a nonlinear molecule the correct rotational entropy is:
    S(rot) = R*(ln(qrot/sn)+1.5)
    R    = 8.31441 J/mol/K = 1.987191683e-3 kcal/mol/K
    qrot = 372986.8048665
    sn is the rotational symmetry number. We have assumed 3 here
       if it is different for your molecule then you should correct
       the printed rotational entropy by manually evaluating the equation
       as given above

For convenience we print out the resulting values for sn=1 - 12:
 sn= 1  qrot/sn=  372986.8049 T*S(rot)=     8.49 kcal/mol T*S(tot)=    28.41 kcal/mol
 sn= 2  qrot/sn=  186493.4024 T*S(rot)=     8.08 kcal/mol T*S(tot)=    28.00 kcal/mol
 sn= 3  qrot/sn=  124328.9350 T*S(rot)=     7.84 kcal/mol T*S(tot)=    27.76 kcal/mol
 sn= 4  qrot/sn=   93246.7012 T*S(rot)=     7.67 kcal/mol T*S(tot)=    27.59 kcal/mol
 sn= 5  qrot/sn=   74597.3610 T*S(rot)=     7.54 kcal/mol T*S(tot)=    27.46 kcal/mol
 sn= 6  qrot/sn=   62164.4675 T*S(rot)=     7.43 kcal/mol T*S(tot)=    27.35 kcal/mol
 sn= 7  qrot/sn=   53283.8293 T*S(rot)=     7.34 kcal/mol T*S(tot)=    27.26 kcal/mol
 sn= 8  qrot/sn=   46623.3506 T*S(rot)=     7.26 kcal/mol T*S(tot)=    27.18 kcal/mol
 sn= 9  qrot/sn=   41442.9783 T*S(rot)=     7.19 kcal/mol T*S(tot)=    27.11 kcal/mol
 sn=10  qrot/sn=   37298.6805 T*S(rot)=     7.13 kcal/mol T*S(tot)=    27.05 kcal/mol
 sn=11  qrot/sn=   33907.8914 T*S(rot)=     7.07 kcal/mol T*S(tot)=    26.99 kcal/mol
 sn=12  qrot/sn=   31082.2337 T*S(rot)=     7.02 kcal/mol T*S(tot)=    26.94 kcal/mol

-------------------
GIBBS FREE ENTHALPY
-------------------

The Gibbs free enthalpy is G = H - T*S

Total enthalpy                    ...   -292.30614241 Eh
Total entropy correction          ...     -0.04424468 Eh    -27.76 kcal/mol
-----------------------------------------------------------------------
Final Gibbs free enthalpy         ...   -292.35038709 Eh

For completeness - the Gibbs free enthalpy minus the electronic energy
G-E(el)                           ...      0.18802564 Eh    117.99 kcal/mol

                             ****ORCA TERMINATED NORMALLY****
TOTAL RUN TIME: 0 days 0 hours 52 minutes 52 seconds 272 msec
