                         Program Version 3.0.3 - RELEASE   -
|  1> ! NORI PBE0 def2-TZVP UseSym TightOPT Freq TightSCF Grid3 FinalGrid5 XYZFile
|  2> % pal
|  3>     nprocs 8
|  4> end
|  5> %method
|  6>     SymThresh 5.0e-2
|  7> end
|  8> % geom
|  9>     MaxIter 10
| 10> end
| 11> % maxcore 2000
| 12> % output
| 13>     printlevel mini
| 14>     print[ P_Basis ] 0
| 15>     print[ P_SCFInfo ] 1
| 16>     print[ P_SCFIterInfo ] 1
| 17>     print[ P_OrbEn ] 0
| 18>     print[ P_Cartesian ] 0
| 19> end
| 20> % elprop
| 21>     Dipole false
| 22> end
| 23> *xyz 1 1
| 24>  C        0.7576064134     0.2323026819    -0.0528521850
| 25>  C        2.2049801331    -0.1069129517    -0.2138984036
| 26>  C        2.4844952610    -1.1694640117    -1.2270510682
| 27>  C        3.1286060996     0.5363296153     0.5054234863
| 28>  C        4.6121156700     0.3391180618     0.4566621856
| 29>  C        5.0939020292    -0.2833704438     1.7523054252
| 30>  N        6.6033158635    -0.3740829318     1.7782989925
| 31>  H        0.1844323540    -0.6539705968     0.2358447925
| 32>  H        0.3390837784     0.5754087585    -1.0038789354
| 33>  H        0.5967275477     1.0090265985     0.6948980543
| 34>  H        1.9357324616    -2.0819532059    -0.9760086564
| 35>  H        3.5377357205    -1.4281734314    -1.3321441770
| 36>  H        2.1184955216    -0.8542001317    -2.2087907470
| 37>  H        2.7915239938     1.3021826261     1.2006529941
| 38>  H        5.1043569193     1.3112160786     0.3181100223
| 39>  H        4.9006037496    -0.2920592455    -0.3875068089
| 40>  H        4.7184462844    -1.2985897354     1.8820689312
| 41>  H        4.8076465427     0.3084875894     2.6223862094
| 42>  H        6.9453304884    -0.9458074464     1.0031796922
| 43>  H        6.9485676959    -0.7850451786     2.6476871202
| 44>  H        7.0228854723     0.5528273006     1.6802530757
| 45> *
| 46>
| 47>                          ****END OF INPUT****
 Total Charge           Charge          ....    1
 Multiplicity           Mult            ....    1
 Number of Electrons    NEL             ....   56
FINAL SINGLE POINT ENERGY      -291.314586061830
FINAL SINGLE POINT ENERGY      -291.314588026936

CARTESIAN COORDINATES (ANGSTROEM)
---------------------------------
  C      0.722035    0.000849   -2.858997
  C     -0.050051    0.069555   -1.580367
  C     -1.306457    0.875068   -1.655658
  C      0.390497   -0.571866   -0.494743
  C     -0.263063   -0.622810    0.851716
  C      0.570270    0.145417    1.858537
  N     -0.001347    0.003450    3.251960
  H      0.997578    1.004452   -3.196788
  H      0.107135   -0.435279   -3.652199
  H      1.630004   -0.593968   -2.761068
  H     -1.080130    1.894298   -1.982637
  H     -1.859475    0.937056   -0.718717
  H     -1.975653    0.453319   -2.411492
  H      1.317211   -1.135182   -0.575235
  H     -0.349376   -1.668728    1.176872
  H     -1.275389   -0.211013    0.817364
  H      0.594101    1.212907    1.638544
  H      1.595198   -0.224386    1.909010
  H     -0.957885    0.361575    3.289563
  H      0.551015    0.509257    3.946973
  H     -0.033918   -0.979742    3.530184

FINAL SINGLE POINT ENERGY      -291.314588725870
                    ***********************HURRAY********************
 Multiplicity           Mult            ....    1
 Number of Electrons    NEL             ....   56
 Basis Dimension        Dim             ....  301
FINAL SINGLE POINT ENERGY      -291.314589205965

VIBRATIONAL FREQUENCIES
-----------------------

   0:         0.00 cm**-1
   1:         0.00 cm**-1
   2:         0.00 cm**-1
   3:         0.00 cm**-1
   4:         0.00 cm**-1
   5:         0.00 cm**-1
   6:        44.35 cm**-1
   7:        91.49 cm**-1
   8:       108.90 cm**-1
   9:       132.05 cm**-1
  10:       195.14 cm**-1
  11:       216.42 cm**-1
  12:       290.76 cm**-1
  13:       318.15 cm**-1
  14:       350.76 cm**-1
  15:       425.57 cm**-1
  16:       484.57 cm**-1
  17:       553.03 cm**-1
  18:       763.72 cm**-1
  19:       811.91 cm**-1
  20:       840.57 cm**-1
  21:       888.49 cm**-1
  22:       916.00 cm**-1
  23:       957.68 cm**-1
  24:       967.07 cm**-1
  25:       998.11 cm**-1
  26:      1024.81 cm**-1
  27:      1096.77 cm**-1
  28:      1099.11 cm**-1
  29:      1131.89 cm**-1
  30:      1145.83 cm**-1
  31:      1246.31 cm**-1
  32:      1297.30 cm**-1
  33:      1320.30 cm**-1
  34:      1345.26 cm**-1
  35:      1381.13 cm**-1
  36:      1400.07 cm**-1
  37:      1411.72 cm**-1
  38:      1417.15 cm**-1
  39:      1456.17 cm**-1
  40:      1464.88 cm**-1
  41:      1477.48 cm**-1
  42:      1479.46 cm**-1
  43:      1489.98 cm**-1
  44:      1496.57 cm**-1
  45:      1501.93 cm**-1
  46:      1656.79 cm**-1
  47:      1663.71 cm**-1
  48:      1744.60 cm**-1
  49:      3018.82 cm**-1
  50:      3045.88 cm**-1
  51:      3051.69 cm**-1
  52:      3092.88 cm**-1
  53:      3103.62 cm**-1
  54:      3104.27 cm**-1
  55:      3108.22 cm**-1
  56:      3144.90 cm**-1
  57:      3148.63 cm**-1
  58:      3158.75 cm**-1
  59:      3165.58 cm**-1
  60:      3423.51 cm**-1
  61:      3505.68 cm**-1
  62:      3512.17 cm**-1

IR SPECTRUM
-----------

 Mode    freq (cm**-1)   T**2         TX         TY         TZ
-------------------------------------------------------------------
   6:        44.35    3.992139  (  0.476535  -1.624259   1.061525)
   7:        91.49    6.713906  (  1.488394  -2.032065   0.607701)
   8:       108.90    8.775556  ( -2.436311  -1.685212   0.001782)
   9:       132.05    0.209667  ( -0.342124  -0.199465   0.229851)
  10:       195.14    0.326956  (  0.050234  -0.362432  -0.439403)
  11:       216.42    0.174476  (  0.042145  -0.072671  -0.409168)
  12:       290.76    4.937882  ( -0.191957  -0.305526  -2.192644)
  13:       318.15    1.918230  (  0.514763   0.417793   1.216018)
  14:       350.76    4.574812  ( -0.382694  -1.306418  -1.649736)
  15:       425.57    7.725210  ( -0.881138  -0.954008  -2.457371)
  16:       484.57    2.100935  (  0.590200   1.294250  -0.278415)
  17:       553.03    1.746165  ( -0.816076   1.000401   0.281751)
  18:       763.72    6.416162  (  1.179353  -2.105989   0.768180)
  19:       811.91    1.998095  ( -1.373771  -0.263831  -0.203078)
  20:       840.57    8.485864  ( -1.070919  -2.708472  -0.056385)
  21:       888.49   52.860678  (  2.197258   2.885499   6.301319)
  22:       916.00    6.149109  ( -0.443917   2.396482   0.457081)
  23:       957.68    0.858517  (  0.811483   0.327777  -0.304261)
  24:       967.07    7.458052  (  2.318097   1.052030  -0.988794)
  25:       998.11    3.741197  (  0.566025   1.642196   0.850885)
  26:      1024.81    4.297105  (  0.848117  -0.791188   1.718087)
  27:      1096.77    3.869860  (  1.256014  -0.382627   1.464885)
  28:      1099.11    7.350011  ( -1.293902   1.783822  -1.579179)
  29:      1131.89   12.802225  (  1.288244   0.638866   3.276355)
  30:      1145.83    3.016385  (  1.403953   1.016665  -0.108131)
  31:      1246.31    4.789959  ( -0.074776   0.521142  -2.124330)
  32:      1297.30    1.892811  ( -0.543692  -0.167570   1.252650)
  33:      1320.30    5.372715  (  1.336304   0.215080   1.881687)
  34:      1345.26    5.841041  ( -1.280103   1.932147  -0.684972)
  35:      1381.13    5.130829  ( -0.664683  -0.414742   2.125327)
  36:      1400.07   10.577730  ( -0.069136   0.350699  -3.232640)
  37:      1411.72    7.664123  (  1.812920  -0.369740  -2.059305)
  38:      1417.15   16.209605  ( -2.996863   2.285686  -1.415647)
  39:      1456.17    0.102134  ( -0.110313  -0.259730  -0.150018)
  40:      1464.88    1.916719  ( -0.793823   0.117560   1.128160)
  41:      1477.48    8.282691  (  2.728621  -0.584537   0.704012)
  42:      1479.46   21.954391  ( -1.665900  -4.208305  -1.212163)
  43:      1489.98    7.186839  (  2.019281   0.049059   1.762650)
  44:      1496.57   28.984803  (  0.447394   1.227326   5.222864)
  45:      1501.93  152.868671  (  4.953962   1.934123 -11.161814)
  46:      1656.79   53.533249  ( -4.549463   5.532127  -1.493720)
  47:      1663.71   37.445370  ( -3.914052  -3.988120  -2.494085)
  48:      1744.60   25.639468  (  1.303459  -1.451841   4.672539)
  49:      3018.82   27.745712  ( -1.457913  -2.756469   4.245242)
  50:      3045.88    8.401373  (  1.504386  -0.141931  -2.473469)
  51:      3051.69    6.411407  ( -1.568278   1.556573  -1.236523)
  52:      3092.88    4.162318  ( -1.571363   1.193762   0.517755)
  53:      3103.62    2.107196  ( -1.339665  -0.460689  -0.316635)
  54:      3104.27    1.119932  ( -0.576508  -0.854350  -0.240119)
  55:      3108.22    7.360439  ( -1.361454  -2.295229  -0.488675)
  56:      3144.90   27.417294  ( -2.693218   0.363007   4.475723)
  57:      3148.63    7.486536  (  1.882302  -1.606804   1.166900)
  58:      3158.75   10.796260  (  2.747118  -1.407719  -1.126024)
  59:      3165.58    2.048794  (  1.108068  -0.874468  -0.237247)
  60:      3423.51   52.768035  ( -1.599407  -0.612797   7.059349)
  61:      3505.68   87.226900  ( -4.309168   8.261219  -0.640497)
  62:      3512.17   97.861278  (  7.695558   4.593894   4.187577)

--------------------------
THERMOCHEMISTRY AT 298.15K
--------------------------

Temperature         ... 298.15 K
Pressure            ... 1.00 atm
Total Mass          ... 100.18 AMU

Throughout the following assumptions are being made:
  (1) The electronic state is orbitally nondegenerate
  (2) There are no thermally accessible electronically excited states
  (3) Hindered rotations indicated by low frequency modes) are not
      treated as such but are treated as vibrations and this may
      case some error
  (4) All equations used are the standard statistical mechanics
      equations for an ideal gas
  (5) All vibrations are strinctly harmonic

------------
INNER ENERGY
------------

The inner energy is: U= E(el) + E(ZPE) + E(vib) + E(rot) + E(trans)
    E(el)   - is the total energy from the electronic structure calculation
              = E(kin-el) + E(nuc-el) + E(el-el) + E(nuc-nuc)
    E(ZPE)  - the the zero temperature vibrational energy from the frequency calculation
    E(vib)  - the the finite temperature correction to E(ZPE) due to population
              of excietd vibrational states
    E(rot)  - is the rotational thermal energy
    E(trans)- is the translational thermal energy

Summary of contributions to the inner energy U:
Electronic energy                ...   -291.31458921 Eh
Zero point energy                ...      0.19749097 Eh     123.93 kcal/mol
Thermal vibrational correction   ...      0.00670033 Eh       4.20 kcal/mol
Thermal rotational correction    ...      0.00141627 Eh       0.89 kcal/mol
Thermal translational correction ...      0.00141627 Eh       0.89 kcal/mol
-----------------------------------------------------------------------
Total thermal energy                   -291.10756536 Eh

Summary of corrections to the electronic energy:
(perhaps to be used in another calculation)
Total thermal correction                  0.00953287 Eh       5.98 kcal/mol
Non-thermal (ZPE) correction              0.19749097 Eh     123.93 kcal/mol
-----------------------------------------------------------------------
Total correction                          0.20702385 Eh     129.91 kcal/mol

--------
ENTHALPY
--------

The enthalpy is H = U + kB*T
                kB is Boltzmann's constant
Total free energy                 ...   -291.10756536 Eh
Thermal Enthalpy correction       ...      0.00094421 Eh       0.59 kcal/mol
-----------------------------------------------------------------------
Total Enthalpy                    ...   -291.10662115 Eh

-------
ENTROPY
-------

The entropy contributions are T*S = T*(S(el)+S(vib)+S(rot)+S(trans)
     S(el)   - electronic entropy
     S(vib)  - vibrational entropy
     S(rot)  - rotational entropy
     S(trans)- translational entropy
The entropies will be listed as mutliplied by the temperature to get
units of energy

Electronic entropy                ...      0.00000000 Eh      0.00 kcal/mol
Vibrational entropy               ...      0.01279128 Eh      8.03 kcal/mol
Rotational entropy                ...      0.01241675 Eh      7.79 kcal/mol
Translational entropy             ...      0.01887386 Eh     11.84 kcal/mol
-----------------------------------------------------------------------
Final entropy term                ...      0.04408189 Eh     27.66 kcal/mol

CAUTION: The rotational entropy is not quite correctly treated here
         because it includes a symmetry number that is not yet correctly
         implemented in ORCA!
For a nonlinear molecule the correct rotational entropy is:
    S(rot) = R*(ln(qrot/sn)+1.5)
    R    = 8.31441 J/mol/K = 1.987191683e-3 kcal/mol/K
    qrot = 344355.0664597
    sn is the rotational symmetry number. We have assumed 3 here
       if it is different for your molecule then you should correct
       the printed rotational entropy by manually evaluating the equation
       as given above

For convenience we print out the resulting values for sn=1 - 12:
 sn= 1  qrot/sn=  344355.0665 T*S(rot)=     8.44 kcal/mol T*S(tot)=    28.31 kcal/mol
 sn= 2  qrot/sn=  172177.5332 T*S(rot)=     8.03 kcal/mol T*S(tot)=    27.90 kcal/mol
 sn= 3  qrot/sn=  114785.0222 T*S(rot)=     7.79 kcal/mol T*S(tot)=    27.66 kcal/mol
 sn= 4  qrot/sn=   86088.7666 T*S(rot)=     7.62 kcal/mol T*S(tot)=    27.49 kcal/mol
 sn= 5  qrot/sn=   68871.0133 T*S(rot)=     7.49 kcal/mol T*S(tot)=    27.36 kcal/mol
 sn= 6  qrot/sn=   57392.5111 T*S(rot)=     7.38 kcal/mol T*S(tot)=    27.25 kcal/mol
 sn= 7  qrot/sn=   49193.5809 T*S(rot)=     7.29 kcal/mol T*S(tot)=    27.16 kcal/mol
 sn= 8  qrot/sn=   43044.3833 T*S(rot)=     7.21 kcal/mol T*S(tot)=    27.08 kcal/mol
 sn= 9  qrot/sn=   38261.6741 T*S(rot)=     7.14 kcal/mol T*S(tot)=    27.01 kcal/mol
 sn=10  qrot/sn=   34435.5066 T*S(rot)=     7.08 kcal/mol T*S(tot)=    26.95 kcal/mol
 sn=11  qrot/sn=   31305.0060 T*S(rot)=     7.02 kcal/mol T*S(tot)=    26.89 kcal/mol
 sn=12  qrot/sn=   28696.2555 T*S(rot)=     6.97 kcal/mol T*S(tot)=    26.84 kcal/mol

-------------------
GIBBS FREE ENTHALPY
-------------------

The Gibbs free enthalpy is G = H - T*S

Total enthalpy                    ...   -291.10662115 Eh
Total entropy correction          ...     -0.04408189 Eh    -27.66 kcal/mol
-----------------------------------------------------------------------
Final Gibbs free enthalpy         ...   -291.15070305 Eh

For completeness - the Gibbs free enthalpy minus the electronic energy
G-E(el)                           ...      0.16388616 Eh    102.84 kcal/mol

                             ****ORCA TERMINATED NORMALLY****
TOTAL RUN TIME: 0 days 0 hours 43 minutes 2 seconds 471 msec
