                         Program Version 3.0.3 - RELEASE   -
|  1> ! NORI PBE0 def2-TZVP UseSym TightOPT Freq TightSCF Grid3 FinalGrid5 XYZFile
|  2> % pal
|  3>     nprocs 8
|  4> end
|  5> %method
|  6>     SymThresh 5.0e-2
|  7> end
|  8> % geom
|  9>     MaxIter 10
| 10> end
| 11> % maxcore 2000
| 12> % output
| 13>     printlevel mini
| 14>     print[ P_Basis ] 0
| 15>     print[ P_SCFInfo ] 1
| 16>     print[ P_SCFIterInfo ] 1
| 17>     print[ P_OrbEn ] 0
| 18>     print[ P_Cartesian ] 0
| 19> end
| 20> % elprop
| 21>     Dipole false
| 22> end
| 23> *xyz 1 1
| 24>  C        0.9494620675     0.1294746843     0.7974546166
| 25>  C        2.1996603727     0.5063590544     0.0699906487
| 26>  C        2.4543054088     1.9810730494     0.0643294693
| 27>  C        2.9786896533    -0.4195452031    -0.5184947968
| 28>  C        2.6866888202    -1.8994623534    -0.4866740822
| 29>  C        4.1810544644    -0.0439525503    -1.3134909898
| 30>  N        5.4491618675    -0.3599233162    -0.5231653790
| 31>  H        0.6430337823    -0.9015778335     0.6372272949
| 32>  H        0.1284698361     0.7814546694     0.4870638528
| 33>  H        1.0754227616     0.2887432578     1.8738810345
| 34>  H        3.4221105392     2.2885279319    -0.3294789042
| 35>  H        2.3723946025     2.3724521701     1.0822188039
| 36>  H        1.6815843357     2.4909260584    -0.5191842054
| 37>  H        3.5577186286    -2.4961003825    -0.7794640003
| 38>  H        1.8928197492    -2.1679256970    -1.1903714203
| 39>  H        2.3824952076    -2.2467065483     0.5002236963
| 40>  H        4.2433795144     1.0106809468    -1.5674398289
| 41>  H        4.2633282686    -0.6304401807    -2.2305165790
| 42>  H        5.4763847045     0.2025633010     0.3288000171
| 43>  H        6.3016328432    -0.1846646702    -1.0594641200
| 44>  H        5.4464925721    -1.3413963884    -0.2382851284
| 45> *
| 46>
| 47>                          ****END OF INPUT****
 Total Charge           Charge          ....    1
 Multiplicity           Mult            ....    1
 Number of Electrons    NEL             ....   56
FINAL SINGLE POINT ENERGY      -291.317272724136
FINAL SINGLE POINT ENERGY      -291.317274569068
FINAL SINGLE POINT ENERGY      -291.317275600680

CARTESIAN COORDINATES (ANGSTROEM)
---------------------------------
  C      0.857213   -0.000838   -2.196128
  C      0.176098   -0.444538   -0.941651
  C     -0.066597   -1.920955   -0.897480
  C     -0.180755    0.431475    0.015344
  C      0.079358    1.915253   -0.071493
  C     -0.929284    0.006190    1.230503
  N     -0.000095    0.008151    2.442072
  H      0.863790    1.077538   -2.334574
  H      0.368081   -0.453019   -3.063379
  H      1.892661   -0.357069   -2.209821
  H     -0.432851   -2.309469    0.052348
  H      0.858232   -2.453233   -1.137453
  H     -0.787399   -2.202895   -1.671147
  H     -0.032075    2.409707    0.899877
  H     -0.633639    2.409780   -0.738332
  H      1.081629    2.146037   -0.431858
  H     -1.346582   -0.995533    1.175972
  H     -1.728742    0.705719    1.484207
  H      0.747875   -0.674307    2.306539
  H     -0.487834   -0.208646    3.313827
  H      0.440263    0.925215    2.540840

FINAL SINGLE POINT ENERGY      -291.317276129839
                    ***********************HURRAY********************
 Multiplicity           Mult            ....    1
 Number of Electrons    NEL             ....   56
 Basis Dimension        Dim             ....  301
FINAL SINGLE POINT ENERGY      -291.317276617163

VIBRATIONAL FREQUENCIES
-----------------------

   0:         0.00 cm**-1
   1:         0.00 cm**-1
   2:         0.00 cm**-1
   3:         0.00 cm**-1
   4:         0.00 cm**-1
   5:         0.00 cm**-1
   6:        33.17 cm**-1
   7:        86.99 cm**-1
   8:        92.10 cm**-1
   9:       128.53 cm**-1
  10:       150.71 cm**-1
  11:       214.68 cm**-1
  12:       235.92 cm**-1
  13:       320.03 cm**-1
  14:       386.50 cm**-1
  15:       404.72 cm**-1
  16:       439.49 cm**-1
  17:       494.93 cm**-1
  18:       577.81 cm**-1
  19:       709.04 cm**-1
  20:       829.91 cm**-1
  21:       842.33 cm**-1
  22:       918.48 cm**-1
  23:       957.28 cm**-1
  24:       959.58 cm**-1
  25:       999.54 cm**-1
  26:      1027.88 cm**-1
  27:      1062.61 cm**-1
  28:      1088.89 cm**-1
  29:      1093.91 cm**-1
  30:      1192.38 cm**-1
  31:      1203.32 cm**-1
  32:      1302.00 cm**-1
  33:      1332.90 cm**-1
  34:      1389.10 cm**-1
  35:      1406.29 cm**-1
  36:      1410.71 cm**-1
  37:      1418.41 cm**-1
  38:      1456.03 cm**-1
  39:      1465.01 cm**-1
  40:      1470.15 cm**-1
  41:      1475.12 cm**-1
  42:      1481.37 cm**-1
  43:      1491.27 cm**-1
  44:      1501.66 cm**-1
  45:      1508.95 cm**-1
  46:      1648.27 cm**-1
  47:      1660.63 cm**-1
  48:      1724.89 cm**-1
  49:      3037.84 cm**-1
  50:      3049.41 cm**-1
  51:      3054.43 cm**-1
  52:      3091.53 cm**-1
  53:      3098.09 cm**-1
  54:      3106.10 cm**-1
  55:      3110.43 cm**-1
  56:      3143.29 cm**-1
  57:      3145.36 cm**-1
  58:      3176.36 cm**-1
  59:      3184.87 cm**-1
  60:      3417.31 cm**-1
  61:      3505.98 cm**-1
  62:      3513.28 cm**-1

IR SPECTRUM
-----------

 Mode    freq (cm**-1)   T**2         TX         TY         TZ
-------------------------------------------------------------------
   7:        86.99    2.636887  ( -0.703484   1.313089   0.646369)
   8:        92.10    6.504054  (  1.931124  -1.599992  -0.463507)
   9:       128.53    4.651736  ( -1.687711  -1.172426   0.654817)
  10:       150.71    1.176424  (  0.670520   0.519545   0.675943)
  11:       214.68    0.925233  (  0.233694   0.529188  -0.768492)
  12:       235.92    8.772236  (  1.465251   1.038508  -2.355160)
  13:       320.03    0.588223  ( -0.079228   0.230995  -0.727040)
  14:       386.50    9.802651  (  1.860691  -1.035684   2.295178)
  15:       404.72    0.890940  ( -0.632374   0.570054  -0.407530)
  16:       439.49    5.114499  ( -0.684940  -0.192967  -2.146653)
  17:       494.93    0.220783  ( -0.175689   0.394660   0.184823)
  18:       577.81    3.725095  (  0.682211  -0.628587   1.692501)
  19:       709.04    1.166658  ( -0.148612   0.510795  -0.940032)
  20:       829.91   13.351894  (  0.212915  -2.781231   2.360363)
  21:       842.33   37.881241  (  0.299577  -1.540518  -5.951327)
  22:       918.48    5.310244  ( -0.454572   1.000818  -2.025332)
  23:       957.28    8.657586  (  0.635240  -0.995363  -2.695053)
  24:       959.58    0.855596  ( -0.362519  -0.682990   0.507642)
  25:       999.54    0.733035  ( -0.452682  -0.691983  -0.221974)
  26:      1027.88    8.122646  ( -1.879965   0.643999   2.042949)
  27:      1062.61    6.517714  (  1.259483   1.592784  -1.547403)
  28:      1088.89   11.393055  (  2.781936   0.667250  -1.791275)
  29:      1093.91    5.047854  ( -2.140216  -0.675528   0.104848)
  30:      1192.38   10.676979  (  0.617068  -1.875696  -2.603453)
  31:      1203.32    7.590847  ( -0.616108   1.547478   2.194668)
  32:      1302.00    3.810970  ( -1.234514   0.344273   1.472556)
  33:      1332.90   18.428928  (  1.116088  -3.813067  -1.625974)
  34:      1389.10   28.823971  ( -0.331990   1.131026   5.237799)
  35:      1406.29   24.436771  (  2.387419   1.205985  -4.157235)
  36:      1410.71   12.863770  ( -0.450042   3.071754   1.795985)
  37:      1418.41   12.167407  ( -0.592147  -0.067287   3.436894)
  38:      1456.03    6.567886  ( -1.147684  -0.605418  -2.210017)
  39:      1465.01    4.214375  ( -1.012516   1.717343  -0.489816)
  40:      1470.15   58.089683  ( -6.843904  -0.761515  -3.266611)
  41:      1475.12    6.388096  ( -1.997613   1.548250  -0.023597)
  42:      1481.37   91.963944  (  4.477784  -0.930144   8.429011)
  43:      1491.27   32.934744  ( -2.562124  -0.118378  -5.133834)
  44:      1501.66   10.561020  ( -1.653330  -2.084514  -1.866098)
  45:      1508.95   34.057971  (  1.861731  -0.381457  -5.517827)
  46:      1648.27   42.667981  ( -0.379809   6.520972  -0.025533)
  47:      1660.63   28.190030  ( -4.054166   0.121577   3.426221)
  48:      1724.89   43.831715  (  1.379351  -2.882914  -5.798096)
  49:      3037.84   19.957748  (  0.090234  -2.707745  -3.552144)
  50:      3049.41    2.610636  ( -0.677722  -0.874677   1.177399)
  51:      3054.43    3.985242  ( -0.412357   1.911786   0.400345)
  52:      3091.53    8.840347  ( -0.550055  -0.177289  -2.916566)
  53:      3098.09    8.156748  ( -1.420705   0.416135   2.442371)
  54:      3106.10    0.533853  ( -0.427614  -0.341258  -0.484296)
  55:      3110.43    3.015545  ( -1.532594   0.366931  -0.729427)
  56:      3143.29    1.487426  ( -1.044733   0.483184   0.403103)
  57:      3145.36   24.741685  ( -1.874251  -1.400503   4.389471)
  58:      3176.36    6.770085  (  0.413333   2.446145  -0.784610)
  59:      3184.87    3.456884  ( -0.860157  -0.963683   1.337284)
  60:      3417.31   28.248418  ( -2.277684  -0.446852  -4.781307)
  61:      3505.98   86.258166  ( -3.415036  -8.156034   2.841619)
  62:      3513.28   73.167039  ( -6.275183   4.269200   3.945003)

--------------------------
THERMOCHEMISTRY AT 298.15K
--------------------------

Temperature         ... 298.15 K
Pressure            ... 1.00 atm
Total Mass          ... 100.18 AMU

Throughout the following assumptions are being made:
  (1) The electronic state is orbitally nondegenerate
  (2) There are no thermally accessible electronically excited states
  (3) Hindered rotations indicated by low frequency modes) are not
      treated as such but are treated as vibrations and this may
      case some error
  (4) All equations used are the standard statistical mechanics
      equations for an ideal gas
  (5) All vibrations are strinctly harmonic

------------
INNER ENERGY
------------

The inner energy is: U= E(el) + E(ZPE) + E(vib) + E(rot) + E(trans)
    E(el)   - is the total energy from the electronic structure calculation
              = E(kin-el) + E(nuc-el) + E(el-el) + E(nuc-nuc)
    E(ZPE)  - the the zero temperature vibrational energy from the frequency calculation
    E(vib)  - the the finite temperature correction to E(ZPE) due to population
              of excietd vibrational states
    E(rot)  - is the rotational thermal energy
    E(trans)- is the translational thermal energy

Summary of contributions to the inner energy U:
Electronic energy                ...   -291.31727662 Eh
Zero point energy                ...      0.19636575 Eh     123.22 kcal/mol
Thermal vibrational correction   ...      0.00624175 Eh       3.92 kcal/mol
Thermal rotational correction    ...      0.00141627 Eh       0.89 kcal/mol
Thermal translational correction ...      0.00141627 Eh       0.89 kcal/mol
-----------------------------------------------------------------------
Total thermal energy                   -291.11183657 Eh

Summary of corrections to the electronic energy:
(perhaps to be used in another calculation)
Total thermal correction                  0.00907429 Eh       5.69 kcal/mol
Non-thermal (ZPE) correction              0.19636575 Eh     123.22 kcal/mol
-----------------------------------------------------------------------
Total correction                          0.20544005 Eh     128.92 kcal/mol

--------
ENTHALPY
--------

The enthalpy is H = U + kB*T
                kB is Boltzmann's constant
Total free energy                 ...   -291.11183657 Eh
Thermal Enthalpy correction       ...      0.00094421 Eh       0.59 kcal/mol
-----------------------------------------------------------------------
Total Enthalpy                    ...   -291.11089236 Eh

-------
ENTROPY
-------

The entropy contributions are T*S = T*(S(el)+S(vib)+S(rot)+S(trans)
     S(el)   - electronic entropy
     S(vib)  - vibrational entropy
     S(rot)  - rotational entropy
     S(trans)- translational entropy
The entropies will be listed as mutliplied by the temperature to get
units of energy

Electronic entropy                ...      0.00000000 Eh      0.00 kcal/mol
Vibrational entropy               ...      0.01129695 Eh      7.09 kcal/mol
Rotational entropy                ...      0.01226781 Eh      7.70 kcal/mol
Translational entropy             ...      0.01887386 Eh     11.84 kcal/mol
-----------------------------------------------------------------------
Final entropy term                ...      0.04243863 Eh     26.63 kcal/mol

CAUTION: The rotational entropy is not quite correctly treated here
         because it includes a symmetry number that is not yet correctly
         implemented in ORCA!
For a nonlinear molecule the correct rotational entropy is:
    S(rot) = R*(ln(qrot/sn)+1.5)
    R    = 8.31441 J/mol/K = 1.987191683e-3 kcal/mol/K
    qrot = 294103.6092411
    sn is the rotational symmetry number. We have assumed 3 here
       if it is different for your molecule then you should correct
       the printed rotational entropy by manually evaluating the equation
       as given above

For convenience we print out the resulting values for sn=1 - 12:
 sn= 1  qrot/sn=  294103.6092 T*S(rot)=     8.35 kcal/mol T*S(tot)=    27.28 kcal/mol
 sn= 2  qrot/sn=  147051.8046 T*S(rot)=     7.94 kcal/mol T*S(tot)=    26.87 kcal/mol
 sn= 3  qrot/sn=   98034.5364 T*S(rot)=     7.70 kcal/mol T*S(tot)=    26.63 kcal/mol
 sn= 4  qrot/sn=   73525.9023 T*S(rot)=     7.53 kcal/mol T*S(tot)=    26.46 kcal/mol
 sn= 5  qrot/sn=   58820.7218 T*S(rot)=     7.40 kcal/mol T*S(tot)=    26.33 kcal/mol
 sn= 6  qrot/sn=   49017.2682 T*S(rot)=     7.29 kcal/mol T*S(tot)=    26.22 kcal/mol
 sn= 7  qrot/sn=   42014.8013 T*S(rot)=     7.20 kcal/mol T*S(tot)=    26.13 kcal/mol
 sn= 8  qrot/sn=   36762.9512 T*S(rot)=     7.12 kcal/mol T*S(tot)=    26.05 kcal/mol
 sn= 9  qrot/sn=   32678.1788 T*S(rot)=     7.05 kcal/mol T*S(tot)=    25.98 kcal/mol
 sn=10  qrot/sn=   29410.3609 T*S(rot)=     6.98 kcal/mol T*S(tot)=    25.92 kcal/mol
 sn=11  qrot/sn=   26736.6917 T*S(rot)=     6.93 kcal/mol T*S(tot)=    25.86 kcal/mol
 sn=12  qrot/sn=   24508.6341 T*S(rot)=     6.88 kcal/mol T*S(tot)=    25.81 kcal/mol

-------------------
GIBBS FREE ENTHALPY
-------------------

The Gibbs free enthalpy is G = H - T*S

Total enthalpy                    ...   -291.11089236 Eh
Total entropy correction          ...     -0.04243863 Eh    -26.63 kcal/mol
-----------------------------------------------------------------------
Final Gibbs free enthalpy         ...   -291.15333099 Eh

For completeness - the Gibbs free enthalpy minus the electronic energy
G-E(el)                           ...      0.16394563 Eh    102.88 kcal/mol

                             ****ORCA TERMINATED NORMALLY****
TOTAL RUN TIME: 0 days 0 hours 51 minutes 10 seconds 759 msec
