                         Program Version 3.0.3 - RELEASE   -
|  1> ! NORI PBE0 def2-TZVP UseSym TightOPT Freq TightSCF Grid3 FinalGrid5 XYZFile
|  2> % pal
|  3>     nprocs 8
|  4> end
|  5> %method
|  6>     SymThresh 5.0e-2
|  7> end
|  8> % geom
|  9>     MaxIter 10
| 10> end
| 11> % maxcore 2000
| 12> % output
| 13>     printlevel mini
| 14>     print[ P_Basis ] 0
| 15>     print[ P_SCFInfo ] 1
| 16>     print[ P_SCFIterInfo ] 1
| 17>     print[ P_OrbEn ] 0
| 18>     print[ P_Cartesian ] 0
| 19> end
| 20> % elprop
| 21>     Dipole false
| 22> end
| 23> *xyz 1 1
| 24>  C        0.9665360878    -0.0121789715     0.0530904480
| 25>  C        2.4913116514    -0.0841101003     0.0011858520
| 26>  C        3.0023819468    -0.8472728195     1.2219110285
| 27>  C        2.9401873123    -0.8071916729    -1.2678490973
| 28>  C        3.1026385590     1.3298636142     0.0658641178
| 29>  C        2.7097926141     2.2327540158    -1.0804726020
| 30>  N        3.3526369631     3.5877299111    -0.9099586862
| 31>  H        0.5360446141     0.4590564625    -0.8351402901
| 32>  H        0.6198537284     0.5327872695     0.9359630775
| 33>  H        0.5460942387    -1.0182149583     0.1064116986
| 34>  H        4.0934697867    -0.9192154842     1.2208268915
| 35>  H        2.6038087757    -1.8630972864     1.2257944136
| 36>  H        2.6927248719    -0.3665924720     2.1538759928
| 37>  H        2.5383350300    -0.3512468448    -2.1774211463
| 38>  H        2.5850294751    -1.8390111124    -1.2531292051
| 39>  H        4.0305973218    -0.8385680740    -1.3492150195
| 40>  H        2.7953471834     1.7939557687     1.0118141010
| 41>  H        4.1953906399     1.2324483355     0.0912532404
| 42>  H        3.0461809477     1.8564759193    -2.0465182731
| 43>  H        1.6355103648     2.4111331959    -1.1269695607
| 44>  H        4.3712488974     3.5037520755    -0.8824616589
| 45>  H        3.0604468020     4.0175224173    -0.0294797312
| 46>  H        3.1092121881     4.2276308112    -1.6688855913
| 47> *
| 48>
| 49>                          ****END OF INPUT****
 Total Charge           Charge          ....    1
 Multiplicity           Mult            ....    1
 Number of Electrons    NEL             ....   58
FINAL SINGLE POINT ENERGY      -292.538651091004
FINAL SINGLE POINT ENERGY      -292.538653579267
FINAL SINGLE POINT ENERGY      -292.538654840423

CARTESIAN COORDINATES (ANGSTROEM)
---------------------------------
  C      1.447250   -0.002721   -1.275809
  C     -0.047267    0.085211   -0.971820
  C     -0.673051    1.180820   -1.832795
  C     -0.726406   -1.248058   -1.279901
  C     -0.278881    0.484181    0.499387
  C      0.277142   -0.493652    1.508746
  N     -0.001367    0.001353    2.907393
  H      1.938794   -0.821345   -0.742050
  H      1.962753    0.930112   -1.029843
  H      1.600611   -0.188038   -2.340589
  H     -1.746293    1.272776   -1.645382
  H     -0.540388    0.952050   -2.891914
  H     -0.209376    2.152489   -1.642720
  H     -0.270191   -2.086761   -0.745964
  H     -0.641393   -1.472628   -2.344877
  H     -1.792468   -1.221267   -1.036762
  H      0.174840    1.469793    0.664645
  H     -1.359008    0.593325    0.660839
  H     -0.183655   -1.478881    1.439345
  H      1.359066   -0.604497    1.436641
  H     -1.006789    0.107269    3.059439
  H      0.425683    0.917939    3.057887
  H      0.359737   -0.635569    3.620258

FINAL SINGLE POINT ENERGY      -292.538655021369
                    ***********************HURRAY********************
 Multiplicity           Mult            ....    1
 Number of Electrons    NEL             ....   58
 Basis Dimension        Dim             ....  313
FINAL SINGLE POINT ENERGY      -292.538655173367

VIBRATIONAL FREQUENCIES
-----------------------

   0:         0.00 cm**-1
   1:         0.00 cm**-1
   2:         0.00 cm**-1
   3:         0.00 cm**-1
   4:         0.00 cm**-1
   5:         0.00 cm**-1
   6:        64.41 cm**-1
   7:        98.55 cm**-1
   8:       177.15 cm**-1
   9:       218.04 cm**-1
  10:       236.21 cm**-1
  11:       268.08 cm**-1
  12:       277.02 cm**-1
  13:       313.10 cm**-1
  14:       334.22 cm**-1
  15:       336.49 cm**-1
  16:       409.81 cm**-1
  17:       420.41 cm**-1
  18:       494.79 cm**-1
  19:       762.77 cm**-1
  20:       772.00 cm**-1
  21:       897.95 cm**-1
  22:       900.84 cm**-1
  23:       926.44 cm**-1
  24:       947.36 cm**-1
  25:       949.35 cm**-1
  26:       959.51 cm**-1
  27:      1008.53 cm**-1
  28:      1011.33 cm**-1
  29:      1037.15 cm**-1
  30:      1105.65 cm**-1
  31:      1136.29 cm**-1
  32:      1239.64 cm**-1
  33:      1259.47 cm**-1
  34:      1273.86 cm**-1
  35:      1330.66 cm**-1
  36:      1343.53 cm**-1
  37:      1354.99 cm**-1
  38:      1399.87 cm**-1
  39:      1401.14 cm**-1
  40:      1405.62 cm**-1
  41:      1432.07 cm**-1
  42:      1469.27 cm**-1
  43:      1471.61 cm**-1
  44:      1477.53 cm**-1
  45:      1479.26 cm**-1
  46:      1500.21 cm**-1
  47:      1504.95 cm**-1
  48:      1505.54 cm**-1
  49:      1507.43 cm**-1
  50:      1511.42 cm**-1
  51:      1656.41 cm**-1
  52:      1664.39 cm**-1
  53:      3018.77 cm**-1
  54:      3040.83 cm**-1
  55:      3043.69 cm**-1
  56:      3048.94 cm**-1
  57:      3064.71 cm**-1
  58:      3106.09 cm**-1
  59:      3110.41 cm**-1
  60:      3115.08 cm**-1
  61:      3120.25 cm**-1
  62:      3130.31 cm**-1
  63:      3131.62 cm**-1
  64:      3136.91 cm**-1
  65:      3168.31 cm**-1
  66:      3421.47 cm**-1
  67:      3503.08 cm**-1
  68:      3509.42 cm**-1

IR SPECTRUM
-----------

 Mode    freq (cm**-1)   T**2         TX         TY         TZ
-------------------------------------------------------------------
   6:        64.41    1.440798  ( -1.045209  -0.590200   0.000479)
   7:        98.55    5.678845  ( -2.068138  -1.183887   0.007777)
   8:       177.15    5.734337  ( -1.184627   2.068058   0.232665)
   9:       218.04    0.012406  ( -0.096693  -0.054884  -0.006655)
  10:       236.21    0.144203  (  0.333251   0.182059   0.001090)
  11:       268.08    1.436288  ( -0.157301   0.275427  -1.155718)
  12:       277.02    0.022243  (  0.124387   0.081313  -0.012617)
  13:       313.10   12.935542  (  0.406952  -0.710728   3.502113)
  14:       334.22    0.000092  ( -0.007719   0.004500  -0.003519)
  15:       336.49    2.683108  (  0.080265  -0.139700  -1.630077)
  16:       409.81    0.033807  ( -0.159597  -0.091275   0.002227)
  17:       420.41    0.317672  (  0.274745  -0.482614   0.096284)
  18:       494.79    1.688890  ( -0.161127   0.281767  -1.258386)
  19:       762.77    2.707506  (  0.221345  -0.458824   1.564606)
  20:       772.00    6.570191  ( -2.224850  -1.272786  -0.015821)
  21:       897.95   16.383120  ( -0.916822   1.497823  -3.646791)
  22:       900.84    4.435217  (  1.808503   1.076309  -0.078060)
  23:       926.44    6.546203  ( -0.157143   0.290551  -2.537142)
  24:       947.36    0.767052  (  0.741094   0.466697   0.005007)
  25:       949.35    1.649293  ( -0.656209   1.086437   0.195800)
  26:       959.51    0.174970  (  0.364512   0.205024   0.008122)
  27:      1008.53    4.089432  ( -0.979156   1.703656   0.477746)
  28:      1011.33    1.594199  (  1.083003   0.649079   0.000206)
  29:      1037.15    4.400276  ( -0.446832   0.779350  -1.895582)
  30:      1105.65    1.416933  ( -1.028092  -0.599966  -0.000672)
  31:      1136.29   16.103333  (  1.050830  -1.845408   3.404932)
  32:      1239.64    7.731961  (  0.640746  -1.127680   2.459623)
  33:      1259.47    2.878644  ( -1.468269  -0.850161  -0.007480)
  34:      1273.86   15.888799  ( -0.967510   1.647357   3.498420)
  35:      1330.66    0.575333  ( -0.661590  -0.370803   0.011683)
  36:      1343.53    5.225001  (  0.467476  -0.793222  -2.092191)
  37:      1354.99    6.498524  ( -2.208758  -1.272702  -0.011930)
  38:      1399.87   14.002429  (  1.438367  -2.537218   2.344367)
  39:      1401.14   13.690171  (  3.208250   1.843092   0.017760)
  40:      1405.62    9.655396  (  0.970135  -1.662309  -2.439460)
  41:      1432.07    2.230659  (  0.126305  -0.209436  -1.473378)
  42:      1469.27    0.528282  (  0.365896  -0.627956   0.008533)
  43:      1471.61    0.135556  (  0.318920   0.183965  -0.001787)
  44:      1477.53    0.500826  ( -0.603284  -0.368501  -0.032890)
  45:      1479.26    0.303718  ( -0.151613   0.251616   0.466285)
  46:      1500.21   32.485124  ( -1.047026   1.793127  -5.307877)
  47:      1504.95   10.116200  (  2.764562   1.572592  -0.018773)
  48:      1505.54  100.141765  ( -2.066781   3.609372   9.101792)
  49:      1507.43    0.190719  ( -0.120993   0.301376  -0.291981)
  50:      1511.42   57.314289  ( -2.228851   3.908896   6.088271)
  51:      1656.41   53.046670  ( -6.336228  -3.591495  -0.007051)
  52:      1664.39   36.258961  (  2.627379  -4.635417   2.805130)
  53:      3018.77   19.729727  ( -1.666276   2.893704   2.929117)
  54:      3040.83   18.788038  (  3.756770   2.162073   0.012564)
  55:      3043.69   23.848161  ( -2.168830   3.770678  -2.219532)
  56:      3048.94    1.556219  ( -0.540280   0.914680   0.653970)
  57:      3064.71   12.144260  (  3.021272   1.736627   0.017354)
  58:      3106.09    0.966219  (  0.456010  -0.845632   0.207797)
  59:      3110.41    5.661698  ( -2.054383  -1.200341  -0.019745)
  60:      3115.08   40.388809  (  2.857875  -5.028172   2.634170)
  61:      3120.25   21.440800  ( -4.032791  -2.275306   0.019525)
  62:      3130.31    3.821883  ( -1.677353  -0.976839   0.232711)
  63:      3131.62    5.283022  (  0.513871  -0.705075   2.126459)
  64:      3136.91   25.012914  ( -0.883470   1.669180   4.631008)
  65:      3168.31    0.846801  (  0.797427   0.459189   0.007565)
  66:      3421.47   43.343923  ( -0.829927   1.418849   6.375109)
  67:      3503.08   85.757158  ( -8.126621  -4.439227  -0.091964)
  68:      3509.42   92.484355  (  4.190616  -7.727357   3.900135)

--------------------------
THERMOCHEMISTRY AT 298.15K
--------------------------

Temperature         ... 298.15 K
Pressure            ... 1.00 atm
Total Mass          ... 102.20 AMU

Throughout the following assumptions are being made:
  (1) The electronic state is orbitally nondegenerate
  (2) There are no thermally accessible electronically excited states
  (3) Hindered rotations indicated by low frequency modes) are not
      treated as such but are treated as vibrations and this may
      case some error
  (4) All equations used are the standard statistical mechanics
      equations for an ideal gas
  (5) All vibrations are strinctly harmonic

------------
INNER ENERGY
------------

The inner energy is: U= E(el) + E(ZPE) + E(vib) + E(rot) + E(trans)
    E(el)   - is the total energy from the electronic structure calculation
              = E(kin-el) + E(nuc-el) + E(el-el) + E(nuc-nuc)
    E(ZPE)  - the the zero temperature vibrational energy from the frequency calculation
    E(vib)  - the the finite temperature correction to E(ZPE) due to population
              of excietd vibrational states
    E(rot)  - is the rotational thermal energy
    E(trans)- is the translational thermal energy

Summary of contributions to the inner energy U:
Electronic energy                ...   -292.53865517 Eh
Zero point energy                ...      0.22080509 Eh     138.56 kcal/mol
Thermal vibrational correction   ...      0.00683134 Eh       4.29 kcal/mol
Thermal rotational correction    ...      0.00141627 Eh       0.89 kcal/mol
Thermal translational correction ...      0.00141627 Eh       0.89 kcal/mol
-----------------------------------------------------------------------
Total thermal energy                   -292.30818620 Eh

Summary of corrections to the electronic energy:
(perhaps to be used in another calculation)
Total thermal correction                  0.00966388 Eh       6.06 kcal/mol
Non-thermal (ZPE) correction              0.22080509 Eh     138.56 kcal/mol
-----------------------------------------------------------------------
Total correction                          0.23046898 Eh     144.62 kcal/mol

--------
ENTHALPY
--------

The enthalpy is H = U + kB*T
                kB is Boltzmann's constant
Total free energy                 ...   -292.30818620 Eh
Thermal Enthalpy correction       ...      0.00094421 Eh       0.59 kcal/mol
-----------------------------------------------------------------------
Total Enthalpy                    ...   -292.30724199 Eh

-------
ENTROPY
-------

The entropy contributions are T*S = T*(S(el)+S(vib)+S(rot)+S(trans)
     S(el)   - electronic entropy
     S(vib)  - vibrational entropy
     S(rot)  - rotational entropy
     S(trans)- translational entropy
The entropies will be listed as mutliplied by the temperature to get
units of energy

Electronic entropy                ...      0.00000000 Eh      0.00 kcal/mol
Vibrational entropy               ...      0.01205824 Eh      7.57 kcal/mol
Rotational entropy                ...      0.01232991 Eh      7.74 kcal/mol
Translational entropy             ...      0.01890208 Eh     11.86 kcal/mol
-----------------------------------------------------------------------
Final entropy term                ...      0.04329023 Eh     27.16 kcal/mol

CAUTION: The rotational entropy is not quite correctly treated here
         because it includes a symmetry number that is not yet correctly
         implemented in ORCA!
For a nonlinear molecule the correct rotational entropy is:
    S(rot) = R*(ln(qrot/sn)+1.5)
    R    = 8.31441 J/mol/K = 1.987191683e-3 kcal/mol/K
    qrot = 314097.0253045
    sn is the rotational symmetry number. We have assumed 3 here
       if it is different for your molecule then you should correct
       the printed rotational entropy by manually evaluating the equation
       as given above

For convenience we print out the resulting values for sn=1 - 12:
 sn= 1  qrot/sn=  314097.0253 T*S(rot)=     8.39 kcal/mol T*S(tot)=    27.82 kcal/mol
 sn= 2  qrot/sn=  157048.5127 T*S(rot)=     7.98 kcal/mol T*S(tot)=    27.41 kcal/mol
 sn= 3  qrot/sn=  104699.0084 T*S(rot)=     7.74 kcal/mol T*S(tot)=    27.16 kcal/mol
 sn= 4  qrot/sn=   78524.2563 T*S(rot)=     7.57 kcal/mol T*S(tot)=    26.99 kcal/mol
 sn= 5  qrot/sn=   62819.4051 T*S(rot)=     7.43 kcal/mol T*S(tot)=    26.86 kcal/mol
 sn= 6  qrot/sn=   52349.5042 T*S(rot)=     7.33 kcal/mol T*S(tot)=    26.75 kcal/mol
 sn= 7  qrot/sn=   44871.0036 T*S(rot)=     7.24 kcal/mol T*S(tot)=    26.66 kcal/mol
 sn= 8  qrot/sn=   39262.1282 T*S(rot)=     7.16 kcal/mol T*S(tot)=    26.58 kcal/mol
 sn= 9  qrot/sn=   34899.6695 T*S(rot)=     7.09 kcal/mol T*S(tot)=    26.51 kcal/mol
 sn=10  qrot/sn=   31409.7025 T*S(rot)=     7.02 kcal/mol T*S(tot)=    26.45 kcal/mol
 sn=11  qrot/sn=   28554.2750 T*S(rot)=     6.97 kcal/mol T*S(tot)=    26.40 kcal/mol
 sn=12  qrot/sn=   26174.7521 T*S(rot)=     6.92 kcal/mol T*S(tot)=    26.34 kcal/mol

-------------------
GIBBS FREE ENTHALPY
-------------------

The Gibbs free enthalpy is G = H - T*S

Total enthalpy                    ...   -292.30724199 Eh
Total entropy correction          ...     -0.04329023 Eh    -27.16 kcal/mol
-----------------------------------------------------------------------
Final Gibbs free enthalpy         ...   -292.35053222 Eh

For completeness - the Gibbs free enthalpy minus the electronic energy
G-E(el)                           ...      0.18812296 Eh    118.05 kcal/mol

                             ****ORCA TERMINATED NORMALLY****
TOTAL RUN TIME: 0 days 1 hours 4 minutes 13 seconds 797 msec
