                         Program Version 3.0.3 - RELEASE   -
|  1> ! NORI PBE0 def2-TZVP UseSym TightOPT Freq TightSCF Grid3 FinalGrid5 XYZFile
|  2> % pal
|  3>     nprocs 8
|  4> end
|  5> %method
|  6>     SymThresh 5.0e-2
|  7> end
|  8> % geom
|  9>     MaxIter 10
| 10> end
| 11> % maxcore 2000
| 12> % output
| 13>     printlevel mini
| 14>     print[ P_Basis ] 0
| 15>     print[ P_SCFInfo ] 1
| 16>     print[ P_SCFIterInfo ] 1
| 17>     print[ P_OrbEn ] 0
| 18>     print[ P_Cartesian ] 0
| 19> end
| 20> % elprop
| 21>     Dipole false
| 22> end
| 23> *xyz 1 1
| 24>  C        0.8595793355     0.1315602797    -0.1062019268
| 25>  C        2.3815380252     0.1493321789     0.0274643184
| 26>  C        2.8580796892     1.4428600486     0.6895069123
| 27>  C        2.8370571310    -1.0218880462     0.8263332288
| 28>  C        3.6821493022    -1.9666827535     0.4152856751
| 29>  C        4.1194918008    -3.0811142770     1.2900043060
| 30>  N        3.5082011722    -4.3959851926     0.8156585362
| 31>  H        0.5254612114     0.9910330066    -0.6903173235
| 32>  H        0.3783887240     0.1902906957     0.8740442054
| 33>  H        0.5056602973    -0.7723035070    -0.6070544617
| 34>  H        2.8264511621     0.0819726772    -0.9712130633
| 35>  H        2.4395536207     1.5474270654     1.6940890079
| 36>  H        2.5296228979     2.3027799837     0.1028796304
| 37>  H        3.9462377405     1.4796493786     0.7668691313
| 38>  H        2.4457556443    -1.0744202355     1.8445575176
| 39>  H        4.1163009729    -1.9173238023    -0.5811442666
| 40>  H        3.7899112927    -2.9513493094     2.3209299722
| 41>  H        5.1991918311    -3.2444045065     1.2780681998
| 42>  H        2.4883063195    -4.3270982162     0.8261309903
| 43>  H        3.7892445808    -5.1878946145     1.3981184390
| 44>  H        3.7884072487    -4.5947608537    -0.1466990286
| 45> *
| 46>
| 47>                          ****END OF INPUT****
 Total Charge           Charge          ....    1
 Multiplicity           Mult            ....    1
 Number of Electrons    NEL             ....   56
FINAL SINGLE POINT ENERGY      -291.312869690172

CARTESIAN COORDINATES (ANGSTROEM)
---------------------------------
  C      1.786105    0.000973   -1.862236
  C      0.325786    0.342819   -1.569205
  C     -0.588955   -0.156514   -2.688372
  C     -0.090256   -0.260875   -0.272960
  C     -0.553665    0.403713    0.784974
  C     -0.988844   -0.278189    2.027446
  N     -0.000326   -0.000750    3.155653
  H      2.089753    0.442800   -2.812994
  H      1.928438   -1.080546   -1.939615
  H      2.455872    0.379780   -1.087142
  H      0.224765    1.430903   -1.492904
  H     -0.521961   -1.242687   -2.795250
  H     -0.289868    0.288999   -3.638937
  H     -1.632435    0.105167   -2.503935
  H     -0.021413   -1.349630   -0.219999
  H     -0.668110    1.485166    0.745282
  H     -1.020169   -1.361867    1.915188
  H     -1.954806    0.070478    2.398328
  H      0.930440   -0.328054    2.888559
  H     -0.269786   -0.457296    4.029906
  H      0.070841    1.003456    3.330959

FINAL SINGLE POINT ENERGY      -291.312870625109
                    ***********************HURRAY********************
 Multiplicity           Mult            ....    1
 Number of Electrons    NEL             ....   56
 Basis Dimension        Dim             ....  301
FINAL SINGLE POINT ENERGY      -291.312871012323

VIBRATIONAL FREQUENCIES
-----------------------

   0:         0.00 cm**-1
   1:         0.00 cm**-1
   2:         0.00 cm**-1
   3:         0.00 cm**-1
   4:         0.00 cm**-1
   5:         0.00 cm**-1
   6:        52.79 cm**-1
   7:       105.89 cm**-1
   8:       128.76 cm**-1
   9:       171.26 cm**-1
  10:       219.76 cm**-1
  11:       229.65 cm**-1
  12:       266.09 cm**-1
  13:       301.41 cm**-1
  14:       358.66 cm**-1
  15:       452.22 cm**-1
  16:       457.98 cm**-1
  17:       513.37 cm**-1
  18:       823.40 cm**-1
  19:       837.67 cm**-1
  20:       870.35 cm**-1
  21:       880.30 cm**-1
  22:       933.86 cm**-1
  23:       943.77 cm**-1
  24:       974.70 cm**-1
  25:       999.90 cm**-1
  26:      1018.69 cm**-1
  27:      1078.91 cm**-1
  28:      1121.68 cm**-1
  29:      1135.51 cm**-1
  30:      1190.38 cm**-1
  31:      1217.10 cm**-1
  32:      1286.51 cm**-1
  33:      1321.79 cm**-1
  34:      1330.63 cm**-1
  35:      1341.77 cm**-1
  36:      1377.73 cm**-1
  37:      1393.56 cm**-1
  38:      1403.73 cm**-1
  39:      1415.46 cm**-1
  40:      1475.71 cm**-1
  41:      1480.33 cm**-1
  42:      1486.98 cm**-1
  43:      1491.31 cm**-1
  44:      1494.19 cm**-1
  45:      1502.10 cm**-1
  46:      1650.43 cm**-1
  47:      1661.41 cm**-1
  48:      1725.89 cm**-1
  49:      3049.33 cm**-1
  50:      3050.76 cm**-1
  51:      3055.45 cm**-1
  52:      3093.43 cm**-1
  53:      3118.62 cm**-1
  54:      3124.48 cm**-1
  55:      3129.91 cm**-1
  56:      3137.81 cm**-1
  57:      3141.13 cm**-1
  58:      3150.46 cm**-1
  59:      3165.53 cm**-1
  60:      3416.47 cm**-1
  61:      3507.93 cm**-1
  62:      3509.81 cm**-1

IR SPECTRUM
-----------

 Mode    freq (cm**-1)   T**2         TX         TY         TZ
-------------------------------------------------------------------
   6:        52.79    7.887162  (  1.969321  -1.620749  -1.175630)
   7:       105.89    7.969547  (  1.999568   1.855166  -0.727758)
   8:       128.76    7.917179  ( -1.135085   0.364218   2.548746)
   9:       171.26    0.227028  ( -0.065560   0.471075  -0.028599)
  10:       219.76    0.063570  ( -0.013123   0.138949  -0.209977)
  11:       229.65    0.089535  ( -0.275591   0.000989   0.116550)
  12:       266.09    0.285584  (  0.345350  -0.253649  -0.319342)
  13:       301.41    4.556378  ( -0.418784   0.406215  -2.053287)
  14:       358.66    2.178678  ( -0.178373  -0.651346   1.312482)
  15:       452.22    4.856953  (  1.290782   0.089866   1.784029)
  16:       457.98    0.030039  ( -0.060481  -0.162180   0.008884)
  17:       513.37    4.395547  ( -1.176048   0.762696  -1.559087)
  18:       823.40    9.202287  ( -1.460734   1.990447   1.762573)
  19:       837.67   20.162408  ( -0.048545   1.569962  -4.206575)
  20:       870.35   24.319090  ( -1.043393  -0.398871  -4.803262)
  21:       880.30   16.923310  (  1.470542  -0.532650   3.804879)
  22:       933.86    1.241076  ( -0.800688  -0.088366  -0.769523)
  23:       943.77   21.152233  (  0.869085  -1.482208  -4.266144)
  24:       974.70    0.506856  ( -0.169639  -0.063483  -0.688512)
  25:       999.90   12.637772  (  2.939294   1.182027  -1.612804)
  26:      1018.69   34.391798  ( -5.168962  -0.243594  -2.759400)
  27:      1078.91    6.632385  ( -2.345189  -0.241771  -1.036350)
  28:      1121.68    1.390662  ( -0.744344   0.458371  -0.791524)
  29:      1135.51   20.901999  (  2.313689   2.113811  -3.328760)
  30:      1190.38    6.225950  ( -0.714576  -1.387584   1.946777)
  31:      1217.10    1.220840  (  0.369124  -0.120730  -1.034414)
  32:      1286.51    6.515781  (  0.369383   1.057437  -2.293723)
  33:      1321.79   18.249520  (  1.303573  -1.277396  -3.862444)
  34:      1330.63    0.359148  ( -0.437439  -0.107285   0.395329)
  35:      1341.77    3.440055  ( -0.965137   1.306199   0.895772)
  36:      1377.73    6.455990  (  0.619645   0.469645  -2.418980)
  37:      1393.56    6.165000  (  2.383744   0.102574   0.687200)
  38:      1403.73   45.339149  ( -1.105255   0.921677   6.577847)
  39:      1415.46    2.035123  ( -0.381820   1.374507  -0.008160)
  40:      1475.71    1.052608  (  0.861601  -0.011817   0.556877)
  41:      1480.33    5.254280  (  2.118488  -0.018660   0.875181)
  42:      1486.98   12.913244  (  1.343957   2.458036  -2.250573)
  43:      1491.31  144.056366  (  7.472043   1.760467   9.226358)
  44:      1494.19   19.950496  (  0.472998   3.203809   3.076097)
  45:      1502.10   16.277762  (  0.246013   3.363747  -2.214147)
  46:      1650.43   48.480613  ( -3.163688   6.169348   0.640965)
  47:      1661.41   40.957611  ( -3.592808  -1.990042   4.908062)
  48:      1725.89   57.897679  ( -1.637437   0.933915   7.371857)
  49:      3049.33   10.384075  (  3.209746  -0.260410   0.117440)
  50:      3050.76    8.119453  (  2.205688   0.105629   1.800899)
  51:      3055.45   12.140021  (  0.448631  -3.076903  -1.572075)
  52:      3093.43    4.856105  ( -0.946200  -0.600907   1.897293)
  53:      3118.62    3.459682  (  0.014345  -1.499235   1.100804)
  54:      3124.48   11.635938  ( -2.297881  -2.045947  -1.473018)
  55:      3129.91   26.050830  (  0.523214  -5.073069  -0.202595)
  56:      3137.81   10.934297  ( -1.596236   1.183198  -2.643174)
  57:      3141.13   11.273821  ( -2.488506  -0.466348   2.205374)
  58:      3150.46    0.971521  (  0.174958   0.828979  -0.503691)
  59:      3165.53    1.374383  ( -0.090520  -1.168621   0.022676)
  60:      3416.47   35.825635  ( -2.943205  -0.623727  -5.174374)
  61:      3507.93   83.734422  ( -6.938341   1.568183   5.756271)
  62:      3509.81   88.245813  ( -0.360370  -9.303215   1.251452)

--------------------------
THERMOCHEMISTRY AT 298.15K
--------------------------

Temperature         ... 298.15 K
Pressure            ... 1.00 atm
Total Mass          ... 100.18 AMU

Throughout the following assumptions are being made:
  (1) The electronic state is orbitally nondegenerate
  (2) There are no thermally accessible electronically excited states
  (3) Hindered rotations indicated by low frequency modes) are not
      treated as such but are treated as vibrations and this may
      case some error
  (4) All equations used are the standard statistical mechanics
      equations for an ideal gas
  (5) All vibrations are strinctly harmonic

------------
INNER ENERGY
------------

The inner energy is: U= E(el) + E(ZPE) + E(vib) + E(rot) + E(trans)
    E(el)   - is the total energy from the electronic structure calculation
              = E(kin-el) + E(nuc-el) + E(el-el) + E(nuc-nuc)
    E(ZPE)  - the the zero temperature vibrational energy from the frequency calculation
    E(vib)  - the the finite temperature correction to E(ZPE) due to population
              of excietd vibrational states
    E(rot)  - is the rotational thermal energy
    E(trans)- is the translational thermal energy

Summary of contributions to the inner energy U:
Electronic energy                ...   -291.31287101 Eh
Zero point energy                ...      0.19768738 Eh     124.05 kcal/mol
Thermal vibrational correction   ...      0.00653278 Eh       4.10 kcal/mol
Thermal rotational correction    ...      0.00141627 Eh       0.89 kcal/mol
Thermal translational correction ...      0.00141627 Eh       0.89 kcal/mol
-----------------------------------------------------------------------
Total thermal energy                   -291.10581831 Eh

Summary of corrections to the electronic energy:
(perhaps to be used in another calculation)
Total thermal correction                  0.00936533 Eh       5.88 kcal/mol
Non-thermal (ZPE) correction              0.19768738 Eh     124.05 kcal/mol
-----------------------------------------------------------------------
Total correction                          0.20705270 Eh     129.93 kcal/mol

--------
ENTHALPY
--------

The enthalpy is H = U + kB*T
                kB is Boltzmann's constant
Total free energy                 ...   -291.10581831 Eh
Thermal Enthalpy correction       ...      0.00094421 Eh       0.59 kcal/mol
-----------------------------------------------------------------------
Total Enthalpy                    ...   -291.10487410 Eh

-------
ENTROPY
-------

The entropy contributions are T*S = T*(S(el)+S(vib)+S(rot)+S(trans)
     S(el)   - electronic entropy
     S(vib)  - vibrational entropy
     S(rot)  - rotational entropy
     S(trans)- translational entropy
The entropies will be listed as mutliplied by the temperature to get
units of energy

Electronic entropy                ...      0.00000000 Eh      0.00 kcal/mol
Vibrational entropy               ...      0.01204525 Eh      7.56 kcal/mol
Rotational entropy                ...      0.01245708 Eh      7.82 kcal/mol
Translational entropy             ...      0.01887386 Eh     11.84 kcal/mol
-----------------------------------------------------------------------
Final entropy term                ...      0.04337619 Eh     27.22 kcal/mol

CAUTION: The rotational entropy is not quite correctly treated here
         because it includes a symmetry number that is not yet correctly
         implemented in ORCA!
For a nonlinear molecule the correct rotational entropy is:
    S(rot) = R*(ln(qrot/sn)+1.5)
    R    = 8.31441 J/mol/K = 1.987191683e-3 kcal/mol/K
    qrot = 359383.0549981
    sn is the rotational symmetry number. We have assumed 3 here
       if it is different for your molecule then you should correct
       the printed rotational entropy by manually evaluating the equation
       as given above

For convenience we print out the resulting values for sn=1 - 12:
 sn= 1  qrot/sn=  359383.0550 T*S(rot)=     8.47 kcal/mol T*S(tot)=    27.87 kcal/mol
 sn= 2  qrot/sn=  179691.5275 T*S(rot)=     8.06 kcal/mol T*S(tot)=    27.46 kcal/mol
 sn= 3  qrot/sn=  119794.3517 T*S(rot)=     7.82 kcal/mol T*S(tot)=    27.22 kcal/mol
 sn= 4  qrot/sn=   89845.7637 T*S(rot)=     7.65 kcal/mol T*S(tot)=    27.05 kcal/mol
 sn= 5  qrot/sn=   71876.6110 T*S(rot)=     7.51 kcal/mol T*S(tot)=    26.92 kcal/mol
 sn= 6  qrot/sn=   59897.1758 T*S(rot)=     7.41 kcal/mol T*S(tot)=    26.81 kcal/mol
 sn= 7  qrot/sn=   51340.4364 T*S(rot)=     7.31 kcal/mol T*S(tot)=    26.72 kcal/mol
 sn= 8  qrot/sn=   44922.8819 T*S(rot)=     7.24 kcal/mol T*S(tot)=    26.64 kcal/mol
 sn= 9  qrot/sn=   39931.4506 T*S(rot)=     7.17 kcal/mol T*S(tot)=    26.57 kcal/mol
 sn=10  qrot/sn=   35938.3055 T*S(rot)=     7.10 kcal/mol T*S(tot)=    26.51 kcal/mol
 sn=11  qrot/sn=   32671.1868 T*S(rot)=     7.05 kcal/mol T*S(tot)=    26.45 kcal/mol
 sn=12  qrot/sn=   29948.5879 T*S(rot)=     7.00 kcal/mol T*S(tot)=    26.40 kcal/mol

-------------------
GIBBS FREE ENTHALPY
-------------------

The Gibbs free enthalpy is G = H - T*S

Total enthalpy                    ...   -291.10487410 Eh
Total entropy correction          ...     -0.04337619 Eh    -27.22 kcal/mol
-----------------------------------------------------------------------
Final Gibbs free enthalpy         ...   -291.14825029 Eh

For completeness - the Gibbs free enthalpy minus the electronic energy
G-E(el)                           ...      0.16462072 Eh    103.30 kcal/mol

                             ****ORCA TERMINATED NORMALLY****
TOTAL RUN TIME: 0 days 0 hours 42 minutes 46 seconds 923 msec
