                         Program Version 3.0.3 - RELEASE   -
|  1> ! NORI PBE0 def2-TZVP UseSym TightOPT Freq TightSCF Grid3 FinalGrid5 XYZFile
|  2> % pal
|  3>     nprocs 8
|  4> end
|  5> %method
|  6>     SymThresh 5.0e-2
|  7> end
|  8> % geom
|  9>     MaxIter 10
| 10> end
| 11> % maxcore 2000
| 12> % output
| 13>     printlevel mini
| 14>     print[ P_Basis ] 0
| 15>     print[ P_SCFInfo ] 1
| 16>     print[ P_SCFIterInfo ] 1
| 17>     print[ P_OrbEn ] 0
| 18>     print[ P_Cartesian ] 0
| 19> end
| 20> % elprop
| 21>     Dipole false
| 22> end
| 23> *xyz 1 1
| 24>  C        0.8844392855     0.1774513848    -0.0341481958
| 25>  C        2.3988656911    -0.0249718535    -0.0831002723
| 26>  C        2.9626476829    -0.3326933200     1.3033103946
| 27>  C        2.7960107874    -1.0650129306    -1.1046047423
| 28>  C        3.4825393152    -0.7619803579    -2.2013858043
| 29>  C        2.3572797787    -2.4619181118    -0.7877382599
| 30>  N        2.7114111767    -3.4277650190    -1.8755500655
| 31>  H        0.4739653423     0.4003701046    -1.0209411894
| 32>  H        0.6477660650     1.0161626405     0.6226792333
| 33>  H        0.3619130282    -0.6941308585     0.3712572014
| 34>  H        2.8490101691     0.9105069020    -0.4267818023
| 35>  H        2.4952886607    -1.2138492845     1.7534550263
| 36>  H        2.7631143841     0.5032017279     1.9758381431
| 37>  H        4.0436787330    -0.4872530889     1.2763553764
| 38>  H        3.7880031332    -1.4730015167    -2.9639579547
| 39>  H        3.7856561014     0.2596886602    -2.3936565196
| 40>  H        2.8264752109    -2.8348183879     0.1250270697
| 41>  H        1.2749408983    -2.5237495225    -0.6565274657
| 42>  H        3.7239020728    -3.4526762335    -2.0167131785
| 43>  H        2.2897392000    -3.1374379987    -2.7609964587
| 44>  H        2.3932232835    -4.3734129359    -1.6586505359
| 45> *
| 46>
| 47>                          ****END OF INPUT****
 Total Charge           Charge          ....    1
 Multiplicity           Mult            ....    1
 Number of Electrons    NEL             ....   56
FINAL SINGLE POINT ENERGY      -291.306455748992
FINAL SINGLE POINT ENERGY      -291.306457948530
FINAL SINGLE POINT ENERGY      -291.306459190456
FINAL SINGLE POINT ENERGY      -291.306460067321

CARTESIAN COORDINATES (ANGSTROEM)
---------------------------------
  C      1.491700   -0.010374   -1.636582
  C     -0.002753    0.009371   -1.314480
  C     -0.658963   -1.330495   -1.645965
  C     -0.266408    0.437488    0.110463
  C     -0.893966    1.569747    0.410042
  C      0.234344   -0.510877    1.156658
  N     -0.001606   -0.000435    2.544212
  H      1.968640    0.943058   -1.400256
  H      1.636360   -0.199956   -2.701389
  H      2.018961   -0.806268   -1.102047
  H     -0.468639    0.774561   -1.941770
  H     -0.179492   -2.164953   -1.125148
  H     -0.563902   -1.532440   -2.714033
  H     -1.723569   -1.332624   -1.401817
  H     -1.103602    1.922540    1.416020
  H     -1.243316    2.227403   -0.376403
  H     -0.263226   -1.480762    1.092240
  H      1.309259   -0.679278    1.063937
  H     -1.001319    0.138411    2.709287
  H      0.456216    0.905145    2.673633
  H      0.354474   -0.647295    3.249510

FINAL SINGLE POINT ENERGY      -291.306461055557
                    ***********************HURRAY********************
 Multiplicity           Mult            ....    1
 Number of Electrons    NEL             ....   56
 Basis Dimension        Dim             ....  301
FINAL SINGLE POINT ENERGY      -291.306461915646

VIBRATIONAL FREQUENCIES
-----------------------

   0:         0.00 cm**-1
   1:         0.00 cm**-1
   2:         0.00 cm**-1
   3:         0.00 cm**-1
   4:         0.00 cm**-1
   5:         0.00 cm**-1
   6:        25.87 cm**-1
   7:        70.00 cm**-1
   8:       209.42 cm**-1
   9:       219.20 cm**-1
  10:       226.14 cm**-1
  11:       249.51 cm**-1
  12:       254.93 cm**-1
  13:       316.58 cm**-1
  14:       339.61 cm**-1
  15:       480.20 cm**-1
  16:       538.85 cm**-1
  17:       545.25 cm**-1
  18:       717.52 cm**-1
  19:       751.98 cm**-1
  20:       873.86 cm**-1
  21:       885.00 cm**-1
  22:       929.64 cm**-1
  23:       945.73 cm**-1
  24:       947.54 cm**-1
  25:       970.50 cm**-1
  26:       992.53 cm**-1
  27:      1065.50 cm**-1
  28:      1101.85 cm**-1
  29:      1107.93 cm**-1
  30:      1135.81 cm**-1
  31:      1188.85 cm**-1
  32:      1274.54 cm**-1
  33:      1333.98 cm**-1
  34:      1342.41 cm**-1
  35:      1345.95 cm**-1
  36:      1397.25 cm**-1
  37:      1413.10 cm**-1
  38:      1419.01 cm**-1
  39:      1468.75 cm**-1
  40:      1475.87 cm**-1
  41:      1484.88 cm**-1
  42:      1488.28 cm**-1
  43:      1501.65 cm**-1
  44:      1502.45 cm**-1
  45:      1504.76 cm**-1
  46:      1643.20 cm**-1
  47:      1665.75 cm**-1
  48:      1726.77 cm**-1
  49:      3046.40 cm**-1
  50:      3048.41 cm**-1
  51:      3074.14 cm**-1
  52:      3088.83 cm**-1
  53:      3118.54 cm**-1
  54:      3124.74 cm**-1
  55:      3137.77 cm**-1
  56:      3140.13 cm**-1
  57:      3142.06 cm**-1
  58:      3151.92 cm**-1
  59:      3239.47 cm**-1
  60:      3420.09 cm**-1
  61:      3493.52 cm**-1
  62:      3515.56 cm**-1

IR SPECTRUM
-----------

 Mode    freq (cm**-1)   T**2         TX         TY         TZ
-------------------------------------------------------------------
   7:        70.00    7.114938  ( -2.341034  -1.275588   0.085881)
   8:       209.42    1.675636  (  0.330099   1.154496   0.483539)
   9:       219.20    6.663455  ( -1.238776   1.818875   1.349290)
  10:       226.14    0.483189  ( -0.680615  -0.094921   0.104608)
  11:       249.51    1.142247  ( -0.931586  -0.519945  -0.063649)
  12:       254.93    0.423706  ( -0.465992  -0.144235   0.430992)
  13:       316.58   12.510089  ( -0.653204   1.100964  -3.297164)
  14:       339.61   12.803520  (  0.511024  -1.035278   3.386824)
  15:       480.20    0.108063  ( -0.030371   0.145848   0.293034)
  16:       538.85    5.837310  (  0.143389  -0.876227   2.246993)
  17:       545.25   12.338584  (  3.084519   1.660504   0.258944)
  18:       717.52    2.707633  ( -1.439996  -0.795706  -0.029959)
  19:       751.98    2.408917  (  0.754990  -1.182230   0.664259)
  20:       873.86    3.784658  ( -1.786361  -0.764147  -0.098249)
  21:       885.00    8.040870  (  0.870210  -1.746956   2.057121)
  22:       929.64    0.779027  ( -0.739150  -0.474071  -0.089110)
  23:       945.73   45.130861  ( -5.831752  -3.333876  -0.082459)
  24:       947.54    6.040639  (  0.892146  -0.801228  -2.145402)
  25:       970.50    0.039992  (  0.160301  -0.011857  -0.118974)
  26:       992.53    7.674421  (  0.065802  -0.216639  -2.761007)
  27:      1065.50    8.524826  ( -1.328494   2.232388  -1.332807)
  28:      1101.85    3.544329  ( -1.430969  -1.048377   0.630525)
  29:      1107.93   13.621185  (  0.871578  -1.153537   3.395716)
  30:      1135.81    5.020428  ( -1.917881  -1.150051  -0.139800)
  31:      1188.85    1.388798  (  0.152420  -0.224464  -1.146814)
  32:      1274.54    3.056291  (  0.713481  -1.252860  -0.988726)
  33:      1333.98    0.001533  (  0.010200   0.009478   0.036597)
  34:      1342.41    4.797094  ( -1.897397  -1.068469   0.235268)
  35:      1345.95    3.775118  ( -0.235159   0.754425   1.775010)
  36:      1397.25    8.086998  (  2.421589   1.488426   0.086556)
  37:      1413.10    2.411144  ( -0.737825   1.262048  -0.523444)
  38:      1419.01    2.672427  ( -0.818217   1.339333   0.457313)
  39:      1468.75    5.345913  ( -0.839243   1.512643  -1.534110)
  40:      1475.87    0.638177  ( -0.109152  -0.665156   0.428754)
  41:      1484.88   30.188807  ( -2.925382   3.506283  -3.055638)
  42:      1488.28    9.102131  ( -0.962105  -2.567441   1.258862)
  43:      1501.65   81.885032  ( -0.313359   1.170287   8.967567)
  44:      1502.45    6.511648  (  1.025523  -1.483560  -1.805270)
  45:      1504.76   87.504302  ( -2.154454   4.246650   8.051621)
  46:      1643.20   57.967794  ( -6.790567  -3.443251   0.003995)
  47:      1665.75   39.958413  (  1.781744  -3.781648   4.741618)
  48:      1726.77   14.850501  ( -1.882697   3.078879   1.351464)
  49:      3046.40   11.152804  ( -2.097584  -2.548632   0.507366)
  50:      3048.41   13.097971  (  2.595883  -2.133571   1.344336)
  51:      3074.14    2.976692  ( -0.835128   1.409319  -0.541361)
  52:      3088.83    1.017669  (  0.450365  -0.860013   0.274258)
  53:      3118.54    6.828920  (  2.476093   0.807351   0.214636)
  54:      3124.74   30.331752  (  2.231755  -4.013783   3.039831)
  55:      3137.77    0.095883  ( -0.244948  -0.186561   0.032841)
  56:      3140.13    5.663724  (  1.919176   0.962435  -1.026747)
  57:      3142.06   10.153885  ( -0.037822   1.465706   2.829163)
  58:      3151.92   14.915825  ( -0.061264   0.039343   3.861415)
  59:      3239.47    4.398738  ( -0.633413   1.121203   1.655424)
  60:      3420.09   37.077386  ( -0.802314   1.939779   5.715849)
  61:      3493.52   86.834308  (  8.156602   4.493390  -0.337043)
  62:      3515.56  106.760777  ( -4.283042   7.580761  -5.563128)

--------------------------
THERMOCHEMISTRY AT 298.15K
--------------------------

Temperature         ... 298.15 K
Pressure            ... 1.00 atm
Total Mass          ... 100.18 AMU

Throughout the following assumptions are being made:
  (1) The electronic state is orbitally nondegenerate
  (2) There are no thermally accessible electronically excited states
  (3) Hindered rotations indicated by low frequency modes) are not
      treated as such but are treated as vibrations and this may
      case some error
  (4) All equations used are the standard statistical mechanics
      equations for an ideal gas
  (5) All vibrations are strinctly harmonic

------------
INNER ENERGY
------------

The inner energy is: U= E(el) + E(ZPE) + E(vib) + E(rot) + E(trans)
    E(el)   - is the total energy from the electronic structure calculation
              = E(kin-el) + E(nuc-el) + E(el-el) + E(nuc-nuc)
    E(ZPE)  - the the zero temperature vibrational energy from the frequency calculation
    E(vib)  - the the finite temperature correction to E(ZPE) due to population
              of excietd vibrational states
    E(rot)  - is the rotational thermal energy
    E(trans)- is the translational thermal energy

Summary of contributions to the inner energy U:
Electronic energy                ...   -291.30646192 Eh
Zero point energy                ...      0.19773153 Eh     124.08 kcal/mol
Thermal vibrational correction   ...      0.00551641 Eh       3.46 kcal/mol
Thermal rotational correction    ...      0.00141627 Eh       0.89 kcal/mol
Thermal translational correction ...      0.00141627 Eh       0.89 kcal/mol
-----------------------------------------------------------------------
Total thermal energy                   -291.10038143 Eh

Summary of corrections to the electronic energy:
(perhaps to be used in another calculation)
Total thermal correction                  0.00834896 Eh       5.24 kcal/mol
Non-thermal (ZPE) correction              0.19773153 Eh     124.08 kcal/mol
-----------------------------------------------------------------------
Total correction                          0.20608048 Eh     129.32 kcal/mol

--------
ENTHALPY
--------

The enthalpy is H = U + kB*T
                kB is Boltzmann's constant
Total free energy                 ...   -291.10038143 Eh
Thermal Enthalpy correction       ...      0.00094421 Eh       0.59 kcal/mol
-----------------------------------------------------------------------
Total Enthalpy                    ...   -291.09943722 Eh

-------
ENTROPY
-------

The entropy contributions are T*S = T*(S(el)+S(vib)+S(rot)+S(trans)
     S(el)   - electronic entropy
     S(vib)  - vibrational entropy
     S(rot)  - rotational entropy
     S(trans)- translational entropy
The entropies will be listed as mutliplied by the temperature to get
units of energy

Electronic entropy                ...      0.00000000 Eh      0.00 kcal/mol
Vibrational entropy               ...      0.00941861 Eh      5.91 kcal/mol
Rotational entropy                ...      0.01224565 Eh      7.68 kcal/mol
Translational entropy             ...      0.01887386 Eh     11.84 kcal/mol
-----------------------------------------------------------------------
Final entropy term                ...      0.04053811 Eh     25.44 kcal/mol

CAUTION: The rotational entropy is not quite correctly treated here
         because it includes a symmetry number that is not yet correctly
         implemented in ORCA!
For a nonlinear molecule the correct rotational entropy is:
    S(rot) = R*(ln(qrot/sn)+1.5)
    R    = 8.31441 J/mol/K = 1.987191683e-3 kcal/mol/K
    qrot = 287278.8188015
    sn is the rotational symmetry number. We have assumed 3 here
       if it is different for your molecule then you should correct
       the printed rotational entropy by manually evaluating the equation
       as given above

For convenience we print out the resulting values for sn=1 - 12:
 sn= 1  qrot/sn=  287278.8188 T*S(rot)=     8.34 kcal/mol T*S(tot)=    26.09 kcal/mol
 sn= 2  qrot/sn=  143639.4094 T*S(rot)=     7.92 kcal/mol T*S(tot)=    25.68 kcal/mol
 sn= 3  qrot/sn=   95759.6063 T*S(rot)=     7.68 kcal/mol T*S(tot)=    25.44 kcal/mol
 sn= 4  qrot/sn=   71819.7047 T*S(rot)=     7.51 kcal/mol T*S(tot)=    25.27 kcal/mol
 sn= 5  qrot/sn=   57455.7638 T*S(rot)=     7.38 kcal/mol T*S(tot)=    25.14 kcal/mol
 sn= 6  qrot/sn=   47879.8031 T*S(rot)=     7.27 kcal/mol T*S(tot)=    25.03 kcal/mol
 sn= 7  qrot/sn=   41039.8313 T*S(rot)=     7.18 kcal/mol T*S(tot)=    24.94 kcal/mol
 sn= 8  qrot/sn=   35909.8524 T*S(rot)=     7.10 kcal/mol T*S(tot)=    24.86 kcal/mol
 sn= 9  qrot/sn=   31919.8688 T*S(rot)=     7.03 kcal/mol T*S(tot)=    24.79 kcal/mol
 sn=10  qrot/sn=   28727.8819 T*S(rot)=     6.97 kcal/mol T*S(tot)=    24.72 kcal/mol
 sn=11  qrot/sn=   26116.2563 T*S(rot)=     6.91 kcal/mol T*S(tot)=    24.67 kcal/mol
 sn=12  qrot/sn=   23939.9016 T*S(rot)=     6.86 kcal/mol T*S(tot)=    24.62 kcal/mol

-------------------
GIBBS FREE ENTHALPY
-------------------

The Gibbs free enthalpy is G = H - T*S

Total enthalpy                    ...   -291.09943722 Eh
Total entropy correction          ...     -0.04053811 Eh    -25.44 kcal/mol
-----------------------------------------------------------------------
Final Gibbs free enthalpy         ...   -291.13997534 Eh

For completeness - the Gibbs free enthalpy minus the electronic energy
G-E(el)                           ...      0.16648658 Eh    104.47 kcal/mol

                             ****ORCA TERMINATED NORMALLY****
TOTAL RUN TIME: 0 days 0 hours 53 minutes 6 seconds 852 msec
