                         Program Version 3.0.3 - RELEASE   -
|  1> ! NORI PBE0 def2-TZVP UseSym TightOPT Freq TightSCF Grid3 FinalGrid5 XYZFile
|  2> % pal
|  3>     nprocs 8
|  4> end
|  5> %method
|  6>     SymThresh 5.0e-2
|  7> end
|  8> % geom
|  9>     MaxIter 10
| 10> end
| 11> % maxcore 2000
| 12> % output
| 13>     printlevel mini
| 14>     print[ P_Basis ] 0
| 15>     print[ P_SCFInfo ] 1
| 16>     print[ P_SCFIterInfo ] 1
| 17>     print[ P_OrbEn ] 0
| 18>     print[ P_Cartesian ] 0
| 19> end
| 20> % elprop
| 21>     Dipole false
| 22> end
| 23> *xyz 1 1
| 24>  C        2.9929730261     0.8281653399    -1.6482734763
| 25>  C        2.7199230271     0.1041217543    -0.3348200441
| 26>  C        1.2577058455     0.2456510741     0.0672457107
| 27>  C        3.1497873698    -1.3800095604    -0.3463583102
| 28>  C        2.5289273410    -2.1967671982    -1.4743634821
| 29>  C        4.6658112190    -1.4574266855    -0.3738353774
| 30>  N        5.1347812191    -2.8858669166    -0.2625095312
| 31>  H        4.0401074587     0.7782039713    -1.9600688077
| 32>  H        2.7463835039     1.8860113897    -1.5444819950
| 33>  H        2.3781073325     0.4349780832    -2.4614796076
| 34>  H        3.3177419495     0.5895600966     0.4479753910
| 35>  H        0.5844160291    -0.1693321679    -0.6867642993
| 36>  H        1.0008738521     1.3002623597     0.1785155498
| 37>  H        1.0476160489    -0.2476419085     1.0194714604
| 38>  H        2.8172128700    -1.8004343517     0.6138757804
| 39>  H        2.9302692760    -1.9136532276    -2.4512377540
| 40>  H        1.4499598164    -2.0463250314    -1.5100215823
| 41>  H        2.6643623769    -3.2772228953    -1.3461537029
| 42>  H        5.1202309403    -0.9181694519     0.4583516039
| 43>  H        5.0800818525    -1.0777807528    -1.3089085439
| 44>  H        4.8215050229    -3.3028352241     0.6166685388
| 45>  H        6.1526367537    -2.9610510244    -0.3033065250
| 46>  H        4.7412758689    -3.4447476724    -1.0230609957
| 47> *
| 48>
| 49>                          ****END OF INPUT****
 Total Charge           Charge          ....    1
 Multiplicity           Mult            ....    1
 Number of Electrons    NEL             ....   58
FINAL SINGLE POINT ENERGY      -292.537618367500
FINAL SINGLE POINT ENERGY      -292.537622452867
FINAL SINGLE POINT ENERGY      -292.537623775435

CARTESIAN COORDINATES (ANGSTROEM)
---------------------------------
  C      1.387342   -0.006332   -1.598416
  C      0.085246    0.611085   -1.101223
  C     -0.994985    0.528501   -2.171886
  C     -0.413827    0.013795    0.234063
  C     -0.575173   -1.502505    0.211383
  C      0.511671    0.458412    1.352506
  N     -0.003930    0.002839    2.694864
  H      2.203412    0.060191   -0.873793
  H      1.722241    0.514994   -2.496604
  H      1.257524   -1.057061   -1.867906
  H      0.268158    1.677050   -0.911053
  H     -1.202443   -0.504310   -2.462085
  H     -0.671643    1.054166   -3.071794
  H     -1.931127    0.984628   -1.840492
  H     -1.397138    0.468471    0.421996
  H      0.390100   -2.013626    0.163760
  H     -1.153037   -1.814914   -0.658129
  H     -1.127375   -1.887802    1.076130
  H      0.595897    1.544474    1.408177
  H      1.510414    0.030752    1.255005
  H     -0.928616    0.396587    2.881376
  H      0.616671    0.278146    3.457782
  H     -0.097157   -1.015182    2.709438

FINAL SINGLE POINT ENERGY      -292.537624088210
                    ***********************HURRAY********************
 Multiplicity           Mult            ....    1
 Number of Electrons    NEL             ....   58
 Basis Dimension        Dim             ....  313
FINAL SINGLE POINT ENERGY      -292.537624301891

VIBRATIONAL FREQUENCIES
-----------------------

   0:         0.00 cm**-1
   1:         0.00 cm**-1
   2:         0.00 cm**-1
   3:         0.00 cm**-1
   4:         0.00 cm**-1
   5:         0.00 cm**-1
   6:        55.62 cm**-1
   7:        92.48 cm**-1
   8:       185.56 cm**-1
   9:       199.15 cm**-1
  10:       221.11 cm**-1
  11:       235.85 cm**-1
  12:       257.00 cm**-1
  13:       287.16 cm**-1
  14:       312.90 cm**-1
  15:       331.77 cm**-1
  16:       435.31 cm**-1
  17:       462.48 cm**-1
  18:       550.81 cm**-1
  19:       769.41 cm**-1
  20:       837.66 cm**-1
  21:       866.31 cm**-1
  22:       924.83 cm**-1
  23:       932.86 cm**-1
  24:       954.26 cm**-1
  25:       968.86 cm**-1
  26:       981.22 cm**-1
  27:      1009.01 cm**-1
  28:      1050.74 cm**-1
  29:      1085.10 cm**-1
  30:      1141.72 cm**-1
  31:      1194.57 cm**-1
  32:      1202.42 cm**-1
  33:      1217.66 cm**-1
  34:      1309.41 cm**-1
  35:      1334.62 cm**-1
  36:      1345.21 cm**-1
  37:      1366.47 cm**-1
  38:      1387.42 cm**-1
  39:      1403.17 cm**-1
  40:      1409.58 cm**-1
  41:      1420.54 cm**-1
  42:      1427.79 cm**-1
  43:      1471.57 cm**-1
  44:      1478.28 cm**-1
  45:      1489.67 cm**-1
  46:      1493.75 cm**-1
  47:      1495.95 cm**-1
  48:      1499.05 cm**-1
  49:      1505.90 cm**-1
  50:      1512.27 cm**-1
  51:      1652.39 cm**-1
  52:      1664.62 cm**-1
  53:      3009.98 cm**-1
  54:      3022.14 cm**-1
  55:      3037.56 cm**-1
  56:      3052.09 cm**-1
  57:      3054.75 cm**-1
  58:      3096.93 cm**-1
  59:      3104.75 cm**-1
  60:      3121.73 cm**-1
  61:      3126.78 cm**-1
  62:      3136.35 cm**-1
  63:      3139.76 cm**-1
  64:      3152.48 cm**-1
  65:      3158.53 cm**-1
  66:      3422.60 cm**-1
  67:      3500.58 cm**-1
  68:      3514.44 cm**-1

IR SPECTRUM
-----------

 Mode    freq (cm**-1)   T**2         TX         TY         TZ
-------------------------------------------------------------------
   6:        55.62    0.399463  (  0.322598   0.541587   0.045571)
   7:        92.48    7.672589  ( -1.720614   2.059545   0.685822)
   8:       185.56    4.507156  ( -1.466034  -1.197474  -0.961227)
   9:       199.15    0.767053  (  0.735915   0.284125  -0.380466)
  10:       221.11    2.270566  ( -0.821011  -0.949263  -0.833910)
  11:       235.85    0.225220  (  0.269377   0.216162   0.325469)
  12:       257.00    0.053713  ( -0.073315  -0.218896  -0.020569)
  13:       287.16    0.339689  ( -0.466779  -0.348968  -0.005273)
  14:       312.90   12.978682  ( -0.874998  -1.152934  -3.299061)
  15:       331.77    6.142086  ( -0.290203   0.139582  -2.457313)
  16:       435.31    3.874963  (  0.650972   0.326787   1.828773)
  17:       462.48    1.007084  ( -0.673864   0.552018   0.498265)
  18:       550.81    2.123837  ( -0.572915  -0.494395   1.245463)
  19:       769.41    6.458420  (  0.110937   1.584033   1.984175)
  20:       837.66    6.088544  (  0.723278  -2.338956  -0.307731)
  21:       866.31    1.330091  ( -0.494112   0.181340  -1.026187)
  22:       924.83    8.134779  ( -1.367204  -0.506428  -2.451339)
  23:       932.86    2.831711  (  0.149902  -1.125784  -1.241713)
  24:       954.26   14.580008  (  0.285889  -0.819620   3.718400)
  25:       968.86    2.904873  ( -1.249272   1.123537  -0.286106)
  26:       981.22    2.684144  ( -1.221265   0.906435   0.609124)
  27:      1009.01   10.158088  (  2.293039   2.131922   0.595791)
  28:      1050.74    1.107543  ( -0.777623   0.388370  -0.593307)
  29:      1085.10   21.913518  ( -1.509396  -0.471203  -4.406043)
  30:      1141.72    5.572976  (  0.762320  -0.220410   2.223345)
  31:      1194.57    2.133803  ( -0.570577  -1.340520  -0.106074)
  32:      1202.42    2.689362  (  1.538705   0.002820   0.567223)
  33:      1217.66    2.174576  ( -1.012073  -1.015462   0.345140)
  34:      1309.41    2.536176  (  0.785659   1.227977  -0.641084)
  35:      1334.62    3.027465  (  0.795436  -0.925759   1.240047)
  36:      1345.21    7.750956  (  1.124255  -1.487914  -2.067152)
  37:      1366.47    0.451050  ( -0.209886   0.495269   0.402128)
  38:      1387.42    0.635434  ( -0.056966  -0.664853   0.436073)
  39:      1403.17    7.494223  ( -2.253207   1.211772  -0.974110)
  40:      1409.58    3.735979  (  1.835586   0.280463  -0.536603)
  41:      1420.54    8.622525  (  1.190944   2.676531  -0.200891)
  42:      1427.79   12.535158  (  0.838123  -1.681423  -3.000921)
  43:      1471.57    8.414915  (  0.062104  -0.186932   2.894152)
  44:      1478.28   26.575948  ( -1.044414   1.654543  -4.769448)
  45:      1489.67   27.450060  (  1.951999   2.354117  -4.254162)
  46:      1493.75   46.086413  (  1.826915  -0.334486  -6.529695)
  47:      1495.95   18.077267  (  1.101392  -2.420509   3.317430)
  48:      1499.05   23.437692  (  0.478964   0.940677   4.724766)
  49:      1505.90   14.285366  ( -1.662953   0.357702   3.375204)
  50:      1512.27   62.356344  ( -5.216592  -3.832037   4.523163)
  51:      1652.39   48.426100  ( -4.185749   5.543927  -0.412885)
  52:      1664.62   36.756349  (  3.252680   3.267826   3.936717)
  53:      3009.98   11.158007  (  3.016160  -0.799111  -1.192563)
  54:      3022.14   22.253347  ( -0.387431   4.486214   1.406103)
  55:      3037.56   26.860438  (  0.993925   2.158954  -4.605591)
  56:      3052.09   21.929380  ( -4.193662   1.007186  -1.824322)
  57:      3054.75    2.868045  ( -0.951769  -1.369501  -0.294359)
  58:      3096.93    1.715086  ( -0.939834  -0.505913  -0.758848)
  59:      3104.75   17.405509  (  3.412637   0.305764  -2.380321)
  60:      3121.73   21.512329  ( -2.786052  -1.031415  -3.561801)
  61:      3126.78   22.843610  ( -1.320347   3.892025   2.439761)
  62:      3136.35    2.744913  (  1.001566  -1.205760  -0.536582)
  63:      3139.76   17.849893  (  1.587894   3.080385  -2.416550)
  64:      3152.48    1.961766  ( -1.168614  -0.281734  -0.718842)
  65:      3158.53    2.118518  (  0.870267  -1.160665   0.118363)
  66:      3422.60   33.674084  ( -1.814686  -1.890756   5.177455)
  67:      3500.58   92.692415  ( -3.279579   8.475048   3.179675)
  68:      3514.44  102.375346  ( -8.125384  -2.672149  -5.404914)

--------------------------
THERMOCHEMISTRY AT 298.15K
--------------------------

Temperature         ... 298.15 K
Pressure            ... 1.00 atm
Total Mass          ... 102.20 AMU

Throughout the following assumptions are being made:
  (1) The electronic state is orbitally nondegenerate
  (2) There are no thermally accessible electronically excited states
  (3) Hindered rotations indicated by low frequency modes) are not
      treated as such but are treated as vibrations and this may
      case some error
  (4) All equations used are the standard statistical mechanics
      equations for an ideal gas
  (5) All vibrations are strinctly harmonic

------------
INNER ENERGY
------------

The inner energy is: U= E(el) + E(ZPE) + E(vib) + E(rot) + E(trans)
    E(el)   - is the total energy from the electronic structure calculation
              = E(kin-el) + E(nuc-el) + E(el-el) + E(nuc-nuc)
    E(ZPE)  - the the zero temperature vibrational energy from the frequency calculation
    E(vib)  - the the finite temperature correction to E(ZPE) due to population
              of excietd vibrational states
    E(rot)  - is the rotational thermal energy
    E(trans)- is the translational thermal energy

Summary of contributions to the inner energy U:
Electronic energy                ...   -292.53762430 Eh
Zero point energy                ...      0.22117118 Eh     138.79 kcal/mol
Thermal vibrational correction   ...      0.00689341 Eh       4.33 kcal/mol
Thermal rotational correction    ...      0.00141627 Eh       0.89 kcal/mol
Thermal translational correction ...      0.00141627 Eh       0.89 kcal/mol
-----------------------------------------------------------------------
Total thermal energy                   -292.30672717 Eh

Summary of corrections to the electronic energy:
(perhaps to be used in another calculation)
Total thermal correction                  0.00972595 Eh       6.10 kcal/mol
Non-thermal (ZPE) correction              0.22117118 Eh     138.79 kcal/mol
-----------------------------------------------------------------------
Total correction                          0.23089713 Eh     144.89 kcal/mol

--------
ENTHALPY
--------

The enthalpy is H = U + kB*T
                kB is Boltzmann's constant
Total free energy                 ...   -292.30672717 Eh
Thermal Enthalpy correction       ...      0.00094421 Eh       0.59 kcal/mol
-----------------------------------------------------------------------
Total Enthalpy                    ...   -292.30578296 Eh

-------
ENTROPY
-------

The entropy contributions are T*S = T*(S(el)+S(vib)+S(rot)+S(trans)
     S(el)   - electronic entropy
     S(vib)  - vibrational entropy
     S(rot)  - rotational entropy
     S(trans)- translational entropy
The entropies will be listed as mutliplied by the temperature to get
units of energy

Electronic entropy                ...      0.00000000 Eh      0.00 kcal/mol
Vibrational entropy               ...      0.01242982 Eh      7.80 kcal/mol
Rotational entropy                ...      0.01229620 Eh      7.72 kcal/mol
Translational entropy             ...      0.01890208 Eh     11.86 kcal/mol
-----------------------------------------------------------------------
Final entropy term                ...      0.04362809 Eh     27.38 kcal/mol

CAUTION: The rotational entropy is not quite correctly treated here
         because it includes a symmetry number that is not yet correctly
         implemented in ORCA!
For a nonlinear molecule the correct rotational entropy is:
    S(rot) = R*(ln(qrot/sn)+1.5)
    R    = 8.31441 J/mol/K = 1.987191683e-3 kcal/mol/K
    qrot = 303080.2697726
    sn is the rotational symmetry number. We have assumed 3 here
       if it is different for your molecule then you should correct
       the printed rotational entropy by manually evaluating the equation
       as given above

For convenience we print out the resulting values for sn=1 - 12:
 sn= 1  qrot/sn=  303080.2698 T*S(rot)=     8.37 kcal/mol T*S(tot)=    28.03 kcal/mol
 sn= 2  qrot/sn=  151540.1349 T*S(rot)=     7.96 kcal/mol T*S(tot)=    27.62 kcal/mol
 sn= 3  qrot/sn=  101026.7566 T*S(rot)=     7.72 kcal/mol T*S(tot)=    27.38 kcal/mol
 sn= 4  qrot/sn=   75770.0674 T*S(rot)=     7.55 kcal/mol T*S(tot)=    27.21 kcal/mol
 sn= 5  qrot/sn=   60616.0540 T*S(rot)=     7.41 kcal/mol T*S(tot)=    27.07 kcal/mol
 sn= 6  qrot/sn=   50513.3783 T*S(rot)=     7.31 kcal/mol T*S(tot)=    26.97 kcal/mol
 sn= 7  qrot/sn=   43297.1814 T*S(rot)=     7.21 kcal/mol T*S(tot)=    26.87 kcal/mol
 sn= 8  qrot/sn=   37885.0337 T*S(rot)=     7.13 kcal/mol T*S(tot)=    26.80 kcal/mol
 sn= 9  qrot/sn=   33675.5855 T*S(rot)=     7.07 kcal/mol T*S(tot)=    26.73 kcal/mol
 sn=10  qrot/sn=   30308.0270 T*S(rot)=     7.00 kcal/mol T*S(tot)=    26.66 kcal/mol
 sn=11  qrot/sn=   27552.7518 T*S(rot)=     6.95 kcal/mol T*S(tot)=    26.61 kcal/mol
 sn=12  qrot/sn=   25256.6891 T*S(rot)=     6.89 kcal/mol T*S(tot)=    26.56 kcal/mol

-------------------
GIBBS FREE ENTHALPY
-------------------

The Gibbs free enthalpy is G = H - T*S

Total enthalpy                    ...   -292.30578296 Eh
Total entropy correction          ...     -0.04362809 Eh    -27.38 kcal/mol
-----------------------------------------------------------------------
Final Gibbs free enthalpy         ...   -292.34941105 Eh

For completeness - the Gibbs free enthalpy minus the electronic energy
G-E(el)                           ...      0.18821325 Eh    118.11 kcal/mol

                             ****ORCA TERMINATED NORMALLY****
TOTAL RUN TIME: 0 days 0 hours 58 minutes 28 seconds 597 msec
