                         Program Version 3.0.3 - RELEASE   -
|  1> ! NORI PBE0 def2-TZVP UseSym TightOPT Freq TightSCF Grid3 FinalGrid5 XYZFile
|  2> % pal
|  3>     nprocs 8
|  4> end
|  5> %method
|  6>     SymThresh 5.0e-2
|  7> end
|  8> % geom
|  9>     MaxIter 10
| 10> end
| 11> % maxcore 2000
| 12> % output
| 13>     printlevel mini
| 14>     print[ P_Basis ] 0
| 15>     print[ P_SCFInfo ] 1
| 16>     print[ P_SCFIterInfo ] 1
| 17>     print[ P_OrbEn ] 0
| 18>     print[ P_Cartesian ] 0
| 19> end
| 20> % elprop
| 21>     Dipole false
| 22> end
| 23> *xyz 1 1
| 24>  C        3.4718359617     1.0904985627    -0.5351331691
| 25>  C        2.9842548364     0.0941138726     0.5142048567
| 26>  C        1.5471379763     0.4199456370     0.9056102216
| 27>  C        3.1397711877    -1.3842768174     0.0963283564
| 28>  C        2.8277954434    -2.3467173601     1.2294183848
| 29>  C        2.3968657030    -1.7626488981    -1.1720173008
| 30>  N        4.6281077427    -1.5820387169    -0.2075998297
| 31>  H        4.5339995975     1.0001360138    -0.7883818342
| 32>  H        3.3534121699     2.1043177332    -0.1501569227
| 33>  H        2.8914214793     1.0318597183    -1.4581798650
| 34>  H        3.6020518599     0.2193951619     1.4149057090
| 35>  H        0.8720606808     0.3514663513     0.0496907998
| 36>  H        1.4975580781     1.4455241446     1.2731143531
| 37>  H        1.1679729446    -0.2245342620     1.6991636467
| 38>  H        3.0829806641    -3.3757223307     0.9608784599
| 39>  H        1.7605682872    -2.3316814184     1.4437764973
| 40>  H        3.3550035512    -2.0807528971     2.1496723923
| 41>  H        2.6761133507    -1.1396192988    -2.0238284811
| 42>  H        1.3251308390    -1.6466057911    -1.0132138512
| 43>  H        2.5689858513    -2.8096549067    -1.4354446087
| 44>  H        4.9235918339    -0.9704004268    -0.9705213994
| 45>  H        4.8190952724    -2.5487243855    -0.4755758927
| 46>  H        5.1968946890    -1.3605896857     0.6121694772
| 47> *
| 48>
| 49>                          ****END OF INPUT****
 Total Charge           Charge          ....    1
 Multiplicity           Mult            ....    1
 Number of Electrons    NEL             ....   58
FINAL SINGLE POINT ENERGY      -292.547724655569
FINAL SINGLE POINT ENERGY      -292.547727884403
FINAL SINGLE POINT ENERGY      -292.547729943968
FINAL SINGLE POINT ENERGY      -292.547732040444
FINAL SINGLE POINT ENERGY      -292.547734933354
FINAL SINGLE POINT ENERGY      -292.547737900076
FINAL SINGLE POINT ENERGY      -292.547740985105
FINAL SINGLE POINT ENERGY      -292.547743118309
FINAL SINGLE POINT ENERGY      -292.547744293680

CARTESIAN COORDINATES (ANGSTROEM)
---------------------------------
  C      2.012597   -0.035360   -0.342348
  C      0.621588    0.575823   -0.490348
  C      0.235975    0.629539   -1.964541
  C     -0.462650   -0.121437    0.359669
  C     -1.807943    0.579417    0.279241
  C     -0.597881   -1.613151    0.112334
  N     -0.012217    0.026730    1.816686
  H      2.394846   -0.058728    0.684672
  H      2.730387    0.562841   -0.905007
  H      2.056103   -1.049344   -0.744560
  H      0.664501    1.614802   -0.131061
  H      0.167491   -0.369823   -2.399905
  H      1.005363    1.169120   -2.518236
  H     -0.707251    1.148232   -2.135054
  H     -2.510747    0.180104    1.015901
  H     -2.251910    0.415554   -0.701165
  H     -1.716266    1.659004    0.427110
  H      0.334716   -2.153549    0.285795
  H     -0.892147   -1.784463   -0.922639
  H     -1.376618   -2.050105    0.743113
  H      0.900548   -0.409901    1.955839
  H     -0.680525   -0.413674    2.450759
  H      0.067195    1.013056    2.071934

FINAL SINGLE POINT ENERGY      -292.547744678736
                    ***********************HURRAY********************
 Multiplicity           Mult            ....    1
 Number of Electrons    NEL             ....   58
 Basis Dimension        Dim             ....  313
FINAL SINGLE POINT ENERGY      -292.547744879173

VIBRATIONAL FREQUENCIES
-----------------------

   0:         0.00 cm**-1
   1:         0.00 cm**-1
   2:         0.00 cm**-1
   3:         0.00 cm**-1
   4:         0.00 cm**-1
   5:         0.00 cm**-1
   6:        39.66 cm**-1
   7:       184.41 cm**-1
   8:       213.77 cm**-1
   9:       231.01 cm**-1
  10:       242.38 cm**-1
  11:       255.44 cm**-1
  12:       282.37 cm**-1
  13:       290.22 cm**-1
  14:       352.67 cm**-1
  15:       365.19 cm**-1
  16:       377.52 cm**-1
  17:       433.65 cm**-1
  18:       459.63 cm**-1
  19:       518.04 cm**-1
  20:       690.30 cm**-1
  21:       804.45 cm**-1
  22:       893.81 cm**-1
  23:       928.43 cm**-1
  24:       937.14 cm**-1
  25:       945.99 cm**-1
  26:       952.99 cm**-1
  27:       974.23 cm**-1
  28:      1003.26 cm**-1
  29:      1027.85 cm**-1
  30:      1107.79 cm**-1
  31:      1135.73 cm**-1
  32:      1177.80 cm**-1
  33:      1201.01 cm**-1
  34:      1274.58 cm**-1
  35:      1310.92 cm**-1
  36:      1346.78 cm**-1
  37:      1379.58 cm**-1
  38:      1407.32 cm**-1
  39:      1413.77 cm**-1
  40:      1421.91 cm**-1
  41:      1430.76 cm**-1
  42:      1465.94 cm**-1
  43:      1467.30 cm**-1
  44:      1473.93 cm**-1
  45:      1478.69 cm**-1
  46:      1494.44 cm**-1
  47:      1497.36 cm**-1
  48:      1501.11 cm**-1
  49:      1507.66 cm**-1
  50:      1512.13 cm**-1
  51:      1643.65 cm**-1
  52:      1653.33 cm**-1
  53:      3002.70 cm**-1
  54:      3037.95 cm**-1
  55:      3052.45 cm**-1
  56:      3061.74 cm**-1
  57:      3068.56 cm**-1
  58:      3113.60 cm**-1
  59:      3123.33 cm**-1
  60:      3133.70 cm**-1
  61:      3141.24 cm**-1
  62:      3147.73 cm**-1
  63:      3153.99 cm**-1
  64:      3162.84 cm**-1
  65:      3169.04 cm**-1
  66:      3420.43 cm**-1
  67:      3509.97 cm**-1
  68:      3517.16 cm**-1

IR SPECTRUM
-----------

 Mode    freq (cm**-1)   T**2         TX         TY         TZ
-------------------------------------------------------------------
   6:        39.66    1.411733  ( -0.595775   1.000025   0.238190)
   7:       184.41    0.184052  ( -0.284564   0.096850   0.306098)
   8:       213.77    0.084871  (  0.035980   0.115425   0.265054)
   9:       231.01    0.758267  (  0.063251   0.807056  -0.320822)
  10:       242.38    1.918114  ( -0.746977  -0.791539   0.856508)
  11:       255.44    0.239806  ( -0.245822   0.214969   0.364920)
  12:       282.37    7.047662  ( -1.894291  -0.292983   1.836705)
  13:       290.22    0.631510  (  0.390940   0.645328  -0.249455)
  14:       352.67    2.375352  ( -0.173778  -1.436289  -0.531251)
  15:       365.19    6.237339  ( -1.752185  -0.759601   1.609408)
  16:       377.52    5.481958  ( -1.879364   1.393545  -0.089341)
  17:       433.65    1.106325  ( -0.796661  -0.628532  -0.276775)
  18:       459.63    3.096484  ( -0.342720   0.399586   1.679095)
  19:       518.04    2.601698  (  1.124272   0.742395   0.886882)
  20:       690.30    0.286456  (  0.214465   0.489286  -0.032562)
  21:       804.45    3.304778  ( -1.607656  -0.304520  -0.792140)
  22:       893.81    8.727877  ( -1.310773  -0.124975   2.644642)
  23:       928.43    0.571360  ( -0.685208  -0.001356  -0.319136)
  24:       937.14    4.774906  (  1.888175  -1.041947  -0.352202)
  25:       945.99    1.592045  ( -0.096584  -1.257893  -0.020520)
  26:       952.99    2.107995  ( -0.844466   1.114215   0.391662)
  27:       974.23    1.894429  (  1.270109  -0.417674   0.326806)
  28:      1003.26   10.072287  ( -2.777761  -1.534959   0.015102)
  29:      1027.85    0.771475  ( -0.171337  -0.837394  -0.202212)
  30:      1107.79    7.392356  (  0.910342   2.544204  -0.301095)
  31:      1135.73    7.685576  ( -0.595267   1.194842  -2.429730)
  32:      1177.80   26.407430  ( -1.432218  -0.063913   4.934784)
  33:      1201.01    6.893441  ( -1.640076  -0.452926  -1.999612)
  34:      1274.58   17.137466  ( -3.883931   0.985826   1.039565)
  35:      1310.92    7.948195  (  1.465111   1.793768  -1.607495)
  36:      1346.78    0.652447  (  0.804170   0.074760   0.012947)
  37:      1379.58    0.326965  (  0.288775   0.271098   0.412408)
  38:      1407.32    1.699180  (  0.188976  -1.201806   0.468114)
  39:      1413.77   21.628273  ( -1.796454   4.289602  -0.018466)
  40:      1421.91   34.574142  ( -5.361758  -1.559611  -1.842094)
  41:      1430.76   40.448077  (  0.637605   1.710856   6.092168)
  42:      1465.94    5.192469  (  0.324406  -0.597038  -2.175035)
  43:      1467.30   25.233041  (  0.132492  -0.984927   4.923962)
  44:      1473.93   62.219280  (  0.127292  -0.497983   7.871156)
  45:      1478.69   15.546175  (  1.238876  -1.831775   3.264347)
  46:      1494.44   48.825261  ( -0.869808   0.337163  -6.924956)
  47:      1497.36    2.737877  (  0.043192  -1.085888  -1.247741)
  48:      1501.11   20.250942  (  3.802611   1.839579   1.551465)
  49:      1507.66    0.390272  (  0.483546   0.351647  -0.181106)
  50:      1512.13   30.712171  ( -0.812427  -4.075638  -3.666239)
  51:      1643.65   38.854397  ( -2.221249   5.800334  -0.525909)
  52:      1653.33   49.865158  ( -5.762269  -2.478236   3.243419)
  53:      3002.70   16.766738  (  0.599512  -3.570513  -1.912788)
  54:      3037.95   28.057190  (  1.839747  -1.087113   4.846721)
  55:      3052.45    4.915973  ( -0.937752   1.145799   1.650376)
  56:      3061.74    7.155518  (  0.025920   0.955046  -2.498546)
  57:      3068.56    3.870744  (  0.894389   0.887714   1.510886)
  58:      3113.60   15.779101  ( -0.295875  -1.154035  -3.789428)
  59:      3123.33    7.321670  ( -1.226482  -2.163133   1.066896)
  60:      3133.70    8.843768  ( -2.670882  -0.472648   1.219327)
  61:      3141.24    4.454994  ( -0.272498  -2.065644   0.337420)
  62:      3147.73    8.327413  (  0.358301   2.847703   0.299371)
  63:      3153.99   11.241937  ( -2.916929   1.569957   0.518358)
  64:      3162.84    0.530747  ( -0.119639   0.536183  -0.478478)
  65:      3169.04    0.734943  ( -0.375633   0.073551  -0.767094)
  66:      3420.43   24.852284  ( -1.999915  -0.847710  -4.487094)
  67:      3509.97   66.479172  ( -4.878143   6.269189   1.838522)
  68:      3517.16   70.722850  ( -6.390109  -4.330033   3.337690)

--------------------------
THERMOCHEMISTRY AT 298.15K
--------------------------

Temperature         ... 298.15 K
Pressure            ... 1.00 atm
Total Mass          ... 102.20 AMU

Throughout the following assumptions are being made:
  (1) The electronic state is orbitally nondegenerate
  (2) There are no thermally accessible electronically excited states
  (3) Hindered rotations indicated by low frequency modes) are not
      treated as such but are treated as vibrations and this may
      case some error
  (4) All equations used are the standard statistical mechanics
      equations for an ideal gas
  (5) All vibrations are strinctly harmonic

------------
INNER ENERGY
------------

The inner energy is: U= E(el) + E(ZPE) + E(vib) + E(rot) + E(trans)
    E(el)   - is the total energy from the electronic structure calculation
              = E(kin-el) + E(nuc-el) + E(el-el) + E(nuc-nuc)
    E(ZPE)  - the the zero temperature vibrational energy from the frequency calculation
    E(vib)  - the the finite temperature correction to E(ZPE) due to population
              of excietd vibrational states
    E(rot)  - is the rotational thermal energy
    E(trans)- is the translational thermal energy

Summary of contributions to the inner energy U:
Electronic energy                ...   -292.54774488 Eh
Zero point energy                ...      0.21989857 Eh     137.99 kcal/mol
Thermal vibrational correction   ...      0.00687175 Eh       4.31 kcal/mol
Thermal rotational correction    ...      0.00141627 Eh       0.89 kcal/mol
Thermal translational correction ...      0.00141627 Eh       0.89 kcal/mol
-----------------------------------------------------------------------
Total thermal energy                   -292.31814202 Eh

Summary of corrections to the electronic energy:
(perhaps to be used in another calculation)
Total thermal correction                  0.00970430 Eh       6.09 kcal/mol
Non-thermal (ZPE) correction              0.21989857 Eh     137.99 kcal/mol
-----------------------------------------------------------------------
Total correction                          0.22960286 Eh     144.08 kcal/mol

--------
ENTHALPY
--------

The enthalpy is H = U + kB*T
                kB is Boltzmann's constant
Total free energy                 ...   -292.31814202 Eh
Thermal Enthalpy correction       ...      0.00094421 Eh       0.59 kcal/mol
-----------------------------------------------------------------------
Total Enthalpy                    ...   -292.31719781 Eh

-------
ENTROPY
-------

The entropy contributions are T*S = T*(S(el)+S(vib)+S(rot)+S(trans)
     S(el)   - electronic entropy
     S(vib)  - vibrational entropy
     S(rot)  - rotational entropy
     S(trans)- translational entropy
The entropies will be listed as mutliplied by the temperature to get
units of energy

Electronic entropy                ...      0.00000000 Eh      0.00 kcal/mol
Vibrational entropy               ...      0.01204592 Eh      7.56 kcal/mol
Rotational entropy                ...      0.01212953 Eh      7.61 kcal/mol
Translational entropy             ...      0.01890208 Eh     11.86 kcal/mol
-----------------------------------------------------------------------
Final entropy term                ...      0.04307752 Eh     27.03 kcal/mol

CAUTION: The rotational entropy is not quite correctly treated here
         because it includes a symmetry number that is not yet correctly
         implemented in ORCA!
For a nonlinear molecule the correct rotational entropy is:
    S(rot) = R*(ln(qrot/sn)+1.5)
    R    = 8.31441 J/mol/K = 1.987191683e-3 kcal/mol/K
    qrot = 254034.5297280
    sn is the rotational symmetry number. We have assumed 3 here
       if it is different for your molecule then you should correct
       the printed rotational entropy by manually evaluating the equation
       as given above

For convenience we print out the resulting values for sn=1 - 12:
 sn= 1  qrot/sn=  254034.5297 T*S(rot)=     8.26 kcal/mol T*S(tot)=    27.68 kcal/mol
 sn= 2  qrot/sn=  127017.2649 T*S(rot)=     7.85 kcal/mol T*S(tot)=    27.27 kcal/mol
 sn= 3  qrot/sn=   84678.1766 T*S(rot)=     7.61 kcal/mol T*S(tot)=    27.03 kcal/mol
 sn= 4  qrot/sn=   63508.6324 T*S(rot)=     7.44 kcal/mol T*S(tot)=    26.86 kcal/mol
 sn= 5  qrot/sn=   50806.9059 T*S(rot)=     7.31 kcal/mol T*S(tot)=    26.73 kcal/mol
 sn= 6  qrot/sn=   42339.0883 T*S(rot)=     7.20 kcal/mol T*S(tot)=    26.62 kcal/mol
 sn= 7  qrot/sn=   36290.6471 T*S(rot)=     7.11 kcal/mol T*S(tot)=    26.53 kcal/mol
 sn= 8  qrot/sn=   31754.3162 T*S(rot)=     7.03 kcal/mol T*S(tot)=    26.45 kcal/mol
 sn= 9  qrot/sn=   28226.0589 T*S(rot)=     6.96 kcal/mol T*S(tot)=    26.38 kcal/mol
 sn=10  qrot/sn=   25403.4530 T*S(rot)=     6.90 kcal/mol T*S(tot)=    26.32 kcal/mol
 sn=11  qrot/sn=   23094.0482 T*S(rot)=     6.84 kcal/mol T*S(tot)=    26.26 kcal/mol
 sn=12  qrot/sn=   21169.5441 T*S(rot)=     6.79 kcal/mol T*S(tot)=    26.21 kcal/mol

-------------------
GIBBS FREE ENTHALPY
-------------------

The Gibbs free enthalpy is G = H - T*S

Total enthalpy                    ...   -292.31719781 Eh
Total entropy correction          ...     -0.04307752 Eh    -27.03 kcal/mol
-----------------------------------------------------------------------
Final Gibbs free enthalpy         ...   -292.36027533 Eh

For completeness - the Gibbs free enthalpy minus the electronic energy
G-E(el)                           ...      0.18746955 Eh    117.64 kcal/mol

                             ****ORCA TERMINATED NORMALLY****
TOTAL RUN TIME: 0 days 1 hours 15 minutes 33 seconds 143 msec
