                         Program Version 3.0.3 - RELEASE   -
|  1> ! NORI PBE0 def2-TZVP UseSym TightOPT Freq TightSCF Grid3 FinalGrid5 XYZFile
|  2> % pal
|  3>     nprocs 8
|  4> end
|  5> %method
|  6>     SymThresh 5.0e-2
|  7> end
|  8> % geom
|  9>     MaxIter 10
| 10> end
| 11> % maxcore 2000
| 12> % output
| 13>     printlevel mini
| 14>     print[ P_Basis ] 0
| 15>     print[ P_SCFInfo ] 1
| 16>     print[ P_SCFIterInfo ] 1
| 17>     print[ P_OrbEn ] 0
| 18>     print[ P_Cartesian ] 0
| 19> end
| 20> % elprop
| 21>     Dipole false
| 22> end
| 23> *xyz 1 1
| 24>  C        0.8326222153     0.1218950793     0.2177866872
| 25>  C        2.3429743448     0.0161804754    -0.0080534331
| 26>  C        3.0581232573     1.3401851344     0.2707445675
| 27>  C        2.9102616657    -1.0525794701     0.7996704489
| 28>  C        3.3902344471    -1.9265457262     1.4760080143
| 29>  C        3.9842801883    -2.9627847841     2.2758767308
| 30>  N        2.8947825156    -3.7311026634     3.0060849126
| 31>  H        0.4228830142     0.8930244758    -0.4357382912
| 32>  H        0.6139545858     0.4021010641     1.2502462078
| 33>  H        0.3241267341    -0.8172699682    -0.0058297773
| 34>  H        2.5162702380    -0.2598572676    -1.0554830087
| 35>  H        2.9017507942     1.6543597275     1.3046397203
| 36>  H        2.6569622026     2.1136830630    -0.3855999339
| 37>  H        4.1309977234     1.2615343356     0.0910112599
| 38>  H        4.6534177162    -2.5729882725     3.0467994313
| 39>  H        4.5308233917    -3.6982173772     1.6803894928
| 40>  H        2.3551599299    -3.0942811003     3.5968507102
| 41>  H        3.2748478824    -4.4787268622     3.5911893387
| 42>  H        2.2455271532    -4.1412198631     2.3308269218
| 43> *
| 44>
| 45>                          ****END OF INPUT****
 Total Charge           Charge          ....    1
 Multiplicity           Mult            ....    1
 Number of Electrons    NEL             ....   54
FINAL SINGLE POINT ENERGY      -290.061069142558

CARTESIAN COORDINATES (ANGSTROEM)
---------------------------------
  C      1.836103   -0.001263   -1.741498
  C      0.328433    0.263161   -1.716003
  C     -0.441291   -0.724549   -2.595993
  C     -0.175695    0.234528   -0.351579
  C     -0.603574    0.198489    0.774104
  C     -1.136054    0.157847    2.108842
  N      0.000394    0.001624    3.106451
  H      2.198891    0.075954   -2.767351
  H      2.059479   -1.006626   -1.378345
  H      2.382840    0.720900   -1.133246
  H      0.149986    1.277939   -2.092493
  H     -0.282142   -1.750251   -2.257627
  H     -0.086314   -0.645373   -3.624601
  H     -1.512206   -0.518801   -2.586879
  H     -1.806377   -0.689379    2.272823
  H     -1.661448    1.075398    2.384472
  H      0.522648   -0.854783    2.908213
  H     -0.335074   -0.034388    4.071830
  H      0.653788    0.782857    3.015097

FINAL SINGLE POINT ENERGY      -290.061069811609
                    ***********************HURRAY********************
 Multiplicity           Mult            ....    1
 Number of Electrons    NEL             ....   54
 Basis Dimension        Dim             ....  289
FINAL SINGLE POINT ENERGY      -290.061070537586

VIBRATIONAL FREQUENCIES
-----------------------

   0:         0.00 cm**-1
   1:         0.00 cm**-1
   2:         0.00 cm**-1
   3:         0.00 cm**-1
   4:         0.00 cm**-1
   5:         0.00 cm**-1
   6:        -7.07 cm**-1
   7:        83.76 cm**-1
   8:       125.53 cm**-1
   9:       191.45 cm**-1
  10:       217.62 cm**-1
  11:       223.36 cm**-1
  12:       263.24 cm**-1
  13:       304.10 cm**-1
  14:       350.24 cm**-1
  15:       450.25 cm**-1
  16:       540.07 cm**-1
  17:       593.01 cm**-1
  18:       693.49 cm**-1
  19:       856.26 cm**-1
  20:       858.73 cm**-1
  21:       902.95 cm**-1
  22:       936.45 cm**-1
  23:       976.38 cm**-1
  24:      1051.20 cm**-1
  25:      1098.81 cm**-1
  26:      1109.68 cm**-1
  27:      1129.01 cm**-1
  28:      1160.18 cm**-1
  29:      1221.77 cm**-1
  30:      1308.97 cm**-1
  31:      1323.80 cm**-1
  32:      1350.12 cm**-1
  33:      1394.73 cm**-1
  34:      1403.02 cm**-1
  35:      1416.62 cm**-1
  36:      1478.18 cm**-1
  37:      1480.06 cm**-1
  38:      1481.97 cm**-1
  39:      1493.69 cm**-1
  40:      1497.66 cm**-1
  41:      1502.85 cm**-1
  42:      1643.73 cm**-1
  43:      1661.49 cm**-1
  44:      2354.80 cm**-1
  45:      3043.98 cm**-1
  46:      3060.46 cm**-1
  47:      3063.98 cm**-1
  48:      3079.01 cm**-1
  49:      3127.54 cm**-1
  50:      3140.27 cm**-1
  51:      3145.26 cm**-1
  52:      3148.12 cm**-1
  53:      3151.47 cm**-1
  54:      3414.48 cm**-1
  55:      3503.57 cm**-1
  56:      3507.90 cm**-1

IR SPECTRUM
-----------

 Mode    freq (cm**-1)   T**2         TX         TY         TZ
-------------------------------------------------------------------
   7:        83.76   14.434795  (  3.419377  -0.032398  -1.655780)
   8:       125.53    7.776418  (  0.125736  -2.551469  -1.118309)
   9:       191.45    4.837715  ( -0.946289  -0.862194   1.788539)
  10:       217.62    0.213324  ( -0.359159   0.099166   0.272937)
  11:       223.36    0.027657  ( -0.102741  -0.043079   0.123473)
  12:       263.24    2.099996  (  0.189417   1.428890   0.149636)
  13:       304.10    5.939544  (  0.454812  -2.179291   0.991655)
  14:       350.24    3.575803  ( -0.607156  -1.298862  -1.232932)
  15:       450.25   20.127848  ( -2.382734   0.232307  -3.794267)
  16:       540.07    3.255624  ( -0.798591   0.168020  -1.609238)
  17:       593.01    4.079459  (  0.147650  -0.315629   1.989482)
  18:       693.49    0.414569  (  0.591156   0.224018   0.122145)
  19:       856.26    8.272186  ( -0.266248  -2.817314  -0.513846)
  20:       858.73   26.990124  ( -0.650004   0.792472  -5.093094)
  21:       902.95   29.090045  ( -0.368714   0.460300   5.361177)
  22:       936.45    2.295597  (  1.373606   0.387055   0.508912)
  23:       976.38    0.262960  ( -0.492533  -0.134759  -0.047025)
  24:      1051.20   16.013593  (  3.345239  -0.269626  -2.179511)
  25:      1098.81    5.072028  (  1.337176   1.806423  -0.144297)
  26:      1109.68    5.820365  ( -1.618662   1.686403   0.596947)
  27:      1129.01    1.026363  (  0.874532   0.436296   0.266837)
  28:      1160.18    4.096254  (  0.835057   0.958313  -1.574983)
  29:      1221.77    2.685594  (  0.701672  -0.115847  -1.476425)
  30:      1308.97    0.213853  ( -0.088843   0.447219   0.077167)
  31:      1323.80    7.028075  (  0.062247   2.629031   0.335258)
  32:      1350.12    9.563175  (  0.903090  -0.147201  -2.953970)
  33:      1394.73    5.537317  (  2.147238   0.557017   0.785122)
  34:      1403.02  100.288546  (  2.705876  -0.098526  -9.641425)
  35:      1416.62    4.423970  ( -0.264014   1.791320  -1.070252)
  36:      1478.18    0.209904  (  0.439433   0.125772  -0.031364)
  37:      1480.06    6.655200  (  2.424175   0.617621   0.630174)
  38:      1481.97    6.122449  (  1.593923  -0.097879  -1.890047)
  39:      1493.69   15.137590  (  1.185725  -3.634410   0.722989)
  40:      1497.66  148.542863  (  8.240950  -0.775012   8.945891)
  41:      1502.85   15.322766  (  0.186695  -1.866491   3.435713)
  42:      1643.73   52.954018  (  0.568751   7.240467   0.454063)
  43:      1661.49   37.705098  ( -3.307562   0.032340   5.173402)
  44:      2354.80  205.192767  ( -3.755235   0.281628  13.820697)
  45:      3043.98    0.284975  (  0.082588  -0.505654  -0.149895)
  46:      3060.46   12.244817  ( -3.463028   0.223028  -0.450011)
  47:      3063.98    8.962176  ( -0.318527  -2.213163  -1.990634)
  48:      3079.01    6.494861  ( -0.611712  -0.065734   2.473125)
  49:      3127.54    0.831372  (  0.095070   0.905304   0.052511)
  50:      3140.27    7.757205  ( -1.035138  -2.563336  -0.339121)
  51:      3145.26   12.654788  (  0.113019  -3.410866   1.003995)
  52:      3148.12   10.711351  ( -1.373155   0.148229  -2.967124)
  53:      3151.47    9.091002  (  2.603914  -0.681082  -1.358956)
  54:      3414.48   40.692249  ( -3.751995   0.449635  -5.139320)
  55:      3503.57  100.270039  (  1.135537   9.946549   0.216221)
  56:      3507.90   85.832304  (  6.458782  -0.650580  -6.610082)

--------------------------
THERMOCHEMISTRY AT 298.15K
--------------------------

Temperature         ... 298.15 K
Pressure            ... 1.00 atm
Total Mass          ... 98.17 AMU

Throughout the following assumptions are being made:
  (1) The electronic state is orbitally nondegenerate
  (2) There are no thermally accessible electronically excited states
  (3) Hindered rotations indicated by low frequency modes) are not
      treated as such but are treated as vibrations and this may
      case some error
  (4) All equations used are the standard statistical mechanics
      equations for an ideal gas
  (5) All vibrations are strinctly harmonic

------------
INNER ENERGY
------------

The inner energy is: U= E(el) + E(ZPE) + E(vib) + E(rot) + E(trans)
    E(el)   - is the total energy from the electronic structure calculation
              = E(kin-el) + E(nuc-el) + E(el-el) + E(nuc-nuc)
    E(ZPE)  - the the zero temperature vibrational energy from the frequency calculation
    E(vib)  - the the finite temperature correction to E(ZPE) due to population
              of excietd vibrational states
    E(rot)  - is the rotational thermal energy
    E(trans)- is the translational thermal energy

Summary of contributions to the inner energy U:
Electronic energy                ...   -290.06107054 Eh
Zero point energy                ...      0.17431457 Eh     109.38 kcal/mol
Thermal vibrational correction   ...      0.00556150 Eh       3.49 kcal/mol
Thermal rotational correction    ...      0.00141627 Eh       0.89 kcal/mol
Thermal translational correction ...      0.00141627 Eh       0.89 kcal/mol
-----------------------------------------------------------------------
Total thermal energy                   -289.87836192 Eh

Summary of corrections to the electronic energy:
(perhaps to be used in another calculation)
Total thermal correction                  0.00839405 Eh       5.27 kcal/mol
Non-thermal (ZPE) correction              0.17431457 Eh     109.38 kcal/mol
-----------------------------------------------------------------------
Total correction                          0.18270862 Eh     114.65 kcal/mol

--------
ENTHALPY
--------

The enthalpy is H = U + kB*T
                kB is Boltzmann's constant
Total free energy                 ...   -289.87836192 Eh
Thermal Enthalpy correction       ...      0.00094421 Eh       0.59 kcal/mol
-----------------------------------------------------------------------
Total Enthalpy                    ...   -289.87741771 Eh

-------
ENTROPY
-------

The entropy contributions are T*S = T*(S(el)+S(vib)+S(rot)+S(trans)
     S(el)   - electronic entropy
     S(vib)  - vibrational entropy
     S(rot)  - rotational entropy
     S(trans)- translational entropy
The entropies will be listed as mutliplied by the temperature to get
units of energy

Electronic entropy                ...      0.00000000 Eh      0.00 kcal/mol
Vibrational entropy               ...      0.00974956 Eh      6.12 kcal/mol
Rotational entropy                ...      0.01245331 Eh      7.81 kcal/mol
Translational entropy             ...      0.01884507 Eh     11.83 kcal/mol
-----------------------------------------------------------------------
Final entropy term                ...      0.04104794 Eh     25.76 kcal/mol

CAUTION: The rotational entropy is not quite correctly treated here
         because it includes a symmetry number that is not yet correctly
         implemented in ORCA!
For a nonlinear molecule the correct rotational entropy is:
    S(rot) = R*(ln(qrot/sn)+1.5)
    R    = 8.31441 J/mol/K = 1.987191683e-3 kcal/mol/K
    qrot = 357950.7318351
    sn is the rotational symmetry number. We have assumed 3 here
       if it is different for your molecule then you should correct
       the printed rotational entropy by manually evaluating the equation
       as given above

For convenience we print out the resulting values for sn=1 - 12:
 sn= 1  qrot/sn=  357950.7318 T*S(rot)=     8.47 kcal/mol T*S(tot)=    26.41 kcal/mol
 sn= 2  qrot/sn=  178975.3659 T*S(rot)=     8.05 kcal/mol T*S(tot)=    26.00 kcal/mol
 sn= 3  qrot/sn=  119316.9106 T*S(rot)=     7.81 kcal/mol T*S(tot)=    25.76 kcal/mol
 sn= 4  qrot/sn=   89487.6830 T*S(rot)=     7.64 kcal/mol T*S(tot)=    25.59 kcal/mol
 sn= 5  qrot/sn=   71590.1464 T*S(rot)=     7.51 kcal/mol T*S(tot)=    25.46 kcal/mol
 sn= 6  qrot/sn=   59658.4553 T*S(rot)=     7.40 kcal/mol T*S(tot)=    25.35 kcal/mol
 sn= 7  qrot/sn=   51135.8188 T*S(rot)=     7.31 kcal/mol T*S(tot)=    25.26 kcal/mol
 sn= 8  qrot/sn=   44743.8415 T*S(rot)=     7.23 kcal/mol T*S(tot)=    25.18 kcal/mol
 sn= 9  qrot/sn=   39772.3035 T*S(rot)=     7.16 kcal/mol T*S(tot)=    25.11 kcal/mol
 sn=10  qrot/sn=   35795.0732 T*S(rot)=     7.10 kcal/mol T*S(tot)=    25.04 kcal/mol
 sn=11  qrot/sn=   32540.9756 T*S(rot)=     7.04 kcal/mol T*S(tot)=    24.99 kcal/mol
 sn=12  qrot/sn=   29829.2277 T*S(rot)=     6.99 kcal/mol T*S(tot)=    24.94 kcal/mol

-------------------
GIBBS FREE ENTHALPY
-------------------

The Gibbs free enthalpy is G = H - T*S

Total enthalpy                    ...   -289.87741771 Eh
Total entropy correction          ...     -0.04104794 Eh    -25.76 kcal/mol
-----------------------------------------------------------------------
Final Gibbs free enthalpy         ...   -289.91846565 Eh

For completeness - the Gibbs free enthalpy minus the electronic energy
G-E(el)                           ...      0.14260489 Eh     89.49 kcal/mol

                             ****ORCA TERMINATED NORMALLY****
TOTAL RUN TIME: 0 days 0 hours 37 minutes 45 seconds 257 msec
