                         Program Version 3.0.3 - RELEASE   -
|  1> ! NORI PBE0 def2-TZVP UseSym TightOPT Freq TightSCF Grid3 FinalGrid5 XYZFile
|  2> % pal
|  3>     nprocs 8
|  4> end
|  5> %method
|  6>     SymThresh 5.0e-2
|  7> end
|  8> % geom
|  9>     MaxIter 10
| 10> end
| 11> % maxcore 2000
| 12> % output
| 13>     printlevel mini
| 14>     print[ P_Basis ] 0
| 15>     print[ P_SCFInfo ] 1
| 16>     print[ P_SCFIterInfo ] 1
| 17>     print[ P_OrbEn ] 0
| 18>     print[ P_Cartesian ] 0
| 19> end
| 20> % elprop
| 21>     Dipole false
| 22> end
| 23> *xyz 1 1
| 24>  C        1.9036916628     0.4051241883     1.1125039075
| 25>  C        3.3703730484     0.5662901324     0.7341919080
| 26>  C        4.2742170581     0.2418874464     1.9171386152
| 27>  C        3.6752482513    -0.2953008435    -0.4942417482
| 28>  C        5.0983177319    -0.2528060062    -1.0190400464
| 29>  C        5.3228368556    -1.0767867601    -2.2655510149
| 30>  N        5.4563689811     1.1917479488    -1.3271917804
| 31>  H        1.2409364254     0.6535203189     0.2802669554
| 32>  H        1.6459031327     1.0527775824     1.9516894290
| 33>  H        1.6959440142    -0.6258424880     1.4114498254
| 34>  H        3.5059587157     1.6294109576     0.4724320997
| 35>  H        4.1698437165    -0.8078831483     2.2061310679
| 36>  H        4.0038227416     0.8489459710     2.7822856543
| 37>  H        5.3365762294     0.4240181492     1.7227175940
| 38>  H        3.4696566086    -1.3431498299    -0.2514210385
| 39>  H        2.9861379101    -0.0392354922    -1.3095654876
| 40>  H        5.8038083017    -0.5430219301    -0.2373307054
| 41>  H        4.6468232939    -0.7789457416    -3.0717495014
| 42>  H        5.1206893469    -2.1243382029    -2.0394115642
| 43>  H        6.3534247384    -1.0151127760    -2.6243140701
| 44>  H        4.8570167127     1.5562733246    -2.0711571813
| 45>  H        6.4261068290     1.2806042692    -1.6343178805
| 46>  H        5.3185176939     1.7791229300    -0.5018950375
| 47> *
| 48>
| 49>                          ****END OF INPUT****
 Total Charge           Charge          ....    1
 Multiplicity           Mult            ....    1
 Number of Electrons    NEL             ....   58
FINAL SINGLE POINT ENERGY      -292.545838744725
FINAL SINGLE POINT ENERGY      -292.545841146799
FINAL SINGLE POINT ENERGY      -292.545842179642
FINAL SINGLE POINT ENERGY      -292.545842435234

CARTESIAN COORDINATES (ANGSTROEM)
---------------------------------
  C      1.674139   -0.000259   -2.057649
  C      0.924959    0.473643   -0.818590
  C      0.266614    1.825420   -1.066129
  C     -0.078142   -0.602021   -0.392079
  C     -0.929035   -0.297043    0.826425
  C     -1.856692   -1.419881    1.229604
  N     -0.006781    0.005692    1.995943
  H      2.169065   -0.959222   -1.888629
  H      2.435750    0.723584   -2.351150
  H      0.986818   -0.120009   -2.899627
  H      1.683843    0.593780   -0.027093
  H     -0.503042    1.745011   -1.838988
  H      1.003634    2.552106   -1.411257
  H     -0.205990    2.253851   -0.175783
  H     -0.776893   -0.779367   -1.216179
  H      0.441993   -1.555461   -0.234467
  H     -1.490977    0.627986    0.680089
  H     -1.308065   -2.347081    1.417162
  H     -2.556001   -1.613150    0.415627
  H     -2.448256   -1.171304    2.114228
  H      0.555602   -0.816570    2.226570
  H     -0.532476    0.269822    2.830525
  H      0.635775    0.764956    1.759641

FINAL SINGLE POINT ENERGY      -292.545842541402
                    ***********************HURRAY********************
 Multiplicity           Mult            ....    1
 Number of Electrons    NEL             ....   58
 Basis Dimension        Dim             ....  313
FINAL SINGLE POINT ENERGY      -292.545842619634

VIBRATIONAL FREQUENCIES
-----------------------

   0:         0.00 cm**-1
   1:         0.00 cm**-1
   2:         0.00 cm**-1
   3:         0.00 cm**-1
   4:         0.00 cm**-1
   5:         0.00 cm**-1
   6:        49.89 cm**-1
   7:       118.61 cm**-1
   8:       168.49 cm**-1
   9:       206.38 cm**-1
  10:       228.45 cm**-1
  11:       240.43 cm**-1
  12:       252.87 cm**-1
  13:       300.95 cm**-1
  14:       334.80 cm**-1
  15:       388.30 cm**-1
  16:       421.48 cm**-1
  17:       454.45 cm**-1
  18:       476.31 cm**-1
  19:       783.48 cm**-1
  20:       823.05 cm**-1
  21:       872.30 cm**-1
  22:       918.42 cm**-1
  23:       931.38 cm**-1
  24:       942.12 cm**-1
  25:       969.73 cm**-1
  26:       975.07 cm**-1
  27:      1000.34 cm**-1
  28:      1036.53 cm**-1
  29:      1092.16 cm**-1
  30:      1171.27 cm**-1
  31:      1195.85 cm**-1
  32:      1204.38 cm**-1
  33:      1213.44 cm**-1
  34:      1289.12 cm**-1
  35:      1307.34 cm**-1
  36:      1352.36 cm**-1
  37:      1370.25 cm**-1
  38:      1400.57 cm**-1
  39:      1405.11 cm**-1
  40:      1407.57 cm**-1
  41:      1422.72 cm**-1
  42:      1426.95 cm**-1
  43:      1464.39 cm**-1
  44:      1474.32 cm**-1
  45:      1482.79 cm**-1
  46:      1485.49 cm**-1
  47:      1486.93 cm**-1
  48:      1490.02 cm**-1
  49:      1499.73 cm**-1
  50:      1502.15 cm**-1
  51:      1646.17 cm**-1
  52:      1656.67 cm**-1
  53:      2959.61 cm**-1
  54:      3035.15 cm**-1
  55:      3038.23 cm**-1
  56:      3053.15 cm**-1
  57:      3054.15 cm**-1
  58:      3089.32 cm**-1
  59:      3102.72 cm**-1
  60:      3107.53 cm**-1
  61:      3126.66 cm**-1
  62:      3132.40 cm**-1
  63:      3137.88 cm**-1
  64:      3142.99 cm**-1
  65:      3153.92 cm**-1
  66:      3417.48 cm**-1
  67:      3499.40 cm**-1
  68:      3515.88 cm**-1

IR SPECTRUM
-----------

 Mode    freq (cm**-1)   T**2         TX         TY         TZ
-------------------------------------------------------------------
   6:        49.89    7.083798  (  0.951135  -2.127130   1.286258)
   7:       118.61    1.323395  ( -0.440256   0.009201   1.062772)
   8:       168.49   10.105475  ( -1.229386  -0.530616   2.883146)
   9:       206.38    0.286217  (  0.423159  -0.049212   0.323621)
  10:       228.45    0.017283  ( -0.089326   0.078840  -0.055568)
  11:       240.43    0.949659  ( -0.004970   0.843825  -0.487437)
  12:       252.87    1.238453  (  0.383539  -0.186270  -1.027937)
  13:       300.95    7.127542  (  1.767757   0.964900  -1.752582)
  14:       334.80    6.546284  (  0.502310  -0.479003  -2.462626)
  15:       388.30    2.761845  (  1.163462   0.980423  -0.668559)
  16:       421.48    4.311933  (  0.555115   1.323041   1.501114)
  17:       454.45    1.587420  (  0.411528  -1.175448  -0.190753)
  18:       476.31    1.307870  (  0.594777   0.073991  -0.973980)
  19:       783.48    2.688749  (  0.593178   1.526236  -0.086560)
  20:       823.05    3.103774  ( -0.377746  -0.066867   1.719480)
  21:       872.30    2.652796  (  0.853290   0.074191  -1.385348)
  22:       918.42    2.151194  (  0.131776   0.641426  -1.312403)
  23:       931.38    2.342063  ( -0.931289   1.158691  -0.363592)
  24:       942.12    9.764727  ( -2.129551  -2.120451   0.856405)
  25:       969.73    5.541347  (  0.524113  -0.517868  -2.235725)
  26:       975.07    2.138353  ( -0.921953   0.064549   1.133221)
  27:      1000.34   11.958769  ( -2.537594  -1.257159   1.984675)
  28:      1036.53    2.267082  ( -1.318579   0.613695  -0.389628)
  29:      1092.16    5.789109  ( -1.054126  -0.859200  -1.984868)
  30:      1171.27    7.513916  (  1.527400   0.083972   2.274624)
  31:      1195.85    6.330017  (  2.232994   0.325825  -1.112472)
  32:      1204.38    1.702931  (  0.821193  -0.938482   0.384480)
  33:      1213.44   24.427725  ( -2.412005  -2.049804   3.795822)
  34:      1289.12    3.061010  ( -1.432666   0.818430   0.581937)
  35:      1307.34    1.336517  (  0.907090   0.363374   0.617791)
  36:      1352.36    0.949110  ( -0.438094  -0.365808   0.789536)
  37:      1370.25    4.966105  (  0.790015   1.888858  -0.879883)
  38:      1400.57    8.955063  ( -1.402530  -2.587821  -0.539585)
  39:      1405.11   11.838963  (  1.997221  -2.573232  -1.108398)
  40:      1407.57   12.961906  (  0.809573   0.132656  -3.505553)
  41:      1422.72   30.404358  (  3.190110   3.971817   2.110030)
  42:      1426.95    3.930117  (  1.066478  -1.200195   1.162873)
  43:      1464.39   14.976263  (  1.528241   1.327215   3.298370)
  44:      1474.32    0.391095  ( -0.357957   0.225266   0.460671)
  45:      1482.79    9.853554  ( -2.466134   1.403266  -1.342603)
  46:      1485.49    0.333982  ( -0.393302  -0.205636  -0.370148)
  47:      1486.93  135.205860  (  6.248215   1.255767   9.725673)
  48:      1490.02   14.341675  (  1.635210  -2.591135  -2.225709)
  49:      1499.73    9.249754  ( -1.557677  -2.047464   1.622124)
  50:      1502.15   35.728383  ( -3.039928  -1.514468  -4.918699)
  51:      1646.17   48.750942  ( -2.484299   6.202953   2.025481)
  52:      1656.67   33.894509  (  3.484593   2.207680  -4.108318)
  53:      2959.61   46.913324  (  3.205733   0.093921   6.052089)
  54:      3035.15   14.411478  (  1.070053  -3.641813  -0.060525)
  55:      3038.23   20.364333  ( -2.774961   1.316571   3.306141)
  56:      3053.15    8.228586  ( -0.864561   1.364024   2.370772)
  57:      3054.15    4.540777  ( -0.284313   1.155966  -1.767395)
  58:      3089.32    2.137431  (  1.383822  -0.294378   0.368522)
  59:      3102.72   22.806592  ( -0.303269  -0.136235   4.764038)
  60:      3107.53    6.140072  (  0.579158  -1.319859  -2.015594)
  61:      3126.66   14.979003  ( -2.710630   1.726575  -2.156486)
  62:      3132.40    9.218618  (  2.034527  -1.763709  -1.403085)
  63:      3137.88    4.390326  ( -2.078457  -0.248948   0.091467)
  64:      3142.99   14.373704  ( -2.138978  -3.081896   0.548083)
  65:      3153.92    1.492421  ( -0.309103  -0.807757   0.862789)
  66:      3417.48   24.473552  ( -3.587668  -1.319251  -3.140346)
  67:      3499.40   85.543287  (  0.781768   8.082728  -4.427374)
  68:      3515.88   92.236304  (  6.592124  -2.189401  -6.632249)

--------------------------
THERMOCHEMISTRY AT 298.15K
--------------------------

Temperature         ... 298.15 K
Pressure            ... 1.00 atm
Total Mass          ... 102.20 AMU

Throughout the following assumptions are being made:
  (1) The electronic state is orbitally nondegenerate
  (2) There are no thermally accessible electronically excited states
  (3) Hindered rotations indicated by low frequency modes) are not
      treated as such but are treated as vibrations and this may
      case some error
  (4) All equations used are the standard statistical mechanics
      equations for an ideal gas
  (5) All vibrations are strinctly harmonic

------------
INNER ENERGY
------------

The inner energy is: U= E(el) + E(ZPE) + E(vib) + E(rot) + E(trans)
    E(el)   - is the total energy from the electronic structure calculation
              = E(kin-el) + E(nuc-el) + E(el-el) + E(nuc-nuc)
    E(ZPE)  - the the zero temperature vibrational energy from the frequency calculation
    E(vib)  - the the finite temperature correction to E(ZPE) due to population
              of excietd vibrational states
    E(rot)  - is the rotational thermal energy
    E(trans)- is the translational thermal energy

Summary of contributions to the inner energy U:
Electronic energy                ...   -292.54584262 Eh
Zero point energy                ...      0.22077272 Eh     138.54 kcal/mol
Thermal vibrational correction   ...      0.00683380 Eh       4.29 kcal/mol
Thermal rotational correction    ...      0.00141627 Eh       0.89 kcal/mol
Thermal translational correction ...      0.00141627 Eh       0.89 kcal/mol
-----------------------------------------------------------------------
Total thermal energy                   -292.31540355 Eh

Summary of corrections to the electronic energy:
(perhaps to be used in another calculation)
Total thermal correction                  0.00966634 Eh       6.07 kcal/mol
Non-thermal (ZPE) correction              0.22077272 Eh     138.54 kcal/mol
-----------------------------------------------------------------------
Total correction                          0.23043907 Eh     144.60 kcal/mol

--------
ENTHALPY
--------

The enthalpy is H = U + kB*T
                kB is Boltzmann's constant
Total free energy                 ...   -292.31540355 Eh
Thermal Enthalpy correction       ...      0.00094421 Eh       0.59 kcal/mol
-----------------------------------------------------------------------
Total Enthalpy                    ...   -292.31445934 Eh

-------
ENTROPY
-------

The entropy contributions are T*S = T*(S(el)+S(vib)+S(rot)+S(trans)
     S(el)   - electronic entropy
     S(vib)  - vibrational entropy
     S(rot)  - rotational entropy
     S(trans)- translational entropy
The entropies will be listed as mutliplied by the temperature to get
units of energy

Electronic entropy                ...      0.00000000 Eh      0.00 kcal/mol
Vibrational entropy               ...      0.01224302 Eh      7.68 kcal/mol
Rotational entropy                ...      0.01234285 Eh      7.75 kcal/mol
Translational entropy             ...      0.01890208 Eh     11.86 kcal/mol
-----------------------------------------------------------------------
Final entropy term                ...      0.04348795 Eh     27.29 kcal/mol

CAUTION: The rotational entropy is not quite correctly treated here
         because it includes a symmetry number that is not yet correctly
         implemented in ORCA!
For a nonlinear molecule the correct rotational entropy is:
    S(rot) = R*(ln(qrot/sn)+1.5)
    R    = 8.31441 J/mol/K = 1.987191683e-3 kcal/mol/K
    qrot = 318431.9678309
    sn is the rotational symmetry number. We have assumed 3 here
       if it is different for your molecule then you should correct
       the printed rotational entropy by manually evaluating the equation
       as given above

For convenience we print out the resulting values for sn=1 - 12:
 sn= 1  qrot/sn=  318431.9678 T*S(rot)=     8.40 kcal/mol T*S(tot)=    27.94 kcal/mol
 sn= 2  qrot/sn=  159215.9839 T*S(rot)=     7.99 kcal/mol T*S(tot)=    27.53 kcal/mol
 sn= 3  qrot/sn=  106143.9893 T*S(rot)=     7.75 kcal/mol T*S(tot)=    27.29 kcal/mol
 sn= 4  qrot/sn=   79607.9920 T*S(rot)=     7.57 kcal/mol T*S(tot)=    27.12 kcal/mol
 sn= 5  qrot/sn=   63686.3936 T*S(rot)=     7.44 kcal/mol T*S(tot)=    26.99 kcal/mol
 sn= 6  qrot/sn=   53071.9946 T*S(rot)=     7.33 kcal/mol T*S(tot)=    26.88 kcal/mol
 sn= 7  qrot/sn=   45490.2811 T*S(rot)=     7.24 kcal/mol T*S(tot)=    26.79 kcal/mol
 sn= 8  qrot/sn=   39803.9960 T*S(rot)=     7.16 kcal/mol T*S(tot)=    26.71 kcal/mol
 sn= 9  qrot/sn=   35381.3298 T*S(rot)=     7.09 kcal/mol T*S(tot)=    26.64 kcal/mol
 sn=10  qrot/sn=   31843.1968 T*S(rot)=     7.03 kcal/mol T*S(tot)=    26.58 kcal/mol
 sn=11  qrot/sn=   28948.3607 T*S(rot)=     6.98 kcal/mol T*S(tot)=    26.52 kcal/mol
 sn=12  qrot/sn=   26535.9973 T*S(rot)=     6.92 kcal/mol T*S(tot)=    26.47 kcal/mol

-------------------
GIBBS FREE ENTHALPY
-------------------

The Gibbs free enthalpy is G = H - T*S

Total enthalpy                    ...   -292.31445934 Eh
Total entropy correction          ...     -0.04348795 Eh    -27.29 kcal/mol
-----------------------------------------------------------------------
Final Gibbs free enthalpy         ...   -292.35794729 Eh

For completeness - the Gibbs free enthalpy minus the electronic energy
G-E(el)                           ...      0.18789533 Eh    117.91 kcal/mol

                             ****ORCA TERMINATED NORMALLY****
TOTAL RUN TIME: 0 days 0 hours 58 minutes 13 seconds 800 msec
