                         Program Version 3.0.3 - RELEASE   -
|  1> ! NORI PBE0 def2-TZVP UseSym TightOPT Freq TightSCF Grid3 FinalGrid5 XYZFile
|  2> % pal
|  3>     nprocs 8
|  4> end
|  5> %method
|  6>     SymThresh 5.0e-2
|  7> end
|  8> % geom
|  9>     MaxIter 10
| 10> end
| 11> % maxcore 2000
| 12> % output
| 13>     printlevel mini
| 14>     print[ P_Basis ] 0
| 15>     print[ P_SCFInfo ] 1
| 16>     print[ P_SCFIterInfo ] 1
| 17>     print[ P_OrbEn ] 0
| 18>     print[ P_Cartesian ] 0
| 19> end
| 20> % elprop
| 21>     Dipole false
| 22> end
| 23> *xyz 1 1
| 24>  C        0.9378739779    -0.0164853141    -0.1249833319
| 25>  C        2.3874752795     0.0243241000    -0.1031103579
| 26>  C        3.5895749989     0.0312761699    -0.0473602533
| 27>  C        5.0422149111     0.0401010656     0.0228705502
| 28>  C        5.6668038021     1.1363932961    -0.8480405997
| 29>  C        5.2517531651     0.9664617284    -2.2902925223
| 30>  N        5.7262838169     2.1280800037    -3.1252350799
| 31>  H        0.5746570984    -0.7033390076    -0.8926649052
| 32>  H        0.5168989010     0.9717640249    -0.3226052132
| 33>  H        0.5539857538    -0.3562847596     0.8395808322
| 34>  H        5.3664545553     0.1970276541     1.0555254465
| 35>  H        5.4383793642    -0.9374454267    -0.2742815375
| 36>  H        5.3286260569     2.1108859022    -0.4786875196
| 37>  H        6.7568426807     1.0988459277    -0.7525463719
| 38>  H        5.6721263964     0.0669310296    -2.7425030009
| 39>  H        4.1644999930     0.9338659526    -2.3818293773
| 40>  H        6.7445567208     2.2147745394    -3.0937164118
| 41>  H        5.3345317926     3.0053672994    -2.7757983060
| 42>  H        5.4502007354     2.0297658143    -4.1043420405
| 43> *
| 44>
| 45>                          ****END OF INPUT****
 Total Charge           Charge          ....    1
 Multiplicity           Mult            ....    1
 Number of Electrons    NEL             ....   54
FINAL SINGLE POINT ENERGY      -290.066871957161
FINAL SINGLE POINT ENERGY      -290.066872904031

CARTESIAN COORDINATES (ANGSTROEM)
---------------------------------
  C      2.134795    0.002889   -2.656395
  C      0.903230    0.011132   -1.890324
  C     -0.141509    0.016133   -1.293257
  C     -1.404698    0.024545   -0.572467
  C     -1.241370    0.440274    0.894559
  C     -0.292012   -0.493928    1.606865
  N     -0.001235   -0.000369    3.001162
  H      2.604782   -0.982776   -2.635534
  H      2.848725    0.731261   -2.265573
  H      1.933692    0.258093   -3.699316
  H     -2.103128    0.718117   -1.048967
  H     -1.874628   -0.963914   -0.626002
  H     -0.848109    1.462480    0.926055
  H     -2.221193    0.440350    1.382806
  H     -0.698134   -1.501066    1.712690
  H      0.664676   -0.551312    1.084971
  H     -0.857830    0.069471    3.554643
  H      0.420248    0.930741    2.972685
  H      0.642457   -0.620356    3.496805

FINAL SINGLE POINT ENERGY      -290.066873549076
                    ***********************HURRAY********************
 Multiplicity           Mult            ....    1
 Number of Electrons    NEL             ....   54
 Basis Dimension        Dim             ....  289
FINAL SINGLE POINT ENERGY      -290.066873664156

VIBRATIONAL FREQUENCIES
-----------------------

   0:         0.00 cm**-1
   1:         0.00 cm**-1
   2:         0.00 cm**-1
   3:         0.00 cm**-1
   4:         0.00 cm**-1
   5:         0.00 cm**-1
   6:        17.40 cm**-1
   7:        62.45 cm**-1
   8:        86.22 cm**-1
   9:       145.84 cm**-1
  10:       209.54 cm**-1
  11:       233.31 cm**-1
  12:       252.67 cm**-1
  13:       308.22 cm**-1
  14:       408.24 cm**-1
  15:       413.38 cm**-1
  16:       558.40 cm**-1
  17:       713.99 cm**-1
  18:       790.19 cm**-1
  19:       841.70 cm**-1
  20:       914.42 cm**-1
  21:       948.65 cm**-1
  22:       970.02 cm**-1
  23:      1027.16 cm**-1
  24:      1040.90 cm**-1
  25:      1047.33 cm**-1
  26:      1122.66 cm**-1
  27:      1134.85 cm**-1
  28:      1185.07 cm**-1
  29:      1253.14 cm**-1
  30:      1297.38 cm**-1
  31:      1342.25 cm**-1
  32:      1353.34 cm**-1
  33:      1371.00 cm**-1
  34:      1407.45 cm**-1
  35:      1413.65 cm**-1
  36:      1464.54 cm**-1
  37:      1465.75 cm**-1
  38:      1470.03 cm**-1
  39:      1480.92 cm**-1
  40:      1501.82 cm**-1
  41:      1508.26 cm**-1
  42:      1658.36 cm**-1
  43:      1664.69 cm**-1
  44:      2369.83 cm**-1
  45:      3042.83 cm**-1
  46:      3049.71 cm**-1
  47:      3056.61 cm**-1
  48:      3092.35 cm**-1
  49:      3094.23 cm**-1
  50:      3098.35 cm**-1
  51:      3129.30 cm**-1
  52:      3130.16 cm**-1
  53:      3156.34 cm**-1
  54:      3421.90 cm**-1
  55:      3503.05 cm**-1
  56:      3508.68 cm**-1

IR SPECTRUM
-----------

 Mode    freq (cm**-1)   T**2         TX         TY         TZ
-------------------------------------------------------------------
   7:        62.45   12.585816  (  2.841772   0.578562  -2.043383)
   8:        86.22    1.478898  ( -0.264332   1.180714   0.122232)
   9:       145.84    3.570602  ( -0.295417  -0.799000  -1.686692)
  10:       209.54    7.412503  (  0.067631  -1.425753   2.318439)
  11:       233.31    3.753185  (  0.231720  -0.052951   1.922677)
  12:       252.67   11.792767  ( -0.790613   3.336193  -0.193682)
  13:       308.22   14.108851  ( -2.089273  -0.068515  -3.120752)
  14:       408.24    0.506752  (  0.416736   0.123520   0.563760)
  15:       413.38    5.383311  (  0.061911  -0.408941   2.283034)
  16:       558.40    1.554021  (  0.660999  -0.537844  -0.909849)
  17:       713.99    2.343453  ( -0.583152  -0.509771   1.320424)
  18:       790.19    6.926134  ( -2.200101  -1.224408   0.765841)
  19:       841.70    4.849236  (  0.104444   0.887612  -2.012579)
  20:       914.42    8.822949  ( -2.492456   0.363289  -1.574367)
  21:       948.65   13.121965  (  0.884587  -2.013621   2.878333)
  22:       970.02    3.086328  (  0.194218  -1.732855  -0.214060)
  23:      1027.16    8.902899  ( -1.337022   1.099966   2.430092)
  24:      1040.90    1.787366  (  0.190365  -0.571524   1.193519)
  25:      1047.33    1.133731  ( -0.029980   0.999167   0.366739)
  26:      1122.66    4.026521  ( -0.751159  -1.859316  -0.072292)
  27:      1134.85   14.999306  ( -1.832154   1.469952  -3.079247)
  28:      1185.07    0.265709  ( -0.470167  -0.131707   0.165241)
  29:      1253.14    2.341582  (  0.468978   1.337121  -0.577709)
  30:      1297.38    3.666222  (  0.883738   0.185693  -1.688416)
  31:      1342.25    5.868132  ( -1.259042  -1.039829   1.789330)
  32:      1353.34    2.403162  (  0.828093   1.242514  -0.416634)
  33:      1371.00   19.819639  (  3.152624   0.235859  -3.134481)
  34:      1407.45    0.387798  (  0.269343   0.165271   0.536598)
  35:      1413.65    4.603063  (  1.648211   0.427624   1.305220)
  36:      1464.54   11.900938  ( -1.310500   1.988255  -2.496071)
  37:      1465.75   11.635692  ( -1.051987  -2.872448  -1.509324)
  38:      1470.03   10.516003  (  1.842266   1.318791   2.320097)
  39:      1480.92    0.566530  ( -0.658271  -0.066288  -0.358908)
  40:      1501.82   25.385146  (  3.049646  -1.251340   3.810374)
  41:      1508.26  139.755726  (  1.199441   4.554578  10.843103)
  42:      1658.36   49.457069  (  5.845316   3.278399  -2.131068)
  43:      1664.69   37.197357  ( -2.861961   5.105283  -1.715406)
  44:      2369.83   28.466858  ( -3.758910  -0.013556   3.786458)
  45:      3042.83   15.924668  ( -1.864391   1.548468   3.170325)
  46:      3049.71    6.796588  (  1.722429   1.815286   0.731138)
  47:      3056.61    5.589525  (  2.217853   0.100179  -0.812783)
  48:      3092.35    8.445732  ( -2.630746  -0.208512   1.217140)
  49:      3094.23    2.880343  ( -0.531518   1.003705  -1.261114)
  50:      3098.35    6.558160  (  1.512310   1.786527  -1.038942)
  51:      3129.30    1.570956  (  0.562755   1.039512   0.416748)
  52:      3130.16    0.838144  (  0.588552  -0.690790   0.120663)
  53:      3156.34    1.225833  (  0.502892   0.576322   0.800491)
  54:      3421.90   44.742451  ( -1.192525  -1.539045  -6.399350)
  55:      3503.05   90.618517  (  6.957940   5.361488  -3.668791)
  56:      3508.68   96.630515  ( -6.394355   7.295459  -1.587142)

--------------------------
THERMOCHEMISTRY AT 298.15K
--------------------------

Temperature         ... 298.15 K
Pressure            ... 1.00 atm
Total Mass          ... 98.17 AMU

Throughout the following assumptions are being made:
  (1) The electronic state is orbitally nondegenerate
  (2) There are no thermally accessible electronically excited states
  (3) Hindered rotations indicated by low frequency modes) are not
      treated as such but are treated as vibrations and this may
      case some error
  (4) All equations used are the standard statistical mechanics
      equations for an ideal gas
  (5) All vibrations are strinctly harmonic

------------
INNER ENERGY
------------

The inner energy is: U= E(el) + E(ZPE) + E(vib) + E(rot) + E(trans)
    E(el)   - is the total energy from the electronic structure calculation
              = E(kin-el) + E(nuc-el) + E(el-el) + E(nuc-nuc)
    E(ZPE)  - the the zero temperature vibrational energy from the frequency calculation
    E(vib)  - the the finite temperature correction to E(ZPE) due to population
              of excietd vibrational states
    E(rot)  - is the rotational thermal energy
    E(trans)- is the translational thermal energy

Summary of contributions to the inner energy U:
Electronic energy                ...   -290.06687366 Eh
Zero point energy                ...      0.17478358 Eh     109.68 kcal/mol
Thermal vibrational correction   ...      0.00560607 Eh       3.52 kcal/mol
Thermal rotational correction    ...      0.00141627 Eh       0.89 kcal/mol
Thermal translational correction ...      0.00141627 Eh       0.89 kcal/mol
-----------------------------------------------------------------------
Total thermal energy                   -289.88365147 Eh

Summary of corrections to the electronic energy:
(perhaps to be used in another calculation)
Total thermal correction                  0.00843862 Eh       5.30 kcal/mol
Non-thermal (ZPE) correction              0.17478358 Eh     109.68 kcal/mol
-----------------------------------------------------------------------
Total correction                          0.18322219 Eh     114.97 kcal/mol

--------
ENTHALPY
--------

The enthalpy is H = U + kB*T
                kB is Boltzmann's constant
Total free energy                 ...   -289.88365147 Eh
Thermal Enthalpy correction       ...      0.00094421 Eh       0.59 kcal/mol
-----------------------------------------------------------------------
Total Enthalpy                    ...   -289.88270726 Eh

-------
ENTROPY
-------

The entropy contributions are T*S = T*(S(el)+S(vib)+S(rot)+S(trans)
     S(el)   - electronic entropy
     S(vib)  - vibrational entropy
     S(rot)  - rotational entropy
     S(trans)- translational entropy
The entropies will be listed as mutliplied by the temperature to get
units of energy

Electronic entropy                ...      0.00000000 Eh      0.00 kcal/mol
Vibrational entropy               ...      0.01039859 Eh      6.53 kcal/mol
Rotational entropy                ...      0.01253627 Eh      7.87 kcal/mol
Translational entropy             ...      0.01884507 Eh     11.83 kcal/mol
-----------------------------------------------------------------------
Final entropy term                ...      0.04177993 Eh     26.22 kcal/mol

CAUTION: The rotational entropy is not quite correctly treated here
         because it includes a symmetry number that is not yet correctly
         implemented in ORCA!
For a nonlinear molecule the correct rotational entropy is:
    S(rot) = R*(ln(qrot/sn)+1.5)
    R    = 8.31441 J/mol/K = 1.987191683e-3 kcal/mol/K
    qrot = 390824.5792688
    sn is the rotational symmetry number. We have assumed 3 here
       if it is different for your molecule then you should correct
       the printed rotational entropy by manually evaluating the equation
       as given above

For convenience we print out the resulting values for sn=1 - 12:
 sn= 1  qrot/sn=  390824.5793 T*S(rot)=     8.52 kcal/mol T*S(tot)=    26.87 kcal/mol
 sn= 2  qrot/sn=  195412.2896 T*S(rot)=     8.11 kcal/mol T*S(tot)=    26.46 kcal/mol
 sn= 3  qrot/sn=  130274.8598 T*S(rot)=     7.87 kcal/mol T*S(tot)=    26.22 kcal/mol
 sn= 4  qrot/sn=   97706.1448 T*S(rot)=     7.70 kcal/mol T*S(tot)=    26.05 kcal/mol
 sn= 5  qrot/sn=   78164.9159 T*S(rot)=     7.56 kcal/mol T*S(tot)=    25.91 kcal/mol
 sn= 6  qrot/sn=   65137.4299 T*S(rot)=     7.46 kcal/mol T*S(tot)=    25.81 kcal/mol
 sn= 7  qrot/sn=   55832.0828 T*S(rot)=     7.36 kcal/mol T*S(tot)=    25.72 kcal/mol
 sn= 8  qrot/sn=   48853.0724 T*S(rot)=     7.29 kcal/mol T*S(tot)=    25.64 kcal/mol
 sn= 9  qrot/sn=   43424.9533 T*S(rot)=     7.22 kcal/mol T*S(tot)=    25.57 kcal/mol
 sn=10  qrot/sn=   39082.4579 T*S(rot)=     7.15 kcal/mol T*S(tot)=    25.50 kcal/mol
 sn=11  qrot/sn=   35529.5072 T*S(rot)=     7.10 kcal/mol T*S(tot)=    25.45 kcal/mol
 sn=12  qrot/sn=   32568.7149 T*S(rot)=     7.05 kcal/mol T*S(tot)=    25.40 kcal/mol

-------------------
GIBBS FREE ENTHALPY
-------------------

The Gibbs free enthalpy is G = H - T*S

Total enthalpy                    ...   -289.88270726 Eh
Total entropy correction          ...     -0.04177993 Eh    -26.22 kcal/mol
-----------------------------------------------------------------------
Final Gibbs free enthalpy         ...   -289.92448719 Eh

For completeness - the Gibbs free enthalpy minus the electronic energy
G-E(el)                           ...      0.14238647 Eh     89.35 kcal/mol

                             ****ORCA TERMINATED NORMALLY****
TOTAL RUN TIME: 0 days 0 hours 34 minutes 28 seconds 846 msec
