                         Program Version 3.0.3 - RELEASE   -
|  1> ! NORI PBE0 def2-TZVP UseSym TightOPT Freq TightSCF Grid3 FinalGrid5 XYZFile
|  2> % pal
|  3>     nprocs 8
|  4> end
|  5> %method
|  6>     SymThresh 5.0e-2
|  7> end
|  8> % geom
|  9>     MaxIter 10
| 10> end
| 11> % maxcore 2000
| 12> % output
| 13>     printlevel mini
| 14>     print[ P_Basis ] 0
| 15>     print[ P_SCFInfo ] 1
| 16>     print[ P_SCFIterInfo ] 1
| 17>     print[ P_OrbEn ] 0
| 18>     print[ P_Cartesian ] 0
| 19> end
| 20> % elprop
| 21>     Dipole false
| 22> end
| 23> *xyz 1 1
| 24>  C        0.9462738566     0.0657776166    -0.1446047428
| 25>  C        2.3858991662     0.0380339385    -0.0416747626
| 26>  C        3.5898891045     0.0131630809     0.0422230358
| 27>  C        4.9926135573     0.0349081518     0.1017756606
| 28>  C        5.7521797071    -0.8633867998     0.7486658488
| 29>  C        7.2287089433    -0.7853335304     0.7419883479
| 30>  N        7.7446051680    -0.3588522064     2.1168546540
| 31>  H        0.5493429089     0.9748599480     0.3148714364
| 32>  H        0.4978270772    -0.7967817058     0.3522877947
| 33>  H        0.6399171733     0.0608751938    -1.1935301363
| 34>  H        5.4823793205     0.8439034488    -0.4421726213
| 35>  H        5.2888678283    -1.7002048275     1.2629133780
| 36>  H        7.6033555544    -0.0416886844     0.0383890925
| 37>  H        7.7122356331    -1.7433786211     0.5399943274
| 38>  H        7.3506007790     0.5500459449     2.3689176499
| 39>  H        8.7649317969    -0.2935307032     2.1457742321
| 40>  H        7.4484524254    -1.0251402446     2.8330168049
| 41> *
| 42>
| 43>                          ****END OF INPUT****
 Total Charge           Charge          ....    1
 Multiplicity           Mult            ....    1
 Number of Electrons    NEL             ....   52
FINAL SINGLE POINT ENERGY      -288.842009093836

CARTESIAN COORDINATES (ANGSTROEM)
---------------------------------
  C      1.151207    0.000032   -3.738644
  C      0.593889   -0.126576   -2.413012
  C      0.125568   -0.231151   -1.305385
  C     -0.442712   -0.409107   -0.033780
  C     -0.407385    0.491667    0.961108
  C     -1.055808    0.238117    2.265599
  N     -0.000722   -0.000033    3.346119
  H      1.918374   -0.761071   -3.903195
  H      1.602430    0.983264   -3.885297
  H      0.373310   -0.141629   -4.493233
  H     -0.964278   -1.353093    0.129548
  H      0.070686    1.454731    0.808516
  H     -1.678755   -0.656456    2.253998
  H     -1.648545    1.081373    2.625881
  H      0.584838   -0.797732    3.089733
  H     -0.417149   -0.179968    4.262734
  H      0.614726    0.811384    3.430533

FINAL SINGLE POINT ENERGY      -288.842009515228
                    ***********************HURRAY********************
 Multiplicity           Mult            ....    1
 Number of Electrons    NEL             ....   52
 Basis Dimension        Dim             ....  277
FINAL SINGLE POINT ENERGY      -288.842009702341

VIBRATIONAL FREQUENCIES
-----------------------

   0:         0.00 cm**-1
   1:         0.00 cm**-1
   2:         0.00 cm**-1
   3:         0.00 cm**-1
   4:         0.00 cm**-1
   5:         0.00 cm**-1
   6:       -20.00 cm**-1
   7:        78.06 cm**-1
   8:        95.88 cm**-1
   9:       121.50 cm**-1
  10:       208.22 cm**-1
  11:       256.76 cm**-1
  12:       313.57 cm**-1
  13:       370.04 cm**-1
  14:       398.76 cm**-1
  15:       479.02 cm**-1
  16:       530.23 cm**-1
  17:       796.97 cm**-1
  18:       822.02 cm**-1
  19:       865.20 cm**-1
  20:       874.56 cm**-1
  21:       980.36 cm**-1
  22:       989.74 cm**-1
  23:      1030.67 cm**-1
  24:      1041.85 cm**-1
  25:      1083.23 cm**-1
  26:      1163.22 cm**-1
  27:      1231.77 cm**-1
  28:      1312.28 cm**-1
  29:      1316.83 cm**-1
  30:      1355.60 cm**-1
  31:      1393.54 cm**-1
  32:      1403.97 cm**-1
  33:      1454.08 cm**-1
  34:      1456.37 cm**-1
  35:      1485.25 cm**-1
  36:      1489.81 cm**-1
  37:      1649.27 cm**-1
  38:      1660.41 cm**-1
  39:      1695.77 cm**-1
  40:      2342.43 cm**-1
  41:      3053.90 cm**-1
  42:      3092.07 cm**-1
  43:      3124.31 cm**-1
  44:      3128.67 cm**-1
  45:      3135.75 cm**-1
  46:      3155.06 cm**-1
  47:      3186.77 cm**-1
  48:      3413.59 cm**-1
  49:      3505.77 cm**-1
  50:      3509.22 cm**-1

IR SPECTRUM
-----------

 Mode    freq (cm**-1)   T**2         TX         TY         TZ
-------------------------------------------------------------------
   7:        78.06   16.216926  (  3.831086  -0.454002  -1.154812)
   8:        95.88   10.755104  (  0.039944   2.967077   1.396410)
   9:       121.50    4.998122  (  0.395636  -0.089936   2.198523)
  10:       208.22    0.623430  (  0.087067  -0.783971   0.035201)
  11:       256.76    3.782427  ( -1.322237   0.456733  -1.351114)
  12:       313.57    3.170173  (  0.454627   1.721401   0.016293)
  13:       370.04    6.741721  ( -0.088914   0.257002  -2.582202)
  14:       398.76    0.768595  ( -0.251861  -0.548021   0.636266)
  15:       479.02    1.195538  ( -0.639522  -0.249530  -0.851049)
  16:       530.23    2.136519  (  0.317325   1.347315  -0.469644)
  17:       796.97   23.828994  (  0.930521   1.685592  -4.485745)
  18:       822.02   36.972288  (  0.961483  -1.681343  -5.763760)
  19:       865.20   22.763015  ( -1.404149  -1.189716  -4.401813)
  20:       874.56   35.051953  ( -1.916467   2.439651  -5.042540)
  21:       980.36   14.490691  (  3.292811  -0.185458   1.900972)
  22:       989.74   28.666856  (  3.935523  -2.389412   2.732989)
  23:      1030.67    6.693494  ( -2.244042   1.040402  -0.758506)
  24:      1041.85    7.665197  ( -0.052868  -1.495636  -2.329265)
  25:      1083.23    9.698600  ( -3.005358   0.750568   0.321052)
  26:      1163.22   53.883390  ( -2.894726  -0.390745   6.734335)
  27:      1231.77    1.388112  (  0.005352  -0.896387  -0.764574)
  28:      1312.28    6.419895  ( -1.103714  -1.971808   1.146161)
  29:      1316.83   27.449781  ( -0.242161   2.259511   4.720778)
  30:      1355.60   18.510784  ( -1.684674   0.633220   3.907901)
  31:      1393.54   58.554743  (  0.934797  -1.083183  -7.517154)
  32:      1403.97   13.971891  (  0.537779  -0.740792  -3.624074)
  33:      1454.08   16.325292  (  1.323753   3.155057   2.149089)
  34:      1456.37   12.294161  (  2.911034  -1.865657   0.582553)
  35:      1485.25   15.184273  (  2.045546   1.104513  -3.127309)
  36:      1489.81  163.209643  (  7.673122  -1.702129  10.071524)
  37:      1649.27   49.079533  (  0.919827   6.942457  -0.189045)
  38:      1660.41   54.527534  ( -4.264149   0.593301   5.999380)
  39:      1695.77  160.357653  ( -2.421122   1.794827  12.299367)
  40:      2342.43  317.978031  (  5.444753  -0.569622 -16.970805)
  41:      3053.90    0.081249  (  0.156950   0.211981   0.108072)
  42:      3092.07    6.335548  ( -1.134227  -0.055881   2.246320)
  43:      3124.31    0.006777  ( -0.081324   0.008525  -0.009525)
  44:      3128.67    9.312185  (  1.306987   0.631610  -2.684220)
  45:      3135.75    1.774750  (  0.489442   0.272802  -1.208625)
  46:      3155.06    0.233515  ( -0.062956  -0.290287  -0.381162)
  47:      3186.77    1.283602  (  0.596250   0.012604  -0.963291)
  48:      3413.59   37.344770  ( -2.957343   0.920027  -5.268059)
  49:      3505.77   72.485186  ( -6.204566   2.695606   5.169357)
  50:      3509.22   92.217215  ( -3.266691  -9.017744  -0.475642)

--------------------------
THERMOCHEMISTRY AT 298.15K
--------------------------

Temperature         ... 298.15 K
Pressure            ... 1.00 atm
Total Mass          ... 96.15 AMU

Throughout the following assumptions are being made:
  (1) The electronic state is orbitally nondegenerate
  (2) There are no thermally accessible electronically excited states
  (3) Hindered rotations indicated by low frequency modes) are not
      treated as such but are treated as vibrations and this may
      case some error
  (4) All equations used are the standard statistical mechanics
      equations for an ideal gas
  (5) All vibrations are strinctly harmonic

------------
INNER ENERGY
------------

The inner energy is: U= E(el) + E(ZPE) + E(vib) + E(rot) + E(trans)
    E(el)   - is the total energy from the electronic structure calculation
              = E(kin-el) + E(nuc-el) + E(el-el) + E(nuc-nuc)
    E(ZPE)  - the the zero temperature vibrational energy from the frequency calculation
    E(vib)  - the the finite temperature correction to E(ZPE) due to population
              of excietd vibrational states
    E(rot)  - is the rotational thermal energy
    E(trans)- is the translational thermal energy

Summary of contributions to the inner energy U:
Electronic energy                ...   -288.84200970 Eh
Zero point energy                ...      0.15047834 Eh      94.43 kcal/mol
Thermal vibrational correction   ...      0.00528611 Eh       3.32 kcal/mol
Thermal rotational correction    ...      0.00141627 Eh       0.89 kcal/mol
Thermal translational correction ...      0.00141627 Eh       0.89 kcal/mol
-----------------------------------------------------------------------
Total thermal energy                   -288.68341272 Eh

Summary of corrections to the electronic energy:
(perhaps to be used in another calculation)
Total thermal correction                  0.00811865 Eh       5.09 kcal/mol
Non-thermal (ZPE) correction              0.15047834 Eh      94.43 kcal/mol
-----------------------------------------------------------------------
Total correction                          0.15859699 Eh      99.52 kcal/mol

--------
ENTHALPY
--------

The enthalpy is H = U + kB*T
                kB is Boltzmann's constant
Total free energy                 ...   -288.68341272 Eh
Thermal Enthalpy correction       ...      0.00094421 Eh       0.59 kcal/mol
-----------------------------------------------------------------------
Total Enthalpy                    ...   -288.68246851 Eh

-------
ENTROPY
-------

The entropy contributions are T*S = T*(S(el)+S(vib)+S(rot)+S(trans)
     S(el)   - electronic entropy
     S(vib)  - vibrational entropy
     S(rot)  - rotational entropy
     S(trans)- translational entropy
The entropies will be listed as mutliplied by the temperature to get
units of energy

Electronic entropy                ...      0.00000000 Eh      0.00 kcal/mol
Vibrational entropy               ...      0.00968849 Eh      6.08 kcal/mol
Rotational entropy                ...      0.01229211 Eh      7.71 kcal/mol
Translational entropy             ...      0.01881568 Eh     11.81 kcal/mol
-----------------------------------------------------------------------
Final entropy term                ...      0.04079628 Eh     25.60 kcal/mol

CAUTION: The rotational entropy is not quite correctly treated here
         because it includes a symmetry number that is not yet correctly
         implemented in ORCA!
For a nonlinear molecule the correct rotational entropy is:
    S(rot) = R*(ln(qrot/sn)+1.5)
    R    = 8.31441 J/mol/K = 1.987191683e-3 kcal/mol/K
    qrot = 301769.0320013
    sn is the rotational symmetry number. We have assumed 3 here
       if it is different for your molecule then you should correct
       the printed rotational entropy by manually evaluating the equation
       as given above

For convenience we print out the resulting values for sn=1 - 12:
 sn= 1  qrot/sn=  301769.0320 T*S(rot)=     8.36 kcal/mol T*S(tot)=    26.25 kcal/mol
 sn= 2  qrot/sn=  150884.5160 T*S(rot)=     7.95 kcal/mol T*S(tot)=    25.84 kcal/mol
 sn= 3  qrot/sn=  100589.6773 T*S(rot)=     7.71 kcal/mol T*S(tot)=    25.60 kcal/mol
 sn= 4  qrot/sn=   75442.2580 T*S(rot)=     7.54 kcal/mol T*S(tot)=    25.43 kcal/mol
 sn= 5  qrot/sn=   60353.8064 T*S(rot)=     7.41 kcal/mol T*S(tot)=    25.30 kcal/mol
 sn= 6  qrot/sn=   50294.8387 T*S(rot)=     7.30 kcal/mol T*S(tot)=    25.19 kcal/mol
 sn= 7  qrot/sn=   43109.8617 T*S(rot)=     7.21 kcal/mol T*S(tot)=    25.10 kcal/mol
 sn= 8  qrot/sn=   37721.1290 T*S(rot)=     7.13 kcal/mol T*S(tot)=    25.02 kcal/mol
 sn= 9  qrot/sn=   33529.8924 T*S(rot)=     7.06 kcal/mol T*S(tot)=    24.95 kcal/mol
 sn=10  qrot/sn=   30176.9032 T*S(rot)=     7.00 kcal/mol T*S(tot)=    24.89 kcal/mol
 sn=11  qrot/sn=   27433.5484 T*S(rot)=     6.94 kcal/mol T*S(tot)=    24.83 kcal/mol
 sn=12  qrot/sn=   25147.4193 T*S(rot)=     6.89 kcal/mol T*S(tot)=    24.78 kcal/mol

-------------------
GIBBS FREE ENTHALPY
-------------------

The Gibbs free enthalpy is G = H - T*S

Total enthalpy                    ...   -288.68246851 Eh
Total entropy correction          ...     -0.04079628 Eh    -25.60 kcal/mol
-----------------------------------------------------------------------
Final Gibbs free enthalpy         ...   -288.72326478 Eh

For completeness - the Gibbs free enthalpy minus the electronic energy
G-E(el)                           ...      0.11874492 Eh     74.51 kcal/mol

                             ****ORCA TERMINATED NORMALLY****
TOTAL RUN TIME: 0 days 0 hours 26 minutes 27 seconds 841 msec
