                         Program Version 3.0.3 - RELEASE   -
|  1> ! NORI PBE0 def2-TZVP UseSym TightOPT Freq TightSCF Grid3 FinalGrid5 XYZFile
|  2> % pal
|  3>     nprocs 8
|  4> end
|  5> %method
|  6>     SymThresh 5.0e-2
|  7> end
|  8> % geom
|  9>     MaxIter 10
| 10> end
| 11> % maxcore 2000
| 12> % output
| 13>     printlevel mini
| 14>     print[ P_Basis ] 0
| 15>     print[ P_SCFInfo ] 1
| 16>     print[ P_SCFIterInfo ] 1
| 17>     print[ P_OrbEn ] 0
| 18>     print[ P_Cartesian ] 0
| 19> end
| 20> % elprop
| 21>     Dipole false
| 22> end
| 23> *xyz 1 1
| 24>  C        1.1906972537     0.0778688801     0.3076235183
| 25>  C        2.6322909251     0.0819986197     0.1807970732
| 26>  C        3.8274099960     0.0710413977    -0.0011863027
| 27>  C        5.2459871281     0.0844162527    -0.1149220978
| 28>  C        5.9348503342    -0.4240573758    -1.1374682091
| 29>  C        5.9408854384     0.7534460292     1.0384893539
| 30>  N        5.3626078814     0.2093821189     2.3165258114
| 31>  H        0.7316945006     0.1499953425    -0.6810423927
| 32>  H        0.8429686118     0.9230280391     0.9056619153
| 33>  H        0.8407522413    -0.8455684887     0.7756487406
| 34>  H        5.4300971531    -0.8661331357    -1.9862635275
| 35>  H        7.0182006034    -0.3915414520    -1.1573411658
| 36>  H        5.7456236520     1.8281969516     1.0524594310
| 37>  H        7.0152971048     0.5758400884     1.0435869454
| 38>  H        4.3363144984     0.1976517905     2.1985632881
| 39>  H        5.6096399436     0.7677684503     3.1341725969
| 40>  H        5.6616327340    -0.7546735087     2.4757350213
| 41> *
| 42>
| 43>                          ****END OF INPUT****
 Total Charge           Charge          ....    1
 Multiplicity           Mult            ....    1
 Number of Electrons    NEL             ....   52
FINAL SINGLE POINT ENERGY      -288.844806946338

CARTESIAN COORDINATES (ANGSTROEM)
---------------------------------
  C      2.673463   -0.000167   -1.648884
  C      1.350896    0.011736   -1.061559
  C      0.217313    0.033049   -0.642103
  C     -1.078353    0.035648   -0.053479
  C     -2.179143    0.517158   -0.632200
  C     -1.122639   -0.581827    1.316773
  N      0.000714    0.000059    2.131420
  H      2.596472   -0.115410   -2.732612
  H      3.271603   -0.827556   -1.261369
  H      3.201317    0.934623   -1.445353
  H     -2.151290    0.922232   -1.635259
  H     -3.135777    0.499223   -0.123296
  H     -0.939376   -1.657585    1.275451
  H     -2.059958   -0.389399    1.835668
  H      0.840187   -0.006131    1.529580
  H      0.185368   -0.525082    2.986581
  H     -0.188923    0.973127    2.378948

FINAL SINGLE POINT ENERGY      -288.844807810643
                    ***********************HURRAY********************
 Multiplicity           Mult            ....    1
 Number of Electrons    NEL             ....   52
 Basis Dimension        Dim             ....  277
FINAL SINGLE POINT ENERGY      -288.844808036777

VIBRATIONAL FREQUENCIES
-----------------------

   0:         0.00 cm**-1
   1:         0.00 cm**-1
   2:         0.00 cm**-1
   3:         0.00 cm**-1
   4:         0.00 cm**-1
   5:         0.00 cm**-1
   6:        30.99 cm**-1
   7:        83.95 cm**-1
   8:       115.32 cm**-1
   9:       155.02 cm**-1
  10:       252.31 cm**-1
  11:       275.31 cm**-1
  12:       344.68 cm**-1
  13:       369.10 cm**-1
  14:       416.31 cm**-1
  15:       554.91 cm**-1
  16:       637.76 cm**-1
  17:       656.10 cm**-1
  18:       743.70 cm**-1
  19:       871.04 cm**-1
  20:       888.89 cm**-1
  21:       966.38 cm**-1
  22:       990.07 cm**-1
  23:      1032.94 cm**-1
  24:      1042.71 cm**-1
  25:      1062.00 cm**-1
  26:      1110.41 cm**-1
  27:      1113.80 cm**-1
  28:      1318.01 cm**-1
  29:      1330.82 cm**-1
  30:      1387.74 cm**-1
  31:      1405.15 cm**-1
  32:      1452.52 cm**-1
  33:      1456.72 cm**-1
  34:      1457.36 cm**-1
  35:      1482.99 cm**-1
  36:      1489.49 cm**-1
  37:      1635.90 cm**-1
  38:      1660.77 cm**-1
  39:      1703.93 cm**-1
  40:      2330.86 cm**-1
  41:      3056.79 cm**-1
  42:      3095.96 cm**-1
  43:      3130.75 cm**-1
  44:      3135.28 cm**-1
  45:      3172.32 cm**-1
  46:      3176.53 cm**-1
  47:      3275.47 cm**-1
  48:      3291.49 cm**-1
  49:      3466.22 cm**-1
  50:      3525.34 cm**-1

IR SPECTRUM
-----------

 Mode    freq (cm**-1)   T**2         TX         TY         TZ
-------------------------------------------------------------------
   7:        83.95   11.652444  ( -2.692035   0.820485   1.931889)
   8:       115.32    0.313811  (  0.161525  -0.387783  -0.370602)
   9:       155.02   14.704476  ( -0.248746  -3.818460  -0.248924)
  10:       252.31   11.671527  (  0.048349  -0.715913   3.340158)
  11:       275.31   24.497403  ( -0.537307   0.694155  -4.871022)
  12:       344.68    0.804235  ( -0.663355   0.361407  -0.483301)
  13:       369.10    3.097636  (  0.442774  -0.251378   1.684754)
  14:       416.31   13.469490  (  0.855267   0.267219  -3.559017)
  15:       554.91   14.138720  (  0.613160  -0.477491  -3.678961)
  16:       637.76    4.575479  (  1.121753   1.574085   0.916190)
  17:       656.10    2.629449  ( -1.593990  -0.204845  -0.216060)
  18:       743.70    0.478747  (  0.491085   0.107590  -0.475402)
  19:       871.04    6.148390  (  2.033398  -1.416712   0.081301)
  20:       888.89   24.227711  (  1.978697  -0.448902  -4.484524)
  21:       966.38   12.145410  (  2.117482   1.226968   2.481175)
  22:       990.07   35.325962  (  0.525731   5.597171   1.929052)
  23:      1032.94    4.355683  ( -0.052064   0.550343   2.012485)
  24:      1042.71    2.891656  (  1.062509   1.030243  -0.837454)
  25:      1062.00   30.711203  ( -2.567964  -1.269091   4.744067)
  26:      1110.41   23.970674  (  1.611228   1.948697  -4.192517)
  27:      1113.80    6.264508  (  1.226345   2.122378  -0.506061)
  28:      1318.01   16.734284  (  3.944289  -0.916052  -0.581137)
  29:      1330.82    4.980437  (  1.444106  -1.354488  -1.029737)
  30:      1387.74    8.253886  (  1.415249  -0.949567   2.312851)
  31:      1405.15    0.666696  ( -0.016234  -0.524330   0.625708)
  32:      1452.52    8.806971  ( -1.721221   1.856926  -1.547965)
  33:      1456.72   13.869478  (  1.619619   2.064207   2.642984)
  34:      1457.36   12.186006  ( -0.341411   3.013327  -1.728961)
  35:      1482.99   17.680889  (  2.632770   2.810156  -1.688916)
  36:      1489.49  170.008382  ( -7.138728  -2.744754 -10.559984)
  37:      1635.90   28.884724  (  2.220982  -4.835023  -0.757971)
  38:      1660.77   35.581357  (  1.482804   1.945217  -5.440476)
  39:      1703.93    4.678326  ( -2.050515   0.687898  -0.022621)
  40:      2330.86   99.778532  (  8.648756  -0.189741  -4.994152)
  41:      3056.79    0.200512  (  0.088040  -0.002745   0.439036)
  42:      3095.96    1.343343  (  0.042130   0.396350  -1.088336)
  43:      3130.75    0.266838  (  0.014352   0.028990  -0.515550)
  44:      3135.28    0.456848  (  0.427278  -0.179682  -0.491930)
  45:      3172.32    0.625178  (  0.621231   0.274327  -0.404962)
  46:      3176.53    2.791016  (  1.013449  -0.673633   1.144621)
  47:      3275.47    0.868469  (  0.128747  -0.384699   0.838988)
  48:      3291.49  137.793399  ( -6.608401  -0.628583   9.681287)
  49:      3466.22  113.855013  ( -1.506864   3.684038   9.900113)
  50:      3525.34  103.060735  ( -1.850844   8.359354  -5.454935)

--------------------------
THERMOCHEMISTRY AT 298.15K
--------------------------

Temperature         ... 298.15 K
Pressure            ... 1.00 atm
Total Mass          ... 96.15 AMU

Throughout the following assumptions are being made:
  (1) The electronic state is orbitally nondegenerate
  (2) There are no thermally accessible electronically excited states
  (3) Hindered rotations indicated by low frequency modes) are not
      treated as such but are treated as vibrations and this may
      case some error
  (4) All equations used are the standard statistical mechanics
      equations for an ideal gas
  (5) All vibrations are strinctly harmonic

------------
INNER ENERGY
------------

The inner energy is: U= E(el) + E(ZPE) + E(vib) + E(rot) + E(trans)
    E(el)   - is the total energy from the electronic structure calculation
              = E(kin-el) + E(nuc-el) + E(el-el) + E(nuc-nuc)
    E(ZPE)  - the the zero temperature vibrational energy from the frequency calculation
    E(vib)  - the the finite temperature correction to E(ZPE) due to population
              of excietd vibrational states
    E(rot)  - is the rotational thermal energy
    E(trans)- is the translational thermal energy

Summary of contributions to the inner energy U:
Electronic energy                ...   -288.84480804 Eh
Zero point energy                ...      0.15063489 Eh      94.52 kcal/mol
Thermal vibrational correction   ...      0.00500601 Eh       3.14 kcal/mol
Thermal rotational correction    ...      0.00141627 Eh       0.89 kcal/mol
Thermal translational correction ...      0.00141627 Eh       0.89 kcal/mol
-----------------------------------------------------------------------
Total thermal energy                   -288.68633460 Eh

Summary of corrections to the electronic energy:
(perhaps to be used in another calculation)
Total thermal correction                  0.00783855 Eh       4.92 kcal/mol
Non-thermal (ZPE) correction              0.15063489 Eh      94.52 kcal/mol
-----------------------------------------------------------------------
Total correction                          0.15847344 Eh      99.44 kcal/mol

--------
ENTHALPY
--------

The enthalpy is H = U + kB*T
                kB is Boltzmann's constant
Total free energy                 ...   -288.68633460 Eh
Thermal Enthalpy correction       ...      0.00094421 Eh       0.59 kcal/mol
-----------------------------------------------------------------------
Total Enthalpy                    ...   -288.68539039 Eh

-------
ENTROPY
-------

The entropy contributions are T*S = T*(S(el)+S(vib)+S(rot)+S(trans)
     S(el)   - electronic entropy
     S(vib)  - vibrational entropy
     S(rot)  - rotational entropy
     S(trans)- translational entropy
The entropies will be listed as mutliplied by the temperature to get
units of energy

Electronic entropy                ...      0.00000000 Eh      0.00 kcal/mol
Vibrational entropy               ...      0.00884406 Eh      5.55 kcal/mol
Rotational entropy                ...      0.01233950 Eh      7.74 kcal/mol
Translational entropy             ...      0.01881568 Eh     11.81 kcal/mol
-----------------------------------------------------------------------
Final entropy term                ...      0.03999924 Eh     25.10 kcal/mol

CAUTION: The rotational entropy is not quite correctly treated here
         because it includes a symmetry number that is not yet correctly
         implemented in ORCA!
For a nonlinear molecule the correct rotational entropy is:
    S(rot) = R*(ln(qrot/sn)+1.5)
    R    = 8.31441 J/mol/K = 1.987191683e-3 kcal/mol/K
    qrot = 317302.4776635
    sn is the rotational symmetry number. We have assumed 3 here
       if it is different for your molecule then you should correct
       the printed rotational entropy by manually evaluating the equation
       as given above

For convenience we print out the resulting values for sn=1 - 12:
 sn= 1  qrot/sn=  317302.4777 T*S(rot)=     8.39 kcal/mol T*S(tot)=    25.75 kcal/mol
 sn= 2  qrot/sn=  158651.2388 T*S(rot)=     7.98 kcal/mol T*S(tot)=    25.34 kcal/mol
 sn= 3  qrot/sn=  105767.4926 T*S(rot)=     7.74 kcal/mol T*S(tot)=    25.10 kcal/mol
 sn= 4  qrot/sn=   79325.6194 T*S(rot)=     7.57 kcal/mol T*S(tot)=    24.93 kcal/mol
 sn= 5  qrot/sn=   63460.4955 T*S(rot)=     7.44 kcal/mol T*S(tot)=    24.80 kcal/mol
 sn= 6  qrot/sn=   52883.7463 T*S(rot)=     7.33 kcal/mol T*S(tot)=    24.69 kcal/mol
 sn= 7  qrot/sn=   45328.9254 T*S(rot)=     7.24 kcal/mol T*S(tot)=    24.60 kcal/mol
 sn= 8  qrot/sn=   39662.8097 T*S(rot)=     7.16 kcal/mol T*S(tot)=    24.52 kcal/mol
 sn= 9  qrot/sn=   35255.8309 T*S(rot)=     7.09 kcal/mol T*S(tot)=    24.45 kcal/mol
 sn=10  qrot/sn=   31730.2478 T*S(rot)=     7.03 kcal/mol T*S(tot)=    24.39 kcal/mol
 sn=11  qrot/sn=   28845.6798 T*S(rot)=     6.97 kcal/mol T*S(tot)=    24.33 kcal/mol
 sn=12  qrot/sn=   26441.8731 T*S(rot)=     6.92 kcal/mol T*S(tot)=    24.28 kcal/mol

-------------------
GIBBS FREE ENTHALPY
-------------------

The Gibbs free enthalpy is G = H - T*S

Total enthalpy                    ...   -288.68539039 Eh
Total entropy correction          ...     -0.03999924 Eh    -25.10 kcal/mol
-----------------------------------------------------------------------
Final Gibbs free enthalpy         ...   -288.72538962 Eh

For completeness - the Gibbs free enthalpy minus the electronic energy
G-E(el)                           ...      0.11941841 Eh     74.94 kcal/mol

                             ****ORCA TERMINATED NORMALLY****
TOTAL RUN TIME: 0 days 0 hours 31 minutes 45 seconds 557 msec
