                         Program Version 3.0.3 - RELEASE   -
|  1> ! NORI PBE0 def2-TZVP UseSym TightOPT Freq TightSCF Grid3 FinalGrid5 XYZFile
|  2> % pal
|  3>     nprocs 8
|  4> end
|  5> %method
|  6>     SymThresh 5.0e-2
|  7> end
|  8> % geom
|  9>     MaxIter 10
| 10> end
| 11> % maxcore 2000
| 12> % output
| 13>     printlevel mini
| 14>     print[ P_Basis ] 0
| 15>     print[ P_SCFInfo ] 1
| 16>     print[ P_SCFIterInfo ] 1
| 17>     print[ P_OrbEn ] 0
| 18>     print[ P_Cartesian ] 0
| 19> end
| 20> % elprop
| 21>     Dipole false
| 22> end
| 23> *xyz 1 1
| 24>  C        0.9117839310     0.0306525525     0.0336649990
| 25>  C        2.3598307054     0.0509366366     0.0195216078
| 26>  C        3.5618027608     0.0850970259     0.0105577403
| 27>  C        5.0170642199     0.1093458972     0.0162064127
| 28>  C        5.5770172584     0.5019256002     1.3854006488
| 29>  C        5.4848076051    -1.2718364303    -0.4340065591
| 30>  N        6.9895255512    -1.3365061033    -0.5179188030
| 31>  H        0.5215644172     0.9397932257     0.4966863104
| 32>  H        0.5397395971    -0.8256756433     0.6004151989
| 33>  H        0.5141909508    -0.0310143736    -0.9813981830
| 34>  H        5.3519588351     0.8453639509    -0.7299108467
| 35>  H        5.3010662376    -0.2322469701     2.1459498590
| 36>  H        5.1625078266     1.4625028612     1.6882016643
| 37>  H        6.6666138730     0.6253735506     1.3797576670
| 38>  H        5.1778476437    -2.0408017562     0.2756755421
| 39>  H        5.1011815191    -1.5233532158    -1.4221423711
| 40>  H        7.4076495778    -1.1203745979     0.3897012256
| 41>  H        7.3488847172    -0.6567889734    -1.1915056627
| 42>  H        7.3117527731    -2.2625432370    -0.8040964503
| 43> *
| 44>
| 45>                          ****END OF INPUT****
 Total Charge           Charge          ....    1
 Multiplicity           Mult            ....    1
 Number of Electrons    NEL             ....   54
FINAL SINGLE POINT ENERGY      -290.064392755005

CARTESIAN COORDINATES (ANGSTROEM)
---------------------------------
  C      1.211210    0.000148   -3.267138
  C      0.612229    0.121015   -1.954106
  C      0.101215    0.229904   -0.871104
  C     -0.515350    0.338402    0.442836
  C     -1.820237   -0.455869    0.529470
  C      0.522579   -0.127856    1.459840
  N     -0.000795   -0.000250    2.869181
  H      0.463228    0.168929   -4.044954
  H      1.633301   -0.996509   -3.412297
  H      2.009706    0.733325   -3.398899
  H     -0.731491    1.399763    0.635225
  H     -1.638309   -1.523866    0.388776
  H     -2.499819   -0.130376   -0.257197
  H     -2.349722   -0.300573    1.476687
  H      0.771805   -1.179271    1.312725
  H      1.433727    0.466808    1.405226
  H     -0.854377   -0.551190    2.984954
  H     -0.230061    0.971576    3.088764
  H      0.682473   -0.324340    3.555872

FINAL SINGLE POINT ENERGY      -290.064393743891
                    ***********************HURRAY********************
 Multiplicity           Mult            ....    1
 Number of Electrons    NEL             ....   54
 Basis Dimension        Dim             ....  289
FINAL SINGLE POINT ENERGY      -290.064394196952

VIBRATIONAL FREQUENCIES
-----------------------

   0:         0.00 cm**-1
   1:         0.00 cm**-1
   2:         0.00 cm**-1
   3:         0.00 cm**-1
   4:         0.00 cm**-1
   5:         0.00 cm**-1
   6:       -20.04 cm**-1
   7:        89.10 cm**-1
   8:        92.53 cm**-1
   9:       147.90 cm**-1
  10:       197.83 cm**-1
  11:       255.67 cm**-1
  12:       263.96 cm**-1
  13:       323.52 cm**-1
  14:       356.11 cm**-1
  15:       396.75 cm**-1
  16:       497.21 cm**-1
  17:       525.81 cm**-1
  18:       739.27 cm**-1
  19:       832.51 cm**-1
  20:       858.24 cm**-1
  21:       941.61 cm**-1
  22:       979.52 cm**-1
  23:       987.21 cm**-1
  24:      1041.14 cm**-1
  25:      1044.13 cm**-1
  26:      1069.67 cm**-1
  27:      1154.50 cm**-1
  28:      1167.73 cm**-1
  29:      1214.88 cm**-1
  30:      1325.90 cm**-1
  31:      1334.32 cm**-1
  32:      1358.86 cm**-1
  33:      1397.45 cm**-1
  34:      1406.28 cm**-1
  35:      1416.70 cm**-1
  36:      1461.50 cm**-1
  37:      1462.12 cm**-1
  38:      1474.19 cm**-1
  39:      1485.55 cm**-1
  40:      1494.00 cm**-1
  41:      1505.60 cm**-1
  42:      1653.13 cm**-1
  43:      1663.52 cm**-1
  44:      2373.94 cm**-1
  45:      3005.92 cm**-1
  46:      3035.89 cm**-1
  47:      3059.23 cm**-1
  48:      3107.69 cm**-1
  49:      3116.42 cm**-1
  50:      3134.05 cm**-1
  51:      3134.68 cm**-1
  52:      3159.43 cm**-1
  53:      3172.70 cm**-1
  54:      3421.42 cm**-1
  55:      3499.78 cm**-1
  56:      3512.66 cm**-1

IR SPECTRUM
-----------

 Mode    freq (cm**-1)   T**2         TX         TY         TZ
-------------------------------------------------------------------
   7:        89.10   12.678036  (  1.322684   3.289063   0.332571)
   8:        92.53   11.431234  ( -3.223018   0.965138   0.334507)
   9:       147.90    3.034189  (  0.746820  -1.531071   0.363690)
  10:       197.83    1.027312  (  0.574648   0.082667   0.830817)
  11:       255.67    2.036036  (  0.168448   1.416374   0.039310)
  12:       263.96    3.247987  (  0.912901   0.459386   1.484441)
  13:       323.52   13.262967  ( -2.524760  -0.318008  -2.605268)
  14:       356.11    9.385121  (  0.678160  -1.118152   2.770371)
  15:       396.75    3.160740  (  0.404814  -0.335391   1.698346)
  16:       497.21    3.772693  (  0.010078   0.833592  -1.754342)
  17:       525.81    6.324254  ( -1.634963  -0.333952  -1.881389)
  18:       739.27    3.131688  (  1.403975   0.079502   1.074347)
  19:       832.51   11.129423  (  2.317070   1.963734   1.379986)
  20:       858.24    9.591719  (  0.280402  -1.730155   2.553362)
  21:       941.61   26.702608  (  0.690879  -0.471894   5.099276)
  22:       979.52    7.988129  (  1.221089  -2.518237  -0.394404)
  23:       987.21    8.136697  (  2.811610   0.479542  -0.039812)
  24:      1041.14    2.807255  (  1.236026  -0.368847   1.069321)
  25:      1044.13    1.738026  ( -0.212630  -1.288107   0.183286)
  26:      1069.67   13.865595  (  2.190869  -0.841357   2.890987)
  27:      1154.50    3.303540  ( -1.036456   0.196606  -1.480083)
  28:      1167.73    1.248316  ( -0.673704   0.881402  -0.132549)
  29:      1214.88    0.841992  ( -0.774315   0.244821  -0.427190)
  30:      1325.90    3.056608  ( -0.267027  -1.578042   0.703624)
  31:      1334.32   18.128864  (  0.217611  -0.636607  -4.204312)
  32:      1358.86    4.665270  ( -1.614518  -1.349434   0.487473)
  33:      1397.45    1.708794  ( -1.052928  -0.750955  -0.190269)
  34:      1406.28    0.338993  ( -0.540098  -0.071417  -0.205394)
  35:      1416.70    7.273155  (  2.053144   1.401614   1.045578)
  36:      1461.50   12.581809  ( -1.951898  -2.889786  -0.648875)
  37:      1462.12   12.377446  ( -2.441095   2.115202  -1.394424)
  38:      1474.19   25.187370  ( -0.861800   0.821831  -4.875373)
  39:      1485.55    7.483974  ( -2.673907   0.335422   0.470839)
  40:      1494.00   67.770261  (  0.305272   1.652835  -8.058859)
  41:      1505.60  105.942881  (  4.417456  -2.970544  -8.809361)
  42:      1653.13   47.475606  (  1.639378   6.668759  -0.561875)
  43:      1663.52   39.368962  (  5.177240  -0.726993   3.469385)
  44:      2373.94   63.747315  ( -2.803404   0.268860   7.471008)
  45:      3005.92   13.111676  ( -0.607567   2.206156   2.806316)
  46:      3035.89   40.826006  (  2.457152   0.709698  -5.855317)
  47:      3059.23    1.566802  (  0.656115  -0.160230  -1.053870)
  48:      3107.69    0.742031  ( -0.533103   0.340064  -0.584968)
  49:      3116.42   16.068610  (  1.538685  -1.947014  -3.148046)
  50:      3134.05    0.195345  (  0.428064   0.042613  -0.101443)
  51:      3134.68    0.339267  ( -0.025923   0.581247   0.027333)
  52:      3159.43    0.740476  (  0.025517  -0.800309   0.315168)
  53:      3172.70    0.175949  (  0.195311   0.265293   0.259658)
  54:      3421.42   43.046142  (  2.276112  -0.364483  -6.142687)
  55:      3499.78   97.012163  ( -4.922019  -8.081836  -2.733099)
  56:      3512.66  110.702879  ( -7.924872   4.843589  -4.943575)

--------------------------
THERMOCHEMISTRY AT 298.15K
--------------------------

Temperature         ... 298.15 K
Pressure            ... 1.00 atm
Total Mass          ... 98.17 AMU

Throughout the following assumptions are being made:
  (1) The electronic state is orbitally nondegenerate
  (2) There are no thermally accessible electronically excited states
  (3) Hindered rotations indicated by low frequency modes) are not
      treated as such but are treated as vibrations and this may
      case some error
  (4) All equations used are the standard statistical mechanics
      equations for an ideal gas
  (5) All vibrations are strinctly harmonic

------------
INNER ENERGY
------------

The inner energy is: U= E(el) + E(ZPE) + E(vib) + E(rot) + E(trans)
    E(el)   - is the total energy from the electronic structure calculation
              = E(kin-el) + E(nuc-el) + E(el-el) + E(nuc-nuc)
    E(ZPE)  - the the zero temperature vibrational energy from the frequency calculation
    E(vib)  - the the finite temperature correction to E(ZPE) due to population
              of excietd vibrational states
    E(rot)  - is the rotational thermal energy
    E(trans)- is the translational thermal energy

Summary of contributions to the inner energy U:
Electronic energy                ...   -290.06439420 Eh
Zero point energy                ...      0.17393749 Eh     109.15 kcal/mol
Thermal vibrational correction   ...      0.00574071 Eh       3.60 kcal/mol
Thermal rotational correction    ...      0.00141627 Eh       0.89 kcal/mol
Thermal translational correction ...      0.00141627 Eh       0.89 kcal/mol
-----------------------------------------------------------------------
Total thermal energy                   -289.88188345 Eh

Summary of corrections to the electronic energy:
(perhaps to be used in another calculation)
Total thermal correction                  0.00857325 Eh       5.38 kcal/mol
Non-thermal (ZPE) correction              0.17393749 Eh     109.15 kcal/mol
-----------------------------------------------------------------------
Total correction                          0.18251074 Eh     114.53 kcal/mol

--------
ENTHALPY
--------

The enthalpy is H = U + kB*T
                kB is Boltzmann's constant
Total free energy                 ...   -289.88188345 Eh
Thermal Enthalpy correction       ...      0.00094421 Eh       0.59 kcal/mol
-----------------------------------------------------------------------
Total Enthalpy                    ...   -289.88093924 Eh

-------
ENTROPY
-------

The entropy contributions are T*S = T*(S(el)+S(vib)+S(rot)+S(trans)
     S(el)   - electronic entropy
     S(vib)  - vibrational entropy
     S(rot)  - rotational entropy
     S(trans)- translational entropy
The entropies will be listed as mutliplied by the temperature to get
units of energy

Electronic entropy                ...      0.00000000 Eh      0.00 kcal/mol
Vibrational entropy               ...      0.01028009 Eh      6.45 kcal/mol
Rotational entropy                ...      0.01239247 Eh      7.78 kcal/mol
Translational entropy             ...      0.01884507 Eh     11.83 kcal/mol
-----------------------------------------------------------------------
Final entropy term                ...      0.04151763 Eh     26.05 kcal/mol

CAUTION: The rotational entropy is not quite correctly treated here
         because it includes a symmetry number that is not yet correctly
         implemented in ORCA!
For a nonlinear molecule the correct rotational entropy is:
    S(rot) = R*(ln(qrot/sn)+1.5)
    R    = 8.31441 J/mol/K = 1.987191683e-3 kcal/mol/K
    qrot = 335611.8996882
    sn is the rotational symmetry number. We have assumed 3 here
       if it is different for your molecule then you should correct
       the printed rotational entropy by manually evaluating the equation
       as given above

For convenience we print out the resulting values for sn=1 - 12:
 sn= 1  qrot/sn=  335611.8997 T*S(rot)=     8.43 kcal/mol T*S(tot)=    26.70 kcal/mol
 sn= 2  qrot/sn=  167805.9498 T*S(rot)=     8.02 kcal/mol T*S(tot)=    26.29 kcal/mol
 sn= 3  qrot/sn=  111870.6332 T*S(rot)=     7.78 kcal/mol T*S(tot)=    26.05 kcal/mol
 sn= 4  qrot/sn=   83902.9749 T*S(rot)=     7.61 kcal/mol T*S(tot)=    25.88 kcal/mol
 sn= 5  qrot/sn=   67122.3799 T*S(rot)=     7.47 kcal/mol T*S(tot)=    25.75 kcal/mol
 sn= 6  qrot/sn=   55935.3166 T*S(rot)=     7.37 kcal/mol T*S(tot)=    25.64 kcal/mol
 sn= 7  qrot/sn=   47944.5571 T*S(rot)=     7.27 kcal/mol T*S(tot)=    25.55 kcal/mol
 sn= 8  qrot/sn=   41951.4875 T*S(rot)=     7.20 kcal/mol T*S(tot)=    25.47 kcal/mol
 sn= 9  qrot/sn=   37290.2111 T*S(rot)=     7.13 kcal/mol T*S(tot)=    25.40 kcal/mol
 sn=10  qrot/sn=   33561.1900 T*S(rot)=     7.06 kcal/mol T*S(tot)=    25.34 kcal/mol
 sn=11  qrot/sn=   30510.1727 T*S(rot)=     7.01 kcal/mol T*S(tot)=    25.28 kcal/mol
 sn=12  qrot/sn=   27967.6583 T*S(rot)=     6.96 kcal/mol T*S(tot)=    25.23 kcal/mol

-------------------
GIBBS FREE ENTHALPY
-------------------

The Gibbs free enthalpy is G = H - T*S

Total enthalpy                    ...   -289.88093924 Eh
Total entropy correction          ...     -0.04151763 Eh    -26.05 kcal/mol
-----------------------------------------------------------------------
Final Gibbs free enthalpy         ...   -289.92245688 Eh

For completeness - the Gibbs free enthalpy minus the electronic energy
G-E(el)                           ...      0.14193732 Eh     89.07 kcal/mol

                             ****ORCA TERMINATED NORMALLY****
TOTAL RUN TIME: 0 days 0 hours 36 minutes 54 seconds 568 msec
