                         Program Version 3.0.3 - RELEASE   -
|  1> ! NORI PBE0 def2-TZVP UseSym TightOPT Freq TightSCF Grid3 FinalGrid5 XYZFile
|  2> % pal
|  3>     nprocs 8
|  4> end
|  5> %method
|  6>     SymThresh 5.0e-2
|  7> end
|  8> % geom
|  9>     MaxIter 10
| 10> end
| 11> % maxcore 2000
| 12> % output
| 13>     printlevel mini
| 14>     print[ P_Basis ] 0
| 15>     print[ P_SCFInfo ] 1
| 16>     print[ P_SCFIterInfo ] 1
| 17>     print[ P_OrbEn ] 0
| 18>     print[ P_Cartesian ] 0
| 19> end
| 20> % elprop
| 21>     Dipole false
| 22> end
| 23> *xyz 1 1
| 24>  C        1.4041733725     0.8207942715     0.0054558660
| 25>  C        2.7714514917     0.3575242114     0.0921912593
| 26>  C        3.9056365753    -0.0397181822     0.1555142205
| 27>  C        5.2701418441    -0.5350393015     0.2088447304
| 28>  C        6.0402432071    -0.2525251316    -1.0740175483
| 29>  C        5.3436854749    -1.9993266767     0.6184071057
| 30>  N        5.9614880795     0.2728308622     1.3269949198
| 31>  H        0.7361052157    -0.0131786189    -0.2208575826
| 32>  H        1.2975461963     1.5722384247    -0.7796880445
| 33>  H        1.0858692380     1.2622228815     0.9524500028
| 34>  H        5.5718155637    -0.8033953523    -1.8887950649
| 35>  H        7.0783790247    -0.5853226276    -0.9953533418
| 36>  H        6.0122077016     0.8071825425    -1.3348651516
| 37>  H        4.8501178270    -2.5994995066    -0.1452768474
| 38>  H        4.8274479448    -2.1797398230     1.5633338742
| 39>  H        6.3803750374    -2.3375056372     0.6953706324
| 40>  H        5.9346849722     1.2699274628     1.1052054500
| 41>  H        6.9357557290    -0.0135181565     1.4432794432
| 42>  H        5.4701255046     0.1357283579     2.2123660768
| 43> *
| 44>
| 45>                          ****END OF INPUT****
 Total Charge           Charge          ....    1
 Multiplicity           Mult            ....    1
 Number of Electrons    NEL             ....   54
FINAL SINGLE POINT ENERGY      -290.074347485745

CARTESIAN COORDINATES (ANGSTROEM)
---------------------------------
  C      2.303048    0.000361   -2.254247
  C      1.262428   -0.000920   -1.249890
  C      0.386442    0.001109   -0.424926
  C     -0.690154    0.000291    0.550362
  C     -1.533490   -1.265688    0.483883
  C     -1.536387    1.264120    0.485960
  N      0.000011   -0.000135    1.930227
  H      2.002522    0.610055   -3.109248
  H      2.504352   -1.013386   -2.606282
  H      3.228532    0.416357   -1.850066
  H     -2.030082   -1.301963   -0.485177
  H     -2.305137   -1.269391    1.258428
  H     -0.918770   -2.163538    0.572452
  H     -2.029022    1.303882   -0.484951
  H     -0.924939    2.163477    0.581948
  H     -2.311170    1.261716    1.257391
  H      0.591117   -0.828158    2.024872
  H     -0.685964    0.004005    2.687884
  H      0.597534    0.823558    2.022383

FINAL SINGLE POINT ENERGY      -290.074348475037
                    ***********************HURRAY********************
 Multiplicity           Mult            ....    1
 Number of Electrons    NEL             ....   54
 Basis Dimension        Dim             ....  289
FINAL SINGLE POINT ENERGY      -290.074349063679

VIBRATIONAL FREQUENCIES
-----------------------

   0:         0.00 cm**-1
   1:         0.00 cm**-1
   2:         0.00 cm**-1
   3:         0.00 cm**-1
   4:         0.00 cm**-1
   5:         0.00 cm**-1
   6:       -12.08 cm**-1
   7:       108.70 cm**-1
   8:       111.88 cm**-1
   9:       211.25 cm**-1
  10:       254.70 cm**-1
  11:       279.16 cm**-1
  12:       308.16 cm**-1
  13:       314.37 cm**-1
  14:       352.34 cm**-1
  15:       374.25 cm**-1
  16:       377.08 cm**-1
  17:       541.44 cm**-1
  18:       546.98 cm**-1
  19:       626.56 cm**-1
  20:       777.38 cm**-1
  21:       891.32 cm**-1
  22:       942.57 cm**-1
  23:       952.58 cm**-1
  24:      1036.69 cm**-1
  25:      1036.83 cm**-1
  26:      1044.18 cm**-1
  27:      1049.49 cm**-1
  28:      1096.37 cm**-1
  29:      1163.29 cm**-1
  30:      1276.38 cm**-1
  31:      1343.15 cm**-1
  32:      1404.71 cm**-1
  33:      1406.94 cm**-1
  34:      1421.67 cm**-1
  35:      1455.84 cm**-1
  36:      1458.33 cm**-1
  37:      1460.00 cm**-1
  38:      1477.78 cm**-1
  39:      1477.85 cm**-1
  40:      1485.72 cm**-1
  41:      1499.70 cm**-1
  42:      1639.07 cm**-1
  43:      1649.90 cm**-1
  44:      2367.11 cm**-1
  45:      3055.88 cm**-1
  46:      3059.01 cm**-1
  47:      3060.42 cm**-1
  48:      3136.08 cm**-1
  49:      3137.57 cm**-1
  50:      3139.30 cm**-1
  51:      3140.07 cm**-1
  52:      3162.68 cm**-1
  53:      3166.46 cm**-1
  54:      3415.37 cm**-1
  55:      3514.70 cm**-1
  56:      3515.21 cm**-1

IR SPECTRUM
-----------

 Mode    freq (cm**-1)   T**2         TX         TY         TZ
-------------------------------------------------------------------
   7:       108.70    8.044142  ( -2.824627   0.118838   0.226943)
   8:       111.88    3.652539  ( -0.151027  -1.905182   0.003434)
   9:       211.25    0.002159  ( -0.008309  -0.045349  -0.005795)
  10:       254.70    0.136639  ( -0.016202  -0.369192  -0.008567)
  11:       279.16    0.638729  ( -0.793435   0.035929   0.088876)
  12:       308.16   12.880966  (  0.003104  -3.588915  -0.025382)
  13:       314.37    3.966817  (  0.185441  -0.068135   1.981864)
  14:       352.34    3.315993  ( -1.530096   0.023880   0.987031)
  15:       374.25    2.189525  ( -0.125927   1.470355  -0.108272)
  16:       377.08    6.515719  (  1.962321   0.116312   1.628338)
  17:       541.44    2.465760  ( -0.002725  -1.564874  -0.130085)
  18:       546.98   12.576661  ( -0.927430   0.046628  -3.422625)
  19:       626.56    0.030164  (  0.057678   0.018220   0.162805)
  20:       777.38   14.299865  (  0.072195  -0.079645   3.779988)
  21:       891.32   10.908814  (  1.386105   0.016644  -2.997874)
  22:       942.57    6.542209  (  0.017125  -2.557610   0.023335)
  23:       952.58    0.155180  (  0.006961  -0.393857  -0.002940)
  24:      1036.69    1.360906  ( -0.895167  -0.571047   0.483206)
  25:      1036.83   10.819372  (  2.830648   0.458720   1.611328)
  26:      1044.18    2.347680  ( -1.218444   0.902124  -0.221915)
  27:      1049.49    1.884965  (  0.251858  -1.276514   0.438230)
  28:      1096.37   14.856830  (  2.692449  -0.011887  -2.758152)
  29:      1163.29   45.059238  (  1.989132  -0.003885   6.411129)
  30:      1276.38   21.607951  (  0.020327  -4.648390   0.003262)
  31:      1343.15   82.655516  (  6.870273   0.063773  -5.954057)
  32:      1404.71    0.320550  ( -0.217101  -0.241825  -0.463613)
  33:      1406.94   19.207479  ( -0.023142   4.382569  -0.005379)
  34:      1421.67   40.549376  ( -4.713121  -0.010345  -4.282027)
  35:      1455.84   14.253486  (  0.094789  -3.752419   0.404785)
  36:      1458.33   13.422458  (  2.691485   0.393497   2.454288)
  37:      1460.00    0.111638  (  0.180496   0.226444   0.166681)
  38:      1477.78   96.427994  (  2.790730   0.740228   9.385728)
  39:      1477.85   25.465859  ( -1.341828   1.457680  -4.641177)
  40:      1485.72   38.056698  ( -3.067502   0.083034  -5.351657)
  41:      1499.70    0.427233  ( -0.612403  -0.034566   0.225832)
  42:      1639.07   42.958253  (  0.022980   6.554208  -0.008745)
  43:      1649.90   41.914383  (  5.716742  -0.041368  -3.038343)
  44:      2367.11  125.922073  ( -7.370922  -0.097545   8.460619)
  45:      3055.88    0.990971  ( -0.040284  -0.983453   0.148888)
  46:      3059.01    9.274204  ( -0.727277   0.049331   2.956829)
  47:      3060.42    0.024251  ( -0.001015   0.076230  -0.135789)
  48:      3136.08    0.119304  (  0.113213  -0.136767   0.296279)
  49:      3137.57    1.900863  ( -0.110574   1.372903   0.061428)
  50:      3139.30    0.130620  (  0.030714   0.250863  -0.258350)
  51:      3140.07   10.372020  ( -2.909836  -0.067546   1.378519)
  52:      3162.68    1.938984  ( -0.032153  -1.392084   0.007228)
  53:      3166.46    0.698077  (  0.754263  -0.063443  -0.353751)
  54:      3415.37   36.868508  ( -2.189681   0.013649  -5.663358)
  55:      3514.70   74.916377  ( -0.518156   8.637415   0.207240)
  56:      3515.21   61.552637  (  7.269431   0.604381  -2.888378)

--------------------------
THERMOCHEMISTRY AT 298.15K
--------------------------

Temperature         ... 298.15 K
Pressure            ... 1.00 atm
Total Mass          ... 98.17 AMU

Throughout the following assumptions are being made:
  (1) The electronic state is orbitally nondegenerate
  (2) There are no thermally accessible electronically excited states
  (3) Hindered rotations indicated by low frequency modes) are not
      treated as such but are treated as vibrations and this may
      case some error
  (4) All equations used are the standard statistical mechanics
      equations for an ideal gas
  (5) All vibrations are strinctly harmonic

------------
INNER ENERGY
------------

The inner energy is: U= E(el) + E(ZPE) + E(vib) + E(rot) + E(trans)
    E(el)   - is the total energy from the electronic structure calculation
              = E(kin-el) + E(nuc-el) + E(el-el) + E(nuc-nuc)
    E(ZPE)  - the the zero temperature vibrational energy from the frequency calculation
    E(vib)  - the the finite temperature correction to E(ZPE) due to population
              of excietd vibrational states
    E(rot)  - is the rotational thermal energy
    E(trans)- is the translational thermal energy

Summary of contributions to the inner energy U:
Electronic energy                ...   -290.07434906 Eh
Zero point energy                ...      0.17251307 Eh     108.25 kcal/mol
Thermal vibrational correction   ...      0.00576034 Eh       3.61 kcal/mol
Thermal rotational correction    ...      0.00141627 Eh       0.89 kcal/mol
Thermal translational correction ...      0.00141627 Eh       0.89 kcal/mol
-----------------------------------------------------------------------
Total thermal energy                   -289.89324311 Eh

Summary of corrections to the electronic energy:
(perhaps to be used in another calculation)
Total thermal correction                  0.00859288 Eh       5.39 kcal/mol
Non-thermal (ZPE) correction              0.17251307 Eh     108.25 kcal/mol
-----------------------------------------------------------------------
Total correction                          0.18110595 Eh     113.65 kcal/mol

--------
ENTHALPY
--------

The enthalpy is H = U + kB*T
                kB is Boltzmann's constant
Total free energy                 ...   -289.89324311 Eh
Thermal Enthalpy correction       ...      0.00094421 Eh       0.59 kcal/mol
-----------------------------------------------------------------------
Total Enthalpy                    ...   -289.89229891 Eh

-------
ENTROPY
-------

The entropy contributions are T*S = T*(S(el)+S(vib)+S(rot)+S(trans)
     S(el)   - electronic entropy
     S(vib)  - vibrational entropy
     S(rot)  - rotational entropy
     S(trans)- translational entropy
The entropies will be listed as mutliplied by the temperature to get
units of energy

Electronic entropy                ...      0.00000000 Eh      0.00 kcal/mol
Vibrational entropy               ...      0.00975751 Eh      6.12 kcal/mol
Rotational entropy                ...      0.01230429 Eh      7.72 kcal/mol
Translational entropy             ...      0.01884507 Eh     11.83 kcal/mol
-----------------------------------------------------------------------
Final entropy term                ...      0.04090687 Eh     25.67 kcal/mol

CAUTION: The rotational entropy is not quite correctly treated here
         because it includes a symmetry number that is not yet correctly
         implemented in ORCA!
For a nonlinear molecule the correct rotational entropy is:
    S(rot) = R*(ln(qrot/sn)+1.5)
    R    = 8.31441 J/mol/K = 1.987191683e-3 kcal/mol/K
    qrot = 305687.0591843
    sn is the rotational symmetry number. We have assumed 3 here
       if it is different for your molecule then you should correct
       the printed rotational entropy by manually evaluating the equation
       as given above

For convenience we print out the resulting values for sn=1 - 12:
 sn= 1  qrot/sn=  305687.0592 T*S(rot)=     8.37 kcal/mol T*S(tot)=    26.32 kcal/mol
 sn= 2  qrot/sn=  152843.5296 T*S(rot)=     7.96 kcal/mol T*S(tot)=    25.91 kcal/mol
 sn= 3  qrot/sn=  101895.6864 T*S(rot)=     7.72 kcal/mol T*S(tot)=    25.67 kcal/mol
 sn= 4  qrot/sn=   76421.7648 T*S(rot)=     7.55 kcal/mol T*S(tot)=    25.50 kcal/mol
 sn= 5  qrot/sn=   61137.4118 T*S(rot)=     7.42 kcal/mol T*S(tot)=    25.37 kcal/mol
 sn= 6  qrot/sn=   50947.8432 T*S(rot)=     7.31 kcal/mol T*S(tot)=    25.26 kcal/mol
 sn= 7  qrot/sn=   43669.5799 T*S(rot)=     7.22 kcal/mol T*S(tot)=    25.17 kcal/mol
 sn= 8  qrot/sn=   38210.8824 T*S(rot)=     7.14 kcal/mol T*S(tot)=    25.09 kcal/mol
 sn= 9  qrot/sn=   33965.2288 T*S(rot)=     7.07 kcal/mol T*S(tot)=    25.02 kcal/mol
 sn=10  qrot/sn=   30568.7059 T*S(rot)=     7.01 kcal/mol T*S(tot)=    24.96 kcal/mol
 sn=11  qrot/sn=   27789.7327 T*S(rot)=     6.95 kcal/mol T*S(tot)=    24.90 kcal/mol
 sn=12  qrot/sn=   25473.9216 T*S(rot)=     6.90 kcal/mol T*S(tot)=    24.85 kcal/mol

-------------------
GIBBS FREE ENTHALPY
-------------------

The Gibbs free enthalpy is G = H - T*S

Total enthalpy                    ...   -289.89229891 Eh
Total entropy correction          ...     -0.04090687 Eh    -25.67 kcal/mol
-----------------------------------------------------------------------
Final Gibbs free enthalpy         ...   -289.93320577 Eh

For completeness - the Gibbs free enthalpy minus the electronic energy
G-E(el)                           ...      0.14114329 Eh     88.57 kcal/mol

                             ****ORCA TERMINATED NORMALLY****
TOTAL RUN TIME: 0 days 0 hours 43 minutes 7 seconds 890 msec
