                         Program Version 3.0.3 - RELEASE   -
|  1> ! NORI PBE0 def2-TZVP UseSym TightOPT Freq TightSCF Grid3 FinalGrid5 XYZFile
|  2> % pal
|  3>     nprocs 8
|  4> end
|  5> %method
|  6>     SymThresh 5.0e-2
|  7> end
|  8> % geom
|  9>     MaxIter 10
| 10> end
| 11> % maxcore 2000
| 12> % output
| 13>     printlevel mini
| 14>     print[ P_Basis ] 0
| 15>     print[ P_SCFInfo ] 1
| 16>     print[ P_SCFIterInfo ] 1
| 17>     print[ P_OrbEn ] 0
| 18>     print[ P_Cartesian ] 0
| 19> end
| 20> % elprop
| 21>     Dipole false
| 22> end
| 23> *xyz 1 1
| 24>  C        1.0668699480    -0.1939061604    -0.1735819345
| 25>  C        2.5119982914    -0.1398480542    -0.0722443287
| 26>  C        3.7069253578    -0.0977326001     0.0818290763
| 27>  C        5.1563110130    -0.0426227559     0.1912719589
| 28>  C        5.7696525363     0.7306258216    -0.9778604223
| 29>  C        7.2705071222     0.6229159134    -1.0777911105
| 30>  N        5.1195029125     0.2053449864    -2.2364110218
| 31>  H        0.6701786343     0.7090999691    -0.6424188197
| 32>  H        0.6296580551    -0.2743972445     0.8240947634
| 33>  H        0.7428852804    -1.0593897763    -0.7554537589
| 34>  H        5.4605914071     0.4544947047     1.1167727374
| 35>  H        5.5775217116    -1.0542999305     0.2323926403
| 36>  H        5.4498675445     1.7735796352    -0.9202757204
| 37>  H        7.5919704866    -0.4181296820    -1.1733045458
| 38>  H        7.7200620875     1.0235360112    -0.1682135509
| 39>  H        7.6689467858     1.1956232436    -1.9177929472
| 40>  H        5.4845387588    -0.7172685142    -2.4815323315
| 41>  H        5.2575312098     0.8244210276    -3.0350360270
| 42>  H        4.1087508572     0.1059734052    -2.0318346571
| 43> *
| 44>
| 45>                          ****END OF INPUT****
 Total Charge           Charge          ....    1
 Multiplicity           Mult            ....    1
 Number of Electrons    NEL             ....   54
FINAL SINGLE POINT ENERGY      -290.078708125659
FINAL SINGLE POINT ENERGY      -290.078708949862

CARTESIAN COORDINATES (ANGSTROEM)
---------------------------------
  C      2.881016   -0.001026   -1.833980
  C      1.521990   -0.105484   -1.340341
  C      0.370309   -0.196637   -0.996100
  C     -0.995225   -0.301042   -0.506242
  C     -1.158541    0.424176    0.831598
  C     -2.466930    0.154118    1.531944
  N      0.001334    0.000923    1.701847
  H      3.332080    0.951586   -1.548804
  H      2.882819   -0.061177   -2.924769
  H      3.504826   -0.810522   -1.449671
  H     -1.700632    0.142083   -1.214877
  H     -1.285726   -1.353424   -0.399527
  H     -1.006560    1.494669    0.675708
  H     -2.606980   -0.913537    1.723066
  H     -3.288496    0.484637    0.895057
  H     -2.547154    0.696849    2.476018
  H     -0.127667   -0.951479    2.049600
  H      0.133394    0.617200    2.503510
  H      0.845555    0.010679    1.101520

FINAL SINGLE POINT ENERGY      -290.078709405620
                    ***********************HURRAY********************
 Multiplicity           Mult            ....    1
 Number of Electrons    NEL             ....   54
 Basis Dimension        Dim             ....  289
FINAL SINGLE POINT ENERGY      -290.078709640187

VIBRATIONAL FREQUENCIES
-----------------------

   0:         0.00 cm**-1
   1:         0.00 cm**-1
   2:         0.00 cm**-1
   3:         0.00 cm**-1
   4:         0.00 cm**-1
   5:         0.00 cm**-1
   6:        35.90 cm**-1
   7:        78.73 cm**-1
   8:        95.28 cm**-1
   9:       232.17 cm**-1
  10:       238.43 cm**-1
  11:       274.40 cm**-1
  12:       290.35 cm**-1
  13:       321.90 cm**-1
  14:       394.55 cm**-1
  15:       410.60 cm**-1
  16:       433.06 cm**-1
  17:       528.78 cm**-1
  18:       783.63 cm**-1
  19:       801.80 cm**-1
  20:       896.73 cm**-1
  21:       930.85 cm**-1
  22:       965.80 cm**-1
  23:       990.68 cm**-1
  24:      1036.80 cm**-1
  25:      1047.78 cm**-1
  26:      1098.58 cm**-1
  27:      1146.63 cm**-1
  28:      1178.62 cm**-1
  29:      1214.95 cm**-1
  30:      1272.65 cm**-1
  31:      1314.61 cm**-1
  32:      1392.18 cm**-1
  33:      1406.07 cm**-1
  34:      1406.56 cm**-1
  35:      1423.34 cm**-1
  36:      1460.77 cm**-1
  37:      1461.47 cm**-1
  38:      1463.21 cm**-1
  39:      1477.73 cm**-1
  40:      1483.63 cm**-1
  41:      1488.55 cm**-1
  42:      1635.05 cm**-1
  43:      1656.16 cm**-1
  44:      2357.51 cm**-1
  45:      3043.15 cm**-1
  46:      3056.84 cm**-1
  47:      3060.07 cm**-1
  48:      3096.45 cm**-1
  49:      3107.38 cm**-1
  50:      3135.07 cm**-1
  51:      3137.14 cm**-1
  52:      3137.33 cm**-1
  53:      3152.33 cm**-1
  54:      3238.06 cm**-1
  55:      3462.54 cm**-1
  56:      3527.73 cm**-1

IR SPECTRUM
-----------

 Mode    freq (cm**-1)   T**2         TX         TY         TZ
-------------------------------------------------------------------
   6:        35.90    0.442880  ( -0.002452   0.664956   0.026603)
   7:        78.73    2.704704  ( -1.060062  -0.451979   1.173324)
   8:        95.28    3.025901  ( -1.351215  -0.294663   1.055128)
   9:       232.17   15.928466  (  0.269782  -3.284262   2.251513)
  10:       238.43    0.405534  ( -0.066652  -0.632801  -0.025576)
  11:       274.40    0.783376  ( -0.784252  -0.038491   0.408464)
  12:       290.35   35.808626  ( -0.326368  -1.518261  -5.779013)
  13:       321.90    5.040796  ( -1.470552   0.766325   1.513611)
  14:       394.55   15.882016  (  2.250520  -0.539111  -3.244462)
  15:       410.60    8.748356  ( -2.021787  -0.479324   2.104989)
  16:       433.06    3.773080  (  0.533351   1.112244   1.500510)
  17:       528.78    4.088218  (  0.847622  -0.366461  -1.798739)
  18:       783.63    0.517174  (  0.079038   0.344551   0.626268)
  19:       801.80    3.597083  ( -1.615177  -0.992348   0.059441)
  20:       896.73    6.714442  ( -0.779774   1.497288   1.965839)
  21:       930.85    0.715343  ( -0.205099  -0.627204   0.529049)
  22:       965.80   20.899919  (  3.955704   0.253589  -2.277722)
  23:       990.68   35.263622  (  2.808035  -0.812237  -5.169026)
  24:      1036.80    1.745596  (  0.432219  -0.303896  -1.210962)
  25:      1047.78    1.387451  (  0.272949  -1.131374   0.181499)
  26:      1098.58   14.127047  (  3.204771  -1.945402  -0.268150)
  27:      1146.63    3.313248  ( -1.057694  -0.685001  -1.313508)
  28:      1178.62    0.730952  (  0.714780   0.401920  -0.241872)
  29:      1214.95   43.329204  (  3.766191   0.041580  -5.398452)
  30:      1272.65    7.982746  (  1.858386  -1.450129  -1.557650)
  31:      1314.61    7.988827  ( -2.680999  -0.515225   0.731856)
  32:      1392.18    7.422730  ( -0.671358  -1.189969  -2.357113)
  33:      1406.07    5.725868  (  1.575182   1.374993   1.163643)
  34:      1406.56    0.852880  (  0.853543  -0.347778  -0.058271)
  35:      1423.34   27.909209  ( -5.121148  -0.492587  -1.200172)
  36:      1460.77   15.526343  ( -1.071141   2.790538  -2.567469)
  37:      1461.47   11.331083  ( -0.474977  -2.601944  -2.082155)
  38:      1463.21    5.898528  (  0.995498   1.507467   1.623285)
  39:      1477.73  162.714884  (  5.585725  -2.259565  11.243173)
  40:      1483.63    1.758815  (  0.450868  -1.112489  -0.563826)
  41:      1488.55   11.859601  ( -0.276409   3.432250   0.053492)
  42:      1635.05   31.260517  (  0.060518   5.544243   0.719875)
  43:      1656.16   28.425597  ( -1.619916   1.784677   4.755670)
  44:      2357.51   49.833992  ( -5.766280  -0.125579   4.070410)
  45:      3043.15    5.694968  (  1.819497   0.945676  -1.220694)
  46:      3056.84    2.577477  ( -0.208243   1.011727  -1.229032)
  47:      3060.07    0.617116  (  0.736656   0.122865   0.243636)
  48:      3096.45    1.471152  ( -0.505517  -0.452121   1.005580)
  49:      3107.38    0.387807  (  0.538473   0.252133   0.185154)
  50:      3135.07    0.728475  ( -0.626944  -0.003608   0.579140)
  51:      3137.14    0.034872  ( -0.147727   0.090138  -0.070174)
  52:      3137.33    5.050383  (  0.001194   2.081606   0.846934)
  53:      3152.33    0.411045  ( -0.276407  -0.091283   0.571237)
  54:      3238.06  240.608285  ( -9.256431   0.765290  12.423409)
  55:      3462.54   92.302677  ( -1.492021  -3.134705   8.958246)
  56:      3527.73   91.057356  ( -1.324943  -7.848065  -5.264006)

--------------------------
THERMOCHEMISTRY AT 298.15K
--------------------------

Temperature         ... 298.15 K
Pressure            ... 1.00 atm
Total Mass          ... 98.17 AMU

Throughout the following assumptions are being made:
  (1) The electronic state is orbitally nondegenerate
  (2) There are no thermally accessible electronically excited states
  (3) Hindered rotations indicated by low frequency modes) are not
      treated as such but are treated as vibrations and this may
      case some error
  (4) All equations used are the standard statistical mechanics
      equations for an ideal gas
  (5) All vibrations are strinctly harmonic

------------
INNER ENERGY
------------

The inner energy is: U= E(el) + E(ZPE) + E(vib) + E(rot) + E(trans)
    E(el)   - is the total energy from the electronic structure calculation
              = E(kin-el) + E(nuc-el) + E(el-el) + E(nuc-nuc)
    E(ZPE)  - the the zero temperature vibrational energy from the frequency calculation
    E(vib)  - the the finite temperature correction to E(ZPE) due to population
              of excietd vibrational states
    E(rot)  - is the rotational thermal energy
    E(trans)- is the translational thermal energy

Summary of contributions to the inner energy U:
Electronic energy                ...   -290.07870964 Eh
Zero point energy                ...      0.17377992 Eh     109.05 kcal/mol
Thermal vibrational correction   ...      0.00635199 Eh       3.99 kcal/mol
Thermal rotational correction    ...      0.00141627 Eh       0.89 kcal/mol
Thermal translational correction ...      0.00141627 Eh       0.89 kcal/mol
-----------------------------------------------------------------------
Total thermal energy                   -289.89574518 Eh

Summary of corrections to the electronic energy:
(perhaps to be used in another calculation)
Total thermal correction                  0.00918453 Eh       5.76 kcal/mol
Non-thermal (ZPE) correction              0.17377992 Eh     109.05 kcal/mol
-----------------------------------------------------------------------
Total correction                          0.18296446 Eh     114.81 kcal/mol

--------
ENTHALPY
--------

The enthalpy is H = U + kB*T
                kB is Boltzmann's constant
Total free energy                 ...   -289.89574518 Eh
Thermal Enthalpy correction       ...      0.00094421 Eh       0.59 kcal/mol
-----------------------------------------------------------------------
Total Enthalpy                    ...   -289.89480097 Eh

-------
ENTROPY
-------

The entropy contributions are T*S = T*(S(el)+S(vib)+S(rot)+S(trans)
     S(el)   - electronic entropy
     S(vib)  - vibrational entropy
     S(rot)  - rotational entropy
     S(trans)- translational entropy
The entropies will be listed as mutliplied by the temperature to get
units of energy

Electronic entropy                ...      0.00000000 Eh      0.00 kcal/mol
Vibrational entropy               ...      0.01224847 Eh      7.69 kcal/mol
Rotational entropy                ...      0.01228926 Eh      7.71 kcal/mol
Translational entropy             ...      0.01884507 Eh     11.83 kcal/mol
-----------------------------------------------------------------------
Final entropy term                ...      0.04338280 Eh     27.22 kcal/mol

CAUTION: The rotational entropy is not quite correctly treated here
         because it includes a symmetry number that is not yet correctly
         implemented in ORCA!
For a nonlinear molecule the correct rotational entropy is:
    S(rot) = R*(ln(qrot/sn)+1.5)
    R    = 8.31441 J/mol/K = 1.987191683e-3 kcal/mol/K
    qrot = 300859.5936152
    sn is the rotational symmetry number. We have assumed 3 here
       if it is different for your molecule then you should correct
       the printed rotational entropy by manually evaluating the equation
       as given above

For convenience we print out the resulting values for sn=1 - 12:
 sn= 1  qrot/sn=  300859.5936 T*S(rot)=     8.36 kcal/mol T*S(tot)=    27.87 kcal/mol
 sn= 2  qrot/sn=  150429.7968 T*S(rot)=     7.95 kcal/mol T*S(tot)=    27.46 kcal/mol
 sn= 3  qrot/sn=  100286.5312 T*S(rot)=     7.71 kcal/mol T*S(tot)=    27.22 kcal/mol
 sn= 4  qrot/sn=   75214.8984 T*S(rot)=     7.54 kcal/mol T*S(tot)=    27.05 kcal/mol
 sn= 5  qrot/sn=   60171.9187 T*S(rot)=     7.41 kcal/mol T*S(tot)=    26.92 kcal/mol
 sn= 6  qrot/sn=   50143.2656 T*S(rot)=     7.30 kcal/mol T*S(tot)=    26.81 kcal/mol
 sn= 7  qrot/sn=   42979.9419 T*S(rot)=     7.21 kcal/mol T*S(tot)=    26.72 kcal/mol
 sn= 8  qrot/sn=   37607.4492 T*S(rot)=     7.13 kcal/mol T*S(tot)=    26.64 kcal/mol
 sn= 9  qrot/sn=   33428.8437 T*S(rot)=     7.06 kcal/mol T*S(tot)=    26.57 kcal/mol
 sn=10  qrot/sn=   30085.9594 T*S(rot)=     7.00 kcal/mol T*S(tot)=    26.51 kcal/mol
 sn=11  qrot/sn=   27350.8721 T*S(rot)=     6.94 kcal/mol T*S(tot)=    26.45 kcal/mol
 sn=12  qrot/sn=   25071.6328 T*S(rot)=     6.89 kcal/mol T*S(tot)=    26.40 kcal/mol

-------------------
GIBBS FREE ENTHALPY
-------------------

The Gibbs free enthalpy is G = H - T*S

Total enthalpy                    ...   -289.89480097 Eh
Total entropy correction          ...     -0.04338280 Eh    -27.22 kcal/mol
-----------------------------------------------------------------------
Final Gibbs free enthalpy         ...   -289.93818377 Eh

For completeness - the Gibbs free enthalpy minus the electronic energy
G-E(el)                           ...      0.14052587 Eh     88.18 kcal/mol

                             ****ORCA TERMINATED NORMALLY****
TOTAL RUN TIME: 0 days 0 hours 38 minutes 28 seconds 97 msec
