                         Program Version 3.0.3 - RELEASE   -
|  1> ! NORI PBE0 def2-TZVP UseSym TightOPT Freq TightSCF Grid3 FinalGrid5 XYZFile
|  2> % pal
|  3>     nprocs 8
|  4> end
|  5> %method
|  6>     SymThresh 5.0e-2
|  7> end
|  8> % geom
|  9>     MaxIter 10
| 10> end
| 11> % maxcore 2000
| 12> % output
| 13>     printlevel mini
| 14>     print[ P_Basis ] 0
| 15>     print[ P_SCFInfo ] 1
| 16>     print[ P_SCFIterInfo ] 1
| 17>     print[ P_OrbEn ] 0
| 18>     print[ P_Cartesian ] 0
| 19> end
| 20> % elprop
| 21>     Dipole false
| 22> end
| 23> *xyz 1 1
| 24>  C        3.2727550814    -1.8932023410     0.5298480419
| 25>  C        3.8172230960    -0.6427339861    -0.1545590719
| 26>  C        3.2091206051     0.6054127478     0.3834534911
| 27>  C        3.8744170960     1.5984928413     0.9632462128
| 28>  C        3.2232727902     2.8312450089     1.5114197151
| 29>  C        3.6315320874     4.0462908168     0.7018974849
| 30>  N        3.0519609460     5.3087660401     1.2983959983
| 31>  H        3.7074718764    -2.7911694103     0.0889068190
| 32>  H        2.1870974311    -1.9630181677     0.4238271142
| 33>  H        3.5076985301    -1.8922380301     1.5963199546
| 34>  H        4.9058422530    -0.5976756578    -0.0563305095
| 35>  H        3.5989146146    -0.7011189519    -1.2277547579
| 36>  H        2.1225972304     0.6767204594     0.3083263800
| 37>  H        4.9563555955     1.5359525465     1.0661097746
| 38>  H        2.1341143791     2.7149140328     1.4877972457
| 39>  H        3.5182553033     2.9765453976     2.5598784626
| 40>  H        4.7135391540     4.1844076398     0.6839695978
| 41>  H        3.2682117666     3.9910336687    -0.3244424511
| 42>  H        3.3752059588     5.4375649023     2.2597063599
| 43>  H        2.0310223362     5.2610018062     1.3247398758
| 44>  H        3.3140118689     6.1397286368     0.7645042621
| 45> *
| 46>
| 47>                          ****END OF INPUT****
 Total Charge           Charge          ....    1
 Multiplicity           Mult            ....    1
 Number of Electrons    NEL             ....   56
FINAL SINGLE POINT ENERGY      -291.309988156038
FINAL SINGLE POINT ENERGY      -291.309989481659

CARTESIAN COORDINATES (ANGSTROEM)
---------------------------------
  C      0.619396   -0.002129   -3.630121
  C     -0.391141   -0.399327   -2.558019
  C      0.188562   -0.344441   -1.187592
  C     -0.256160    0.415796   -0.193169
  C      0.367448    0.458964    1.168087
  C     -0.581559   -0.118421    2.199681
  N      0.000431   -0.001254    3.589813
  H      0.177434   -0.088315   -4.623851
  H      1.501579   -0.646154   -3.601809
  H      0.951401    1.029227   -3.495691
  H     -1.275987    0.240584   -2.612369
  H     -0.730065   -1.423888   -2.751473
  H      1.066829   -0.968779   -1.016674
  H     -1.118587    1.060517   -0.350881
  H      1.304203   -0.108308    1.163221
  H      0.610025    1.495934    1.437843
  H     -1.535947    0.409181    2.221358
  H     -0.770989   -1.178412    2.029040
  H      0.181527    0.976866    3.825709
  H      0.891147   -0.498862    3.652461
  H     -0.624731   -0.385897    4.300674

FINAL SINGLE POINT ENERGY      -291.309989988226
                    ***********************HURRAY********************
 Multiplicity           Mult            ....    1
 Number of Electrons    NEL             ....   56
 Basis Dimension        Dim             ....  301
FINAL SINGLE POINT ENERGY      -291.309990366660

VIBRATIONAL FREQUENCIES
-----------------------

   0:         0.00 cm**-1
   1:         0.00 cm**-1
   2:         0.00 cm**-1
   3:         0.00 cm**-1
   4:         0.00 cm**-1
   5:         0.00 cm**-1
   6:        50.83 cm**-1
   7:        87.13 cm**-1
   8:        97.67 cm**-1
   9:       123.06 cm**-1
  10:       208.89 cm**-1
  11:       219.71 cm**-1
  12:       280.14 cm**-1
  13:       308.18 cm**-1
  14:       329.63 cm**-1
  15:       462.72 cm**-1
  16:       532.17 cm**-1
  17:       761.86 cm**-1
  18:       781.00 cm**-1
  19:       837.77 cm**-1
  20:       885.19 cm**-1
  21:       906.73 cm**-1
  22:       932.02 cm**-1
  23:       967.57 cm**-1
  24:      1005.10 cm**-1
  25:      1022.92 cm**-1
  26:      1060.03 cm**-1
  27:      1094.14 cm**-1
  28:      1117.08 cm**-1
  29:      1139.34 cm**-1
  30:      1191.19 cm**-1
  31:      1265.63 cm**-1
  32:      1288.92 cm**-1
  33:      1315.88 cm**-1
  34:      1325.68 cm**-1
  35:      1335.28 cm**-1
  36:      1349.10 cm**-1
  37:      1378.60 cm**-1
  38:      1405.73 cm**-1
  39:      1407.90 cm**-1
  40:      1471.08 cm**-1
  41:      1472.29 cm**-1
  42:      1490.65 cm**-1
  43:      1496.98 cm**-1
  44:      1497.16 cm**-1
  45:      1503.24 cm**-1
  46:      1657.10 cm**-1
  47:      1663.79 cm**-1
  48:      1745.00 cm**-1
  49:      3017.07 cm**-1
  50:      3041.44 cm**-1
  51:      3056.86 cm**-1
  52:      3078.97 cm**-1
  53:      3090.78 cm**-1
  54:      3103.02 cm**-1
  55:      3126.40 cm**-1
  56:      3133.75 cm**-1
  57:      3142.38 cm**-1
  58:      3155.36 cm**-1
  59:      3165.05 cm**-1
  60:      3422.96 cm**-1
  61:      3504.53 cm**-1
  62:      3511.08 cm**-1

IR SPECTRUM
-----------

 Mode    freq (cm**-1)   T**2         TX         TY         TZ
-------------------------------------------------------------------
   6:        50.83    4.712701  ( -0.104767   2.109490   0.501772)
   7:        87.13    7.659327  (  2.586230  -0.826789  -0.535873)
   8:        97.67    5.913361  ( -1.158293  -2.099776  -0.403313)
   9:       123.06    1.905594  (  0.183286   0.463531  -1.287299)
  10:       208.89    0.102664  (  0.244182   0.129895   0.161760)
  11:       219.71    0.232531  ( -0.033314   0.009807  -0.480962)
  12:       280.14    1.059757  ( -0.698696  -0.267567   0.707098)
  13:       308.18    3.654481  ( -0.121057  -0.323921  -1.880133)
  14:       329.63    5.307314  ( -0.361073  -0.700328   2.164828)
  15:       462.72    3.414454  (  0.453307   1.037690  -1.460193)
  16:       532.17    4.533086  ( -0.622951  -0.724578   1.902631)
  17:       761.86    0.463612  ( -0.030577   0.589894  -0.338677)
  18:       781.00   10.309529  ( -1.644112   2.502709   1.158824)
  19:       837.77    2.459252  ( -0.321994  -0.805954  -1.306143)
  20:       885.19   23.444737  ( -1.393811  -0.101198   4.635923)
  21:       906.73   22.240805  ( -1.610885  -3.105078   3.162965)
  22:       932.02    2.867995  (  0.920181  -0.911328   1.091212)
  23:       967.57    7.652426  ( -2.535101  -0.738339  -0.824953)
  24:      1005.10   31.210303  (  2.491688   4.156816  -2.778970)
  25:      1022.92    5.585419  (  0.998573   2.039493   0.654783)
  26:      1060.03   20.760182  ( -1.514523   1.592411   3.991319)
  27:      1094.14    3.059795  (  1.218555   1.113093   0.579605)
  28:      1117.08    2.790630  (  0.889176   0.285081  -1.385180)
  29:      1139.34    9.333061  ( -1.741150  -1.282820   2.157737)
  30:      1191.19    3.038173  ( -1.331227   0.802774   0.788393)
  31:      1265.63    2.028196  (  0.553048  -0.665653  -1.131034)
  32:      1288.92    0.590787  (  0.028640  -0.106990  -0.760605)
  33:      1315.88    7.887453  ( -0.582556  -0.126031   2.744485)
  34:      1325.68    1.999677  (  1.235721  -0.519554  -0.450259)
  35:      1335.28    2.671192  (  0.251334   0.949782   1.306115)
  36:      1349.10    3.109444  (  0.804393  -1.556543   0.198922)
  37:      1378.60    1.694248  (  1.034001  -0.665657  -0.426606)
  38:      1405.73    8.089045  ( -0.878046   0.451819  -2.667197)
  39:      1407.90    2.292805  (  1.293803   0.669347  -0.413343)
  40:      1471.08    7.819433  (  2.390255  -0.247047  -1.430063)
  41:      1472.29    0.424958  ( -0.321143  -0.464010   0.326374)
  42:      1490.65   10.273189  (  0.421773  -3.134474  -0.519971)
  43:      1496.98   16.840033  (  0.846438   1.288173  -3.803181)
  44:      1497.16   11.865496  (  3.408504   0.340253  -0.363077)
  45:      1503.24  155.977664  ( -4.967905  -1.232359 -11.392053)
  46:      1657.10   53.025435  ( -3.653401   6.179083   1.223533)
  47:      1663.79   37.982326  (  4.453360   3.322291  -2.666889)
  48:      1745.00   14.668867  ( -0.189573   0.700334   3.760646)
  49:      3017.07   26.300651  (  2.034310   2.188402   4.168108)
  50:      3041.44    8.425477  (  2.483665   1.457764   0.363057)
  51:      3056.86   19.424924  ( -3.172761  -0.807141   2.950769)
  52:      3078.97    6.013042  ( -1.604468   1.853891  -0.042582)
  53:      3090.78    2.762235  ( -1.438222   0.770594   0.316130)
  54:      3103.02    1.667461  (  1.180644   0.365407  -0.374190)
  55:      3126.40    3.564609  (  1.631534   0.105755   0.944205)
  56:      3133.75   30.311331  (  3.110507  -4.362700   1.266066)
  57:      3142.38   13.957172  ( -2.051743  -1.615196  -2.671828)
  58:      3155.36    8.711546  (  2.254446  -1.398517   1.293512)
  59:      3165.05    0.967513  ( -0.637038   0.746957  -0.061234)
  60:      3422.96   53.582539  (  1.763503   0.501663   7.086673)
  61:      3504.53   89.191508  ( -3.643863   8.694362   0.567312)
  62:      3511.08   99.675829  ( -8.151649  -3.815445   4.320745)

--------------------------
THERMOCHEMISTRY AT 298.15K
--------------------------

Temperature         ... 298.15 K
Pressure            ... 1.00 atm
Total Mass          ... 100.18 AMU

Throughout the following assumptions are being made:
  (1) The electronic state is orbitally nondegenerate
  (2) There are no thermally accessible electronically excited states
  (3) Hindered rotations indicated by low frequency modes) are not
      treated as such but are treated as vibrations and this may
      case some error
  (4) All equations used are the standard statistical mechanics
      equations for an ideal gas
  (5) All vibrations are strinctly harmonic

------------
INNER ENERGY
------------

The inner energy is: U= E(el) + E(ZPE) + E(vib) + E(rot) + E(trans)
    E(el)   - is the total energy from the electronic structure calculation
              = E(kin-el) + E(nuc-el) + E(el-el) + E(nuc-nuc)
    E(ZPE)  - the the zero temperature vibrational energy from the frequency calculation
    E(vib)  - the the finite temperature correction to E(ZPE) due to population
              of excietd vibrational states
    E(rot)  - is the rotational thermal energy
    E(trans)- is the translational thermal energy

Summary of contributions to the inner energy U:
Electronic energy                ...   -291.30999037 Eh
Zero point energy                ...      0.19825008 Eh     124.40 kcal/mol
Thermal vibrational correction   ...      0.00654807 Eh       4.11 kcal/mol
Thermal rotational correction    ...      0.00141627 Eh       0.89 kcal/mol
Thermal translational correction ...      0.00141627 Eh       0.89 kcal/mol
-----------------------------------------------------------------------
Total thermal energy                   -291.10235967 Eh

Summary of corrections to the electronic energy:
(perhaps to be used in another calculation)
Total thermal correction                  0.00938061 Eh       5.89 kcal/mol
Non-thermal (ZPE) correction              0.19825008 Eh     124.40 kcal/mol
-----------------------------------------------------------------------
Total correction                          0.20763070 Eh     130.29 kcal/mol

--------
ENTHALPY
--------

The enthalpy is H = U + kB*T
                kB is Boltzmann's constant
Total free energy                 ...   -291.10235967 Eh
Thermal Enthalpy correction       ...      0.00094421 Eh       0.59 kcal/mol
-----------------------------------------------------------------------
Total Enthalpy                    ...   -291.10141546 Eh

-------
ENTROPY
-------

The entropy contributions are T*S = T*(S(el)+S(vib)+S(rot)+S(trans)
     S(el)   - electronic entropy
     S(vib)  - vibrational entropy
     S(rot)  - rotational entropy
     S(trans)- translational entropy
The entropies will be listed as mutliplied by the temperature to get
units of energy

Electronic entropy                ...      0.00000000 Eh      0.00 kcal/mol
Vibrational entropy               ...      0.01259514 Eh      7.90 kcal/mol
Rotational entropy                ...      0.01238007 Eh      7.77 kcal/mol
Translational entropy             ...      0.01887386 Eh     11.84 kcal/mol
-----------------------------------------------------------------------
Final entropy term                ...      0.04384907 Eh     27.52 kcal/mol

CAUTION: The rotational entropy is not quite correctly treated here
         because it includes a symmetry number that is not yet correctly
         implemented in ORCA!
For a nonlinear molecule the correct rotational entropy is:
    S(rot) = R*(ln(qrot/sn)+1.5)
    R    = 8.31441 J/mol/K = 1.987191683e-3 kcal/mol/K
    qrot = 331234.0355659
    sn is the rotational symmetry number. We have assumed 3 here
       if it is different for your molecule then you should correct
       the printed rotational entropy by manually evaluating the equation
       as given above

For convenience we print out the resulting values for sn=1 - 12:
 sn= 1  qrot/sn=  331234.0356 T*S(rot)=     8.42 kcal/mol T*S(tot)=    28.17 kcal/mol
 sn= 2  qrot/sn=  165617.0178 T*S(rot)=     8.01 kcal/mol T*S(tot)=    27.76 kcal/mol
 sn= 3  qrot/sn=  110411.3452 T*S(rot)=     7.77 kcal/mol T*S(tot)=    27.52 kcal/mol
 sn= 4  qrot/sn=   82808.5089 T*S(rot)=     7.60 kcal/mol T*S(tot)=    27.35 kcal/mol
 sn= 5  qrot/sn=   66246.8071 T*S(rot)=     7.47 kcal/mol T*S(tot)=    27.21 kcal/mol
 sn= 6  qrot/sn=   55205.6726 T*S(rot)=     7.36 kcal/mol T*S(tot)=    27.10 kcal/mol
 sn= 7  qrot/sn=   47319.1479 T*S(rot)=     7.27 kcal/mol T*S(tot)=    27.01 kcal/mol
 sn= 8  qrot/sn=   41404.2544 T*S(rot)=     7.19 kcal/mol T*S(tot)=    26.93 kcal/mol
 sn= 9  qrot/sn=   36803.7817 T*S(rot)=     7.12 kcal/mol T*S(tot)=    26.86 kcal/mol
 sn=10  qrot/sn=   33123.4036 T*S(rot)=     7.06 kcal/mol T*S(tot)=    26.80 kcal/mol
 sn=11  qrot/sn=   30112.1851 T*S(rot)=     7.00 kcal/mol T*S(tot)=    26.75 kcal/mol
 sn=12  qrot/sn=   27602.8363 T*S(rot)=     6.95 kcal/mol T*S(tot)=    26.69 kcal/mol

-------------------
GIBBS FREE ENTHALPY
-------------------

The Gibbs free enthalpy is G = H - T*S

Total enthalpy                    ...   -291.10141546 Eh
Total entropy correction          ...     -0.04384907 Eh    -27.52 kcal/mol
-----------------------------------------------------------------------
Final Gibbs free enthalpy         ...   -291.14526453 Eh

For completeness - the Gibbs free enthalpy minus the electronic energy
G-E(el)                           ...      0.16472584 Eh    103.37 kcal/mol

                             ****ORCA TERMINATED NORMALLY****
TOTAL RUN TIME: 0 days 0 hours 38 minutes 21 seconds 172 msec
