                         Program Version 3.0.3 - RELEASE   -
|  1> ! NORI PBE0 def2-TZVP UseSym TightOPT Freq TightSCF Grid3 FinalGrid5 XYZFile
|  2> % pal
|  3>     nprocs 8
|  4> end
|  5> %method
|  6>     SymThresh 5.0e-2
|  7> end
|  8> % geom
|  9>     MaxIter 10
| 10> end
| 11> % maxcore 2000
| 12> % output
| 13>     printlevel mini
| 14>     print[ P_Basis ] 0
| 15>     print[ P_SCFInfo ] 1
| 16>     print[ P_SCFIterInfo ] 1
| 17>     print[ P_OrbEn ] 0
| 18>     print[ P_Cartesian ] 0
| 19> end
| 20> % elprop
| 21>     Dipole false
| 22> end
| 23> *xyz 1 1
| 24>  C        2.0617244708     1.1190875450    -0.1143144348
| 25>  C        3.5354866794     0.8682592578     0.1971765066
| 26>  C        4.0563109200    -0.3375687231    -0.5042246819
| 27>  C        4.6860660229    -1.4127487284    -0.0193087090
| 28>  C        5.1698746382    -2.5272248073    -0.9000737213
| 29>  C        5.0071157167    -1.5522732958     1.4312103148
| 30>  N        4.1914432358    -2.6845289134     2.0380848032
| 31>  H        1.7204496191     2.0381852747     0.3633445072
| 32>  H        1.4303916136     0.3005463796     0.2398084624
| 33>  H        1.8999072663     1.2225025140    -1.1892440458
| 34>  H        4.1185109432     1.7302630156    -0.1484285090
| 35>  H        3.6836624954     0.8199889589     1.2795493955
| 36>  H        3.9010824395    -0.3239677231    -1.5824853703
| 37>  H        4.9325471127    -2.3282705651    -1.9446854047
| 38>  H        4.7147057397    -3.4977214892    -0.6631736638
| 39>  H        6.2546679945    -2.6546036174    -0.8210009888
| 40>  H        4.7756516395    -0.6658076007     2.0172176626
| 41>  H        6.0513153235    -1.8267706926     1.5996367951
| 42>  H        3.1932983818    -2.4806715548     1.9562610988
| 43>  H        4.4128490263    -2.8367457528     3.0239534294
| 44>  H        4.3670287208    -3.5561994819     1.5346265539
| 45> *
| 46>
| 47>                          ****END OF INPUT****
 Total Charge           Charge          ....    1
 Multiplicity           Mult            ....    1
 Number of Electrons    NEL             ....   56
FINAL SINGLE POINT ENERGY      -291.313226167009
FINAL SINGLE POINT ENERGY      -291.313227192263

CARTESIAN COORDINATES (ANGSTROEM)
---------------------------------
  C      2.248878   -0.000513   -1.908743
  C      1.018195   -0.776452   -1.445342
  C     -0.099201    0.128512   -1.057247
  C     -0.807386    0.188069    0.075377
  C     -1.933655    1.160704    0.271325
  C     -0.566395   -0.754183    1.206916
  N      0.002047    0.000161    2.400244
  H      3.029922   -0.685190   -2.241314
  H      2.659911    0.617108   -1.106772
  H      2.006258    0.658950   -2.744451
  H      0.665559   -1.401490   -2.274425
  H      1.294926   -1.468271   -0.645197
  H     -0.379939    0.841638   -1.831088
  H     -2.067950    1.783312   -0.612258
  H     -1.771623    1.850834    1.110070
  H     -2.878425    0.641817    0.463041
  H      0.150567   -1.538435    0.976819
  H     -1.490275   -1.212089    1.568057
  H      0.896643    0.426626    2.151204
  H      0.144719   -0.606283    3.210129
  H     -0.629518    0.754862    2.675187

FINAL SINGLE POINT ENERGY      -291.313227604286
                    ***********************HURRAY********************
 Multiplicity           Mult            ....    1
 Number of Electrons    NEL             ....   56
 Basis Dimension        Dim             ....  301
FINAL SINGLE POINT ENERGY      -291.313227932881

VIBRATIONAL FREQUENCIES
-----------------------

   0:         0.00 cm**-1
   1:         0.00 cm**-1
   2:         0.00 cm**-1
   3:         0.00 cm**-1
   4:         0.00 cm**-1
   5:         0.00 cm**-1
   6:        39.28 cm**-1
   7:        69.47 cm**-1
   8:       135.78 cm**-1
   9:       180.46 cm**-1
  10:       195.51 cm**-1
  11:       213.85 cm**-1
  12:       240.05 cm**-1
  13:       298.05 cm**-1
  14:       373.40 cm**-1
  15:       413.38 cm**-1
  16:       507.01 cm**-1
  17:       577.07 cm**-1
  18:       742.96 cm**-1
  19:       804.22 cm**-1
  20:       842.07 cm**-1
  21:       885.68 cm**-1
  22:       912.79 cm**-1
  23:       935.68 cm**-1
  24:       991.16 cm**-1
  25:      1045.07 cm**-1
  26:      1055.25 cm**-1
  27:      1076.36 cm**-1
  28:      1095.52 cm**-1
  29:      1115.01 cm**-1
  30:      1155.00 cm**-1
  31:      1243.87 cm**-1
  32:      1289.11 cm**-1
  33:      1325.06 cm**-1
  34:      1339.38 cm**-1
  35:      1376.61 cm**-1
  36:      1404.82 cm**-1
  37:      1413.22 cm**-1
  38:      1421.32 cm**-1
  39:      1465.47 cm**-1
  40:      1472.59 cm**-1
  41:      1475.43 cm**-1
  42:      1488.64 cm**-1
  43:      1491.11 cm**-1
  44:      1493.21 cm**-1
  45:      1497.88 cm**-1
  46:      1649.25 cm**-1
  47:      1663.20 cm**-1
  48:      1740.32 cm**-1
  49:      3017.13 cm**-1
  50:      3043.13 cm**-1
  51:      3058.17 cm**-1
  52:      3080.43 cm**-1
  53:      3085.15 cm**-1
  54:      3093.83 cm**-1
  55:      3132.14 cm**-1
  56:      3146.80 cm**-1
  57:      3150.78 cm**-1
  58:      3156.17 cm**-1
  59:      3177.61 cm**-1
  60:      3422.03 cm**-1
  61:      3508.63 cm**-1
  62:      3513.59 cm**-1

IR SPECTRUM
-----------

 Mode    freq (cm**-1)   T**2         TX         TY         TZ
-------------------------------------------------------------------
   6:        39.28   11.472314  (  2.840405   0.147722  -1.839182)
   7:        69.47    2.745741  ( -1.032370   1.263308   0.289838)
   8:       135.78    0.628381  ( -0.780427   0.036805  -0.134017)
   9:       180.46    0.317455  (  0.382662  -0.226450  -0.346042)
  10:       195.51    0.477920  ( -0.361327   0.414135  -0.419351)
  11:       213.85    0.955437  ( -0.585571   0.236247  -0.746144)
  12:       240.05   14.038352  ( -0.736817   2.410468  -2.772201)
  13:       298.05    0.855324  ( -0.432226  -0.182449  -0.797005)
  14:       373.40    2.367352  ( -0.054674   0.024584  -1.537452)
  15:       413.38    4.050531  (  1.481591   0.518204   1.259716)
  16:       507.01    2.574137  (  0.818375   0.439936  -1.307997)
  17:       577.07   11.164396  ( -1.625618  -0.836990  -2.796643)
  18:       742.96    2.006564  (  0.767161  -0.746068  -0.928121)
  19:       804.22    9.970637  (  1.521752  -0.904714   2.614651)
  20:       842.07   12.428335  (  2.503134  -0.686341  -2.385705)
  21:       885.68   28.701042  (  0.681078   0.160320   5.311447)
  22:       912.79    5.082997  (  1.770240   0.899389   1.067870)
  23:       935.68    5.264638  ( -1.531611   0.278047  -1.685673)
  24:       991.16    8.869528  (  1.856798  -1.898971  -1.347493)
  25:      1045.07    3.816328  (  1.776622  -0.808599  -0.078176)
  26:      1055.25   13.566194  (  1.751131   2.445402  -2.125969)
  27:      1076.36    7.758395  ( -1.344922  -1.230421   2.106096)
  28:      1095.52    4.411308  (  0.898385   1.802502   0.595985)
  29:      1115.01   10.200674  ( -0.265602  -3.084648   0.784269)
  30:      1155.00   14.086072  (  1.078513   0.722527  -3.521482)
  31:      1243.87    4.002928  (  0.593254   0.224824  -1.897480)
  32:      1289.11    0.505868  ( -0.623393   0.017968   0.341946)
  33:      1325.06    2.215281  (  1.368346   0.123990  -0.572309)
  34:      1339.38   17.443301  ( -3.003097   0.659201   2.826688)
  35:      1376.61    3.284362  ( -0.075710  -0.476559   1.746860)
  36:      1404.82   13.589663  ( -0.985310  -0.271410   3.541915)
  37:      1413.22    6.012528  (  0.603366   1.324847   1.973134)
  38:      1421.32    8.718469  ( -1.539786   1.402345  -2.093073)
  39:      1465.47    6.362351  ( -1.608597  -0.134203  -1.938235)
  40:      1472.59   16.123910  (  0.383927   0.375142   3.979419)
  41:      1475.43   33.764043  ( -0.968058   0.370033  -5.717515)
  42:      1488.64   14.599736  ( -2.276741  -2.830850  -1.184263)
  43:      1491.11   36.279055  (  2.904719   4.463689   2.813743)
  44:      1493.21  100.851649  (  3.487806   2.954360   8.941958)
  45:      1497.88   28.617444  ( -0.266837  -5.316102  -0.534136)
  46:      1649.25   40.452309  (  5.858171  -1.832573  -1.666078)
  47:      1663.20   32.267266  (  0.136520   4.189058  -3.834112)
  48:      1740.32   18.223308  (  1.580080  -0.503087  -3.933645)
  49:      3017.13   27.204471  ( -1.250415   2.558284   4.369910)
  50:      3043.13    6.636581  (  0.308163   2.237339  -1.239326)
  51:      3058.17   18.173283  (  3.219090   2.712842  -0.671740)
  52:      3080.43    8.699703  ( -2.205685  -1.435891  -1.331494)
  53:      3085.15    8.158125  (  0.622424  -2.113056   1.818160)
  54:      3093.83   10.251588  ( -0.722101  -1.895614   2.477258)
  55:      3132.14   19.552510  (  1.236637   0.427563   4.223793)
  56:      3146.80    6.708858  ( -1.287351   2.197708   0.470814)
  57:      3150.78    6.065918  (  1.589232  -1.767608   0.644844)
  58:      3156.17    4.415713  (  0.468353  -1.311595   1.573555)
  59:      3177.61    1.787626  (  0.458918  -0.974760   0.791747)
  60:      3422.03   30.477199  (  1.579401   2.089545   4.859680)
  61:      3508.63   87.768604  (  8.453851  -3.920120  -0.966261)
  62:      3513.59   88.548805  ( -1.922597  -7.110939   5.855507)

--------------------------
THERMOCHEMISTRY AT 298.15K
--------------------------

Temperature         ... 298.15 K
Pressure            ... 1.00 atm
Total Mass          ... 100.18 AMU

Throughout the following assumptions are being made:
  (1) The electronic state is orbitally nondegenerate
  (2) There are no thermally accessible electronically excited states
  (3) Hindered rotations indicated by low frequency modes) are not
      treated as such but are treated as vibrations and this may
      case some error
  (4) All equations used are the standard statistical mechanics
      equations for an ideal gas
  (5) All vibrations are strinctly harmonic

------------
INNER ENERGY
------------

The inner energy is: U= E(el) + E(ZPE) + E(vib) + E(rot) + E(trans)
    E(el)   - is the total energy from the electronic structure calculation
              = E(kin-el) + E(nuc-el) + E(el-el) + E(nuc-nuc)
    E(ZPE)  - the the zero temperature vibrational energy from the frequency calculation
    E(vib)  - the the finite temperature correction to E(ZPE) due to population
              of excietd vibrational states
    E(rot)  - is the rotational thermal energy
    E(trans)- is the translational thermal energy

Summary of contributions to the inner energy U:
Electronic energy                ...   -291.31322793 Eh
Zero point energy                ...      0.19759955 Eh     124.00 kcal/mol
Thermal vibrational correction   ...      0.00667810 Eh       4.19 kcal/mol
Thermal rotational correction    ...      0.00141627 Eh       0.89 kcal/mol
Thermal translational correction ...      0.00141627 Eh       0.89 kcal/mol
-----------------------------------------------------------------------
Total thermal energy                   -291.10611775 Eh

Summary of corrections to the electronic energy:
(perhaps to be used in another calculation)
Total thermal correction                  0.00951064 Eh       5.97 kcal/mol
Non-thermal (ZPE) correction              0.19759955 Eh     124.00 kcal/mol
-----------------------------------------------------------------------
Total correction                          0.20711019 Eh     129.96 kcal/mol

--------
ENTHALPY
--------

The enthalpy is H = U + kB*T
                kB is Boltzmann's constant
Total free energy                 ...   -291.10611775 Eh
Thermal Enthalpy correction       ...      0.00094421 Eh       0.59 kcal/mol
-----------------------------------------------------------------------
Total Enthalpy                    ...   -291.10517354 Eh

-------
ENTROPY
-------

The entropy contributions are T*S = T*(S(el)+S(vib)+S(rot)+S(trans)
     S(el)   - electronic entropy
     S(vib)  - vibrational entropy
     S(rot)  - rotational entropy
     S(trans)- translational entropy
The entropies will be listed as mutliplied by the temperature to get
units of energy

Electronic entropy                ...      0.00000000 Eh      0.00 kcal/mol
Vibrational entropy               ...      0.01282637 Eh      8.05 kcal/mol
Rotational entropy                ...      0.01241561 Eh      7.79 kcal/mol
Translational entropy             ...      0.01887386 Eh     11.84 kcal/mol
-----------------------------------------------------------------------
Final entropy term                ...      0.04411584 Eh     27.68 kcal/mol

CAUTION: The rotational entropy is not quite correctly treated here
         because it includes a symmetry number that is not yet correctly
         implemented in ORCA!
For a nonlinear molecule the correct rotational entropy is:
    S(rot) = R*(ln(qrot/sn)+1.5)
    R    = 8.31441 J/mol/K = 1.987191683e-3 kcal/mol/K
    qrot = 343938.1150109
    sn is the rotational symmetry number. We have assumed 3 here
       if it is different for your molecule then you should correct
       the printed rotational entropy by manually evaluating the equation
       as given above

For convenience we print out the resulting values for sn=1 - 12:
 sn= 1  qrot/sn=  343938.1150 T*S(rot)=     8.44 kcal/mol T*S(tot)=    28.33 kcal/mol
 sn= 2  qrot/sn=  171969.0575 T*S(rot)=     8.03 kcal/mol T*S(tot)=    27.92 kcal/mol
 sn= 3  qrot/sn=  114646.0383 T*S(rot)=     7.79 kcal/mol T*S(tot)=    27.68 kcal/mol
 sn= 4  qrot/sn=   85984.5288 T*S(rot)=     7.62 kcal/mol T*S(tot)=    27.51 kcal/mol
 sn= 5  qrot/sn=   68787.6230 T*S(rot)=     7.49 kcal/mol T*S(tot)=    27.38 kcal/mol
 sn= 6  qrot/sn=   57323.0192 T*S(rot)=     7.38 kcal/mol T*S(tot)=    27.27 kcal/mol
 sn= 7  qrot/sn=   49134.0164 T*S(rot)=     7.29 kcal/mol T*S(tot)=    27.18 kcal/mol
 sn= 8  qrot/sn=   42992.2644 T*S(rot)=     7.21 kcal/mol T*S(tot)=    27.10 kcal/mol
 sn= 9  qrot/sn=   38215.3461 T*S(rot)=     7.14 kcal/mol T*S(tot)=    27.03 kcal/mol
 sn=10  qrot/sn=   34393.8115 T*S(rot)=     7.08 kcal/mol T*S(tot)=    26.97 kcal/mol
 sn=11  qrot/sn=   31267.1014 T*S(rot)=     7.02 kcal/mol T*S(tot)=    26.91 kcal/mol
 sn=12  qrot/sn=   28661.5096 T*S(rot)=     6.97 kcal/mol T*S(tot)=    26.86 kcal/mol

-------------------
GIBBS FREE ENTHALPY
-------------------

The Gibbs free enthalpy is G = H - T*S

Total enthalpy                    ...   -291.10517354 Eh
Total entropy correction          ...     -0.04411584 Eh    -27.68 kcal/mol
-----------------------------------------------------------------------
Final Gibbs free enthalpy         ...   -291.14928938 Eh

For completeness - the Gibbs free enthalpy minus the electronic energy
G-E(el)                           ...      0.16393856 Eh    102.87 kcal/mol

                             ****ORCA TERMINATED NORMALLY****
TOTAL RUN TIME: 0 days 0 hours 45 minutes 28 seconds 241 msec
