                         Program Version 3.0.3 - RELEASE   -
|  1> ! NORI PBE0 def2-TZVP UseSym TightOPT Freq TightSCF Grid3 FinalGrid5 XYZFile
|  2> % pal
|  3>     nprocs 8
|  4> end
|  5> %method
|  6>     SymThresh 5.0e-2
|  7> end
|  8> % geom
|  9>     MaxIter 10
| 10> end
| 11> % maxcore 2000
| 12> % output
| 13>     printlevel mini
| 14>     print[ P_Basis ] 0
| 15>     print[ P_SCFInfo ] 1
| 16>     print[ P_SCFIterInfo ] 1
| 17>     print[ P_OrbEn ] 0
| 18>     print[ P_Cartesian ] 0
| 19> end
| 20> % elprop
| 21>     Dipole false
| 22> end
| 23> *xyz 1 1
| 24>  C        2.1493037000     1.3947804974    -0.3343191706
| 25>  C        2.7497298148     0.0662849041     0.1174665896
| 26>  C        3.1223517148    -0.8045262754    -1.0289703008
| 27>  C        4.3374487441    -1.3008548911    -1.2474218853
| 28>  C        4.7077571276    -2.2020523692    -2.3791072743
| 29>  C        3.6047858329    -2.6343298071    -3.3149554637
| 30>  N        5.7690199711    -1.4683587989    -3.2096556337
| 31>  H        1.8487272945     1.9875270862     0.5302419927
| 32>  H        1.2639240368     1.2404663705    -0.9554564161
| 33>  H        2.8696314206     1.9808938401    -0.9095154181
| 34>  H        3.6181294005     0.2330061007     0.7604232885
| 35>  H        2.0080901113    -0.4710378286     0.7209274117
| 36>  H        2.3150656333    -1.0437521408    -1.7198787916
| 37>  H        5.1335742917    -1.0875146068    -0.5345499229
| 38>  H        5.2414214748    -3.0793796369    -1.9994574534
| 39>  H        3.0941579119    -1.7821789789    -3.7691232695
| 40>  H        2.8664063234    -3.2110284208    -2.7577844098
| 41>  H        3.9865227061    -3.2787643065    -4.1105756590
| 42>  H        5.3602038218    -0.6233428298    -3.6149002868
| 43>  H        6.1300032906    -2.0497370238    -3.9690043284
| 44>  H        6.5546653775    -1.1786608842    -2.6247235986
| 45> *
| 46>
| 47>                          ****END OF INPUT****
 Total Charge           Charge          ....    1
 Multiplicity           Mult            ....    1
 Number of Electrons    NEL             ....   56
FINAL SINGLE POINT ENERGY      -291.316796484840
FINAL SINGLE POINT ENERGY      -291.316798401478
FINAL SINGLE POINT ENERGY      -291.316799900963

CARTESIAN COORDINATES (ANGSTROEM)
---------------------------------
  C      1.930538   -0.001376   -2.557137
  C      0.682574    0.752482   -2.106082
  C      0.006850    0.091045   -0.958699
  C     -0.268651    0.673470    0.205581
  C     -0.978207    0.022565    1.346729
  C     -1.485461   -1.384881    1.141021
  N     -0.002505    0.000371    2.531565
  H      2.374784    0.486145   -3.425530
  H      1.694568   -1.030061   -2.839445
  H      2.684147   -0.030885   -1.767277
  H      0.925932    1.787792   -1.853837
  H     -0.029309    0.789357   -2.939431
  H     -0.280988   -0.946904   -1.118766
  H     -0.009650    1.722173    0.348547
  H     -1.791662    0.666230    1.697131
  H     -0.685910   -2.071197    0.852227
  H     -2.232114   -1.385173    0.347296
  H     -1.969611   -1.769323    2.041654
  H      0.799435   -0.590359    2.300301
  H     -0.440574   -0.365243    3.379556
  H      0.353050    0.937080    2.730206

FINAL SINGLE POINT ENERGY      -291.316800112117
                    ***********************HURRAY********************
 Multiplicity           Mult            ....    1
 Number of Electrons    NEL             ....   56
 Basis Dimension        Dim             ....  301
FINAL SINGLE POINT ENERGY      -291.316800157679

VIBRATIONAL FREQUENCIES
-----------------------

   0:         0.00 cm**-1
   1:         0.00 cm**-1
   2:         0.00 cm**-1
   3:         0.00 cm**-1
   4:         0.00 cm**-1
   5:         0.00 cm**-1
   6:        53.94 cm**-1
   7:       114.57 cm**-1
   8:       139.66 cm**-1
   9:       165.18 cm**-1
  10:       220.87 cm**-1
  11:       244.86 cm**-1
  12:       272.39 cm**-1
  13:       329.98 cm**-1
  14:       376.33 cm**-1
  15:       415.77 cm**-1
  16:       439.51 cm**-1
  17:       590.64 cm**-1
  18:       770.56 cm**-1
  19:       776.31 cm**-1
  20:       854.46 cm**-1
  21:       904.12 cm**-1
  22:       926.96 cm**-1
  23:       942.58 cm**-1
  24:       977.05 cm**-1
  25:      1013.01 cm**-1
  26:      1051.29 cm**-1
  27:      1070.36 cm**-1
  28:      1095.47 cm**-1
  29:      1121.12 cm**-1
  30:      1175.71 cm**-1
  31:      1221.39 cm**-1
  32:      1269.08 cm**-1
  33:      1309.09 cm**-1
  34:      1339.36 cm**-1
  35:      1367.05 cm**-1
  36:      1377.41 cm**-1
  37:      1392.59 cm**-1
  38:      1409.24 cm**-1
  39:      1424.11 cm**-1
  40:      1469.52 cm**-1
  41:      1480.71 cm**-1
  42:      1484.07 cm**-1
  43:      1491.36 cm**-1
  44:      1492.71 cm**-1
  45:      1496.39 cm**-1
  46:      1647.58 cm**-1
  47:      1654.67 cm**-1
  48:      1736.06 cm**-1
  49:      3042.13 cm**-1
  50:      3057.52 cm**-1
  51:      3061.25 cm**-1
  52:      3073.24 cm**-1
  53:      3094.89 cm**-1
  54:      3131.88 cm**-1
  55:      3135.79 cm**-1
  56:      3139.24 cm**-1
  57:      3146.45 cm**-1
  58:      3156.11 cm**-1
  59:      3160.87 cm**-1
  60:      3414.96 cm**-1
  61:      3506.74 cm**-1
  62:      3515.52 cm**-1

IR SPECTRUM
-----------

 Mode    freq (cm**-1)   T**2         TX         TY         TZ
-------------------------------------------------------------------
   6:        53.94    6.656595  (  2.000099  -1.037633  -1.256789)
   7:       114.57    2.204707  (  1.309657  -0.055967  -0.697405)
   8:       139.66    5.534844  (  1.590392  -0.018574  -1.733537)
   9:       165.18    0.913691  ( -0.363085  -0.872310   0.144693)
  10:       220.87    0.138557  (  0.005348  -0.296488  -0.224996)
  11:       244.86    0.241643  (  0.081415   0.382384  -0.297989)
  12:       272.39    0.767542  ( -0.562005   0.564798   0.364275)
  13:       329.98    3.903921  (  0.694759   1.761978  -0.562731)
  14:       376.33    2.784185  ( -0.230320   1.652099  -0.041315)
  15:       415.77    1.146876  (  0.449859   0.664264  -0.709405)
  16:       439.51   10.785971  (  1.771567   0.306287   2.748401)
  17:       590.64    2.590473  (  0.555392  -0.125126  -1.505442)
  18:       770.56    7.645067  ( -0.324102  -0.387057  -2.718494)
  19:       776.31    6.696052  (  0.143927  -1.304587  -2.230110)
  20:       854.46   15.950996  (  0.926593  -0.482669   3.854796)
  21:       904.12   17.395326  ( -0.075391  -1.918604   3.702513)
  22:       926.96    2.609160  ( -0.687141   0.132781   1.455805)
  23:       942.58   10.654818  ( -1.228401  -1.632843  -2.545520)
  24:       977.05    8.736269  ( -1.892399  -1.666958   1.541540)
  25:      1013.01   30.286585  (  4.404520  -1.614318   2.877632)
  26:      1051.29   14.455424  (  3.387795  -0.119580  -1.721618)
  27:      1070.36    9.395975  (  0.532048  -0.488194   2.979021)
  28:      1095.47    2.546588  ( -1.268518   0.655889  -0.712223)
  29:      1121.12   14.056874  (  3.529034  -0.163810   1.255372)
  30:      1175.71    3.366188  ( -0.555796  -1.520152   0.863954)
  31:      1221.39    8.922843  (  0.757806   2.436508  -1.553062)
  32:      1269.08    0.043516  (  0.055149  -0.005294  -0.201112)
  33:      1309.09    1.682903  (  0.300584  -0.437169  -1.183822)
  34:      1339.36   13.842399  (  1.171955   0.437824  -3.503888)
  35:      1367.05   20.888710  (  1.071108   0.224416  -4.437463)
  36:      1377.41   43.708163  (  1.888832  -0.569735  -6.309982)
  37:      1392.59    1.098489  (  0.565349   0.422823  -0.774655)
  38:      1409.24    3.210713  (  0.978881  -1.500203  -0.043533)
  39:      1424.11   32.193960  (  3.700108   3.757954   2.093069)
  40:      1469.52    8.441154  (  0.869988  -2.243851  -1.627700)
  41:      1480.71   54.419017  ( -3.010512  -0.319510  -6.727091)
  42:      1484.07  102.943221  (  7.079006  -1.652433   7.078161)
  43:      1491.36   11.640984  ( -2.040295  -1.203641  -2.455490)
  44:      1492.71    5.747278  (  0.128525  -0.089754   2.392217)
  45:      1496.39   11.151922  ( -0.491067  -2.872752   1.630358)
  46:      1647.58   44.845082  ( -1.584968   6.339762   1.463002)
  47:      1654.67   45.841334  (  4.702344   1.126231  -4.739293)
  48:      1736.06   38.115441  ( -1.478363   0.214449   5.990317)
  49:      3042.13    3.350680  (  1.075535  -1.471418   0.169804)
  50:      3057.52   16.672762  (  3.189039  -2.429621  -0.774424)
  51:      3061.25    3.564210  (  0.653573  -0.996227   1.464440)
  52:      3073.24    2.170412  ( -0.767399   0.814485   0.958188)
  53:      3094.89    3.632232  (  0.254728  -1.878949   0.192082)
  54:      3131.88   18.056801  ( -2.407939  -2.540736  -2.409003)
  55:      3135.79    8.394912  (  2.192931   0.542381  -1.814329)
  56:      3139.24    1.970353  ( -0.286823  -1.341376  -0.297988)
  57:      3146.45    8.620348  (  0.175041   1.748848  -2.351859)
  58:      3156.11   10.007896  ( -1.214328  -2.911384   0.239059)
  59:      3160.87    0.944585  (  0.271375   0.913840  -0.189307)
  60:      3414.96   31.623354  ( -3.063709   0.040413  -4.715444)
  61:      3506.74   71.961767  ( -5.735880   3.565620   5.133011)
  62:      3515.52   73.292505  ( -2.947297  -7.993164   0.845742)

--------------------------
THERMOCHEMISTRY AT 298.15K
--------------------------

Temperature         ... 298.15 K
Pressure            ... 1.00 atm
Total Mass          ... 100.18 AMU

Throughout the following assumptions are being made:
  (1) The electronic state is orbitally nondegenerate
  (2) There are no thermally accessible electronically excited states
  (3) Hindered rotations indicated by low frequency modes) are not
      treated as such but are treated as vibrations and this may
      case some error
  (4) All equations used are the standard statistical mechanics
      equations for an ideal gas
  (5) All vibrations are strinctly harmonic

------------
INNER ENERGY
------------

The inner energy is: U= E(el) + E(ZPE) + E(vib) + E(rot) + E(trans)
    E(el)   - is the total energy from the electronic structure calculation
              = E(kin-el) + E(nuc-el) + E(el-el) + E(nuc-nuc)
    E(ZPE)  - the the zero temperature vibrational energy from the frequency calculation
    E(vib)  - the the finite temperature correction to E(ZPE) due to population
              of excietd vibrational states
    E(rot)  - is the rotational thermal energy
    E(trans)- is the translational thermal energy

Summary of contributions to the inner energy U:
Electronic energy                ...   -291.31680016 Eh
Zero point energy                ...      0.19761208 Eh     124.00 kcal/mol
Thermal vibrational correction   ...      0.00645072 Eh       4.05 kcal/mol
Thermal rotational correction    ...      0.00141627 Eh       0.89 kcal/mol
Thermal translational correction ...      0.00141627 Eh       0.89 kcal/mol
-----------------------------------------------------------------------
Total thermal energy                   -291.10990482 Eh

Summary of corrections to the electronic energy:
(perhaps to be used in another calculation)
Total thermal correction                  0.00928327 Eh       5.83 kcal/mol
Non-thermal (ZPE) correction              0.19761208 Eh     124.00 kcal/mol
-----------------------------------------------------------------------
Total correction                          0.20689534 Eh     129.83 kcal/mol

--------
ENTHALPY
--------

The enthalpy is H = U + kB*T
                kB is Boltzmann's constant
Total free energy                 ...   -291.10990482 Eh
Thermal Enthalpy correction       ...      0.00094421 Eh       0.59 kcal/mol
-----------------------------------------------------------------------
Total Enthalpy                    ...   -291.10896061 Eh

-------
ENTROPY
-------

The entropy contributions are T*S = T*(S(el)+S(vib)+S(rot)+S(trans)
     S(el)   - electronic entropy
     S(vib)  - vibrational entropy
     S(rot)  - rotational entropy
     S(trans)- translational entropy
The entropies will be listed as mutliplied by the temperature to get
units of energy

Electronic entropy                ...      0.00000000 Eh      0.00 kcal/mol
Vibrational entropy               ...      0.01177660 Eh      7.39 kcal/mol
Rotational entropy                ...      0.01244028 Eh      7.81 kcal/mol
Translational entropy             ...      0.01887386 Eh     11.84 kcal/mol
-----------------------------------------------------------------------
Final entropy term                ...      0.04309074 Eh     27.04 kcal/mol

CAUTION: The rotational entropy is not quite correctly treated here
         because it includes a symmetry number that is not yet correctly
         implemented in ORCA!
For a nonlinear molecule the correct rotational entropy is:
    S(rot) = R*(ln(qrot/sn)+1.5)
    R    = 8.31441 J/mol/K = 1.987191683e-3 kcal/mol/K
    qrot = 353044.7910497
    sn is the rotational symmetry number. We have assumed 3 here
       if it is different for your molecule then you should correct
       the printed rotational entropy by manually evaluating the equation
       as given above

For convenience we print out the resulting values for sn=1 - 12:
 sn= 1  qrot/sn=  353044.7910 T*S(rot)=     8.46 kcal/mol T*S(tot)=    27.69 kcal/mol
 sn= 2  qrot/sn=  176522.3955 T*S(rot)=     8.05 kcal/mol T*S(tot)=    27.28 kcal/mol
 sn= 3  qrot/sn=  117681.5970 T*S(rot)=     7.81 kcal/mol T*S(tot)=    27.04 kcal/mol
 sn= 4  qrot/sn=   88261.1978 T*S(rot)=     7.64 kcal/mol T*S(tot)=    26.87 kcal/mol
 sn= 5  qrot/sn=   70608.9582 T*S(rot)=     7.50 kcal/mol T*S(tot)=    26.74 kcal/mol
 sn= 6  qrot/sn=   58840.7985 T*S(rot)=     7.40 kcal/mol T*S(tot)=    26.63 kcal/mol
 sn= 7  qrot/sn=   50434.9701 T*S(rot)=     7.30 kcal/mol T*S(tot)=    26.54 kcal/mol
 sn= 8  qrot/sn=   44130.5989 T*S(rot)=     7.23 kcal/mol T*S(tot)=    26.46 kcal/mol
 sn= 9  qrot/sn=   39227.1990 T*S(rot)=     7.16 kcal/mol T*S(tot)=    26.39 kcal/mol
 sn=10  qrot/sn=   35304.4791 T*S(rot)=     7.09 kcal/mol T*S(tot)=    26.33 kcal/mol
 sn=11  qrot/sn=   32094.9810 T*S(rot)=     7.04 kcal/mol T*S(tot)=    26.27 kcal/mol
 sn=12  qrot/sn=   29420.3993 T*S(rot)=     6.99 kcal/mol T*S(tot)=    26.22 kcal/mol

-------------------
GIBBS FREE ENTHALPY
-------------------

The Gibbs free enthalpy is G = H - T*S

Total enthalpy                    ...   -291.10896061 Eh
Total entropy correction          ...     -0.04309074 Eh    -27.04 kcal/mol
-----------------------------------------------------------------------
Final Gibbs free enthalpy         ...   -291.15205135 Eh

For completeness - the Gibbs free enthalpy minus the electronic energy
G-E(el)                           ...      0.16474881 Eh    103.38 kcal/mol

                             ****ORCA TERMINATED NORMALLY****
TOTAL RUN TIME: 0 days 0 hours 44 minutes 22 seconds 797 msec
