                         Program Version 3.0.3 - RELEASE   -
|  1> ! NORI PBE0 def2-TZVP UseSym TightOPT Freq TightSCF Grid3 FinalGrid5 XYZFile
|  2> % pal
|  3>     nprocs 8
|  4> end
|  5> %method
|  6>     SymThresh 5.0e-2
|  7> end
|  8> % geom
|  9>     MaxIter 10
| 10> end
| 11> % maxcore 2000
| 12> % output
| 13>     printlevel mini
| 14>     print[ P_Basis ] 0
| 15>     print[ P_SCFInfo ] 1
| 16>     print[ P_SCFIterInfo ] 1
| 17>     print[ P_OrbEn ] 0
| 18>     print[ P_Cartesian ] 0
| 19> end
| 20> % elprop
| 21>     Dipole false
| 22> end
| 23> *xyz 1 1
| 24>  C        2.2821730119     1.3101825588     1.0699688836
| 25>  C        2.2300245985     0.1232207282     0.1112577074
| 26>  C        2.6876332234    -1.1634636202     0.7373291001
| 27>  C        1.8525535424    -2.1376922462     1.0803335694
| 28>  C        4.1701146155    -1.3201533421     0.9836197012
| 29>  C        4.8643028458    -1.7540941222    -0.2920002445
| 30>  N        6.3593924632    -1.8361019609    -0.0864131490
| 31>  H        1.9346462715     2.2175426934     0.5734552959
| 32>  H        3.2938974081     1.5085205223     1.4332424837
| 33>  H        1.6447647634     1.1345968664     1.9380128133
| 34>  H        1.2076195418    -0.0088231213    -0.2480981677
| 35>  H        2.8334257527     0.3526595736    -0.7767306444
| 36>  H        0.7873992637    -2.0556446516     0.8957044668
| 37>  H        2.1933773035    -3.0443444391     1.5690148920
| 38>  H        4.5953760653    -0.3706638013     1.3306193915
| 39>  H        4.3404079842    -2.0653138252     1.7668562085
| 40>  H        4.5400732056    -2.7448392162    -0.6104962535
| 41>  H        4.7067272656    -1.0533256388    -1.1122579763
| 42>  H        6.5860339845    -2.4954954672     0.6613550384
| 43>  H        6.7402574267    -0.9269175675     0.1841949448
| 44>  H        6.8452694627    -2.1415199230    -0.9320280609
| 45> *
| 46>
| 47>                          ****END OF INPUT****
 Total Charge           Charge          ....    1
 Multiplicity           Mult            ....    1
 Number of Electrons    NEL             ....   56
FINAL SINGLE POINT ENERGY      -291.306545851559
FINAL SINGLE POINT ENERGY      -291.306547124954

CARTESIAN COORDINATES (ANGSTROEM)
---------------------------------
  C      1.793001    0.000744   -1.994737
  C      0.560706   -0.758613   -1.509273
  C     -0.446420    0.123595   -0.827764
  C     -1.594608    0.480396   -1.391921
  C     -0.099019    0.620099    0.556113
  C     -0.416526   -0.447290    1.584490
  N      0.001605   -0.000384    2.966443
  H      2.491666   -0.679214   -2.484804
  H      2.333080    0.485436   -1.176853
  H      1.512812    0.773480   -2.712697
  H      0.078093   -1.248801   -2.357341
  H      0.879020   -1.565551   -0.836138
  H     -1.871837    0.121622   -2.376409
  H     -2.292988    1.152772   -0.904458
  H      0.966457    0.875908    0.605845
  H     -0.668575    1.527493    0.779480
  H     -1.485904   -0.652933    1.635099
  H      0.111672   -1.381546    1.392431
  H     -0.472432    0.867907    3.224747
  H      1.007154    0.180194    3.001995
  H     -0.217517   -0.700981    3.677472

FINAL SINGLE POINT ENERGY      -291.306547433258
                    ***********************HURRAY********************
 Multiplicity           Mult            ....    1
 Number of Electrons    NEL             ....   56
 Basis Dimension        Dim             ....  301
FINAL SINGLE POINT ENERGY      -291.306547538993

VIBRATIONAL FREQUENCIES
-----------------------

   0:         0.00 cm**-1
   1:         0.00 cm**-1
   2:         0.00 cm**-1
   3:         0.00 cm**-1
   4:         0.00 cm**-1
   5:         0.00 cm**-1
   6:        43.19 cm**-1
   7:        82.32 cm**-1
   8:        94.78 cm**-1
   9:       167.45 cm**-1
  10:       216.47 cm**-1
  11:       224.59 cm**-1
  12:       259.90 cm**-1
  13:       322.34 cm**-1
  14:       411.70 cm**-1
  15:       453.98 cm**-1
  16:       625.44 cm**-1
  17:       732.03 cm**-1
  18:       769.03 cm**-1
  19:       792.73 cm**-1
  20:       815.68 cm**-1
  21:       892.50 cm**-1
  22:       914.12 cm**-1
  23:       944.50 cm**-1
  24:       973.20 cm**-1
  25:       994.97 cm**-1
  26:      1022.41 cm**-1
  27:      1057.33 cm**-1
  28:      1090.13 cm**-1
  29:      1123.50 cm**-1
  30:      1141.13 cm**-1
  31:      1258.00 cm**-1
  32:      1286.67 cm**-1
  33:      1306.61 cm**-1
  34:      1335.00 cm**-1
  35:      1346.35 cm**-1
  36:      1357.08 cm**-1
  37:      1401.03 cm**-1
  38:      1409.39 cm**-1
  39:      1451.28 cm**-1
  40:      1470.54 cm**-1
  41:      1481.77 cm**-1
  42:      1492.08 cm**-1
  43:      1497.03 cm**-1
  44:      1499.96 cm**-1
  45:      1504.34 cm**-1
  46:      1657.04 cm**-1
  47:      1663.68 cm**-1
  48:      1731.27 cm**-1
  49:      3022.98 cm**-1
  50:      3035.98 cm**-1
  51:      3054.20 cm**-1
  52:      3089.72 cm**-1
  53:      3102.56 cm**-1
  54:      3105.97 cm**-1
  55:      3128.51 cm**-1
  56:      3144.65 cm**-1
  57:      3157.09 cm**-1
  58:      3167.48 cm**-1
  59:      3245.32 cm**-1
  60:      3421.88 cm**-1
  61:      3503.61 cm**-1
  62:      3509.64 cm**-1

IR SPECTRUM
-----------

 Mode    freq (cm**-1)   T**2         TX         TY         TZ
-------------------------------------------------------------------
   6:        43.19    2.478494  ( -1.361888  -0.124077   0.779974)
   7:        82.32    5.871850  (  2.045073  -0.781810  -1.038412)
   8:        94.78    1.675992  (  1.049773  -0.755718  -0.053476)
   9:       167.45    5.315290  ( -0.997108  -2.048133  -0.355270)
  10:       216.47    0.342860  ( -0.022597  -0.119152   0.572846)
  11:       224.59    0.302867  ( -0.184744  -0.386682   0.345273)
  12:       259.90    1.809079  (  0.205215   0.106929  -1.324965)
  13:       322.34   11.177628  ( -0.184882  -0.661414   3.271999)
  14:       411.70    1.979647  (  0.112479   0.220222  -1.385099)
  15:       453.98    0.708981  (  0.757588  -0.329820   0.162051)
  16:       625.44   13.064956  ( -1.521348  -2.227813   2.405682)
  17:       732.03    0.679935  ( -0.188645  -0.347287   0.723699)
  18:       769.03    3.632135  (  1.529463  -0.776636  -0.830491)
  19:       792.73    1.991945  ( -1.067995  -0.607716  -0.694271)
  20:       815.68    6.709927  ( -1.864025   1.605252  -0.811481)
  21:       892.50   34.647656  (  0.525471   2.556706  -5.275869)
  22:       914.12    5.679356  ( -2.104453   0.250475   1.089906)
  23:       944.50    0.685173  ( -0.616596  -0.166826  -0.526451)
  24:       973.20   33.423433  (  2.985212   4.411227  -2.247892)
  25:       994.97    9.597578  (  1.105028   2.443323   1.551343)
  26:      1022.41    0.651128  (  0.121119   0.335856  -0.723643)
  27:      1057.33    1.087636  (  0.334072  -0.606614   0.779776)
  28:      1090.13    7.771353  ( -1.300097   2.366983  -0.691732)
  29:      1123.50    5.782382  (  2.234316  -0.855304  -0.242218)
  30:      1141.13   13.888274  (  0.793247   1.945443  -3.078033)
  31:      1258.00    2.965631  (  0.929654   0.181252  -1.438236)
  32:      1286.67    0.070202  ( -0.149220  -0.215451   0.038942)
  33:      1306.61    0.954279  (  0.213708   0.742937  -0.597204)
  34:      1335.00    2.569888  ( -0.093273   0.873192   1.341165)
  35:      1346.35    7.434437  (  2.001828  -1.142451  -1.456683)
  36:      1357.08    0.770613  (  0.039231  -0.806451  -0.344545)
  37:      1401.03   11.286026  (  0.135337   0.029493   3.356611)
  38:      1409.39    3.801369  (  1.336476   1.419481   0.016515)
  39:      1451.28    4.801033  ( -1.509281   1.488961  -0.553261)
  40:      1470.54    2.832373  ( -0.666242  -1.350805  -0.750879)
  41:      1481.77    8.684142  ( -2.744865   0.401102  -0.994474)
  42:      1492.08    7.456089  (  0.665716  -1.302003   2.306014)
  43:      1497.03   11.917784  (  0.032402  -0.096652   3.450709)
  44:      1499.96   15.227254  ( -0.281473  -3.304446   2.056371)
  45:      1504.34  157.225780  ( -3.376018  -4.440560 -11.229858)
  46:      1657.04   50.877661  ( -6.250078   3.336346   0.826425)
  47:      1663.68   37.480505  ( -2.431904  -4.875326   2.792409)
  48:      1731.27   12.334541  (  3.325118  -0.944268   0.621681)
  49:      3022.98   28.465388  (  0.373734  -4.658053   2.574540)
  50:      3035.98   15.990962  (  1.857650   1.326945   3.283187)
  51:      3054.20   19.320860  ( -3.628373  -2.259959  -1.023891)
  52:      3089.72    6.968408  (  2.127707  -1.245173  -0.943830)
  53:      3102.56    1.210510  ( -0.943706  -0.496933  -0.270160)
  54:      3105.97    1.868532  ( -0.072718  -1.264213   0.514791)
  55:      3128.51   28.733063  (  0.962393   1.523339   5.048396)
  56:      3144.65   10.254059  ( -1.938818   2.433279  -0.757758)
  57:      3157.09    1.711750  ( -0.948364   0.750726   0.498765)
  58:      3167.48    0.673525  ( -0.635756   0.513538  -0.074957)
  59:      3245.32    3.215806  ( -0.874819   1.031905   1.177145)
  60:      3421.88   49.314878  (  1.487137   1.257247   6.747046)
  61:      3503.61   87.837414  (  7.833401  -5.102884  -0.660168)
  62:      3509.64   98.537647  ( -4.423430  -7.738054   4.369602)

--------------------------
THERMOCHEMISTRY AT 298.15K
--------------------------

Temperature         ... 298.15 K
Pressure            ... 1.00 atm
Total Mass          ... 100.18 AMU

Throughout the following assumptions are being made:
  (1) The electronic state is orbitally nondegenerate
  (2) There are no thermally accessible electronically excited states
  (3) Hindered rotations indicated by low frequency modes) are not
      treated as such but are treated as vibrations and this may
      case some error
  (4) All equations used are the standard statistical mechanics
      equations for an ideal gas
  (5) All vibrations are strinctly harmonic

------------
INNER ENERGY
------------

The inner energy is: U= E(el) + E(ZPE) + E(vib) + E(rot) + E(trans)
    E(el)   - is the total energy from the electronic structure calculation
              = E(kin-el) + E(nuc-el) + E(el-el) + E(nuc-nuc)
    E(ZPE)  - the the zero temperature vibrational energy from the frequency calculation
    E(vib)  - the the finite temperature correction to E(ZPE) due to population
              of excietd vibrational states
    E(rot)  - is the rotational thermal energy
    E(trans)- is the translational thermal energy

Summary of contributions to the inner energy U:
Electronic energy                ...   -291.30654754 Eh
Zero point energy                ...      0.19820996 Eh     124.38 kcal/mol
Thermal vibrational correction   ...      0.00643465 Eh       4.04 kcal/mol
Thermal rotational correction    ...      0.00141627 Eh       0.89 kcal/mol
Thermal translational correction ...      0.00141627 Eh       0.89 kcal/mol
-----------------------------------------------------------------------
Total thermal energy                   -291.09907039 Eh

Summary of corrections to the electronic energy:
(perhaps to be used in another calculation)
Total thermal correction                  0.00926719 Eh       5.82 kcal/mol
Non-thermal (ZPE) correction              0.19820996 Eh     124.38 kcal/mol
-----------------------------------------------------------------------
Total correction                          0.20747715 Eh     130.19 kcal/mol

--------
ENTHALPY
--------

The enthalpy is H = U + kB*T
                kB is Boltzmann's constant
Total free energy                 ...   -291.09907039 Eh
Thermal Enthalpy correction       ...      0.00094421 Eh       0.59 kcal/mol
-----------------------------------------------------------------------
Total Enthalpy                    ...   -291.09812618 Eh

-------
ENTROPY
-------

The entropy contributions are T*S = T*(S(el)+S(vib)+S(rot)+S(trans)
     S(el)   - electronic entropy
     S(vib)  - vibrational entropy
     S(rot)  - rotational entropy
     S(trans)- translational entropy
The entropies will be listed as mutliplied by the temperature to get
units of energy

Electronic entropy                ...      0.00000000 Eh      0.00 kcal/mol
Vibrational entropy               ...      0.01239247 Eh      7.78 kcal/mol
Rotational entropy                ...      0.01242722 Eh      7.80 kcal/mol
Translational entropy             ...      0.01887386 Eh     11.84 kcal/mol
-----------------------------------------------------------------------
Final entropy term                ...      0.04369355 Eh     27.42 kcal/mol

CAUTION: The rotational entropy is not quite correctly treated here
         because it includes a symmetry number that is not yet correctly
         implemented in ORCA!
For a nonlinear molecule the correct rotational entropy is:
    S(rot) = R*(ln(qrot/sn)+1.5)
    R    = 8.31441 J/mol/K = 1.987191683e-3 kcal/mol/K
    qrot = 348194.5918488
    sn is the rotational symmetry number. We have assumed 3 here
       if it is different for your molecule then you should correct
       the printed rotational entropy by manually evaluating the equation
       as given above

For convenience we print out the resulting values for sn=1 - 12:
 sn= 1  qrot/sn=  348194.5918 T*S(rot)=     8.45 kcal/mol T*S(tot)=    28.07 kcal/mol
 sn= 2  qrot/sn=  174097.2959 T*S(rot)=     8.04 kcal/mol T*S(tot)=    27.66 kcal/mol
 sn= 3  qrot/sn=  116064.8639 T*S(rot)=     7.80 kcal/mol T*S(tot)=    27.42 kcal/mol
 sn= 4  qrot/sn=   87048.6480 T*S(rot)=     7.63 kcal/mol T*S(tot)=    27.25 kcal/mol
 sn= 5  qrot/sn=   69638.9184 T*S(rot)=     7.50 kcal/mol T*S(tot)=    27.12 kcal/mol
 sn= 6  qrot/sn=   58032.4320 T*S(rot)=     7.39 kcal/mol T*S(tot)=    27.01 kcal/mol
 sn= 7  qrot/sn=   49742.0845 T*S(rot)=     7.30 kcal/mol T*S(tot)=    26.92 kcal/mol
 sn= 8  qrot/sn=   43524.3240 T*S(rot)=     7.22 kcal/mol T*S(tot)=    26.84 kcal/mol
 sn= 9  qrot/sn=   38688.2880 T*S(rot)=     7.15 kcal/mol T*S(tot)=    26.77 kcal/mol
 sn=10  qrot/sn=   34819.4592 T*S(rot)=     7.08 kcal/mol T*S(tot)=    26.70 kcal/mol
 sn=11  qrot/sn=   31654.0538 T*S(rot)=     7.03 kcal/mol T*S(tot)=    26.65 kcal/mol
 sn=12  qrot/sn=   29016.2160 T*S(rot)=     6.98 kcal/mol T*S(tot)=    26.60 kcal/mol

-------------------
GIBBS FREE ENTHALPY
-------------------

The Gibbs free enthalpy is G = H - T*S

Total enthalpy                    ...   -291.09812618 Eh
Total entropy correction          ...     -0.04369355 Eh    -27.42 kcal/mol
-----------------------------------------------------------------------
Final Gibbs free enthalpy         ...   -291.14181973 Eh

For completeness - the Gibbs free enthalpy minus the electronic energy
G-E(el)                           ...      0.16472781 Eh    103.37 kcal/mol

                             ****ORCA TERMINATED NORMALLY****
TOTAL RUN TIME: 0 days 0 hours 45 minutes 54 seconds 148 msec
