                         Program Version 3.0.3 - RELEASE   -
|  1> ! NORI PBE0 def2-TZVP UseSym TightOPT Freq TightSCF Grid3 FinalGrid5 XYZFile
|  2> % pal
|  3>     nprocs 8
|  4> end
|  5> %method
|  6>     SymThresh 5.0e-2
|  7> end
|  8> % geom
|  9>     MaxIter 10
| 10> end
| 11> % maxcore 2000
| 12> % output
| 13>     printlevel mini
| 14>     print[ P_Basis ] 0
| 15>     print[ P_SCFInfo ] 1
| 16>     print[ P_SCFIterInfo ] 1
| 17>     print[ P_OrbEn ] 0
| 18>     print[ P_Cartesian ] 0
| 19> end
| 20> % elprop
| 21>     Dipole false
| 22> end
| 23> *xyz 1 1
| 24>  C        0.7693084284    -0.2364205604    -0.6718224653
| 25>  C        2.2306814578    -0.4868371879    -0.3552498326
| 26>  C        3.0243842241     0.7134323697     0.0870119661
| 27>  C        2.5088381884     1.9248390478     0.2624577359
| 28>  C        4.4845717839     0.4425271667     0.3582639869
| 29>  C        5.2573760436     1.4576560931     1.1656879926
| 30>  N        5.1748311250     0.2998341020    -1.0000389109
| 31>  H        0.2881387796    -1.1649039028    -0.9801218275
| 32>  H        0.6474066651     0.4860931019    -1.4819190070
| 33>  H        0.2340331720     0.1368616349     0.2031911032
| 34>  H        2.7030647992    -0.9509194346    -1.2361767055
| 35>  H        2.3100964986    -1.2479090518     0.4324358335
| 36>  H        1.4620212485     2.1207160096     0.0690671361
| 37>  H        3.0928694044     2.7620184250     0.6235159601
| 38>  H        4.5872709374    -0.5495701861     0.8092033528
| 39>  H        5.2702970001     2.4420070810     0.6925087684
| 40>  H        6.2892476225     1.1351362235     1.3236863363
| 41>  H        4.7940617781     1.5627334945     2.1461808224
| 42>  H        5.1407670891     1.1938502049    -1.4948900582
| 43>  H        4.6963160747    -0.3939611887    -1.5774274673
| 44>  H        6.1531576795     0.0214565575    -0.9031047203
| 45> *
| 46>
| 47>                          ****END OF INPUT****
 Total Charge           Charge          ....    1
 Multiplicity           Mult            ....    1
 Number of Electrons    NEL             ....   56
FINAL SINGLE POINT ENERGY      -291.313112248359
FINAL SINGLE POINT ENERGY      -291.313113724672
FINAL SINGLE POINT ENERGY      -291.313114867742

CARTESIAN COORDINATES (ANGSTROEM)
---------------------------------
  C      2.082760    0.002614   -1.895911
  C      1.305698   -0.577772   -0.730640
  C     -0.001410    0.097168   -0.408889
  C     -0.513197    1.103345   -1.108747
  C     -0.735523   -0.477731    0.778773
  C     -2.196025   -0.132589    0.945519
  N      0.001102   -0.008001    2.034841
  H      3.008312   -0.554049   -2.044473
  H      2.346684    1.048317   -1.726010
  H      1.509590   -0.059557   -2.822906
  H      1.960241   -0.579592    0.156243
  H      1.095863   -1.638580   -0.920075
  H      0.010557    1.514750   -1.961947
  H     -1.475951    1.543872   -0.881323
  H     -0.604505   -1.564167    0.789913
  H     -2.359585    0.943183    1.039939
  H     -2.621551   -0.626165    1.822615
  H     -2.749157   -0.480550    0.073489
  H     -0.080294    1.007839    2.118166
  H      0.995357   -0.236693    1.979402
  H     -0.382185   -0.432434    2.881536

FINAL SINGLE POINT ENERGY      -291.313115402540
                    ***********************HURRAY********************
 Multiplicity           Mult            ....    1
 Number of Electrons    NEL             ....   56
 Basis Dimension        Dim             ....  301
FINAL SINGLE POINT ENERGY      -291.313115861641

VIBRATIONAL FREQUENCIES
-----------------------

   0:         0.00 cm**-1
   1:         0.00 cm**-1
   2:         0.00 cm**-1
   3:         0.00 cm**-1
   4:         0.00 cm**-1
   5:         0.00 cm**-1
   6:        42.09 cm**-1
   7:        78.30 cm**-1
   8:       200.06 cm**-1
   9:       222.84 cm**-1
  10:       255.00 cm**-1
  11:       271.46 cm**-1
  12:       285.23 cm**-1
  13:       338.96 cm**-1
  14:       350.41 cm**-1
  15:       448.49 cm**-1
  16:       506.96 cm**-1
  17:       550.61 cm**-1
  18:       714.81 cm**-1
  19:       771.72 cm**-1
  20:       809.54 cm**-1
  21:       828.13 cm**-1
  22:       913.76 cm**-1
  23:       935.13 cm**-1
  24:       965.81 cm**-1
  25:       997.99 cm**-1
  26:      1035.78 cm**-1
  27:      1064.07 cm**-1
  28:      1096.79 cm**-1
  29:      1106.64 cm**-1
  30:      1136.63 cm**-1
  31:      1185.08 cm**-1
  32:      1237.56 cm**-1
  33:      1298.84 cm**-1
  34:      1373.24 cm**-1
  35:      1383.47 cm**-1
  36:      1400.24 cm**-1
  37:      1412.32 cm**-1
  38:      1419.50 cm**-1
  39:      1444.71 cm**-1
  40:      1458.68 cm**-1
  41:      1479.82 cm**-1
  42:      1485.03 cm**-1
  43:      1492.31 cm**-1
  44:      1493.04 cm**-1
  45:      1502.27 cm**-1
  46:      1645.33 cm**-1
  47:      1655.80 cm**-1
  48:      1731.86 cm**-1
  49:      2975.93 cm**-1
  50:      3039.68 cm**-1
  51:      3062.03 cm**-1
  52:      3064.47 cm**-1
  53:      3078.98 cm**-1
  54:      3135.39 cm**-1
  55:      3139.21 cm**-1
  56:      3150.00 cm**-1
  57:      3162.84 cm**-1
  58:      3184.00 cm**-1
  59:      3268.07 cm**-1
  60:      3416.08 cm**-1
  61:      3504.58 cm**-1
  62:      3511.71 cm**-1

IR SPECTRUM
-----------

 Mode    freq (cm**-1)   T**2         TX         TY         TZ
-------------------------------------------------------------------
   6:        42.09    3.560421  (  0.351095  -1.836035  -0.257160)
   7:        78.30    1.794040  (  0.920260  -0.047024  -0.972085)
   8:       200.06    2.086310  (  0.518627  -0.464910  -1.265383)
   9:       222.84    5.772569  ( -1.387654  -0.369545   1.926246)
  10:       255.00    3.275766  ( -0.729307  -0.856890   1.417609)
  11:       271.46    0.505435  ( -0.136386   0.695691   0.053370)
  12:       285.23    5.587723  (  0.795187   1.102452  -1.933908)
  13:       338.96    5.263333  ( -2.120436   0.577307   0.658635)
  14:       350.41    0.316588  ( -0.423131  -0.339532   0.149219)
  15:       448.49    2.163126  ( -1.364017   0.548086   0.046741)
  16:       506.96    9.652029  (  1.246645   1.413854   2.469600)
  17:       550.61    6.572685  ( -0.732562  -0.986852  -2.249925)
  18:       714.81    0.460727  (  0.556760  -0.387943  -0.015670)
  19:       771.72    6.154469  ( -0.825505   1.391324  -1.880752)
  20:       809.54    0.264712  (  0.175986   0.382305   0.295946)
  21:       828.13    3.794527  (  1.242486   0.233620   1.481951)
  22:       913.76    6.885183  ( -0.473696  -0.513092   2.529334)
  23:       935.13   10.635483  (  3.160105  -0.805709   0.007144)
  24:       965.81    9.897893  ( -1.214193  -0.444094   2.868172)
  25:       997.99   35.150295  ( -2.487277  -4.199056  -3.366255)
  26:      1035.78    1.843891  (  1.192254  -0.251036  -0.599502)
  27:      1064.07    5.427596  ( -1.070594  -0.470146  -2.015041)
  28:      1096.79    3.467389  ( -1.029090  -1.283286   0.872663)
  29:      1106.64   12.178341  ( -0.784826  -0.887174  -3.282577)
  30:      1136.63   22.596339  ( -3.421518  -2.863235   1.640561)
  31:      1185.08   22.319838  ( -3.313438   0.897563   3.245820)
  32:      1237.56    2.778495  ( -0.340547  -0.632243   1.504258)
  33:      1298.84    2.333735  (  0.579691   1.404929   0.154493)
  34:      1373.24    7.671095  ( -0.736717   1.429049  -2.255252)
  35:      1383.47   19.884061  ( -1.280233   2.107015  -3.715582)
  36:      1400.24    6.321471  ( -0.419355   0.772022  -2.355758)
  37:      1412.32    2.027086  ( -1.258707  -0.316996   0.585026)
  38:      1419.50   21.364289  (  4.498180   0.641789   0.847803)
  39:      1444.71   15.710094  (  2.295805  -1.347099   2.936783)
  40:      1458.68   19.085846  ( -1.436671   3.092434  -2.731057)
  41:      1479.82  145.756844  ( -4.140977  -2.961305 -10.947138)
  42:      1485.03   22.490971  (  1.061375   4.075244   2.181018)
  43:      1492.31   22.156960  ( -2.567584  -2.417497  -3.117720)
  44:      1493.04    8.231568  ( -1.061283   1.460718   2.229697)
  45:      1502.27    3.139898  ( -1.742087  -0.070951  -0.316223)
  46:      1645.33   43.350982  ( -4.448871   4.853639   0.026753)
  47:      1655.80   39.843320  (  2.645814   4.148427  -3.953927)
  48:      1731.86    4.109154  ( -1.247370   1.507612   0.529459)
  49:      2975.93   49.210154  ( -1.580486   1.369668  -6.695986)
  50:      3039.68    5.445833  (  1.172600   1.990260   0.331222)
  51:      3062.03    3.919217  ( -0.205427   0.531862   1.895822)
  52:      3064.47    6.839498  ( -1.204537  -1.543579   1.733768)
  53:      3078.98    2.876580  (  0.708294  -1.514648   0.284151)
  54:      3135.39    6.495543  (  0.853837   1.987065  -1.348361)
  55:      3139.21   10.464527  (  1.452552   2.174567   1.904174)
  56:      3150.00    6.880800  (  2.063625  -1.612070   0.153235)
  57:      3162.84    0.966516  (  0.904330  -0.321567  -0.212831)
  58:      3184.00    0.770841  (  0.653251   0.068606  -0.582578)
  59:      3268.07    0.309435  ( -0.458319   0.309196  -0.061456)
  60:      3416.08   26.303073  (  2.766237   1.401418   4.084976)
  61:      3504.58   74.962479  ( -5.000039   6.944082   1.319779)
  62:      3511.71   85.010675  ( -5.818124  -4.038937   5.903143)

--------------------------
THERMOCHEMISTRY AT 298.15K
--------------------------

Temperature         ... 298.15 K
Pressure            ... 1.00 atm
Total Mass          ... 100.18 AMU

Throughout the following assumptions are being made:
  (1) The electronic state is orbitally nondegenerate
  (2) There are no thermally accessible electronically excited states
  (3) Hindered rotations indicated by low frequency modes) are not
      treated as such but are treated as vibrations and this may
      case some error
  (4) All equations used are the standard statistical mechanics
      equations for an ideal gas
  (5) All vibrations are strinctly harmonic

------------
INNER ENERGY
------------

The inner energy is: U= E(el) + E(ZPE) + E(vib) + E(rot) + E(trans)
    E(el)   - is the total energy from the electronic structure calculation
              = E(kin-el) + E(nuc-el) + E(el-el) + E(nuc-nuc)
    E(ZPE)  - the the zero temperature vibrational energy from the frequency calculation
    E(vib)  - the the finite temperature correction to E(ZPE) due to population
              of excietd vibrational states
    E(rot)  - is the rotational thermal energy
    E(trans)- is the translational thermal energy

Summary of contributions to the inner energy U:
Electronic energy                ...   -291.31311586 Eh
Zero point energy                ...      0.19756110 Eh     123.97 kcal/mol
Thermal vibrational correction   ...      0.00627422 Eh       3.94 kcal/mol
Thermal rotational correction    ...      0.00141627 Eh       0.89 kcal/mol
Thermal translational correction ...      0.00141627 Eh       0.89 kcal/mol
-----------------------------------------------------------------------
Total thermal energy                   -291.10644800 Eh

Summary of corrections to the electronic energy:
(perhaps to be used in another calculation)
Total thermal correction                  0.00910676 Eh       5.71 kcal/mol
Non-thermal (ZPE) correction              0.19756110 Eh     123.97 kcal/mol
-----------------------------------------------------------------------
Total correction                          0.20666786 Eh     129.69 kcal/mol

--------
ENTHALPY
--------

The enthalpy is H = U + kB*T
                kB is Boltzmann's constant
Total free energy                 ...   -291.10644800 Eh
Thermal Enthalpy correction       ...      0.00094421 Eh       0.59 kcal/mol
-----------------------------------------------------------------------
Total Enthalpy                    ...   -291.10550379 Eh

-------
ENTROPY
-------

The entropy contributions are T*S = T*(S(el)+S(vib)+S(rot)+S(trans)
     S(el)   - electronic entropy
     S(vib)  - vibrational entropy
     S(rot)  - rotational entropy
     S(trans)- translational entropy
The entropies will be listed as mutliplied by the temperature to get
units of energy

Electronic entropy                ...      0.00000000 Eh      0.00 kcal/mol
Vibrational entropy               ...      0.01154918 Eh      7.25 kcal/mol
Rotational entropy                ...      0.01224332 Eh      7.68 kcal/mol
Translational entropy             ...      0.01887386 Eh     11.84 kcal/mol
-----------------------------------------------------------------------
Final entropy term                ...      0.04266636 Eh     26.77 kcal/mol

CAUTION: The rotational entropy is not quite correctly treated here
         because it includes a symmetry number that is not yet correctly
         implemented in ORCA!
For a nonlinear molecule the correct rotational entropy is:
    S(rot) = R*(ln(qrot/sn)+1.5)
    R    = 8.31441 J/mol/K = 1.987191683e-3 kcal/mol/K
    qrot = 286572.0487326
    sn is the rotational symmetry number. We have assumed 3 here
       if it is different for your molecule then you should correct
       the printed rotational entropy by manually evaluating the equation
       as given above

For convenience we print out the resulting values for sn=1 - 12:
 sn= 1  qrot/sn=  286572.0487 T*S(rot)=     8.33 kcal/mol T*S(tot)=    27.42 kcal/mol
 sn= 2  qrot/sn=  143286.0244 T*S(rot)=     7.92 kcal/mol T*S(tot)=    27.01 kcal/mol
 sn= 3  qrot/sn=   95524.0162 T*S(rot)=     7.68 kcal/mol T*S(tot)=    26.77 kcal/mol
 sn= 4  qrot/sn=   71643.0122 T*S(rot)=     7.51 kcal/mol T*S(tot)=    26.60 kcal/mol
 sn= 5  qrot/sn=   57314.4097 T*S(rot)=     7.38 kcal/mol T*S(tot)=    26.47 kcal/mol
 sn= 6  qrot/sn=   47762.0081 T*S(rot)=     7.27 kcal/mol T*S(tot)=    26.36 kcal/mol
 sn= 7  qrot/sn=   40938.8641 T*S(rot)=     7.18 kcal/mol T*S(tot)=    26.27 kcal/mol
 sn= 8  qrot/sn=   35821.5061 T*S(rot)=     7.10 kcal/mol T*S(tot)=    26.19 kcal/mol
 sn= 9  qrot/sn=   31841.3387 T*S(rot)=     7.03 kcal/mol T*S(tot)=    26.12 kcal/mol
 sn=10  qrot/sn=   28657.2049 T*S(rot)=     6.97 kcal/mol T*S(tot)=    26.06 kcal/mol
 sn=11  qrot/sn=   26052.0044 T*S(rot)=     6.91 kcal/mol T*S(tot)=    26.00 kcal/mol
 sn=12  qrot/sn=   23881.0041 T*S(rot)=     6.86 kcal/mol T*S(tot)=    25.95 kcal/mol

-------------------
GIBBS FREE ENTHALPY
-------------------

The Gibbs free enthalpy is G = H - T*S

Total enthalpy                    ...   -291.10550379 Eh
Total entropy correction          ...     -0.04266636 Eh    -26.77 kcal/mol
-----------------------------------------------------------------------
Final Gibbs free enthalpy         ...   -291.14817014 Eh

For completeness - the Gibbs free enthalpy minus the electronic energy
G-E(el)                           ...      0.16494572 Eh    103.50 kcal/mol

                             ****ORCA TERMINATED NORMALLY****
TOTAL RUN TIME: 0 days 0 hours 50 minutes 13 seconds 792 msec
