                         Program Version 3.0.3 - RELEASE   -
|  1> ! NORI PBE0 def2-TZVP UseSym TightOPT Freq TightSCF Grid3 FinalGrid5 XYZFile
|  2> % pal
|  3>     nprocs 8
|  4> end
|  5> %method
|  6>     SymThresh 5.0e-2
|  7> end
|  8> % geom
|  9>     MaxIter 10
| 10> end
| 11> % maxcore 2000
| 12> % output
| 13>     printlevel mini
| 14>     print[ P_Basis ] 0
| 15>     print[ P_SCFInfo ] 1
| 16>     print[ P_SCFIterInfo ] 1
| 17>     print[ P_OrbEn ] 0
| 18>     print[ P_Cartesian ] 0
| 19> end
| 20> % elprop
| 21>     Dipole false
| 22> end
| 23> *xyz 1 1
| 24>  C        1.9617533048     2.0128775635    -1.1847135928
| 25>  C        2.1915897011     0.6955437152    -0.4606095743
| 26>  C        2.7129573705    -0.4593861681    -1.3243452663
| 27>  C        1.6936125604    -0.9172437223    -2.3590137334
| 28>  C        4.0396098038    -0.1417420998    -2.0245394329
| 29>  C        5.1291690899     0.2606588166    -1.0589661560
| 30>  N        6.4327687712     0.4574051597    -1.7946336496
| 31>  H        1.5694883634     2.7625044464    -0.4956520856
| 32>  H        1.2407044055     1.9117066647    -1.9978005823
| 33>  H        2.8811640831     2.4266471846    -1.6120792956
| 34>  H        2.8651313931     0.8567216641     0.3897558176
| 35>  H        1.2504655644     0.3648626419    -0.0121561793
| 36>  H        2.8999910268    -1.3044385465    -0.6492829575
| 37>  H        1.4833598222    -0.1371121956    -3.0945448308
| 38>  H        0.7511781724    -1.1826359483    -1.8773696933
| 39>  H        2.0459007999    -1.7980229971    -2.9014257900
| 40>  H        3.8834648285     0.6574187556    -2.7593098878
| 41>  H        4.3575181273    -1.0315776857    -2.5821317654
| 42>  H        5.3159007646    -0.5030004227    -0.3020869725
| 43>  H        4.9194379917     1.2057844789    -0.5571754610
| 44>  H        6.7163892686    -0.4039952130    -2.2664059446
| 45>  H        7.1900900864     0.7376515731    -1.1683284765
| 46>  H        6.3350547002     1.1780623346    -2.5132344899
| 47> *
| 48>
| 49>                          ****END OF INPUT****
 Total Charge           Charge          ....    1
 Multiplicity           Mult            ....    1
 Number of Electrons    NEL             ....   58
FINAL SINGLE POINT ENERGY      -292.536320668897
FINAL SINGLE POINT ENERGY      -292.536324671924
FINAL SINGLE POINT ENERGY      -292.536328744847
FINAL SINGLE POINT ENERGY      -292.536329772902

CARTESIAN COORDINATES (ANGSTROEM)
---------------------------------
  C      1.815987   -0.008859   -1.487342
  C      0.549237    0.828836   -1.401740
  C     -0.690103    0.112099   -0.852091
  C     -1.177143   -0.995872   -1.776636
  C     -0.487570   -0.455651    0.557716
  C     -0.091805    0.600323    1.562389
  N     -0.005678   -0.000774    2.944669
  H      2.627538    0.573578   -1.926130
  H      1.679339   -0.893676   -2.111532
  H      2.165806   -0.349726   -0.507301
  H      0.747888    1.733089   -0.813801
  H      0.295088    1.194929   -2.400502
  H     -1.489702    0.861146   -0.785460
  H     -0.448221   -1.805629   -1.858428
  H     -1.354682   -0.606165   -2.780396
  H     -2.114566   -1.428693   -1.419440
  H      0.275509   -1.242770    0.528891
  H     -1.424366   -0.929012    0.876728
  H     -0.822602    1.408443    1.624146
  H      0.888601    1.030326    1.357431
  H     -0.905045   -0.399603    3.222384
  H      0.264739    0.688437    3.649005
  H      0.680554   -0.758285    2.965463

FINAL SINGLE POINT ENERGY      -292.536330356748
                    ***********************HURRAY********************
 Multiplicity           Mult            ....    1
 Number of Electrons    NEL             ....   58
 Basis Dimension        Dim             ....  313
FINAL SINGLE POINT ENERGY      -292.536330502670

VIBRATIONAL FREQUENCIES
-----------------------

   0:         0.00 cm**-1
   1:         0.00 cm**-1
   2:         0.00 cm**-1
   3:         0.00 cm**-1
   4:         0.00 cm**-1
   5:         0.00 cm**-1
   6:        66.06 cm**-1
   7:        88.83 cm**-1
   8:       131.56 cm**-1
   9:       169.60 cm**-1
  10:       220.21 cm**-1
  11:       227.99 cm**-1
  12:       246.13 cm**-1
  13:       270.89 cm**-1
  14:       325.76 cm**-1
  15:       388.52 cm**-1
  16:       450.00 cm**-1
  17:       538.43 cm**-1
  18:       756.83 cm**-1
  19:       786.76 cm**-1
  20:       797.52 cm**-1
  21:       892.61 cm**-1
  22:       910.13 cm**-1
  23:       929.05 cm**-1
  24:       988.71 cm**-1
  25:       996.14 cm**-1
  26:      1012.95 cm**-1
  27:      1030.79 cm**-1
  28:      1036.29 cm**-1
  29:      1111.87 cm**-1
  30:      1163.96 cm**-1
  31:      1181.60 cm**-1
  32:      1202.67 cm**-1
  33:      1287.68 cm**-1
  34:      1303.09 cm**-1
  35:      1312.20 cm**-1
  36:      1348.15 cm**-1
  37:      1363.09 cm**-1
  38:      1376.27 cm**-1
  39:      1391.96 cm**-1
  40:      1404.86 cm**-1
  41:      1414.71 cm**-1
  42:      1417.27 cm**-1
  43:      1474.38 cm**-1
  44:      1481.30 cm**-1
  45:      1491.54 cm**-1
  46:      1494.28 cm**-1
  47:      1496.87 cm**-1
  48:      1501.05 cm**-1
  49:      1505.49 cm**-1
  50:      1507.59 cm**-1
  51:      1656.71 cm**-1
  52:      1664.28 cm**-1
  53:      3022.22 cm**-1
  54:      3029.33 cm**-1
  55:      3039.01 cm**-1
  56:      3044.60 cm**-1
  57:      3055.77 cm**-1
  58:      3073.49 cm**-1
  59:      3086.11 cm**-1
  60:      3100.17 cm**-1
  61:      3117.38 cm**-1
  62:      3126.72 cm**-1
  63:      3139.10 cm**-1
  64:      3142.76 cm**-1
  65:      3161.18 cm**-1
  66:      3422.06 cm**-1
  67:      3503.66 cm**-1
  68:      3510.00 cm**-1

IR SPECTRUM
-----------

 Mode    freq (cm**-1)   T**2         TX         TY         TZ
-------------------------------------------------------------------
   6:        66.06    8.087039  (  2.295621  -0.291571  -1.652921)
   7:        88.83    1.081427  (  0.951235  -0.379585   0.180260)
   8:       131.56    1.534787  ( -1.177602  -0.092592   0.373454)
   9:       169.60    5.307681  (  0.706384   2.183727   0.200098)
  10:       220.21    0.566188  (  0.112291   0.463859   0.581733)
  11:       227.99    0.003825  ( -0.019177   0.011221  -0.057721)
  12:       246.13    0.167591  ( -0.148402  -0.011972  -0.381345)
  13:       270.89    1.063593  (  0.125085   0.432654   0.927770)
  14:       325.76   10.915463  ( -0.383324  -0.457222  -3.249534)
  15:       388.52    0.511615  (  0.285733   0.491908   0.433588)
  16:       450.00    3.432074  ( -0.111011  -0.290314  -1.826326)
  17:       538.43    2.303443  (  1.486013   0.303545   0.055399)
  18:       756.83    5.475821  (  1.257394  -0.811687  -1.798874)
  19:       786.76    3.484017  ( -1.786777   0.126760  -0.524762)
  20:       797.52    2.564128  (  1.391972   0.643016   0.461597)
  21:       892.61   16.410631  (  0.617653  -1.726413  -3.612289)
  22:       910.13    9.302764  (  2.403444   0.178424   1.869327)
  23:       929.05    1.664383  (  0.059457   0.165526   1.278064)
  24:       988.71    1.740286  (  0.268993   1.212622  -0.444383)
  25:       996.14    2.826656  ( -0.551522  -0.777082   1.385144)
  26:      1012.95    2.339306  ( -0.101972   1.347280   0.716759)
  27:      1030.79    5.851226  (  0.500605   1.109511  -2.090360)
  28:      1036.29    1.904201  (  1.111055   0.086321  -0.813822)
  29:      1111.87   16.356313  ( -1.013520  -2.162390  -3.263918)
  30:      1163.96    5.873091  ( -2.096503  -1.121551   0.468926)
  31:      1181.60    4.030964  ( -0.880568  -0.613793  -1.696709)
  32:      1202.67    4.603875  (  0.169353  -2.082413   0.488621)
  33:      1287.68    1.769164  ( -0.878223   0.543404   0.838213)
  34:      1303.09    0.714518  ( -0.696628   0.110406  -0.465873)
  35:      1312.20    1.307904  (  0.226799  -1.097352  -0.228660)
  36:      1348.15    4.931590  ( -1.867339   0.045789   1.201057)
  37:      1363.09    1.087440  (  0.897209  -0.105952  -0.520798)
  38:      1376.27    0.287584  (  0.219166  -0.327792  -0.363460)
  39:      1391.96    6.218014  (  0.028261   0.633309  -2.411667)
  40:      1404.86   15.696254  ( -0.294555  -0.023487  -3.950815)
  41:      1414.71    8.129560  ( -2.390956  -1.538355   0.215295)
  42:      1417.27    9.085597  ( -1.921706   2.290110   0.384759)
  43:      1474.38    1.818068  ( -0.465789  -0.040406  -1.264704)
  44:      1481.30    1.614524  ( -1.134547  -0.392086  -0.416647)
  45:      1491.54    9.762425  (  2.716600   1.445881   0.540315)
  46:      1494.28    6.663490  (  2.050717  -1.391126  -0.723060)
  47:      1496.87    6.874696  ( -0.363206  -2.014011  -1.639066)
  48:      1501.05    7.721471  ( -0.297519   2.759487   0.134847)
  49:      1505.49   81.726062  ( -0.679570   2.809249  -8.565767)
  50:      1507.59   87.931952  ( -0.191545   4.634771  -8.149488)
  51:      1656.71   52.375663  (  6.941416  -1.683020  -1.166123)
  52:      1664.28   35.611951  (  1.577803   5.138520   2.591929)
  53:      3022.22    7.155657  (  2.459028   0.899320  -0.547778)
  54:      3029.33   10.981663  ( -0.239882  -1.989703   2.639167)
  55:      3039.01   42.789158  (  1.171588  -6.281156  -1.401293)
  56:      3044.60   22.020952  ( -2.257190   1.100669  -3.964161)
  57:      3055.77    9.592402  (  0.966641   2.909620   0.438312)
  58:      3073.49   16.230846  ( -3.605434   1.492921   1.001437)
  59:      3086.11    5.941526  ( -1.292829   0.481290  -2.009597)
  60:      3100.17    4.016711  ( -0.091667  -1.800831  -0.874824)
  61:      3117.38   32.071115  ( -0.924090   0.100786  -5.586324)
  62:      3126.72   24.146652  (  4.421141  -0.327066  -2.119715)
  63:      3139.10    8.157055  ( -0.901270   0.894049  -2.558407)
  64:      3142.76   13.401112  (  0.908677   3.545738  -0.056235)
  65:      3161.18    1.247850  (  1.116579   0.031791   0.009505)
  66:      3422.06   43.658083  ( -0.381736   1.779656  -6.351786)
  67:      3503.66   87.030427  ( -8.955793   2.086717   1.571565)
  68:      3510.00   93.669424  ( -2.620479  -8.459297  -3.904204)

--------------------------
THERMOCHEMISTRY AT 298.15K
--------------------------

Temperature         ... 298.15 K
Pressure            ... 1.00 atm
Total Mass          ... 102.20 AMU

Throughout the following assumptions are being made:
  (1) The electronic state is orbitally nondegenerate
  (2) There are no thermally accessible electronically excited states
  (3) Hindered rotations indicated by low frequency modes) are not
      treated as such but are treated as vibrations and this may
      case some error
  (4) All equations used are the standard statistical mechanics
      equations for an ideal gas
  (5) All vibrations are strinctly harmonic

------------
INNER ENERGY
------------

The inner energy is: U= E(el) + E(ZPE) + E(vib) + E(rot) + E(trans)
    E(el)   - is the total energy from the electronic structure calculation
              = E(kin-el) + E(nuc-el) + E(el-el) + E(nuc-nuc)
    E(ZPE)  - the the zero temperature vibrational energy from the frequency calculation
    E(vib)  - the the finite temperature correction to E(ZPE) due to population
              of excietd vibrational states
    E(rot)  - is the rotational thermal energy
    E(trans)- is the translational thermal energy

Summary of contributions to the inner energy U:
Electronic energy                ...   -292.53633050 Eh
Zero point energy                ...      0.22186667 Eh     139.22 kcal/mol
Thermal vibrational correction   ...      0.00680870 Eh       4.27 kcal/mol
Thermal rotational correction    ...      0.00141627 Eh       0.89 kcal/mol
Thermal translational correction ...      0.00141627 Eh       0.89 kcal/mol
-----------------------------------------------------------------------
Total thermal energy                   -292.30482258 Eh

Summary of corrections to the electronic energy:
(perhaps to be used in another calculation)
Total thermal correction                  0.00964125 Eh       6.05 kcal/mol
Non-thermal (ZPE) correction              0.22186667 Eh     139.22 kcal/mol
-----------------------------------------------------------------------
Total correction                          0.23150792 Eh     145.27 kcal/mol

--------
ENTHALPY
--------

The enthalpy is H = U + kB*T
                kB is Boltzmann's constant
Total free energy                 ...   -292.30482258 Eh
Thermal Enthalpy correction       ...      0.00094421 Eh       0.59 kcal/mol
-----------------------------------------------------------------------
Total Enthalpy                    ...   -292.30387837 Eh

-------
ENTROPY
-------

The entropy contributions are T*S = T*(S(el)+S(vib)+S(rot)+S(trans)
     S(el)   - electronic entropy
     S(vib)  - vibrational entropy
     S(rot)  - rotational entropy
     S(trans)- translational entropy
The entropies will be listed as mutliplied by the temperature to get
units of energy

Electronic entropy                ...      0.00000000 Eh      0.00 kcal/mol
Vibrational entropy               ...      0.01245094 Eh      7.81 kcal/mol
Rotational entropy                ...      0.01244174 Eh      7.81 kcal/mol
Translational entropy             ...      0.01890208 Eh     11.86 kcal/mol
-----------------------------------------------------------------------
Final entropy term                ...      0.04379476 Eh     27.48 kcal/mol

CAUTION: The rotational entropy is not quite correctly treated here
         because it includes a symmetry number that is not yet correctly
         implemented in ORCA!
For a nonlinear molecule the correct rotational entropy is:
    S(rot) = R*(ln(qrot/sn)+1.5)
    R    = 8.31441 J/mol/K = 1.987191683e-3 kcal/mol/K
    qrot = 353592.4766608
    sn is the rotational symmetry number. We have assumed 3 here
       if it is different for your molecule then you should correct
       the printed rotational entropy by manually evaluating the equation
       as given above

For convenience we print out the resulting values for sn=1 - 12:
 sn= 1  qrot/sn=  353592.4767 T*S(rot)=     8.46 kcal/mol T*S(tot)=    28.13 kcal/mol
 sn= 2  qrot/sn=  176796.2383 T*S(rot)=     8.05 kcal/mol T*S(tot)=    27.72 kcal/mol
 sn= 3  qrot/sn=  117864.1589 T*S(rot)=     7.81 kcal/mol T*S(tot)=    27.48 kcal/mol
 sn= 4  qrot/sn=   88398.1192 T*S(rot)=     7.64 kcal/mol T*S(tot)=    27.31 kcal/mol
 sn= 5  qrot/sn=   70718.4953 T*S(rot)=     7.50 kcal/mol T*S(tot)=    27.18 kcal/mol
 sn= 6  qrot/sn=   58932.0794 T*S(rot)=     7.40 kcal/mol T*S(tot)=    27.07 kcal/mol
 sn= 7  qrot/sn=   50513.2110 T*S(rot)=     7.31 kcal/mol T*S(tot)=    26.98 kcal/mol
 sn= 8  qrot/sn=   44199.0596 T*S(rot)=     7.23 kcal/mol T*S(tot)=    26.90 kcal/mol
 sn= 9  qrot/sn=   39288.0530 T*S(rot)=     7.16 kcal/mol T*S(tot)=    26.83 kcal/mol
 sn=10  qrot/sn=   35359.2477 T*S(rot)=     7.09 kcal/mol T*S(tot)=    26.77 kcal/mol
 sn=11  qrot/sn=   32144.7706 T*S(rot)=     7.04 kcal/mol T*S(tot)=    26.71 kcal/mol
 sn=12  qrot/sn=   29466.0397 T*S(rot)=     6.99 kcal/mol T*S(tot)=    26.66 kcal/mol

-------------------
GIBBS FREE ENTHALPY
-------------------

The Gibbs free enthalpy is G = H - T*S

Total enthalpy                    ...   -292.30387837 Eh
Total entropy correction          ...     -0.04379476 Eh    -27.48 kcal/mol
-----------------------------------------------------------------------
Final Gibbs free enthalpy         ...   -292.34767314 Eh

For completeness - the Gibbs free enthalpy minus the electronic energy
G-E(el)                           ...      0.18865737 Eh    118.38 kcal/mol

                             ****ORCA TERMINATED NORMALLY****
TOTAL RUN TIME: 0 days 1 hours 4 minutes 0 seconds 622 msec
