                         Program Version 3.0.3 - RELEASE   -
|  1> ! NORI PBE0 def2-TZVP UseSym TightOPT Freq TightSCF Grid3 FinalGrid5 XYZFile
|  2> % pal
|  3>     nprocs 8
|  4> end
|  5> %method
|  6>     SymThresh 5.0e-2
|  7> end
|  8> % geom
|  9>     MaxIter 10
| 10> end
| 11> % maxcore 2000
| 12> % output
| 13>     printlevel mini
| 14>     print[ P_Basis ] 0
| 15>     print[ P_SCFInfo ] 1
| 16>     print[ P_SCFIterInfo ] 1
| 17>     print[ P_OrbEn ] 0
| 18>     print[ P_Cartesian ] 0
| 19> end
| 20> % elprop
| 21>     Dipole false
| 22> end
| 23> *xyz 1 1
| 24>  C        1.9842458750     1.0213646950    -0.7174898406
| 25>  C        2.5497236125    -0.2180870149    -0.0284941575
| 26>  C        2.8425213145    -1.3567211705    -0.9604712625
| 27>  C        1.6722459562    -1.8970712043    -1.7136159576
| 28>  C        4.0949959513    -1.8307120222    -1.0471525778
| 29>  C        4.5385528456    -2.9717543838    -1.8800467331
| 30>  N        5.2922249193    -2.4638011977    -3.1089636023
| 31>  H        1.8435985851     1.8188961107     0.0130048223
| 32>  H        1.0142569908     0.8303631527    -1.1790491205
| 33>  H        2.6640119779     1.3926870837    -1.4884938534
| 34>  H        3.4572808077     0.0450572551     0.5194938661
| 35>  H        1.8262359280    -0.5727308260     0.7156775159
| 36>  H        1.8828968111    -2.7907678398    -2.3004518066
| 37>  H        1.2725688034    -1.1372375195    -2.3907519216
| 38>  H        0.8653735369    -2.1383940568    -1.0163673069
| 39>  H        4.8623490783    -1.3788131148    -0.4232351416
| 40>  H        5.2459003621    -3.6209366539    -1.3607144228
| 41>  H        3.7228406656    -3.5800900645    -2.2656045644
| 42>  H        6.0870358284    -1.8889987541    -2.8229832319
| 43>  H        4.6793805624    -1.8698256205    -3.6707926978
| 44>  H        5.6415895877    -3.2241168540    -3.6967480053
| 45> *
| 46>
| 47>                          ****END OF INPUT****
 Total Charge           Charge          ....    1
 Multiplicity           Mult            ....    1
 Number of Electrons    NEL             ....   56
FINAL SINGLE POINT ENERGY      -291.316214482881
FINAL SINGLE POINT ENERGY      -291.316215827079

CARTESIAN COORDINATES (ANGSTROEM)
---------------------------------
  C      1.717151   -0.000303   -2.268884
  C      0.410211    0.645606   -1.815665
  C     -0.211440   -0.006060   -0.616120
  C     -0.582346   -1.443112   -0.778178
  C     -0.416799    0.718527    0.494676
  C     -1.059307    0.240590    1.740703
  N     -0.002368   -0.003186    2.817308
  H      2.131677    0.554945   -3.110992
  H      1.575720   -1.030934   -2.597884
  H      2.461684    0.005692   -1.469052
  H      0.573388    1.705751   -1.609073
  H     -0.314783    0.594541   -2.636913
  H     -1.126626   -1.869060    0.064220
  H      0.312301   -2.049807   -0.941426
  H     -1.201009   -1.566395   -1.671461
  H     -0.133549    1.768286    0.485675
  H     -1.739838    0.977288    2.170889
  H     -1.590016   -0.702996    1.630545
  H      0.532750    0.850620    2.986652
  H      0.658903   -0.713839    2.498997
  H     -0.409084   -0.307353    3.704809

FINAL SINGLE POINT ENERGY      -291.316216560941
                    ***********************HURRAY********************
 Multiplicity           Mult            ....    1
 Number of Electrons    NEL             ....   56
 Basis Dimension        Dim             ....  301
FINAL SINGLE POINT ENERGY      -291.316216869928

VIBRATIONAL FREQUENCIES
-----------------------

   0:         0.00 cm**-1
   1:         0.00 cm**-1
   2:         0.00 cm**-1
   3:         0.00 cm**-1
   4:         0.00 cm**-1
   5:         0.00 cm**-1
   6:        45.56 cm**-1
   7:        57.70 cm**-1
   8:       114.06 cm**-1
   9:       157.95 cm**-1
  10:       197.20 cm**-1
  11:       231.27 cm**-1
  12:       260.12 cm**-1
  13:       328.34 cm**-1
  14:       390.70 cm**-1
  15:       434.26 cm**-1
  16:       515.40 cm**-1
  17:       563.21 cm**-1
  18:       763.78 cm**-1
  19:       786.87 cm**-1
  20:       827.51 cm**-1
  21:       866.34 cm**-1
  22:       869.27 cm**-1
  23:       945.16 cm**-1
  24:      1006.26 cm**-1
  25:      1012.49 cm**-1
  26:      1030.52 cm**-1
  27:      1080.41 cm**-1
  28:      1099.00 cm**-1
  29:      1113.35 cm**-1
  30:      1159.52 cm**-1
  31:      1249.87 cm**-1
  32:      1279.53 cm**-1
  33:      1332.47 cm**-1
  34:      1350.84 cm**-1
  35:      1371.42 cm**-1
  36:      1401.65 cm**-1
  37:      1408.37 cm**-1
  38:      1422.30 cm**-1
  39:      1459.09 cm**-1
  40:      1471.12 cm**-1
  41:      1480.83 cm**-1
  42:      1487.90 cm**-1
  43:      1492.61 cm**-1
  44:      1496.79 cm**-1
  45:      1502.34 cm**-1
  46:      1649.00 cm**-1
  47:      1659.96 cm**-1
  48:      1713.27 cm**-1
  49:      3043.06 cm**-1
  50:      3058.31 cm**-1
  51:      3060.06 cm**-1
  52:      3100.84 cm**-1
  53:      3102.95 cm**-1
  54:      3117.60 cm**-1
  55:      3136.07 cm**-1
  56:      3146.76 cm**-1
  57:      3148.72 cm**-1
  58:      3157.19 cm**-1
  59:      3175.70 cm**-1
  60:      3416.74 cm**-1
  61:      3509.23 cm**-1
  62:      3513.11 cm**-1

IR SPECTRUM
-----------

 Mode    freq (cm**-1)   T**2         TX         TY         TZ
-------------------------------------------------------------------
   6:        45.56    3.574673  (  1.326981  -0.661145  -1.173320)
   7:        57.70    8.546832  ( -0.045023   2.450412   1.593828)
   8:       114.06    8.122962  ( -2.611496  -0.275461   1.107779)
   9:       157.95    3.487413  (  0.590794   0.344272  -1.737772)
  10:       197.20    0.246824  ( -0.351141  -0.348238  -0.047475)
  11:       231.27    1.319180  ( -0.250329  -0.439325   1.031266)
  12:       260.12    0.481653  (  0.137496  -0.444504   0.514941)
  13:       328.34    0.482126  (  0.077786   0.091750   0.683854)
  14:       390.70    3.412936  ( -1.062126   0.463231  -1.438834)
  15:       434.26    8.223737  ( -1.024890   0.627684  -2.603719)
  16:       515.40    2.115038  (  0.686415   1.282126   0.004915)
  17:       563.21    5.312964  ( -2.091019   0.887624   0.390804)
  18:       763.78    2.025475  (  0.452583   1.242308   0.526606)
  19:       786.87    2.698603  ( -0.471392   1.508398   0.448474)
  20:       827.51   23.166224  ( -1.395663   0.065280   4.605875)
  21:       866.34    9.441622  ( -0.765879   2.878064  -0.756176)
  22:       869.27   58.505367  (  3.106818  -0.728754   6.951401)
  23:       945.16    5.035918  ( -0.928487  -1.337618  -1.544217)
  24:      1006.26    5.231354  (  2.018926  -0.768317   0.751653)
  25:      1012.49    0.559658  (  0.260647  -0.579322   0.395104)
  26:      1030.52    0.262287  ( -0.496173  -0.113070   0.057577)
  27:      1080.41   17.847922  ( -3.800555   0.148771   1.838904)
  28:      1099.00    5.027664  (  0.679756   0.773290  -1.991888)
  29:      1113.35    7.814233  (  1.582160   0.705164  -2.194025)
  30:      1159.52    6.679951  (  1.630386   0.433480  -1.958031)
  31:      1249.87   10.105305  ( -1.389827  -0.908171   2.710888)
  32:      1279.53    3.221032  ( -0.508191   0.382615   1.678208)
  33:      1332.47   11.804060  ( -0.471692   2.872220   1.825355)
  34:      1350.84    5.499617  (  0.044177   0.069630   2.343676)
  35:      1371.42   25.200488  ( -1.167568   0.101567   4.881286)
  36:      1401.65   20.152077  ( -0.662565  -1.192327  -4.276849)
  37:      1408.37   11.232446  ( -1.105738   2.652984   1.723795)
  38:      1422.30    9.923665  ( -0.601671  -2.748276   1.417264)
  39:      1459.09    7.111708  (  1.835689   0.430478   1.885906)
  40:      1471.12   23.862461  ( -2.643887   0.451405  -4.082715)
  41:      1480.83    6.183341  (  1.892294  -1.613222   0.008835)
  42:      1487.90  137.897546  ( -6.700297   1.743469  -9.484929)
  43:      1492.61   12.467728  ( -1.618325   2.146273   2.289599)
  44:      1496.79   25.436885  (  3.322215   2.392112  -2.945772)
  45:      1502.34   14.468629  ( -3.786492  -0.350617  -0.090420)
  46:      1649.00   47.724203  ( -0.012881   6.821657   1.090430)
  47:      1659.96   41.033360  ( -3.823954   0.024808   5.139078)
  48:      1713.27   74.407741  (  0.878488  -2.963301  -8.053251)
  49:      3043.06    3.402082  (  1.175656  -1.168018   0.809723)
  50:      3058.31    2.964444  ( -1.423330  -0.704749   0.664758)
  51:      3060.06   15.498314  ( -3.279033   2.177520   0.068303)
  52:      3100.84    5.521688  (  0.058531  -2.340617   0.199437)
  53:      3102.95    5.111644  ( -1.193532  -0.208861   1.908796)
  54:      3117.60    1.610975  (  1.042827   0.303723   0.656689)
  55:      3136.07   16.220442  ( -1.937155  -2.051781  -2.873686)
  56:      3146.76   28.101103  (  2.235633   3.299068  -3.495597)
  57:      3148.72    4.489281  ( -0.545009   1.373101   1.518828)
  58:      3157.19    1.075561  ( -0.045713   0.825408   0.626238)
  59:      3175.70    3.279775  ( -1.023476  -1.240964   0.832033)
  60:      3416.74   31.430101  (  2.668261  -0.600898   4.893813)
  61:      3509.23   76.362329  (  6.390844   4.798662  -3.534443)
  62:      3513.11   83.097966  (  2.257476  -7.749924  -4.235616)

--------------------------
THERMOCHEMISTRY AT 298.15K
--------------------------

Temperature         ... 298.15 K
Pressure            ... 1.00 atm
Total Mass          ... 100.18 AMU

Throughout the following assumptions are being made:
  (1) The electronic state is orbitally nondegenerate
  (2) There are no thermally accessible electronically excited states
  (3) Hindered rotations indicated by low frequency modes) are not
      treated as such but are treated as vibrations and this may
      case some error
  (4) All equations used are the standard statistical mechanics
      equations for an ideal gas
  (5) All vibrations are strinctly harmonic

------------
INNER ENERGY
------------

The inner energy is: U= E(el) + E(ZPE) + E(vib) + E(rot) + E(trans)
    E(el)   - is the total energy from the electronic structure calculation
              = E(kin-el) + E(nuc-el) + E(el-el) + E(nuc-nuc)
    E(ZPE)  - the the zero temperature vibrational energy from the frequency calculation
    E(vib)  - the the finite temperature correction to E(ZPE) due to population
              of excietd vibrational states
    E(rot)  - is the rotational thermal energy
    E(trans)- is the translational thermal energy

Summary of contributions to the inner energy U:
Electronic energy                ...   -291.31621687 Eh
Zero point energy                ...      0.19768108 Eh     124.05 kcal/mol
Thermal vibrational correction   ...      0.00665574 Eh       4.18 kcal/mol
Thermal rotational correction    ...      0.00141627 Eh       0.89 kcal/mol
Thermal translational correction ...      0.00141627 Eh       0.89 kcal/mol
-----------------------------------------------------------------------
Total thermal energy                   -291.10904750 Eh

Summary of corrections to the electronic energy:
(perhaps to be used in another calculation)
Total thermal correction                  0.00948829 Eh       5.95 kcal/mol
Non-thermal (ZPE) correction              0.19768108 Eh     124.05 kcal/mol
-----------------------------------------------------------------------
Total correction                          0.20716937 Eh     130.00 kcal/mol

--------
ENTHALPY
--------

The enthalpy is H = U + kB*T
                kB is Boltzmann's constant
Total free energy                 ...   -291.10904750 Eh
Thermal Enthalpy correction       ...      0.00094421 Eh       0.59 kcal/mol
-----------------------------------------------------------------------
Total Enthalpy                    ...   -291.10810329 Eh

-------
ENTROPY
-------

The entropy contributions are T*S = T*(S(el)+S(vib)+S(rot)+S(trans)
     S(el)   - electronic entropy
     S(vib)  - vibrational entropy
     S(rot)  - rotational entropy
     S(trans)- translational entropy
The entropies will be listed as mutliplied by the temperature to get
units of energy

Electronic entropy                ...      0.00000000 Eh      0.00 kcal/mol
Vibrational entropy               ...      0.01288145 Eh      8.08 kcal/mol
Rotational entropy                ...      0.01238094 Eh      7.77 kcal/mol
Translational entropy             ...      0.01887386 Eh     11.84 kcal/mol
-----------------------------------------------------------------------
Final entropy term                ...      0.04413625 Eh     27.70 kcal/mol

CAUTION: The rotational entropy is not quite correctly treated here
         because it includes a symmetry number that is not yet correctly
         implemented in ORCA!
For a nonlinear molecule the correct rotational entropy is:
    S(rot) = R*(ln(qrot/sn)+1.5)
    R    = 8.31441 J/mol/K = 1.987191683e-3 kcal/mol/K
    qrot = 331539.2478507
    sn is the rotational symmetry number. We have assumed 3 here
       if it is different for your molecule then you should correct
       the printed rotational entropy by manually evaluating the equation
       as given above

For convenience we print out the resulting values for sn=1 - 12:
 sn= 1  qrot/sn=  331539.2479 T*S(rot)=     8.42 kcal/mol T*S(tot)=    28.35 kcal/mol
 sn= 2  qrot/sn=  165769.6239 T*S(rot)=     8.01 kcal/mol T*S(tot)=    27.94 kcal/mol
 sn= 3  qrot/sn=  110513.0826 T*S(rot)=     7.77 kcal/mol T*S(tot)=    27.70 kcal/mol
 sn= 4  qrot/sn=   82884.8120 T*S(rot)=     7.60 kcal/mol T*S(tot)=    27.53 kcal/mol
 sn= 5  qrot/sn=   66307.8496 T*S(rot)=     7.47 kcal/mol T*S(tot)=    27.39 kcal/mol
 sn= 6  qrot/sn=   55256.5413 T*S(rot)=     7.36 kcal/mol T*S(tot)=    27.29 kcal/mol
 sn= 7  qrot/sn=   47362.7497 T*S(rot)=     7.27 kcal/mol T*S(tot)=    27.19 kcal/mol
 sn= 8  qrot/sn=   41442.4060 T*S(rot)=     7.19 kcal/mol T*S(tot)=    27.11 kcal/mol
 sn= 9  qrot/sn=   36837.6942 T*S(rot)=     7.12 kcal/mol T*S(tot)=    27.04 kcal/mol
 sn=10  qrot/sn=   33153.9248 T*S(rot)=     7.06 kcal/mol T*S(tot)=    26.98 kcal/mol
 sn=11  qrot/sn=   30139.9316 T*S(rot)=     7.00 kcal/mol T*S(tot)=    26.93 kcal/mol
 sn=12  qrot/sn=   27628.2707 T*S(rot)=     6.95 kcal/mol T*S(tot)=    26.87 kcal/mol

-------------------
GIBBS FREE ENTHALPY
-------------------

The Gibbs free enthalpy is G = H - T*S

Total enthalpy                    ...   -291.10810329 Eh
Total entropy correction          ...     -0.04413625 Eh    -27.70 kcal/mol
-----------------------------------------------------------------------
Final Gibbs free enthalpy         ...   -291.15223955 Eh

For completeness - the Gibbs free enthalpy minus the electronic energy
G-E(el)                           ...      0.16397732 Eh    102.90 kcal/mol

                             ****ORCA TERMINATED NORMALLY****
TOTAL RUN TIME: 0 days 0 hours 46 minutes 24 seconds 503 msec
