                         Program Version 3.0.3 - RELEASE   -
|  1> ! NORI PBE0 def2-TZVP UseSym TightOPT Freq TightSCF Grid3 FinalGrid5 XYZFile
|  2> % pal
|  3>     nprocs 8
|  4> end
|  5> %method
|  6>     SymThresh 5.0e-2
|  7> end
|  8> % geom
|  9>     MaxIter 10
| 10> end
| 11> % maxcore 2000
| 12> % output
| 13>     printlevel mini
| 14>     print[ P_Basis ] 0
| 15>     print[ P_SCFInfo ] 1
| 16>     print[ P_SCFIterInfo ] 1
| 17>     print[ P_OrbEn ] 0
| 18>     print[ P_Cartesian ] 0
| 19> end
| 20> % elprop
| 21>     Dipole false
| 22> end
| 23> *xyz 1 1
| 24>  C        2.9685738788     0.8796623273     1.1619303260
| 25>  C        2.5307433601    -0.0055227763     0.0045425039
| 26>  C        3.0243576934     0.3860634632    -1.4009352884
| 27>  C        2.5697440348    -0.6738687757    -2.4048550341
| 28>  C        2.4662765800     1.7460244515    -1.8212602907
| 29>  C        4.5432385850     0.5248804900    -1.4373148831
| 30>  N        5.2246391944    -0.7442885388    -0.9952934698
| 31>  H        2.5262778858     0.5240582355     2.0932993066
| 32>  H        2.6494705816     1.9144831493     1.0292679671
| 33>  H        4.0535407410     0.8924285447     1.3171756005
| 34>  H        2.8041952359    -1.0508311727     0.2127569782
| 35>  H        1.4379448442    -0.0241312982    -0.0383191780
| 36>  H        2.9206288262    -0.4524067887    -3.4163385289
| 37>  H        1.4792325925    -0.7108689501    -2.4390151968
| 38>  H        2.8911528000    -1.6882754771    -2.1378220407
| 39>  H        2.7811370398     2.0062331408    -2.8347381530
| 40>  H        2.7864207402     2.5484873940    -1.1537402406
| 41>  H        1.3750348102     1.7171262650    -1.8117899487
| 42>  H        4.8993882930     1.3102580908    -0.7703457630
| 43>  H        4.9015447471     0.7317100004    -2.4467903313
| 44>  H        4.9627977101    -0.9675629973    -0.0326457830
| 45>  H        6.2417624968    -0.6696349442    -1.0426596795
| 46>  H        4.9319073292    -1.5274238335    -1.5832988727
| 47> *
| 48>
| 49>                          ****END OF INPUT****
 Total Charge           Charge          ....    1
 Multiplicity           Mult            ....    1
 Number of Electrons    NEL             ....   58
FINAL SINGLE POINT ENERGY      -292.539867219757
FINAL SINGLE POINT ENERGY      -292.539870175791
FINAL SINGLE POINT ENERGY      -292.539871378686

CARTESIAN COORDINATES (ANGSTROEM)
---------------------------------
  C      2.160033    0.001376   -0.659831
  C      0.865801    0.798985   -0.610984
  C     -0.431447    0.009566   -0.354651
  C     -1.599170    0.988769   -0.228955
  C     -0.716910   -0.966394   -1.496340
  C     -0.325231   -0.840635    0.907567
  N      0.000572   -0.002017    2.115843
  H      2.998664    0.660472   -0.888054
  H      2.136710   -0.769285   -1.431637
  H      2.403119   -0.494902    0.286814
  H      0.957655    1.609437    0.127532
  H      0.733267    1.324569   -1.560799
  H     -2.540510    0.472580   -0.022917
  H     -1.726254    1.538472   -1.163001
  H     -1.441760    1.751930    0.543342
  H     -1.661519   -1.492950   -1.338889
  H      0.070222   -1.714742   -1.606794
  H     -0.796322   -0.422255   -2.439013
  H      0.464938   -1.587945    0.834084
  H     -1.267006   -1.345347    1.128093
  H      0.902857    0.462318    1.991803
  H      0.042016   -0.560803    2.969076
  H     -0.704907    0.726781    2.243346

FINAL SINGLE POINT ENERGY      -292.539871655227
                    ***********************HURRAY********************
 Multiplicity           Mult            ....    1
 Number of Electrons    NEL             ....   58
 Basis Dimension        Dim             ....  313
FINAL SINGLE POINT ENERGY      -292.539871860191

VIBRATIONAL FREQUENCIES
-----------------------

   0:         0.00 cm**-1
   1:         0.00 cm**-1
   2:         0.00 cm**-1
   3:         0.00 cm**-1
   4:         0.00 cm**-1
   5:         0.00 cm**-1
   6:        67.41 cm**-1
   7:       127.19 cm**-1
   8:       195.63 cm**-1
   9:       219.02 cm**-1
  10:       225.10 cm**-1
  11:       237.97 cm**-1
  12:       272.79 cm**-1
  13:       293.57 cm**-1
  14:       339.58 cm**-1
  15:       359.84 cm**-1
  16:       392.31 cm**-1
  17:       478.37 cm**-1
  18:       493.87 cm**-1
  19:       708.60 cm**-1
  20:       775.93 cm**-1
  21:       834.00 cm**-1
  22:       874.11 cm**-1
  23:       927.83 cm**-1
  24:       952.68 cm**-1
  25:       966.19 cm**-1
  26:       999.24 cm**-1
  27:      1014.89 cm**-1
  28:      1020.27 cm**-1
  29:      1052.81 cm**-1
  30:      1099.17 cm**-1
  31:      1109.11 cm**-1
  32:      1227.18 cm**-1
  33:      1245.79 cm**-1
  34:      1282.13 cm**-1
  35:      1317.76 cm**-1
  36:      1348.33 cm**-1
  37:      1376.33 cm**-1
  38:      1397.02 cm**-1
  39:      1403.55 cm**-1
  40:      1418.03 cm**-1
  41:      1432.16 cm**-1
  42:      1467.55 cm**-1
  43:      1475.70 cm**-1
  44:      1479.26 cm**-1
  45:      1486.47 cm**-1
  46:      1493.71 cm**-1
  47:      1499.14 cm**-1
  48:      1502.11 cm**-1
  49:      1504.40 cm**-1
  50:      1514.14 cm**-1
  51:      1648.29 cm**-1
  52:      1661.01 cm**-1
  53:      3000.30 cm**-1
  54:      3026.98 cm**-1
  55:      3036.87 cm**-1
  56:      3057.45 cm**-1
  57:      3087.74 cm**-1
  58:      3099.78 cm**-1
  59:      3102.33 cm**-1
  60:      3117.62 cm**-1
  61:      3131.68 cm**-1
  62:      3138.78 cm**-1
  63:      3143.16 cm**-1
  64:      3149.24 cm**-1
  65:      3160.00 cm**-1
  66:      3423.22 cm**-1
  67:      3498.31 cm**-1
  68:      3518.39 cm**-1

IR SPECTRUM
-----------

 Mode    freq (cm**-1)   T**2         TX         TY         TZ
-------------------------------------------------------------------
   6:        67.41   10.180432  (  2.734967  -0.251704  -1.623894)
   7:       127.19    2.294213  (  1.511424  -0.066844   0.073102)
   8:       195.63    1.245148  ( -1.104465  -0.143191   0.069295)
   9:       219.02    8.900364  (  0.193357   1.728911  -2.423602)
  10:       225.10    2.940856  (  0.611027  -1.189102   1.074029)
  11:       237.97    0.246053  ( -0.123808   0.467236   0.111422)
  12:       272.79    2.362335  ( -0.374203   0.715732  -1.307683)
  13:       293.57    4.707857  (  0.230111  -0.916533   1.953170)
  14:       339.58    0.130110  (  0.346925  -0.020921  -0.096514)
  15:       359.84    8.893348  (  0.229408  -0.294649   2.958699)
  16:       392.31    3.505238  (  0.314026  -0.011881   1.845666)
  17:       478.37    1.848438  ( -0.605603  -0.464485   1.125139)
  18:       493.87    3.097109  (  0.470061  -0.156636   1.688673)
  19:       708.60    1.164582  ( -0.443979   0.266711  -0.946748)
  20:       775.93    1.568761  (  0.347779  -0.679354  -0.993121)
  21:       834.00   12.966384  (  3.554212  -0.540472  -0.204581)
  22:       874.11    6.158345  (  0.456501   0.978615  -2.234338)
  23:       927.83    1.663159  (  0.951368   0.058558   0.868694)
  24:       952.68    4.935001  ( -0.525895   0.680029   2.048413)
  25:       966.19    5.495078  ( -0.321483  -0.328282  -2.298686)
  26:       999.24    4.463170  (  1.382555  -0.343578   1.560021)
  27:      1014.89    7.785072  ( -0.114688   2.388256  -1.438108)
  28:      1020.27   13.578435  (  2.266964   1.935526  -2.166344)
  29:      1052.81    9.917107  (  0.107539  -1.927978   2.487658)
  30:      1099.17    5.992024  (  0.842019  -1.376606   1.840648)
  31:      1109.11    1.574328  ( -0.498534  -0.606385   0.978821)
  32:      1227.18    4.538250  (  0.460953   1.442807  -1.498026)
  33:      1245.79    0.688023  (  0.820527   0.118358   0.027380)
  34:      1282.13    0.152854  (  0.017276  -0.296275   0.254513)
  35:      1317.76    1.340488  ( -0.660310   0.547644  -0.777538)
  36:      1348.33    8.533234  ( -2.853142   0.213133   0.589396)
  37:      1376.33    3.900336  (  1.974266  -0.012272   0.049602)
  38:      1397.02    1.449160  (  0.753296  -0.926365   0.153470)
  39:      1403.55    7.381620  (  0.930339  -2.420110  -0.811885)
  40:      1418.03   11.390143  ( -3.191218   1.090208   0.133094)
  41:      1432.16   12.702643  ( -1.790949  -1.124014  -2.869100)
  42:      1467.55   12.152366  ( -0.457326  -0.717467  -3.380600)
  43:      1475.70    9.343551  ( -0.723708  -1.792870  -2.367576)
  44:      1479.26   42.536133  (  1.917134   3.194465   5.353141)
  45:      1486.47   26.810597  (  0.335090   0.621806   5.129490)
  46:      1493.71   27.983543  (  1.152906  -1.950037  -4.780346)
  47:      1499.14   40.588496  (  1.641067  -0.041619   6.155783)
  48:      1502.11   18.209151  (  0.671237  -2.877693   3.078551)
  49:      1504.40   19.890704  ( -1.621269   0.018879   4.154736)
  50:      1514.14   61.711473  (  2.541061   6.685816   3.248745)
  51:      1648.29   37.266361  (  5.931301  -1.240627  -0.739512)
  52:      1661.01   28.631108  (  0.507991   3.067905  -4.354425)
  53:      3000.30   30.763045  ( -0.317549   4.491952   3.237990)
  54:      3026.98   32.441307  ( -0.944213   3.406566   4.465991)
  55:      3036.87   25.137877  ( -1.605702   2.205688  -4.206488)
  56:      3057.45    4.155302  (  0.537525   1.884930   0.559828)
  57:      3087.74    3.651928  ( -0.954573   1.105346  -1.232448)
  58:      3099.78    2.955155  (  0.674119  -0.478391   1.507269)
  59:      3102.33   16.717235  ( -2.555155  -2.655570  -1.770980)
  60:      3117.62   19.117514  (  0.208387   0.455919  -4.343527)
  61:      3131.68   11.335491  (  3.154613   0.367261  -1.117600)
  62:      3138.78    5.772788  ( -1.882337  -0.638867   1.349609)
  63:      3143.16    5.770009  (  0.837258  -1.566655   1.616973)
  64:      3149.24    7.555669  ( -0.483901  -2.559039  -0.879108)
  65:      3160.00    2.319887  ( -1.457396   0.434775  -0.082800)
  66:      3423.22   23.609656  (  0.890813   3.083644   3.647910)
  67:      3498.31   89.428473  (  9.211459  -1.721130  -1.270906)
  68:      3518.39  117.521314  ( -0.319294  -7.312304   7.996847)

--------------------------
THERMOCHEMISTRY AT 298.15K
--------------------------

Temperature         ... 298.15 K
Pressure            ... 1.00 atm
Total Mass          ... 102.20 AMU

Throughout the following assumptions are being made:
  (1) The electronic state is orbitally nondegenerate
  (2) There are no thermally accessible electronically excited states
  (3) Hindered rotations indicated by low frequency modes) are not
      treated as such but are treated as vibrations and this may
      case some error
  (4) All equations used are the standard statistical mechanics
      equations for an ideal gas
  (5) All vibrations are strinctly harmonic

------------
INNER ENERGY
------------

The inner energy is: U= E(el) + E(ZPE) + E(vib) + E(rot) + E(trans)
    E(el)   - is the total energy from the electronic structure calculation
              = E(kin-el) + E(nuc-el) + E(el-el) + E(nuc-nuc)
    E(ZPE)  - the the zero temperature vibrational energy from the frequency calculation
    E(vib)  - the the finite temperature correction to E(ZPE) due to population
              of excietd vibrational states
    E(rot)  - is the rotational thermal energy
    E(trans)- is the translational thermal energy

Summary of contributions to the inner energy U:
Electronic energy                ...   -292.53987186 Eh
Zero point energy                ...      0.22077588 Eh     138.54 kcal/mol
Thermal vibrational correction   ...      0.00679289 Eh       4.26 kcal/mol
Thermal rotational correction    ...      0.00141627 Eh       0.89 kcal/mol
Thermal translational correction ...      0.00141627 Eh       0.89 kcal/mol
-----------------------------------------------------------------------
Total thermal energy                   -292.30947055 Eh

Summary of corrections to the electronic energy:
(perhaps to be used in another calculation)
Total thermal correction                  0.00962543 Eh       6.04 kcal/mol
Non-thermal (ZPE) correction              0.22077588 Eh     138.54 kcal/mol
-----------------------------------------------------------------------
Total correction                          0.23040131 Eh     144.58 kcal/mol

--------
ENTHALPY
--------

The enthalpy is H = U + kB*T
                kB is Boltzmann's constant
Total free energy                 ...   -292.30947055 Eh
Thermal Enthalpy correction       ...      0.00094421 Eh       0.59 kcal/mol
-----------------------------------------------------------------------
Total Enthalpy                    ...   -292.30852634 Eh

-------
ENTROPY
-------

The entropy contributions are T*S = T*(S(el)+S(vib)+S(rot)+S(trans)
     S(el)   - electronic entropy
     S(vib)  - vibrational entropy
     S(rot)  - rotational entropy
     S(trans)- translational entropy
The entropies will be listed as mutliplied by the temperature to get
units of energy

Electronic entropy                ...      0.00000000 Eh      0.00 kcal/mol
Vibrational entropy               ...      0.01181714 Eh      7.42 kcal/mol
Rotational entropy                ...      0.01219340 Eh      7.65 kcal/mol
Translational entropy             ...      0.01890208 Eh     11.86 kcal/mol
-----------------------------------------------------------------------
Final entropy term                ...      0.04291261 Eh     26.93 kcal/mol

CAUTION: The rotational entropy is not quite correctly treated here
         because it includes a symmetry number that is not yet correctly
         implemented in ORCA!
For a nonlinear molecule the correct rotational entropy is:
    S(rot) = R*(ln(qrot/sn)+1.5)
    R    = 8.31441 J/mol/K = 1.987191683e-3 kcal/mol/K
    qrot = 271813.3551741
    sn is the rotational symmetry number. We have assumed 3 here
       if it is different for your molecule then you should correct
       the printed rotational entropy by manually evaluating the equation
       as given above

For convenience we print out the resulting values for sn=1 - 12:
 sn= 1  qrot/sn=  271813.3552 T*S(rot)=     8.30 kcal/mol T*S(tot)=    27.58 kcal/mol
 sn= 2  qrot/sn=  135906.6776 T*S(rot)=     7.89 kcal/mol T*S(tot)=    27.17 kcal/mol
 sn= 3  qrot/sn=   90604.4517 T*S(rot)=     7.65 kcal/mol T*S(tot)=    26.93 kcal/mol
 sn= 4  qrot/sn=   67953.3388 T*S(rot)=     7.48 kcal/mol T*S(tot)=    26.76 kcal/mol
 sn= 5  qrot/sn=   54362.6710 T*S(rot)=     7.35 kcal/mol T*S(tot)=    26.63 kcal/mol
 sn= 6  qrot/sn=   45302.2259 T*S(rot)=     7.24 kcal/mol T*S(tot)=    26.52 kcal/mol
 sn= 7  qrot/sn=   38830.4793 T*S(rot)=     7.15 kcal/mol T*S(tot)=    26.43 kcal/mol
 sn= 8  qrot/sn=   33976.6694 T*S(rot)=     7.07 kcal/mol T*S(tot)=    26.35 kcal/mol
 sn= 9  qrot/sn=   30201.4839 T*S(rot)=     7.00 kcal/mol T*S(tot)=    26.28 kcal/mol
 sn=10  qrot/sn=   27181.3355 T*S(rot)=     6.94 kcal/mol T*S(tot)=    26.21 kcal/mol
 sn=11  qrot/sn=   24710.3050 T*S(rot)=     6.88 kcal/mol T*S(tot)=    26.16 kcal/mol
 sn=12  qrot/sn=   22651.1129 T*S(rot)=     6.83 kcal/mol T*S(tot)=    26.11 kcal/mol

-------------------
GIBBS FREE ENTHALPY
-------------------

The Gibbs free enthalpy is G = H - T*S

Total enthalpy                    ...   -292.30852634 Eh
Total entropy correction          ...     -0.04291261 Eh    -26.93 kcal/mol
-----------------------------------------------------------------------
Final Gibbs free enthalpy         ...   -292.35143895 Eh

For completeness - the Gibbs free enthalpy minus the electronic energy
G-E(el)                           ...      0.18843291 Eh    118.24 kcal/mol

                             ****ORCA TERMINATED NORMALLY****
TOTAL RUN TIME: 0 days 1 hours 2 minutes 46 seconds 516 msec
