                         Program Version 3.0.3 - RELEASE   -
|  1> ! NORI PBE0 def2-TZVP UseSym TightOPT Freq TightSCF Grid3 FinalGrid5 XYZFile
|  2> % pal
|  3>     nprocs 8
|  4> end
|  5> %method
|  6>     SymThresh 5.0e-2
|  7> end
|  8> % geom
|  9>     MaxIter 10
| 10> end
| 11> % maxcore 2000
| 12> % output
| 13>     printlevel mini
| 14>     print[ P_Basis ] 0
| 15>     print[ P_SCFInfo ] 1
| 16>     print[ P_SCFIterInfo ] 1
| 17>     print[ P_OrbEn ] 0
| 18>     print[ P_Cartesian ] 0
| 19> end
| 20> % elprop
| 21>     Dipole false
| 22> end
| 23> *xyz 1 1
| 24>  C        3.3244958711     0.4607986897    -1.2255287765
| 25>  C        2.7124911229    -0.2340704086    -0.0186902306
| 26>  C        3.2551561547     0.1995763408     1.3481765392
| 27>  C        2.5628639020    -0.5586799214     2.4743164155
| 28>  C        4.7811657046     0.1401430326     1.4252437137
| 29>  C        5.3982705697     0.5747949703     2.7353088016
| 30>  N        5.2281826136    -1.2823210963     1.1339069881
| 31>  H        2.7892135209     0.1859243394    -2.1350610263
| 32>  H        4.3753970831     0.2014790713    -1.3951995179
| 33>  H        3.2690278001     1.5480386739    -1.1276965314
| 34>  H        2.7868464422    -1.3268892177    -0.1273130075
| 35>  H        1.6359547763    -0.0442772043    -0.0080428873
| 36>  H        3.0265122756     1.2655757440     1.4656749612
| 37>  H        2.7552414291    -1.6385659971     2.4411315869
| 38>  H        1.4810494415    -0.4476862999     2.3821582138
| 39>  H        2.8400065857    -0.1929808658     3.4635717779
| 40>  H        5.2033910827     0.7255924731     0.6061040351
| 41>  H        5.1037686611    -0.0675516146     3.5679340016
| 42>  H        5.0656917262     1.5873910175     2.9664795984
| 43>  H        6.4896600310     0.5966184425     2.6798646069
| 44>  H        4.8404877618    -1.9221881535     1.8304562161
| 45>  H        6.2452507570    -1.3669581077     1.1577286207
| 46>  H        4.8963746870    -1.5818139083     0.2149159008
| 47> *
| 48>
| 49>                          ****END OF INPUT****
 Total Charge           Charge          ....    1
 Multiplicity           Mult            ....    1
 Number of Electrons    NEL             ....   58
FINAL SINGLE POINT ENERGY      -292.544113042191
FINAL SINGLE POINT ENERGY      -292.544122415639
FINAL SINGLE POINT ENERGY      -292.544135265541
FINAL SINGLE POINT ENERGY      -292.544138959317
FINAL SINGLE POINT ENERGY      -292.544141010772
FINAL SINGLE POINT ENERGY      -292.544142140403

CARTESIAN COORDINATES (ANGSTROEM)
---------------------------------
  C      2.348555    0.015154   -0.893081
  C      1.132595   -0.896821   -0.838735
  C     -0.223440   -0.193812   -0.709375
  C     -1.365469   -1.203436   -0.727211
  C     -0.280947    0.767468    0.478864
  C     -1.565264    1.548930    0.639548
  N     -0.037929   -0.018040    1.756568
  H      3.247863   -0.561313   -1.112964
  H      2.540846    0.544776    0.045864
  H      2.242380    0.768418   -1.677739
  H      1.251368   -1.646641   -0.041282
  H      1.094845   -1.493808   -1.753566
  H     -0.335395    0.460716   -1.581950
  H     -1.325172   -1.904365    0.115673
  H     -1.298184   -1.817947   -1.626023
  H     -2.348466   -0.731269   -0.734115
  H      0.564724    1.455664    0.422612
  H     -2.425828    0.902373    0.823180
  H     -1.760608    2.104993   -0.278149
  H     -1.496310    2.277269    1.451333
  H     -0.779069   -0.709237    1.890701
  H     -0.024325    0.593065    2.573987
  H      0.851316   -0.519661    1.708597

FINAL SINGLE POINT ENERGY      -292.544142518502
                    ***********************HURRAY********************
 Multiplicity           Mult            ....    1
 Number of Electrons    NEL             ....   58
 Basis Dimension        Dim             ....  313
FINAL SINGLE POINT ENERGY      -292.544142689154

VIBRATIONAL FREQUENCIES
-----------------------

   0:         0.00 cm**-1
   1:         0.00 cm**-1
   2:         0.00 cm**-1
   3:         0.00 cm**-1
   4:         0.00 cm**-1
   5:         0.00 cm**-1
   6:        45.58 cm**-1
   7:       116.22 cm**-1
   8:       188.03 cm**-1
   9:       205.21 cm**-1
  10:       220.37 cm**-1
  11:       224.27 cm**-1
  12:       247.25 cm**-1
  13:       284.90 cm**-1
  14:       301.08 cm**-1
  15:       373.68 cm**-1
  16:       421.60 cm**-1
  17:       486.11 cm**-1
  18:       561.33 cm**-1
  19:       721.60 cm**-1
  20:       795.41 cm**-1
  21:       835.94 cm**-1
  22:       902.60 cm**-1
  23:       934.98 cm**-1
  24:       964.18 cm**-1
  25:       971.76 cm**-1
  26:      1012.80 cm**-1
  27:      1023.85 cm**-1
  28:      1041.12 cm**-1
  29:      1077.57 cm**-1
  30:      1157.26 cm**-1
  31:      1174.91 cm**-1
  32:      1192.10 cm**-1
  33:      1224.27 cm**-1
  34:      1277.28 cm**-1
  35:      1312.66 cm**-1
  36:      1351.06 cm**-1
  37:      1379.06 cm**-1
  38:      1387.38 cm**-1
  39:      1406.50 cm**-1
  40:      1417.00 cm**-1
  41:      1420.07 cm**-1
  42:      1422.55 cm**-1
  43:      1473.05 cm**-1
  44:      1480.44 cm**-1
  45:      1482.76 cm**-1
  46:      1487.54 cm**-1
  47:      1492.11 cm**-1
  48:      1497.37 cm**-1
  49:      1502.63 cm**-1
  50:      1507.93 cm**-1
  51:      1645.41 cm**-1
  52:      1656.14 cm**-1
  53:      2993.84 cm**-1
  54:      3032.34 cm**-1
  55:      3041.96 cm**-1
  56:      3056.73 cm**-1
  57:      3061.34 cm**-1
  58:      3090.66 cm**-1
  59:      3106.45 cm**-1
  60:      3114.19 cm**-1
  61:      3119.00 cm**-1
  62:      3137.45 cm**-1
  63:      3143.32 cm**-1
  64:      3150.07 cm**-1
  65:      3155.09 cm**-1
  66:      3421.07 cm**-1
  67:      3501.18 cm**-1
  68:      3519.69 cm**-1

IR SPECTRUM
-----------

 Mode    freq (cm**-1)   T**2         TX         TY         TZ
-------------------------------------------------------------------
   6:        45.58    8.425599  ( -2.457787  -1.010625   1.167699)
   7:       116.22    0.978523  ( -0.192167   0.326045   0.913941)
   8:       188.03    0.746129  ( -0.748270  -0.415640  -0.116035)
   9:       205.21    0.172487  ( -0.198487   0.346144  -0.115214)
  10:       220.37    8.038940  ( -0.962655   1.077739   2.439409)
  11:       224.27    1.315938  ( -1.130829   0.098995   0.165420)
  12:       247.25    4.067259  ( -0.775767  -1.357363  -1.273974)
  13:       284.90   12.870063  ( -0.155868  -1.271784  -3.350871)
  14:       301.08    1.045231  (  0.648346  -0.774600  -0.157713)
  15:       373.68    5.517241  ( -1.869335   1.415599   0.137501)
  16:       421.60    0.856722  ( -0.914301  -0.050513  -0.135001)
  17:       486.11    0.513466  (  0.412646   0.402965  -0.425216)
  18:       561.33    6.866414  (  0.824393   1.028390   2.264774)
  19:       721.60    1.268611  ( -0.827180  -0.689411   0.330297)
  20:       795.41    2.135993  (  0.444650   0.301493   1.359184)
  21:       835.94    2.665758  ( -1.166474   0.482112  -1.035695)
  22:       902.60    1.434995  ( -0.394917  -1.005339   0.518006)
  23:       934.98   13.421787  ( -3.149751   1.776529   0.587199)
  24:       964.18    5.285547  ( -0.042845  -1.075125  -2.031703)
  25:       971.76    1.948350  (  0.917785  -0.419561   0.964359)
  26:      1012.80    3.380902  (  0.040303   1.496099   1.068160)
  27:      1023.85   12.113642  ( -2.359290   1.838889   1.779292)
  28:      1041.12    5.248497  ( -0.286087   0.985667  -2.048197)
  29:      1077.57    1.625727  (  0.530076   0.663216   0.951258)
  30:      1157.26   14.708848  (  1.136511  -3.483490  -1.132470)
  31:      1174.91   10.582554  ( -1.510411   0.324964   2.862797)
  32:      1192.10    1.698396  ( -0.194758  -1.256714  -0.284842)
  33:      1224.27   15.637853  (  2.869083  -1.359693  -2.357425)
  34:      1277.28    1.251691  ( -0.386463  -0.817342   0.659006)
  35:      1312.66    2.032972  (  0.517541   1.056297   0.805829)
  36:      1351.06    1.556548  (  1.235346  -0.047126  -0.168068)
  37:      1379.06    1.751627  ( -0.682375  -0.251871  -1.105691)
  38:      1387.38    0.515346  (  0.164598   0.175597   0.676328)
  39:      1406.50    4.891198  (  1.414227   0.409273   1.650350)
  40:      1417.00   14.579337  ( -1.103641  -3.654907   0.054486)
  41:      1420.07    2.517131  ( -0.488845   0.086577   1.506873)
  42:      1422.55   33.067806  (  4.574507  -1.496977   3.146546)
  43:      1473.05  116.682282  (  0.740274  -3.128331  10.312508)
  44:      1480.44    4.911359  ( -1.426698   0.683052   1.552202)
  45:      1482.76    4.925571  (  0.223471  -1.250213   1.820055)
  46:      1487.54    8.410313  (  1.528599   2.314069   0.847811)
  47:      1492.11   19.675290  ( -1.066003  -1.483206   4.042157)
  48:      1497.37   15.984344  (  0.378766   1.553264   3.664458)
  49:      1502.63   10.117253  (  0.622494   2.702349  -1.557904)
  50:      1507.93   57.661164  ( -2.349245   4.901823  -5.302296)
  51:      1645.41   35.829641  (  5.630266   1.887762   0.752395)
  52:      1656.14   34.397016  ( -1.148067   3.798689   4.318440)
  53:      2993.84   28.670508  ( -0.525074  -3.808502   3.726945)
  54:      3032.34   15.562743  ( -1.088889  -2.052811   3.187951)
  55:      3041.96   18.805513  ( -1.055254  -2.813024  -3.127115)
  56:      3056.73   12.074207  (  0.602047   2.891395  -1.830733)
  57:      3061.34    3.860793  (  0.775959  -0.346681  -1.771579)
  58:      3090.66    1.625322  (  0.696904   1.059924  -0.127311)
  59:      3106.45    2.759439  ( -1.097194  -0.037536   1.246674)
  60:      3114.19   19.511141  (  0.208847  -0.696623  -4.356861)
  61:      3119.00   13.563677  (  1.582015  -1.402429   3.015642)
  62:      3137.45    9.278096  ( -0.798702  -2.366938  -1.742921)
  63:      3143.32    6.148461  ( -1.591040   1.900854  -0.061701)
  64:      3150.07    3.697697  ( -1.623294   1.024509   0.113991)
  65:      3155.09    4.397999  ( -2.000488   0.215195   0.591386)
  66:      3421.07   21.498638  ( -1.230972   3.028353  -3.288225)
  67:      3501.18   78.229276  (  8.667373   1.374309  -1.103266)
  68:      3519.69   96.604859  (  0.747434  -7.038208  -6.819811)

--------------------------
THERMOCHEMISTRY AT 298.15K
--------------------------

Temperature         ... 298.15 K
Pressure            ... 1.00 atm
Total Mass          ... 102.20 AMU

Throughout the following assumptions are being made:
  (1) The electronic state is orbitally nondegenerate
  (2) There are no thermally accessible electronically excited states
  (3) Hindered rotations indicated by low frequency modes) are not
      treated as such but are treated as vibrations and this may
      case some error
  (4) All equations used are the standard statistical mechanics
      equations for an ideal gas
  (5) All vibrations are strinctly harmonic

------------
INNER ENERGY
------------

The inner energy is: U= E(el) + E(ZPE) + E(vib) + E(rot) + E(trans)
    E(el)   - is the total energy from the electronic structure calculation
              = E(kin-el) + E(nuc-el) + E(el-el) + E(nuc-nuc)
    E(ZPE)  - the the zero temperature vibrational energy from the frequency calculation
    E(vib)  - the the finite temperature correction to E(ZPE) due to population
              of excietd vibrational states
    E(rot)  - is the rotational thermal energy
    E(trans)- is the translational thermal energy

Summary of contributions to the inner energy U:
Electronic energy                ...   -292.54414269 Eh
Zero point energy                ...      0.22086680 Eh     138.60 kcal/mol
Thermal vibrational correction   ...      0.00688139 Eh       4.32 kcal/mol
Thermal rotational correction    ...      0.00141627 Eh       0.89 kcal/mol
Thermal translational correction ...      0.00141627 Eh       0.89 kcal/mol
-----------------------------------------------------------------------
Total thermal energy                   -292.31356195 Eh

Summary of corrections to the electronic energy:
(perhaps to be used in another calculation)
Total thermal correction                  0.00971393 Eh       6.10 kcal/mol
Non-thermal (ZPE) correction              0.22086680 Eh     138.60 kcal/mol
-----------------------------------------------------------------------
Total correction                          0.23058074 Eh     144.69 kcal/mol

--------
ENTHALPY
--------

The enthalpy is H = U + kB*T
                kB is Boltzmann's constant
Total free energy                 ...   -292.31356195 Eh
Thermal Enthalpy correction       ...      0.00094421 Eh       0.59 kcal/mol
-----------------------------------------------------------------------
Total Enthalpy                    ...   -292.31261774 Eh

-------
ENTROPY
-------

The entropy contributions are T*S = T*(S(el)+S(vib)+S(rot)+S(trans)
     S(el)   - electronic entropy
     S(vib)  - vibrational entropy
     S(rot)  - rotational entropy
     S(trans)- translational entropy
The entropies will be listed as mutliplied by the temperature to get
units of energy

Electronic entropy                ...      0.00000000 Eh      0.00 kcal/mol
Vibrational entropy               ...      0.01242194 Eh      7.79 kcal/mol
Rotational entropy                ...      0.01226662 Eh      7.70 kcal/mol
Translational entropy             ...      0.01890208 Eh     11.86 kcal/mol
-----------------------------------------------------------------------
Final entropy term                ...      0.04359064 Eh     27.35 kcal/mol

CAUTION: The rotational entropy is not quite correctly treated here
         because it includes a symmetry number that is not yet correctly
         implemented in ORCA!
For a nonlinear molecule the correct rotational entropy is:
    S(rot) = R*(ln(qrot/sn)+1.5)
    R    = 8.31441 J/mol/K = 1.987191683e-3 kcal/mol/K
    qrot = 293733.1264256
    sn is the rotational symmetry number. We have assumed 3 here
       if it is different for your molecule then you should correct
       the printed rotational entropy by manually evaluating the equation
       as given above

For convenience we print out the resulting values for sn=1 - 12:
 sn= 1  qrot/sn=  293733.1264 T*S(rot)=     8.35 kcal/mol T*S(tot)=    28.00 kcal/mol
 sn= 2  qrot/sn=  146866.5632 T*S(rot)=     7.94 kcal/mol T*S(tot)=    27.59 kcal/mol
 sn= 3  qrot/sn=   97911.0421 T*S(rot)=     7.70 kcal/mol T*S(tot)=    27.35 kcal/mol
 sn= 4  qrot/sn=   73433.2816 T*S(rot)=     7.53 kcal/mol T*S(tot)=    27.18 kcal/mol
 sn= 5  qrot/sn=   58746.6253 T*S(rot)=     7.39 kcal/mol T*S(tot)=    27.05 kcal/mol
 sn= 6  qrot/sn=   48955.5211 T*S(rot)=     7.29 kcal/mol T*S(tot)=    26.94 kcal/mol
 sn= 7  qrot/sn=   41961.8752 T*S(rot)=     7.20 kcal/mol T*S(tot)=    26.85 kcal/mol
 sn= 8  qrot/sn=   36716.6408 T*S(rot)=     7.12 kcal/mol T*S(tot)=    26.77 kcal/mol
 sn= 9  qrot/sn=   32637.0140 T*S(rot)=     7.05 kcal/mol T*S(tot)=    26.70 kcal/mol
 sn=10  qrot/sn=   29373.3126 T*S(rot)=     6.98 kcal/mol T*S(tot)=    26.64 kcal/mol
 sn=11  qrot/sn=   26703.0115 T*S(rot)=     6.93 kcal/mol T*S(tot)=    26.58 kcal/mol
 sn=12  qrot/sn=   24477.7605 T*S(rot)=     6.88 kcal/mol T*S(tot)=    26.53 kcal/mol

-------------------
GIBBS FREE ENTHALPY
-------------------

The Gibbs free enthalpy is G = H - T*S

Total enthalpy                    ...   -292.31261774 Eh
Total entropy correction          ...     -0.04359064 Eh    -27.35 kcal/mol
-----------------------------------------------------------------------
Final Gibbs free enthalpy         ...   -292.35620838 Eh

For completeness - the Gibbs free enthalpy minus the electronic energy
G-E(el)                           ...      0.18793430 Eh    117.93 kcal/mol

                             ****ORCA TERMINATED NORMALLY****
TOTAL RUN TIME: 0 days 1 hours 6 minutes 25 seconds 505 msec
