                         Program Version 3.0.3 - RELEASE   -
|  1> ! NORI PBE0 def2-TZVP UseSym TightOPT Freq TightSCF Grid3 FinalGrid5 XYZFile
|  2> % pal
|  3>     nprocs 8
|  4> end
|  5> %method
|  6>     SymThresh 5.0e-2
|  7> end
|  8> % geom
|  9>     MaxIter 10
| 10> end
| 11> % maxcore 2000
| 12> % output
| 13>     printlevel mini
| 14>     print[ P_Basis ] 0
| 15>     print[ P_SCFInfo ] 1
| 16>     print[ P_SCFIterInfo ] 1
| 17>     print[ P_OrbEn ] 0
| 18>     print[ P_Cartesian ] 0
| 19> end
| 20> % elprop
| 21>     Dipole false
| 22> end
| 23> *xyz 1 1
| 24>  C        3.1011223343     0.3348781947    -1.3184040385
| 25>  C        2.9966424334    -0.5905774962    -0.1160152860
| 26>  C        3.3159014568     0.0570944066     1.2341362913
| 27>  C        3.0487430835    -0.8763298899     2.4211769064
| 28>  C        1.5724693339    -1.1170824819     2.6964409757
| 29>  C        4.7231565242     0.6261856276     1.2920162100
| 30>  N        5.7465811053    -0.4785689981     1.2067625158
| 31>  H        2.7603045044    -0.1713606728    -2.2223236355
| 32>  H        4.1222059023     0.6746272480    -1.5165187957
| 33>  H        2.4789218297     1.2227430050    -1.1851813165
| 34>  H        3.6214394659    -1.4842436106    -0.2668410985
| 35>  H        1.9798870590    -0.9839772345    -0.0608542764
| 36>  H        2.6669629787     0.9345603798     1.3461117980
| 37>  H        3.5042098526    -0.4495235937     3.3242701299
| 38>  H        3.5320575380    -1.8501250860     2.2506765169
| 39>  H        1.0565291878    -0.1753118499     2.8958836136
| 40>  H        1.4448922416    -1.7571003725     3.5702866667
| 41>  H        1.0726786144    -1.6058119478     1.8587920249
| 42>  H        4.9371742319     1.3060312569     0.4677212423
| 43>  H        4.9122866654     1.1425270786     2.2338971904
| 44>  H        5.6383518800    -0.9972778243     0.3326032182
| 45>  H        5.6138002468    -1.1404257760     1.9746701412
| 46>  H        6.7016715303    -0.1215603631     1.2510430057
| 47> *
| 48>
| 49>                          ****END OF INPUT****
 Total Charge           Charge          ....    1
 Multiplicity           Mult            ....    1
 Number of Electrons    NEL             ....   58
FINAL SINGLE POINT ENERGY      -292.538366140843
FINAL SINGLE POINT ENERGY      -292.538372854745
FINAL SINGLE POINT ENERGY      -292.538391575914
FINAL SINGLE POINT ENERGY      -292.538402400868
FINAL SINGLE POINT ENERGY      -292.538412572162
FINAL SINGLE POINT ENERGY      -292.538419380507
FINAL SINGLE POINT ENERGY      -292.538422493994
FINAL SINGLE POINT ENERGY      -292.538423591582

CARTESIAN COORDINATES (ANGSTROEM)
---------------------------------
  C      2.394570   -0.013579   -0.586009
  C      0.982422   -0.576728   -0.636093
  C     -0.128524    0.406709   -0.256857
  C     -1.530199   -0.203896   -0.364509
  C     -1.952668   -0.544888   -1.785207
  C      0.090389    1.038827    1.107338
  N      0.077825   -0.011292    2.190618
  H      3.109724   -0.738467   -0.976465
  H      2.728531    0.239168    0.425783
  H      2.480271    0.890942   -1.193230
  H      0.910011   -1.485791   -0.019622
  H      0.780002   -0.926187   -1.649999
  H     -0.078194    1.252899   -0.953790
  H     -2.257442    0.500556    0.057080
  H     -1.591664   -1.120980    0.240901
  H     -1.902018    0.337003   -2.428068
  H     -2.981230   -0.907105   -1.800572
  H     -1.327872   -1.322767   -2.226247
  H      1.051742    1.545567    1.185987
  H     -0.702229    1.744547    1.358481
  H      0.819149   -0.696504    2.029042
  H     -0.811693   -0.515067    2.185284
  H      0.212281    0.393250    3.118005

FINAL SINGLE POINT ENERGY      -292.538424068769
                    ***********************HURRAY********************
 Multiplicity           Mult            ....    1
 Number of Electrons    NEL             ....   58
 Basis Dimension        Dim             ....  313
FINAL SINGLE POINT ENERGY      -292.538424207496

VIBRATIONAL FREQUENCIES
-----------------------

   0:         0.00 cm**-1
   1:         0.00 cm**-1
   2:         0.00 cm**-1
   3:         0.00 cm**-1
   4:         0.00 cm**-1
   5:         0.00 cm**-1
   6:        42.74 cm**-1
   7:        90.68 cm**-1
   8:       118.34 cm**-1
   9:       185.69 cm**-1
  10:       200.20 cm**-1
  11:       218.08 cm**-1
  12:       248.43 cm**-1
  13:       287.41 cm**-1
  14:       304.70 cm**-1
  15:       395.62 cm**-1
  16:       452.18 cm**-1
  17:       566.97 cm**-1
  18:       745.59 cm**-1
  19:       772.67 cm**-1
  20:       829.13 cm**-1
  21:       835.48 cm**-1
  22:       896.99 cm**-1
  23:       935.27 cm**-1
  24:       986.97 cm**-1
  25:      1011.41 cm**-1
  26:      1033.98 cm**-1
  27:      1046.42 cm**-1
  28:      1071.30 cm**-1
  29:      1077.49 cm**-1
  30:      1143.36 cm**-1
  31:      1187.32 cm**-1
  32:      1201.45 cm**-1
  33:      1271.47 cm**-1
  34:      1293.79 cm**-1
  35:      1326.38 cm**-1
  36:      1343.36 cm**-1
  37:      1349.63 cm**-1
  38:      1391.18 cm**-1
  39:      1393.61 cm**-1
  40:      1406.53 cm**-1
  41:      1417.82 cm**-1
  42:      1420.09 cm**-1
  43:      1475.91 cm**-1
  44:      1478.86 cm**-1
  45:      1487.29 cm**-1
  46:      1491.54 cm**-1
  47:      1494.65 cm**-1
  48:      1499.08 cm**-1
  49:      1501.31 cm**-1
  50:      1507.39 cm**-1
  51:      1649.07 cm**-1
  52:      1661.57 cm**-1
  53:      2990.99 cm**-1
  54:      2996.40 cm**-1
  55:      3042.26 cm**-1
  56:      3045.06 cm**-1
  57:      3055.39 cm**-1
  58:      3063.46 cm**-1
  59:      3101.57 cm**-1
  60:      3106.21 cm**-1
  61:      3120.60 cm**-1
  62:      3139.32 cm**-1
  63:      3143.48 cm**-1
  64:      3147.90 cm**-1
  65:      3164.23 cm**-1
  66:      3424.02 cm**-1
  67:      3498.91 cm**-1
  68:      3519.90 cm**-1

IR SPECTRUM
-----------

 Mode    freq (cm**-1)   T**2         TX         TY         TZ
-------------------------------------------------------------------
   6:        42.74    7.651828  (  2.500025  -0.408056  -1.111394)
   7:        90.68    3.709044  (  1.703848   0.719293  -0.537180)
   8:       118.34    4.774423  (  1.940360   0.040895   1.003870)
   9:       185.69    3.625008  ( -0.964067  -0.634658  -1.514197)
  10:       200.20    7.100371  ( -0.227232   1.169583   2.383445)
  11:       218.08    1.879193  ( -0.333629   0.411032   1.264491)
  12:       248.43    1.040853  (  0.372757  -0.275402  -0.908878)
  13:       287.41   16.533094  (  0.488745   0.641523   3.985307)
  14:       304.70    1.522555  ( -0.105678   0.142342   1.221117)
  15:       395.62    0.345069  ( -0.145010   0.302287  -0.482352)
  16:       452.18    1.661889  ( -0.368581   0.146377   1.226626)
  17:       566.97    7.037725  ( -0.787362   0.002473  -2.533334)
  18:       745.59    0.586515  (  0.038182   0.509233  -0.570735)
  19:       772.67    4.329653  ( -1.900673   0.826751   0.183248)
  20:       829.13    5.667550  ( -2.185938  -0.642331   0.690387)
  21:       835.48    7.609578  (  2.454592  -0.982454   0.786984)
  22:       896.99   10.257715  (  0.259943  -1.233430  -2.944282)
  23:       935.27    7.816582  (  2.774023  -0.292286  -0.189595)
  24:       986.97    5.855497  (  0.669870  -2.285382  -0.428720)
  25:      1011.41    0.673074  (  0.381145  -0.500039   0.527033)
  26:      1033.98   14.554853  ( -0.123575   0.622525   3.761920)
  27:      1046.42    3.168992  ( -0.126982   0.619044   1.664227)
  28:      1071.30    0.689202  ( -0.495982  -0.204991  -0.633390)
  29:      1077.49    3.305459  (  0.027085   0.166587   1.810241)
  30:      1143.36   11.736358  ( -1.695192  -2.376833  -1.792581)
  31:      1187.32    1.803910  ( -0.162274  -1.231480  -0.510914)
  32:      1201.45    1.788447  (  0.398057  -0.975277  -0.823913)
  33:      1271.47    0.265917  ( -0.428783  -0.285456  -0.024003)
  34:      1293.79    3.940500  (  1.392966   1.302980   0.549898)
  35:      1326.38    2.020438  (  1.279100  -0.546705   0.292324)
  36:      1343.36   10.786495  ( -3.178236   0.724462   0.400577)
  37:      1349.63    2.281038  ( -1.125520  -0.096152   1.002496)
  38:      1391.18    2.190606  ( -1.157026   0.097939  -0.917772)
  39:      1393.61    0.444924  (  0.309404  -0.185196   0.561155)
  40:      1406.53    2.167313  (  0.274621  -0.728364   1.249553)
  41:      1417.82    4.345502  ( -0.516738   0.054252  -2.018797)
  42:      1420.09    5.723710  (  1.994533   1.143656  -0.661512)
  43:      1475.91   23.967045  ( -0.382341   2.239697  -4.336429)
  44:      1478.86   30.379321  (  0.761334  -3.831538   3.888317)
  45:      1487.29   34.200388  (  0.411839  -0.297761  -5.825986)
  46:      1491.54   12.406587  (  2.806293  -2.118635   0.206618)
  47:      1494.65   66.799667  ( -0.537427  -5.056815   6.398395)
  48:      1499.08    3.574776  (  0.695828  -0.563824   1.665143)
  49:      1501.31   35.824657  ( -1.101859  -5.801689  -0.975174)
  50:      1507.39   51.067962  ( -0.232680  -3.143934   6.413229)
  51:      1649.07   36.967411  ( -5.946006   0.902585   0.893175)
  52:      1661.57   32.771551  ( -0.548682  -2.655698  -5.041604)
  53:      2990.99   18.954918  ( -0.175639  -0.686815   4.295620)
  54:      2996.40   48.635746  ( -1.603037  -4.925284   4.669860)
  55:      3042.26   20.357320  (  2.351659   1.574879   3.513798)
  56:      3045.06    7.150853  ( -1.979056  -0.066111   1.797170)
  57:      3055.39   18.618470  (  1.354937  -4.089581  -0.240715)
  58:      3063.46    9.057307  (  0.336083  -0.156109   2.986634)
  59:      3101.57    4.677008  (  0.865631   1.131952  -1.626769)
  60:      3106.21    5.150892  ( -0.336649   1.427410   1.732068)
  61:      3120.60   20.684328  ( -0.614778   0.737540  -4.445493)
  62:      3139.32   11.504258  (  0.039388   3.389976  -0.103784)
  63:      3143.48    6.669836  (  1.013872  -2.346111  -0.371027)
  64:      3147.90   12.090927  ( -3.181832   0.953669   1.028292)
  65:      3164.23    1.719416  ( -1.233880  -0.105673  -0.431033)
  66:      3424.02   22.596771  (  0.320012   3.591436  -3.097733)
  67:      3498.91   90.321530  ( -9.445246   0.806727   0.676788)
  68:      3519.90  121.444074  (  1.493292   6.057630   9.084012)

--------------------------
THERMOCHEMISTRY AT 298.15K
--------------------------

Temperature         ... 298.15 K
Pressure            ... 1.00 atm
Total Mass          ... 102.20 AMU

Throughout the following assumptions are being made:
  (1) The electronic state is orbitally nondegenerate
  (2) There are no thermally accessible electronically excited states
  (3) Hindered rotations indicated by low frequency modes) are not
      treated as such but are treated as vibrations and this may
      case some error
  (4) All equations used are the standard statistical mechanics
      equations for an ideal gas
  (5) All vibrations are strinctly harmonic

------------
INNER ENERGY
------------

The inner energy is: U= E(el) + E(ZPE) + E(vib) + E(rot) + E(trans)
    E(el)   - is the total energy from the electronic structure calculation
              = E(kin-el) + E(nuc-el) + E(el-el) + E(nuc-nuc)
    E(ZPE)  - the the zero temperature vibrational energy from the frequency calculation
    E(vib)  - the the finite temperature correction to E(ZPE) due to population
              of excietd vibrational states
    E(rot)  - is the rotational thermal energy
    E(trans)- is the translational thermal energy

Summary of contributions to the inner energy U:
Electronic energy                ...   -292.53842421 Eh
Zero point energy                ...      0.22167956 Eh     139.11 kcal/mol
Thermal vibrational correction   ...      0.00687949 Eh       4.32 kcal/mol
Thermal rotational correction    ...      0.00141627 Eh       0.89 kcal/mol
Thermal translational correction ...      0.00141627 Eh       0.89 kcal/mol
-----------------------------------------------------------------------
Total thermal energy                   -292.30703261 Eh

Summary of corrections to the electronic energy:
(perhaps to be used in another calculation)
Total thermal correction                  0.00971203 Eh       6.09 kcal/mol
Non-thermal (ZPE) correction              0.22167956 Eh     139.11 kcal/mol
-----------------------------------------------------------------------
Total correction                          0.23139160 Eh     145.20 kcal/mol

--------
ENTHALPY
--------

The enthalpy is H = U + kB*T
                kB is Boltzmann's constant
Total free energy                 ...   -292.30703261 Eh
Thermal Enthalpy correction       ...      0.00094421 Eh       0.59 kcal/mol
-----------------------------------------------------------------------
Total Enthalpy                    ...   -292.30608840 Eh

-------
ENTROPY
-------

The entropy contributions are T*S = T*(S(el)+S(vib)+S(rot)+S(trans)
     S(el)   - electronic entropy
     S(vib)  - vibrational entropy
     S(rot)  - rotational entropy
     S(trans)- translational entropy
The entropies will be listed as mutliplied by the temperature to get
units of energy

Electronic entropy                ...      0.00000000 Eh      0.00 kcal/mol
Vibrational entropy               ...      0.01294292 Eh      8.12 kcal/mol
Rotational entropy                ...      0.01238449 Eh      7.77 kcal/mol
Translational entropy             ...      0.01890208 Eh     11.86 kcal/mol
-----------------------------------------------------------------------
Final entropy term                ...      0.04422949 Eh     27.75 kcal/mol

CAUTION: The rotational entropy is not quite correctly treated here
         because it includes a symmetry number that is not yet correctly
         implemented in ORCA!
For a nonlinear molecule the correct rotational entropy is:
    S(rot) = R*(ln(qrot/sn)+1.5)
    R    = 8.31441 J/mol/K = 1.987191683e-3 kcal/mol/K
    qrot = 332789.5815023
    sn is the rotational symmetry number. We have assumed 3 here
       if it is different for your molecule then you should correct
       the printed rotational entropy by manually evaluating the equation
       as given above

For convenience we print out the resulting values for sn=1 - 12:
 sn= 1  qrot/sn=  332789.5815 T*S(rot)=     8.42 kcal/mol T*S(tot)=    28.41 kcal/mol
 sn= 2  qrot/sn=  166394.7908 T*S(rot)=     8.01 kcal/mol T*S(tot)=    27.99 kcal/mol
 sn= 3  qrot/sn=  110929.8605 T*S(rot)=     7.77 kcal/mol T*S(tot)=    27.75 kcal/mol
 sn= 4  qrot/sn=   83197.3954 T*S(rot)=     7.60 kcal/mol T*S(tot)=    27.58 kcal/mol
 sn= 5  qrot/sn=   66557.9163 T*S(rot)=     7.47 kcal/mol T*S(tot)=    27.45 kcal/mol
 sn= 6  qrot/sn=   55464.9303 T*S(rot)=     7.36 kcal/mol T*S(tot)=    27.34 kcal/mol
 sn= 7  qrot/sn=   47541.3688 T*S(rot)=     7.27 kcal/mol T*S(tot)=    27.25 kcal/mol
 sn= 8  qrot/sn=   41598.6977 T*S(rot)=     7.19 kcal/mol T*S(tot)=    27.17 kcal/mol
 sn= 9  qrot/sn=   36976.6202 T*S(rot)=     7.12 kcal/mol T*S(tot)=    27.10 kcal/mol
 sn=10  qrot/sn=   33278.9582 T*S(rot)=     7.06 kcal/mol T*S(tot)=    27.04 kcal/mol
 sn=11  qrot/sn=   30253.5983 T*S(rot)=     7.00 kcal/mol T*S(tot)=    26.98 kcal/mol
 sn=12  qrot/sn=   27732.4651 T*S(rot)=     6.95 kcal/mol T*S(tot)=    26.93 kcal/mol

-------------------
GIBBS FREE ENTHALPY
-------------------

The Gibbs free enthalpy is G = H - T*S

Total enthalpy                    ...   -292.30608840 Eh
Total entropy correction          ...     -0.04422949 Eh    -27.75 kcal/mol
-----------------------------------------------------------------------
Final Gibbs free enthalpy         ...   -292.35031789 Eh

For completeness - the Gibbs free enthalpy minus the electronic energy
G-E(el)                           ...      0.18810632 Eh    118.04 kcal/mol

                             ****ORCA TERMINATED NORMALLY****
TOTAL RUN TIME: 0 days 1 hours 8 minutes 22 seconds 230 msec
