                         Program Version 3.0.3 - RELEASE   -
|  1> ! NORI PBE0 def2-TZVP UseSym TightOPT Freq TightSCF Grid3 FinalGrid5 XYZFile
|  2> % pal
|  3>     nprocs 8
|  4> end
|  5> %method
|  6>     SymThresh 5.0e-2
|  7> end
|  8> % geom
|  9>     MaxIter 10
| 10> end
| 11> % maxcore 2000
| 12> % output
| 13>     printlevel mini
| 14>     print[ P_Basis ] 0
| 15>     print[ P_SCFInfo ] 1
| 16>     print[ P_SCFIterInfo ] 1
| 17>     print[ P_OrbEn ] 0
| 18>     print[ P_Cartesian ] 0
| 19> end
| 20> % elprop
| 21>     Dipole false
| 22> end
| 23> *xyz 1 1
| 24>  C        0.9119030134     0.0673339250     0.1581427012
| 25>  C        2.4346343863     0.0825298990     0.0459705321
| 26>  C        2.9259849869    -0.5812780305    -1.1492971393
| 27>  C        3.3341785357    -1.1350556900    -2.1357244175
| 28>  C        3.8186113720    -1.8005381084    -3.3294631642
| 29>  C        2.6922053253    -1.9181723368    -4.3430371731
| 30>  N        3.1778307434    -2.6040702297    -5.5976162524
| 31>  H        0.6014859751     0.5734721844     1.0730307746
| 32>  H        0.5309406452    -0.9544133439     0.1895384584
| 33>  H        0.4504808147     0.5810665391    -0.6867187651
| 34>  H        2.8039753713     1.1128631598     0.0481963235
| 35>  H        2.8818658890    -0.4053550360     0.9177509072
| 36>  H        4.6547302780    -1.2358527880    -3.7621163923
| 37>  H        4.2006108123    -2.7980166501    -3.0758999873
| 38>  H        1.8644691589    -2.5129717122    -3.9577233849
| 39>  H        2.3169734108    -0.9402082980    -4.6429774851
| 40>  H        3.5240848680    -3.5438324361    -5.3916605526
| 41>  H        3.9454734474    -2.0819741232    -6.0262746204
| 42>  H        2.4329909663    -2.6913369244    -6.2920803629
| 43> *
| 44>
| 45>                          ****END OF INPUT****
 Total Charge           Charge          ....    1
 Multiplicity           Mult            ....    1
 Number of Electrons    NEL             ....   54
FINAL SINGLE POINT ENERGY      -290.061088141038

CARTESIAN COORDINATES (ANGSTROEM)
---------------------------------
  C      1.446590   -0.000744   -3.084359
  C     -0.048520    0.117241   -2.796281
  C     -0.368096    0.018646   -1.382415
  C     -0.634117   -0.068112   -0.212868
  C     -0.946346   -0.169123    1.199543
  C      0.304697    0.096023    2.020742
  N      0.000388   -0.000543    3.496340
  H      1.625398    0.075892   -4.157442
  H      1.837412   -0.960233   -2.742485
  H      2.005925    0.794807   -2.589655
  H     -0.432437    1.070281   -3.173822
  H     -0.597786   -0.666573   -3.327659
  H     -1.728923    0.553851    1.464591
  H     -1.340074   -1.168231    1.428035
  H      1.086068   -0.633905    1.810895
  H      0.697326    1.097002    1.844139
  H     -0.352206   -0.929445    3.738191
  H     -0.714208    0.678558    3.767930
  H      0.830998    0.175684    4.064961

FINAL SINGLE POINT ENERGY      -290.061088864185
                    ***********************HURRAY********************
 Multiplicity           Mult            ....    1
 Number of Electrons    NEL             ....   54
 Basis Dimension        Dim             ....  289
FINAL SINGLE POINT ENERGY      -290.061089263582

VIBRATIONAL FREQUENCIES
-----------------------

   0:         0.00 cm**-1
   1:         0.00 cm**-1
   2:         0.00 cm**-1
   3:         0.00 cm**-1
   4:         0.00 cm**-1
   5:         0.00 cm**-1
   6:       -10.70 cm**-1
   7:        69.97 cm**-1
   8:        82.48 cm**-1
   9:       176.17 cm**-1
  10:       197.50 cm**-1
  11:       215.64 cm**-1
  12:       262.04 cm**-1
  13:       332.72 cm**-1
  14:       384.10 cm**-1
  15:       422.05 cm**-1
  16:       571.68 cm**-1
  17:       758.28 cm**-1
  18:       773.70 cm**-1
  19:       783.07 cm**-1
  20:       889.22 cm**-1
  21:       912.26 cm**-1
  22:       967.17 cm**-1
  23:       996.43 cm**-1
  24:      1086.10 cm**-1
  25:      1098.50 cm**-1
  26:      1116.14 cm**-1
  27:      1141.19 cm**-1
  28:      1181.42 cm**-1
  29:      1284.22 cm**-1
  30:      1292.29 cm**-1
  31:      1337.64 cm**-1
  32:      1343.73 cm**-1
  33:      1351.22 cm**-1
  34:      1407.49 cm**-1
  35:      1413.06 cm**-1
  36:      1462.26 cm**-1
  37:      1469.48 cm**-1
  38:      1489.99 cm**-1
  39:      1494.93 cm**-1
  40:      1496.56 cm**-1
  41:      1506.27 cm**-1
  42:      1658.06 cm**-1
  43:      1663.56 cm**-1
  44:      2372.47 cm**-1
  45:      3015.90 cm**-1
  46:      3052.80 cm**-1
  47:      3054.76 cm**-1
  48:      3066.22 cm**-1
  49:      3089.74 cm**-1
  50:      3112.56 cm**-1
  51:      3145.73 cm**-1
  52:      3150.75 cm**-1
  53:      3175.54 cm**-1
  54:      3421.62 cm**-1
  55:      3501.17 cm**-1
  56:      3509.67 cm**-1

IR SPECTRUM
-----------

 Mode    freq (cm**-1)   T**2         TX         TY         TZ
-------------------------------------------------------------------
   7:        69.97   12.913399  ( -3.328559   0.250043   1.331005)
   8:        82.48   11.706510  (  0.219658   3.406289  -0.235485)
   9:       176.17    2.314520  ( -0.465670  -1.448237  -0.016736)
  10:       197.50    1.144271  (  0.690211  -0.798318  -0.174838)
  11:       215.64    0.051317  (  0.037950  -0.223326   0.001584)
  12:       262.04    5.243819  ( -0.460822   2.240704  -0.103471)
  13:       332.72    8.367632  ( -0.562511  -0.375501  -2.812510)
  14:       384.10   11.190974  ( -2.465754  -0.090268  -2.258956)
  15:       422.05    5.093678  (  1.630075   0.431344   1.500159)
  16:       571.68    4.227705  ( -0.194519  -0.161771  -2.040514)
  17:       758.28    1.167761  (  1.056728   0.209411   0.085054)
  18:       773.70    5.433348  (  0.543996  -2.265941  -0.054109)
  19:       783.07    2.803784  (  0.209081   1.642710   0.248137)
  20:       889.22   33.721269  (  3.109276   0.632245   4.863532)
  21:       912.26    9.168872  ( -0.639316   2.959320   0.050733)
  22:       967.17    7.922020  ( -1.787406  -0.418406   2.133574)
  23:       996.43    4.538800  ( -1.240829  -0.313594   1.703174)
  24:      1086.10    5.696598  (  0.087394  -0.052851   2.384568)
  25:      1098.50    1.431378  (  0.156259  -1.169490   0.198130)
  26:      1116.14    1.140452  (  0.387782  -0.994643   0.027608)
  27:      1141.19   10.088805  (  2.524225   0.573414   1.840730)
  28:      1181.42    2.885100  ( -0.373313  -0.148327   1.650375)
  29:      1284.22    0.002063  (  0.042755  -0.004318   0.014722)
  30:      1292.29    0.360097  ( -0.074956   0.593624   0.045697)
  31:      1337.64    7.162713  (  0.332133  -0.143124  -2.651776)
  32:      1343.73    5.365504  ( -0.520225   2.243891  -0.244587)
  33:      1351.22   18.158804  ( -0.084006   0.144221  -4.258045)
  34:      1407.49    3.242953  ( -1.538972   0.162133  -0.920994)
  35:      1413.06    0.521674  (  0.632465   0.193679   0.290088)
  36:      1462.26    6.507359  (  2.516061  -0.347692   0.236448)
  37:      1469.48    1.511877  ( -0.735864  -0.117590  -0.978036)
  38:      1489.99   11.424723  (  0.430796   3.326258   0.418502)
  39:      1494.93    9.174430  ( -2.852862  -0.622345  -0.805169)
  40:      1496.56    9.807518  (  1.557593  -0.004306   2.716874)
  41:      1506.27  167.447082  (  2.630639   0.858242 -12.640817)
  42:      1658.06   52.520646  ( -1.604292   7.065736   0.149214)
  43:      1663.56   38.888742  ( -5.806588  -1.290736  -1.872506)
  44:      2372.47   65.845761  ( -1.564275  -0.316305   7.956052)
  45:      3015.90   32.870266  ( -2.132633  -0.575531   5.290643)
  46:      3052.80    2.639654  ( -0.288871   1.588034   0.185350)
  47:      3054.76    2.777341  (  1.011615  -0.448779   1.246023)
  48:      3066.22   16.468314  ( -3.924236   0.220511   1.009982)
  49:      3089.74    0.151262  (  0.007399  -0.348857   0.171773)
  50:      3112.56    0.536002  (  0.687586   0.134447   0.212490)
  51:      3145.73   15.218482  ( -0.464180  -3.819363  -0.644579)
  52:      3150.75   11.501409  (  0.727033  -0.643526   3.249416)
  53:      3175.54    0.002168  ( -0.007163  -0.045497  -0.006805)
  54:      3421.62   61.138162  (  1.025862   0.385122  -7.741928)
  55:      3501.17   94.222279  (  1.953917  -9.503849  -0.285215)
  56:      3509.67  106.823402  ( -9.635015  -1.927668  -3.205306)

--------------------------
THERMOCHEMISTRY AT 298.15K
--------------------------

Temperature         ... 298.15 K
Pressure            ... 1.00 atm
Total Mass          ... 98.17 AMU

Throughout the following assumptions are being made:
  (1) The electronic state is orbitally nondegenerate
  (2) There are no thermally accessible electronically excited states
  (3) Hindered rotations indicated by low frequency modes) are not
      treated as such but are treated as vibrations and this may
      case some error
  (4) All equations used are the standard statistical mechanics
      equations for an ideal gas
  (5) All vibrations are strinctly harmonic

------------
INNER ENERGY
------------

The inner energy is: U= E(el) + E(ZPE) + E(vib) + E(rot) + E(trans)
    E(el)   - is the total energy from the electronic structure calculation
              = E(kin-el) + E(nuc-el) + E(el-el) + E(nuc-nuc)
    E(ZPE)  - the the zero temperature vibrational energy from the frequency calculation
    E(vib)  - the the finite temperature correction to E(ZPE) due to population
              of excietd vibrational states
    E(rot)  - is the rotational thermal energy
    E(trans)- is the translational thermal energy

Summary of contributions to the inner energy U:
Electronic energy                ...   -290.06108926 Eh
Zero point energy                ...      0.17486651 Eh     109.73 kcal/mol
Thermal vibrational correction   ...      0.00556783 Eh       3.49 kcal/mol
Thermal rotational correction    ...      0.00141627 Eh       0.89 kcal/mol
Thermal translational correction ...      0.00141627 Eh       0.89 kcal/mol
-----------------------------------------------------------------------
Total thermal energy                   -289.87782238 Eh

Summary of corrections to the electronic energy:
(perhaps to be used in another calculation)
Total thermal correction                  0.00840038 Eh       5.27 kcal/mol
Non-thermal (ZPE) correction              0.17486651 Eh     109.73 kcal/mol
-----------------------------------------------------------------------
Total correction                          0.18326689 Eh     115.00 kcal/mol

--------
ENTHALPY
--------

The enthalpy is H = U + kB*T
                kB is Boltzmann's constant
Total free energy                 ...   -289.87782238 Eh
Thermal Enthalpy correction       ...      0.00094421 Eh       0.59 kcal/mol
-----------------------------------------------------------------------
Total Enthalpy                    ...   -289.87687817 Eh

-------
ENTROPY
-------

The entropy contributions are T*S = T*(S(el)+S(vib)+S(rot)+S(trans)
     S(el)   - electronic entropy
     S(vib)  - vibrational entropy
     S(rot)  - rotational entropy
     S(trans)- translational entropy
The entropies will be listed as mutliplied by the temperature to get
units of energy

Electronic entropy                ...      0.00000000 Eh      0.00 kcal/mol
Vibrational entropy               ...      0.01022349 Eh      6.42 kcal/mol
Rotational entropy                ...      0.01248935 Eh      7.84 kcal/mol
Translational entropy             ...      0.01884507 Eh     11.83 kcal/mol
-----------------------------------------------------------------------
Final entropy term                ...      0.04155790 Eh     26.08 kcal/mol

CAUTION: The rotational entropy is not quite correctly treated here
         because it includes a symmetry number that is not yet correctly
         implemented in ORCA!
For a nonlinear molecule the correct rotational entropy is:
    S(rot) = R*(ln(qrot/sn)+1.5)
    R    = 8.31441 J/mol/K = 1.987191683e-3 kcal/mol/K
    qrot = 371876.5638070
    sn is the rotational symmetry number. We have assumed 3 here
       if it is different for your molecule then you should correct
       the printed rotational entropy by manually evaluating the equation
       as given above

For convenience we print out the resulting values for sn=1 - 12:
 sn= 1  qrot/sn=  371876.5638 T*S(rot)=     8.49 kcal/mol T*S(tot)=    26.73 kcal/mol
 sn= 2  qrot/sn=  185938.2819 T*S(rot)=     8.08 kcal/mol T*S(tot)=    26.32 kcal/mol
 sn= 3  qrot/sn=  123958.8546 T*S(rot)=     7.84 kcal/mol T*S(tot)=    26.08 kcal/mol
 sn= 4  qrot/sn=   92969.1410 T*S(rot)=     7.67 kcal/mol T*S(tot)=    25.91 kcal/mol
 sn= 5  qrot/sn=   74375.3128 T*S(rot)=     7.53 kcal/mol T*S(tot)=    25.78 kcal/mol
 sn= 6  qrot/sn=   61979.4273 T*S(rot)=     7.43 kcal/mol T*S(tot)=    25.67 kcal/mol
 sn= 7  qrot/sn=   53125.2234 T*S(rot)=     7.34 kcal/mol T*S(tot)=    25.58 kcal/mol
 sn= 8  qrot/sn=   46484.5705 T*S(rot)=     7.26 kcal/mol T*S(tot)=    25.50 kcal/mol
 sn= 9  qrot/sn=   41319.6182 T*S(rot)=     7.19 kcal/mol T*S(tot)=    25.43 kcal/mol
 sn=10  qrot/sn=   37187.6564 T*S(rot)=     7.12 kcal/mol T*S(tot)=    25.36 kcal/mol
 sn=11  qrot/sn=   33806.9603 T*S(rot)=     7.07 kcal/mol T*S(tot)=    25.31 kcal/mol
 sn=12  qrot/sn=   30989.7137 T*S(rot)=     7.02 kcal/mol T*S(tot)=    25.26 kcal/mol

-------------------
GIBBS FREE ENTHALPY
-------------------

The Gibbs free enthalpy is G = H - T*S

Total enthalpy                    ...   -289.87687817 Eh
Total entropy correction          ...     -0.04155790 Eh    -26.08 kcal/mol
-----------------------------------------------------------------------
Final Gibbs free enthalpy         ...   -289.91843607 Eh

For completeness - the Gibbs free enthalpy minus the electronic energy
G-E(el)                           ...      0.14265319 Eh     89.52 kcal/mol

                             ****ORCA TERMINATED NORMALLY****
TOTAL RUN TIME: 0 days 0 hours 31 minutes 19 seconds 25 msec
