                         Program Version 3.0.3 - RELEASE   -
|  1> ! NORI PBE0 def2-TZVP UseSym TightOPT Freq TightSCF Grid3 FinalGrid5 XYZFile
|  2> % pal
|  3>     nprocs 8
|  4> end
|  5> %method
|  6>     SymThresh 5.0e-2
|  7> end
|  8> % geom
|  9>     MaxIter 10
| 10> end
| 11> % maxcore 2000
| 12> % output
| 13>     printlevel mini
| 14>     print[ P_Basis ] 0
| 15>     print[ P_SCFInfo ] 1
| 16>     print[ P_SCFIterInfo ] 1
| 17>     print[ P_OrbEn ] 0
| 18>     print[ P_Cartesian ] 0
| 19> end
| 20> % elprop
| 21>     Dipole false
| 22> end
| 23> *xyz 1 1
| 24>  C        1.1017028238     0.2273805100    -0.3344005085
| 25>  C        2.6068864120     0.1493976510    -0.1519460630
| 26>  C        2.9995585251    -0.7588134761     1.0148227823
| 27>  C        4.4688782994    -0.8885806427     1.1716970609
| 28>  C        5.1582552661    -0.6266193568     2.2819349523
| 29>  C        6.6254327294    -0.8175357999     2.3718475366
| 30>  N        7.3304560357     0.5321109737     2.4601132271
| 31>  H        0.8424842460     0.8846989770    -1.1657686355
| 32>  H        0.6129209910     0.6169079314     0.5620683069
| 33>  H        0.6773323350    -0.7574705640    -0.5433540275
| 34>  H        3.0135486279     1.1519968741     0.0192847658
| 35>  H        3.0740215957    -0.2213048549    -1.0708843630
| 36>  H        2.5898530173    -1.7601781629     0.8287318362
| 37>  H        2.5477576116    -0.4022893776     1.9450876735
| 38>  H        5.0118191039    -1.2410238904     0.2930193700
| 39>  H        4.6420638203    -0.3060288554     3.1846573207
| 40>  H        7.0328730840    -1.3128068410     1.4901756348
| 41>  H        6.9372014676    -1.3642826193     3.2645245034
| 42>  H        7.1073151663     1.0950589941     1.6363697135
| 43>  H        8.3463506084     0.4359643444     2.5256423839
| 44>  H        7.0076582334     1.0522081854     3.2785665296
| 45> *
| 46>
| 47>                          ****END OF INPUT****
 Total Charge           Charge          ....    1
 Multiplicity           Mult            ....    1
 Number of Electrons    NEL             ....   56
FINAL SINGLE POINT ENERGY      -291.312194213473
FINAL SINGLE POINT ENERGY      -291.312195781104
FINAL SINGLE POINT ENERGY      -291.312197222151

CARTESIAN COORDINATES (ANGSTROEM)
---------------------------------
  C      1.403671   -0.002692   -3.397687
  C      1.049451   -0.460352   -1.993702
  C     -0.193283    0.248941   -1.450877
  C     -0.585661   -0.235487   -0.104802
  C     -0.729028    0.522025    0.982533
  C     -1.155839   -0.032163    2.289718
  N      0.006539   -0.007868    3.277103
  H      2.294302   -0.516332   -3.762853
  H      1.604004    1.071175   -3.426751
  H      0.590214   -0.209401   -4.097463
  H      1.892043   -0.276501   -1.318545
  H      0.878452   -1.542349   -1.988895
  H     -1.029391    0.058739   -2.136147
  H     -0.038332    1.331686   -1.434735
  H     -0.777006   -1.306583   -0.021216
  H     -0.577398    1.597934    0.923907
  H     -1.465981   -1.074415    2.215893
  H     -1.951602    0.543929    2.765911
  H      0.786791   -0.554451    2.906809
  H     -0.251932   -0.384421    4.191853
  H      0.343448    0.947482    3.411026

FINAL SINGLE POINT ENERGY      -291.312197619589
                    ***********************HURRAY********************
 Multiplicity           Mult            ....    1
 Number of Electrons    NEL             ....   56
 Basis Dimension        Dim             ....  301
FINAL SINGLE POINT ENERGY      -291.312197779944

VIBRATIONAL FREQUENCIES
-----------------------

   0:         0.00 cm**-1
   1:         0.00 cm**-1
   2:         0.00 cm**-1
   3:         0.00 cm**-1
   4:         0.00 cm**-1
   5:         0.00 cm**-1
   6:        53.28 cm**-1
   7:        76.43 cm**-1
   8:       118.38 cm**-1
   9:       135.12 cm**-1
  10:       201.53 cm**-1
  11:       239.95 cm**-1
  12:       247.76 cm**-1
  13:       313.63 cm**-1
  14:       386.15 cm**-1
  15:       427.43 cm**-1
  16:       532.37 cm**-1
  17:       745.88 cm**-1
  18:       814.13 cm**-1
  19:       833.94 cm**-1
  20:       855.31 cm**-1
  21:       888.86 cm**-1
  22:       915.83 cm**-1
  23:       971.02 cm**-1
  24:      1014.00 cm**-1
  25:      1046.77 cm**-1
  26:      1070.22 cm**-1
  27:      1078.77 cm**-1
  28:      1115.60 cm**-1
  29:      1140.91 cm**-1
  30:      1197.49 cm**-1
  31:      1251.78 cm**-1
  32:      1281.73 cm**-1
  33:      1315.85 cm**-1
  34:      1323.05 cm**-1
  35:      1338.45 cm**-1
  36:      1358.98 cm**-1
  37:      1380.66 cm**-1
  38:      1401.50 cm**-1
  39:      1413.33 cm**-1
  40:      1467.29 cm**-1
  41:      1483.87 cm**-1
  42:      1486.83 cm**-1
  43:      1491.03 cm**-1
  44:      1491.70 cm**-1
  45:      1499.11 cm**-1
  46:      1650.48 cm**-1
  47:      1661.48 cm**-1
  48:      1728.22 cm**-1
  49:      3031.12 cm**-1
  50:      3042.59 cm**-1
  51:      3054.34 cm**-1
  52:      3070.96 cm**-1
  53:      3093.25 cm**-1
  54:      3096.57 cm**-1
  55:      3127.17 cm**-1
  56:      3129.85 cm**-1
  57:      3138.89 cm**-1
  58:      3151.08 cm**-1
  59:      3166.10 cm**-1
  60:      3416.47 cm**-1
  61:      3507.91 cm**-1
  62:      3509.85 cm**-1

IR SPECTRUM
-----------

 Mode    freq (cm**-1)   T**2         TX         TY         TZ
-------------------------------------------------------------------
   6:        53.28   10.209011  ( -2.130626   1.176678   2.069994)
   7:        76.43    1.807754  ( -0.577613  -1.212001   0.071906)
   8:       118.38    4.416754  (  1.521030   0.545282  -1.343833)
   9:       135.12    4.543626  (  0.620572  -0.597188  -1.949842)
  10:       201.53    1.154272  (  0.656484   0.800926  -0.286039)
  11:       239.95    1.089480  ( -0.356920  -0.767435   0.610844)
  12:       247.76    0.082131  (  0.035334   0.258735  -0.118063)
  13:       313.63    2.776918  (  0.051216   0.052480   1.664794)
  14:       386.15    3.389392  (  1.557311  -0.332773   0.923815)
  15:       427.43    7.213239  ( -1.265344   0.777241  -2.237865)
  16:       532.37    1.692261  ( -0.396676   0.413277  -1.167952)
  17:       745.88    4.312213  ( -0.335803  -1.690684  -1.158032)
  18:       814.13    3.789137  (  1.342390  -0.655738  -1.247852)
  19:       833.94   13.002960  ( -0.210380  -1.805768  -3.114145)
  20:       855.31   27.192704  (  1.691307  -2.211681   4.409155)
  21:       888.86   28.476463  (  1.079040  -0.310275   5.216883)
  22:       915.83    1.363422  (  0.311298  -0.640181  -0.925572)
  23:       971.02   13.589588  ( -2.387863  -1.535502  -2.351581)
  24:      1014.00   29.731532  ( -4.932902   0.876026  -2.151879)
  25:      1046.77   17.132596  (  3.457089  -0.507700  -2.218868)
  26:      1070.22    9.970186  ( -1.571286   0.914817   2.581541)
  27:      1078.77    6.015621  ( -2.450936   0.082630   0.041296)
  28:      1115.60    4.110063  ( -0.899506   0.295306   1.792693)
  29:      1140.91   12.201876  (  1.814720   1.485980  -2.588539)
  30:      1197.49    8.268156  ( -0.881651  -1.047717   2.528465)
  31:      1251.78    4.363270  (  0.622647   0.458549  -1.940442)
  32:      1281.73    1.258827  ( -0.051407   0.686200  -0.886179)
  33:      1315.85    8.185717  ( -0.063416   0.935908   2.702919)
  34:      1323.05   10.710150  (  0.466862  -1.998221  -2.549373)
  35:      1338.45    1.286464  ( -0.094462   0.851075  -0.743782)
  36:      1358.98    1.910576  ( -0.455319   0.388046   1.246066)
  37:      1380.66   18.602483  (  1.911441  -0.366357  -3.848982)
  38:      1401.50   30.101083  ( -0.236603  -0.628377  -5.445204)
  39:      1413.33    4.761171  ( -0.082008  -0.738192   2.051711)
  40:      1467.29    5.328465  ( -0.805151   1.895952   1.041903)
  41:      1483.87    2.115011  (  0.531184   0.119422  -1.348552)
  42:      1486.83   14.496560  (  1.926925   2.088569  -2.534049)
  43:      1491.03   18.993316  ( -2.299835   2.143795  -3.017982)
  44:      1491.70  142.814898  (  8.604708   1.186947   8.207621)
  45:      1499.11   12.140700  ( -2.278613   2.230780  -1.404365)
  46:      1650.48   48.668083  ( -1.400961   6.779171   0.865003)
  47:      1661.48   41.649995  ( -3.397895  -1.104554   5.374408)
  48:      1728.22   63.435846  (  0.934589  -1.138467  -7.827278)
  49:      3031.12    1.101293  ( -0.180573  -0.026734   1.033427)
  50:      3042.59   20.632434  ( -2.743756   3.160810  -1.764516)
  51:      3054.34   20.298941  ( -0.082383  -2.037079   4.017768)
  52:      3070.96    6.007535  (  1.896108   0.643715   1.413486)
  53:      3093.25    5.336841  (  1.038436   0.864160  -1.873958)
  54:      3096.57    7.843543  (  0.799805   2.592913   0.693296)
  55:      3127.17   18.275774  ( -2.352894  -2.834534  -2.169120)
  56:      3129.85   20.513589  (  2.048290   3.981116  -0.684702)
  57:      3138.89   14.887602  ( -3.083191   2.313777   0.167236)
  58:      3151.08    0.877171  (  0.282879   0.694566  -0.561007)
  59:      3166.10    1.616304  ( -0.409766  -1.184959   0.210398)
  60:      3416.47   35.093964  ( -3.563763   0.148228  -4.729861)
  61:      3507.91   83.868853  ( -5.698333   2.837057   6.583993)
  62:      3509.85   88.499237  (  2.174915   9.064097  -1.269304)

--------------------------
THERMOCHEMISTRY AT 298.15K
--------------------------

Temperature         ... 298.15 K
Pressure            ... 1.00 atm
Total Mass          ... 100.18 AMU

Throughout the following assumptions are being made:
  (1) The electronic state is orbitally nondegenerate
  (2) There are no thermally accessible electronically excited states
  (3) Hindered rotations indicated by low frequency modes) are not
      treated as such but are treated as vibrations and this may
      case some error
  (4) All equations used are the standard statistical mechanics
      equations for an ideal gas
  (5) All vibrations are strinctly harmonic

------------
INNER ENERGY
------------

The inner energy is: U= E(el) + E(ZPE) + E(vib) + E(rot) + E(trans)
    E(el)   - is the total energy from the electronic structure calculation
              = E(kin-el) + E(nuc-el) + E(el-el) + E(nuc-nuc)
    E(ZPE)  - the the zero temperature vibrational energy from the frequency calculation
    E(vib)  - the the finite temperature correction to E(ZPE) due to population
              of excietd vibrational states
    E(rot)  - is the rotational thermal energy
    E(trans)- is the translational thermal energy

Summary of contributions to the inner energy U:
Electronic energy                ...   -291.31219778 Eh
Zero point energy                ...      0.19816010 Eh     124.35 kcal/mol
Thermal vibrational correction   ...      0.00649780 Eh       4.08 kcal/mol
Thermal rotational correction    ...      0.00141627 Eh       0.89 kcal/mol
Thermal translational correction ...      0.00141627 Eh       0.89 kcal/mol
-----------------------------------------------------------------------
Total thermal energy                   -291.10470734 Eh

Summary of corrections to the electronic energy:
(perhaps to be used in another calculation)
Total thermal correction                  0.00933035 Eh       5.85 kcal/mol
Non-thermal (ZPE) correction              0.19816010 Eh     124.35 kcal/mol
-----------------------------------------------------------------------
Total correction                          0.20749044 Eh     130.20 kcal/mol

--------
ENTHALPY
--------

The enthalpy is H = U + kB*T
                kB is Boltzmann's constant
Total free energy                 ...   -291.10470734 Eh
Thermal Enthalpy correction       ...      0.00094421 Eh       0.59 kcal/mol
-----------------------------------------------------------------------
Total Enthalpy                    ...   -291.10376313 Eh

-------
ENTROPY
-------

The entropy contributions are T*S = T*(S(el)+S(vib)+S(rot)+S(trans)
     S(el)   - electronic entropy
     S(vib)  - vibrational entropy
     S(rot)  - rotational entropy
     S(trans)- translational entropy
The entropies will be listed as mutliplied by the temperature to get
units of energy

Electronic entropy                ...      0.00000000 Eh      0.00 kcal/mol
Vibrational entropy               ...      0.01239643 Eh      7.78 kcal/mol
Rotational entropy                ...      0.01249992 Eh      7.84 kcal/mol
Translational entropy             ...      0.01887386 Eh     11.84 kcal/mol
-----------------------------------------------------------------------
Final entropy term                ...      0.04377022 Eh     27.47 kcal/mol

CAUTION: The rotational entropy is not quite correctly treated here
         because it includes a symmetry number that is not yet correctly
         implemented in ORCA!
For a nonlinear molecule the correct rotational entropy is:
    S(rot) = R*(ln(qrot/sn)+1.5)
    R    = 8.31441 J/mol/K = 1.987191683e-3 kcal/mol/K
    qrot = 376064.8741136
    sn is the rotational symmetry number. We have assumed 3 here
       if it is different for your molecule then you should correct
       the printed rotational entropy by manually evaluating the equation
       as given above

For convenience we print out the resulting values for sn=1 - 12:
 sn= 1  qrot/sn=  376064.8741 T*S(rot)=     8.49 kcal/mol T*S(tot)=    28.12 kcal/mol
 sn= 2  qrot/sn=  188032.4371 T*S(rot)=     8.08 kcal/mol T*S(tot)=    27.71 kcal/mol
 sn= 3  qrot/sn=  125354.9580 T*S(rot)=     7.84 kcal/mol T*S(tot)=    27.47 kcal/mol
 sn= 4  qrot/sn=   94016.2185 T*S(rot)=     7.67 kcal/mol T*S(tot)=    27.30 kcal/mol
 sn= 5  qrot/sn=   75212.9748 T*S(rot)=     7.54 kcal/mol T*S(tot)=    27.16 kcal/mol
 sn= 6  qrot/sn=   62677.4790 T*S(rot)=     7.43 kcal/mol T*S(tot)=    27.06 kcal/mol
 sn= 7  qrot/sn=   53723.5534 T*S(rot)=     7.34 kcal/mol T*S(tot)=    26.96 kcal/mol
 sn= 8  qrot/sn=   47008.1093 T*S(rot)=     7.26 kcal/mol T*S(tot)=    26.89 kcal/mol
 sn= 9  qrot/sn=   41784.9860 T*S(rot)=     7.19 kcal/mol T*S(tot)=    26.82 kcal/mol
 sn=10  qrot/sn=   37606.4874 T*S(rot)=     7.13 kcal/mol T*S(tot)=    26.75 kcal/mol
 sn=11  qrot/sn=   34187.7158 T*S(rot)=     7.07 kcal/mol T*S(tot)=    26.70 kcal/mol
 sn=12  qrot/sn=   31338.7395 T*S(rot)=     7.02 kcal/mol T*S(tot)=    26.64 kcal/mol

-------------------
GIBBS FREE ENTHALPY
-------------------

The Gibbs free enthalpy is G = H - T*S

Total enthalpy                    ...   -291.10376313 Eh
Total entropy correction          ...     -0.04377022 Eh    -27.47 kcal/mol
-----------------------------------------------------------------------
Final Gibbs free enthalpy         ...   -291.14753334 Eh

For completeness - the Gibbs free enthalpy minus the electronic energy
G-E(el)                           ...      0.16466444 Eh    103.33 kcal/mol

                             ****ORCA TERMINATED NORMALLY****
TOTAL RUN TIME: 0 days 0 hours 40 minutes 25 seconds 17 msec
