                         Program Version 3.0.3 - RELEASE   -
|  1> ! NORI PBE0 def2-TZVP UseSym TightOPT Freq TightSCF Grid3 FinalGrid5 XYZFile
|  2> % pal
|  3>     nprocs 8
|  4> end
|  5> %method
|  6>     SymThresh 5.0e-2
|  7> end
|  8> % geom
|  9>     MaxIter 10
| 10> end
| 11> % maxcore 2000
| 12> % output
| 13>     printlevel mini
| 14>     print[ P_Basis ] 0
| 15>     print[ P_SCFInfo ] 1
| 16>     print[ P_SCFIterInfo ] 1
| 17>     print[ P_OrbEn ] 0
| 18>     print[ P_Cartesian ] 0
| 19> end
| 20> % elprop
| 21>     Dipole false
| 22> end
| 23> *xyz 1 1
| 24>  C        0.9685312874    -0.2120312772    -0.0135693511
| 25>  C        2.4657227228    -0.0637954392     0.1907799099
| 26>  C        3.2409904288    -0.1277435838    -1.1277664541
| 27>  C        4.7272289581     0.0044891712    -0.9543009438
| 28>  C        5.5756558402    -1.0151203116    -1.0509335158
| 29>  C        5.2600849499     1.3598744831    -0.6093973966
| 30>  N        5.2152881945     2.2521654501    -1.8374119104
| 31>  H        0.4402495108    -0.1714126523     0.9396575024
| 32>  H        0.7266718841    -1.1677263365    -0.4847043079
| 33>  H        0.5685892874     0.5828649211    -0.6487875264
| 34>  H        2.6692994194     0.8822031857     0.7076436734
| 35>  H        2.8361953536    -0.8551034804     0.8492097876
| 36>  H        3.0284828967    -1.0752269691    -1.6291690052
| 37>  H        2.8471358869     0.6492653455    -1.8020955168
| 38>  H        5.2279563144    -2.0122671640    -1.2954441466
| 39>  H        6.6394698455    -0.9011320484    -0.8691552556
| 40>  H        4.6655872302     1.8707817513     0.1499273081
| 41>  H        6.3010384638     1.3304735146    -0.2908225466
| 42>  H        4.2607078247     2.3156647966    -2.1971765342
| 43>  H        5.7947726541     1.8544640652    -2.5799153498
| 44>  H        5.5450310468     3.1990425781    -1.6398284205
| 45> *
| 46>
| 47>                          ****END OF INPUT****
 Total Charge           Charge          ....    1
 Multiplicity           Mult            ....    1
 Number of Electrons    NEL             ....   56
FINAL SINGLE POINT ENERGY      -291.308093959052
FINAL SINGLE POINT ENERGY      -291.308097499368
FINAL SINGLE POINT ENERGY      -291.308099936238
FINAL SINGLE POINT ENERGY      -291.308101723679
FINAL SINGLE POINT ENERGY      -291.308103325828
FINAL SINGLE POINT ENERGY      -291.308104539133

CARTESIAN COORDINATES (ANGSTROEM)
---------------------------------
  C      2.097287    0.003158   -2.290814
  C      0.886757    0.481891   -1.509098
  C      0.331547   -0.601098   -0.580169
  C     -0.860213   -0.150170    0.215085
  C     -2.113186   -0.491672   -0.071660
  C     -0.604925    0.769769    1.367672
  N     -0.012176   -0.019162    2.521930
  H      2.465898    0.785316   -2.955746
  H      1.851076   -0.865754   -2.905580
  H      2.917665   -0.280731   -1.626163
  H      1.153836    1.376052   -0.933592
  H      0.091851    0.788454   -2.195090
  H      0.052221   -1.477245   -1.170122
  H      1.144589   -0.943368    0.079648
  H     -2.338570   -1.154983   -0.898876
  H     -2.959203   -0.108284    0.489246
  H      0.122234    1.550468    1.137590
  H     -1.516970    1.228613    1.746869
  H      0.843930   -0.492614    2.225143
  H     -0.669618   -0.741076    2.824821
  H      0.212378    0.573930    3.323319

FINAL SINGLE POINT ENERGY      -291.308104806743
                    ***********************HURRAY********************
 Multiplicity           Mult            ....    1
 Number of Electrons    NEL             ....   56
 Basis Dimension        Dim             ....  301
FINAL SINGLE POINT ENERGY      -291.308104833536

VIBRATIONAL FREQUENCIES
-----------------------

   0:         0.00 cm**-1
   1:         0.00 cm**-1
   2:         0.00 cm**-1
   3:         0.00 cm**-1
   4:         0.00 cm**-1
   5:         0.00 cm**-1
   6:        43.93 cm**-1
   7:        74.81 cm**-1
   8:       106.50 cm**-1
   9:       170.48 cm**-1
  10:       203.74 cm**-1
  11:       242.25 cm**-1
  12:       257.69 cm**-1
  13:       320.55 cm**-1
  14:       412.23 cm**-1
  15:       452.93 cm**-1
  16:       625.70 cm**-1
  17:       728.14 cm**-1
  18:       739.13 cm**-1
  19:       811.79 cm**-1
  20:       849.42 cm**-1
  21:       880.73 cm**-1
  22:       895.54 cm**-1
  23:       925.67 cm**-1
  24:       986.81 cm**-1
  25:      1001.84 cm**-1
  26:      1041.12 cm**-1
  27:      1067.85 cm**-1
  28:      1096.70 cm**-1
  29:      1119.06 cm**-1
  30:      1127.10 cm**-1
  31:      1244.58 cm**-1
  32:      1288.20 cm**-1
  33:      1313.43 cm**-1
  34:      1329.74 cm**-1
  35:      1335.68 cm**-1
  36:      1374.63 cm**-1
  37:      1396.68 cm**-1
  38:      1414.42 cm**-1
  39:      1454.64 cm**-1
  40:      1472.57 cm**-1
  41:      1482.77 cm**-1
  42:      1489.24 cm**-1
  43:      1492.12 cm**-1
  44:      1494.86 cm**-1
  45:      1502.31 cm**-1
  46:      1648.75 cm**-1
  47:      1662.49 cm**-1
  48:      1727.18 cm**-1
  49:      2983.46 cm**-1
  50:      3036.99 cm**-1
  51:      3053.17 cm**-1
  52:      3084.17 cm**-1
  53:      3099.79 cm**-1
  54:      3105.05 cm**-1
  55:      3126.28 cm**-1
  56:      3142.30 cm**-1
  57:      3159.89 cm**-1
  58:      3166.51 cm**-1
  59:      3250.44 cm**-1
  60:      3417.79 cm**-1
  61:      3501.83 cm**-1
  62:      3510.36 cm**-1

IR SPECTRUM
-----------

 Mode    freq (cm**-1)   T**2         TX         TY         TZ
-------------------------------------------------------------------
   6:        43.93    7.835893  (  2.086420   0.863784  -1.654274)
   7:        74.81    4.118201  ( -1.557788   0.368584   1.247254)
   8:       106.50    1.083754  (  0.999047   0.173063  -0.236027)
   9:       170.48    2.811828  (  0.355912   1.629953   0.168544)
  10:       203.74    3.537384  ( -0.087346   0.638608   1.766900)
  11:       242.25    0.641188  (  0.022027   0.233650   0.765579)
  12:       257.69   14.507717  ( -0.042258  -1.324889  -3.570798)
  13:       320.55    0.758804  ( -0.686914  -0.482143  -0.233432)
  14:       412.23    1.133726  (  0.596981   0.422918  -0.773615)
  15:       452.93    3.893690  (  0.170718  -0.170886   1.958403)
  16:       625.70   18.574761  (  0.261449  -1.886665   3.866122)
  17:       728.14    0.150310  (  0.215674   0.065432  -0.315457)
  18:       739.13    1.816074  ( -0.884062  -0.762059  -0.673628)
  19:       811.79    5.854158  (  0.659952   1.332350   1.908786)
  20:       849.42    8.115608  ( -2.758328   0.096307   0.705661)
  21:       880.73    3.100927  ( -1.670764  -0.316684  -0.457369)
  22:       895.54   22.059133  ( -0.700235   0.960253  -4.543866)
  23:       925.67    5.365685  (  0.714016   0.639608   2.108736)
  24:       986.81    2.540237  (  1.199825  -0.742613   0.741069)
  25:      1001.84   33.557660  (  0.075360  -4.832892   3.192982)
  26:      1041.12    9.382527  (  1.397422  -0.641096  -2.649290)
  27:      1067.85    0.872360  (  0.320262  -0.296842  -0.825638)
  28:      1096.70   19.973646  ( -1.353980  -4.011301  -1.431730)
  29:      1119.06    7.000074  ( -1.493029   1.430075   1.651007)
  30:      1127.10    5.337835  (  1.410911   1.441807   1.126213)
  31:      1244.58    1.669307  (  1.087421   0.643127   0.270572)
  32:      1288.20    0.967037  ( -0.397439   0.341678  -0.832067)
  33:      1313.43    0.440970  ( -0.367499   0.004203   0.553079)
  34:      1329.74    1.890404  ( -0.895908   0.485554   0.923033)
  35:      1335.68    8.994424  ( -2.912864  -0.547522   0.458111)
  36:      1374.63    3.016226  (  1.114848   0.529813  -1.221736)
  37:      1396.68   16.614913  (  3.146216   0.811111   2.461369)
  38:      1414.42    2.803815  ( -1.323802   0.882797   0.521568)
  39:      1454.64   12.845365  ( -2.718763  -0.819789  -2.186696)
  40:      1472.57   23.427849  (  2.501576   0.735382   4.077889)
  41:      1482.77   22.962490  (  0.964561  -1.644931   4.396170)
  42:      1489.24   46.079711  ( -3.958854   3.778816  -4.015936)
  43:      1492.12    9.124868  ( -0.231652  -2.926520  -0.711820)
  44:      1494.86   55.770020  ( -1.289555   1.033597  -7.282770)
  45:      1502.31   63.959121  ( -2.123528   6.019231  -4.818569)
  46:      1648.75   46.843265  ( -6.375963  -0.487108   2.439895)
  47:      1662.49   32.836521  (  0.679622   4.392665   3.616508)
  48:      1727.18    4.923147  (  1.692071   0.433611  -1.368219)
  49:      2983.46   39.663666  (  3.466256  -2.613809   4.562536)
  50:      3036.99   23.071996  (  0.644559  -4.276374  -2.090255)
  51:      3053.17   16.764120  ( -3.322072   2.107959   1.133343)
  52:      3084.17    4.338284  ( -1.658458   0.894059  -0.887953)
  53:      3099.79    2.973669  (  0.421154   1.201258   1.163305)
  54:      3105.05    6.017843  ( -0.625718  -1.668729  -1.685724)
  55:      3126.28   29.277084  (  2.988622   1.258897   4.331328)
  56:      3142.30   11.129174  (  0.586437   3.072567  -1.159569)
  57:      3159.89    0.490235  (  0.081626  -0.434511  -0.542929)
  58:      3166.51    0.430192  (  0.580276  -0.026792  -0.304555)
  59:      3250.44    0.899220  (  0.798738  -0.221077  -0.460828)
  60:      3417.79   30.400775  ( -2.137776   2.401071  -4.479458)
  61:      3501.83   93.743633  ( -7.939825  -0.173085   5.538307)
  62:      3510.36   94.321234  ( -2.252905  -8.002264  -5.020899)

--------------------------
THERMOCHEMISTRY AT 298.15K
--------------------------

Temperature         ... 298.15 K
Pressure            ... 1.00 atm
Total Mass          ... 100.18 AMU

Throughout the following assumptions are being made:
  (1) The electronic state is orbitally nondegenerate
  (2) There are no thermally accessible electronically excited states
  (3) Hindered rotations indicated by low frequency modes) are not
      treated as such but are treated as vibrations and this may
      case some error
  (4) All equations used are the standard statistical mechanics
      equations for an ideal gas
  (5) All vibrations are strinctly harmonic

------------
INNER ENERGY
------------

The inner energy is: U= E(el) + E(ZPE) + E(vib) + E(rot) + E(trans)
    E(el)   - is the total energy from the electronic structure calculation
              = E(kin-el) + E(nuc-el) + E(el-el) + E(nuc-nuc)
    E(ZPE)  - the the zero temperature vibrational energy from the frequency calculation
    E(vib)  - the the finite temperature correction to E(ZPE) due to population
              of excietd vibrational states
    E(rot)  - is the rotational thermal energy
    E(trans)- is the translational thermal energy

Summary of contributions to the inner energy U:
Electronic energy                ...   -291.30810483 Eh
Zero point energy                ...      0.19807313 Eh     124.29 kcal/mol
Thermal vibrational correction   ...      0.00642167 Eh       4.03 kcal/mol
Thermal rotational correction    ...      0.00141627 Eh       0.89 kcal/mol
Thermal translational correction ...      0.00141627 Eh       0.89 kcal/mol
-----------------------------------------------------------------------
Total thermal energy                   -291.10077749 Eh

Summary of corrections to the electronic energy:
(perhaps to be used in another calculation)
Total thermal correction                  0.00925422 Eh       5.81 kcal/mol
Non-thermal (ZPE) correction              0.19807313 Eh     124.29 kcal/mol
-----------------------------------------------------------------------
Total correction                          0.20732735 Eh     130.10 kcal/mol

--------
ENTHALPY
--------

The enthalpy is H = U + kB*T
                kB is Boltzmann's constant
Total free energy                 ...   -291.10077749 Eh
Thermal Enthalpy correction       ...      0.00094421 Eh       0.59 kcal/mol
-----------------------------------------------------------------------
Total Enthalpy                    ...   -291.09983328 Eh

-------
ENTROPY
-------

The entropy contributions are T*S = T*(S(el)+S(vib)+S(rot)+S(trans)
     S(el)   - electronic entropy
     S(vib)  - vibrational entropy
     S(rot)  - rotational entropy
     S(trans)- translational entropy
The entropies will be listed as mutliplied by the temperature to get
units of energy

Electronic entropy                ...      0.00000000 Eh      0.00 kcal/mol
Vibrational entropy               ...      0.01234466 Eh      7.75 kcal/mol
Rotational entropy                ...      0.01242105 Eh      7.79 kcal/mol
Translational entropy             ...      0.01887386 Eh     11.84 kcal/mol
-----------------------------------------------------------------------
Final entropy term                ...      0.04363957 Eh     27.38 kcal/mol

CAUTION: The rotational entropy is not quite correctly treated here
         because it includes a symmetry number that is not yet correctly
         implemented in ORCA!
For a nonlinear molecule the correct rotational entropy is:
    S(rot) = R*(ln(qrot/sn)+1.5)
    R    = 8.31441 J/mol/K = 1.987191683e-3 kcal/mol/K
    qrot = 345927.0565067
    sn is the rotational symmetry number. We have assumed 3 here
       if it is different for your molecule then you should correct
       the printed rotational entropy by manually evaluating the equation
       as given above

For convenience we print out the resulting values for sn=1 - 12:
 sn= 1  qrot/sn=  345927.0565 T*S(rot)=     8.45 kcal/mol T*S(tot)=    28.04 kcal/mol
 sn= 2  qrot/sn=  172963.5283 T*S(rot)=     8.03 kcal/mol T*S(tot)=    27.62 kcal/mol
 sn= 3  qrot/sn=  115309.0188 T*S(rot)=     7.79 kcal/mol T*S(tot)=    27.38 kcal/mol
 sn= 4  qrot/sn=   86481.7641 T*S(rot)=     7.62 kcal/mol T*S(tot)=    27.21 kcal/mol
 sn= 5  qrot/sn=   69185.4113 T*S(rot)=     7.49 kcal/mol T*S(tot)=    27.08 kcal/mol
 sn= 6  qrot/sn=   57654.5094 T*S(rot)=     7.38 kcal/mol T*S(tot)=    26.97 kcal/mol
 sn= 7  qrot/sn=   49418.1509 T*S(rot)=     7.29 kcal/mol T*S(tot)=    26.88 kcal/mol
 sn= 8  qrot/sn=   43240.8821 T*S(rot)=     7.21 kcal/mol T*S(tot)=    26.80 kcal/mol
 sn= 9  qrot/sn=   38436.3396 T*S(rot)=     7.14 kcal/mol T*S(tot)=    26.73 kcal/mol
 sn=10  qrot/sn=   34592.7057 T*S(rot)=     7.08 kcal/mol T*S(tot)=    26.67 kcal/mol
 sn=11  qrot/sn=   31447.9142 T*S(rot)=     7.02 kcal/mol T*S(tot)=    26.61 kcal/mol
 sn=12  qrot/sn=   28827.2547 T*S(rot)=     6.97 kcal/mol T*S(tot)=    26.56 kcal/mol

-------------------
GIBBS FREE ENTHALPY
-------------------

The Gibbs free enthalpy is G = H - T*S

Total enthalpy                    ...   -291.09983328 Eh
Total entropy correction          ...     -0.04363957 Eh    -27.38 kcal/mol
-----------------------------------------------------------------------
Final Gibbs free enthalpy         ...   -291.14347285 Eh

For completeness - the Gibbs free enthalpy minus the electronic energy
G-E(el)                           ...      0.16463199 Eh    103.31 kcal/mol

                             ****ORCA TERMINATED NORMALLY****
TOTAL RUN TIME: 0 days 0 hours 51 minutes 31 seconds 693 msec
