                         Program Version 3.0.3 - RELEASE   -
|  1> ! NORI PBE0 def2-TZVP UseSym TightOPT Freq TightSCF Grid3 FinalGrid5 XYZFile
|  2> % pal
|  3>     nprocs 8
|  4> end
|  5> %method
|  6>     SymThresh 5.0e-2
|  7> end
|  8> % geom
|  9>     MaxIter 10
| 10> end
| 11> % maxcore 2000
| 12> % output
| 13>     printlevel mini
| 14>     print[ P_Basis ] 0
| 15>     print[ P_SCFInfo ] 1
| 16>     print[ P_SCFIterInfo ] 1
| 17>     print[ P_OrbEn ] 0
| 18>     print[ P_Cartesian ] 0
| 19> end
| 20> % elprop
| 21>     Dipole false
| 22> end
| 23> *xyz 1 1
| 24>  C        1.2171300335    -0.0921035439    -0.0830695469
| 25>  C        2.5373013057    -0.2448823443     0.5994042611
| 26>  C        3.1153579788     0.8792465057     1.3807408319
| 27>  C        2.5224723623     2.1843455101     1.7338809089
| 28>  C        4.5085675166     0.5970531501     1.2097805006
| 29>  N        5.6561041424     0.6285842635     1.6282416079
| 30>  N        3.7243274647     0.3893808183    -0.0419579064
| 31>  H        1.1404394146    -0.8062827787    -0.9039576263
| 32>  H        1.0565948314     0.9132321122    -0.4743928846
| 33>  H        0.4199234989    -0.3199590827     0.6269669934
| 34>  H        2.7756828245    -1.2529021626     0.9274474415
| 35>  H        1.5775538838     2.3673227237     1.2256481829
| 36>  H        3.2189542192     3.0061353837     1.5650897825
| 37>  H        2.3232112393     2.1430906651     2.8111250411
| 38>  H        6.4060456226     0.4443307862     0.9663071085
| 39>  H        3.6760936618     1.0112279937    -0.8462246960
| 40> *
| 41>
| 42>                          ****END OF INPUT****
 Total Charge           Charge          ....    1
 Multiplicity           Mult            ....    1
 Number of Electrons    NEL             ....   52
FINAL SINGLE POINT ENERGY      -304.854330856390
FINAL SINGLE POINT ENERGY      -304.854331847702

CARTESIAN COORDINATES (ANGSTROEM)
---------------------------------
  C      0.462846   -0.641563   -2.281649
  C      0.252104   -0.847784   -0.816985
  C     -0.569337    0.111511   -0.033792
  C     -1.376110    1.257314   -0.498659
  C      0.061546   -0.021489    1.244431
  N      0.000017    0.000198    2.464521
  N      1.042818   -0.000831    0.121581
  H      1.370875   -1.155362   -2.600285
  H      0.539111    0.411798   -2.554359
  H     -0.373280   -1.082221   -2.827973
  H      0.255742   -1.883726   -0.489225
  H     -1.220899    1.477129   -1.553567
  H     -1.210589    2.145655    0.111362
  H     -2.423593    0.962254   -0.365836
  H      0.875260    0.025319    2.982089
  H      1.627581    0.780473   -0.167470

FINAL SINGLE POINT ENERGY      -304.854332229037
                    ***********************HURRAY********************
 Multiplicity           Mult            ....    1
 Number of Electrons    NEL             ....   52
 Basis Dimension        Dim             ....  271
FINAL SINGLE POINT ENERGY      -304.854332288454

VIBRATIONAL FREQUENCIES
-----------------------

   0:         0.00 cm**-1
   1:         0.00 cm**-1
   2:         0.00 cm**-1
   3:         0.00 cm**-1
   4:         0.00 cm**-1
   5:         0.00 cm**-1
   6:       141.44 cm**-1
   7:       153.49 cm**-1
   8:       199.20 cm**-1
   9:       250.26 cm**-1
  10:       261.89 cm**-1
  11:       307.28 cm**-1
  12:       447.98 cm**-1
  13:       485.43 cm**-1
  14:       520.59 cm**-1
  15:       597.06 cm**-1
  16:       681.70 cm**-1
  17:       701.34 cm**-1
  18:       792.97 cm**-1
  19:       857.40 cm**-1
  20:       916.64 cm**-1
  21:       932.54 cm**-1
  22:      1022.81 cm**-1
  23:      1032.04 cm**-1
  24:      1047.02 cm**-1
  25:      1113.72 cm**-1
  26:      1124.22 cm**-1
  27:      1196.61 cm**-1
  28:      1228.64 cm**-1
  29:      1278.29 cm**-1
  30:      1364.78 cm**-1
  31:      1404.73 cm**-1
  32:      1416.69 cm**-1
  33:      1429.84 cm**-1
  34:      1454.26 cm**-1
  35:      1467.79 cm**-1
  36:      1479.61 cm**-1
  37:      1496.29 cm**-1
  38:      1982.63 cm**-1
  39:      3056.44 cm**-1
  40:      3071.61 cm**-1
  41:      3133.64 cm**-1
  42:      3152.03 cm**-1
  43:      3154.45 cm**-1
  44:      3173.38 cm**-1
  45:      3181.92 cm**-1
  46:      3527.21 cm**-1
  47:      3550.91 cm**-1

IR SPECTRUM
-----------

 Mode    freq (cm**-1)   T**2         TX         TY         TZ
-------------------------------------------------------------------
   6:       141.44    0.084149  ( -0.041353  -0.027377   0.285814)
   7:       153.49    1.956604  ( -0.521847  -0.736963  -1.068253)
   8:       199.20    0.142764  ( -0.271989   0.149762   0.215309)
   9:       250.26    6.877804  (  0.561738  -0.690125  -2.466978)
  10:       261.89    1.480689  ( -0.117826   0.638091   1.029391)
  11:       307.28    1.732190  (  0.325405   1.252633  -0.239191)
  12:       447.98    7.156425  ( -0.239365  -0.288065   2.648801)
  13:       485.43   75.139166  ( -6.207572   3.155611  -5.162105)
  14:       520.59   22.885519  ( -3.840288   1.339196   2.518781)
  15:       597.06   52.678136  (  6.287367  -1.070423  -3.464295)
  16:       681.70   39.566150  ( -4.762065   3.228861   2.542311)
  17:       701.34   37.732474  ( -1.741553  -0.851897  -5.828700)
  18:       792.97   12.122527  (  2.622072  -2.175423   0.717496)
  19:       857.40   52.174293  (  0.427740   7.209080  -0.143167)
  20:       916.64   37.422051  ( -1.322382  -0.923519   5.900887)
  21:       932.54    9.978853  ( -1.387326   2.748521  -0.706976)
  22:      1022.81  130.469833  (  2.086019  -2.529354 -10.941697)
  23:      1032.04   65.581034  (  2.803936   0.192567  -7.594860)
  24:      1047.02   19.763437  ( -2.564021   1.888439  -3.102101)
  25:      1113.72    2.237221  (  0.521168   1.105570   0.862160)
  26:      1124.22   21.820027  (  2.183152   3.902001   1.352133)
  27:      1196.61   23.551816  ( -1.707212   0.256301   4.535587)
  28:      1228.64    6.004046  ( -1.396252   0.049801   2.012969)
  29:      1278.29    3.049953  (  0.450106   1.672680  -0.222482)
  30:      1364.78   13.253987  (  1.781234  -0.344905   3.156301)
  31:      1404.73   25.146033  (  3.769909  -2.397706   2.277021)
  32:      1416.69    4.741200  (  0.324960   2.148989   0.132094)
  33:      1429.84   27.109862  ( -0.354850   2.046906   4.774319)
  34:      1454.26   28.771034  (  0.340799   2.955676   4.463056)
  35:      1467.79    8.288266  (  0.372618   2.371783  -1.588731)
  36:      1479.61   13.690690  ( -3.668488   0.081491  -0.475648)
  37:      1496.29   16.281888  ( -0.776965  -2.939643   2.652680)
  38:      1982.63  239.622854  ( -0.683755  -0.050955  15.464564)
  39:      3056.44   11.623048  (  3.167196  -1.259233   0.079063)
  40:      3071.61    2.293307  ( -0.184036  -1.267957  -0.807294)
  41:      3133.64    4.263800  ( -2.024962  -0.293020  -0.278332)
  42:      3152.03    1.222391  ( -0.577922   0.549445  -0.765837)
  43:      3154.45    0.876119  ( -0.104430  -0.789198   0.492321)
  44:      3173.38    0.423234  (  0.091290   0.304052   0.567849)
  45:      3181.92    0.514605  (  0.321102  -0.572619  -0.289148)
  46:      3527.21  125.981830  (  8.755191   6.346849  -3.007654)
  47:      3550.91  122.306974  ( -6.059272  -0.289766  -9.247066)

--------------------------
THERMOCHEMISTRY AT 298.15K
--------------------------

Temperature         ... 298.15 K
Pressure            ... 1.00 atm
Total Mass          ... 97.14 AMU

Throughout the following assumptions are being made:
  (1) The electronic state is orbitally nondegenerate
  (2) There are no thermally accessible electronically excited states
  (3) Hindered rotations indicated by low frequency modes) are not
      treated as such but are treated as vibrations and this may
      case some error
  (4) All equations used are the standard statistical mechanics
      equations for an ideal gas
  (5) All vibrations are strinctly harmonic

------------
INNER ENERGY
------------

The inner energy is: U= E(el) + E(ZPE) + E(vib) + E(rot) + E(trans)
    E(el)   - is the total energy from the electronic structure calculation
              = E(kin-el) + E(nuc-el) + E(el-el) + E(nuc-nuc)
    E(ZPE)  - the the zero temperature vibrational energy from the frequency calculation
    E(vib)  - the the finite temperature correction to E(ZPE) due to population
              of excietd vibrational states
    E(rot)  - is the rotational thermal energy
    E(trans)- is the translational thermal energy

Summary of contributions to the inner energy U:
Electronic energy                ...   -304.85433229 Eh
Zero point energy                ...      0.13620876 Eh      85.47 kcal/mol
Thermal vibrational correction   ...      0.00481061 Eh       3.02 kcal/mol
Thermal rotational correction    ...      0.00141627 Eh       0.89 kcal/mol
Thermal translational correction ...      0.00141627 Eh       0.89 kcal/mol
-----------------------------------------------------------------------
Total thermal energy                   -304.71048037 Eh

Summary of corrections to the electronic energy:
(perhaps to be used in another calculation)
Total thermal correction                  0.00764316 Eh       4.80 kcal/mol
Non-thermal (ZPE) correction              0.13620876 Eh      85.47 kcal/mol
-----------------------------------------------------------------------
Total correction                          0.14385192 Eh      90.27 kcal/mol

--------
ENTHALPY
--------

The enthalpy is H = U + kB*T
                kB is Boltzmann's constant
Total free energy                 ...   -304.71048037 Eh
Thermal Enthalpy correction       ...      0.00094421 Eh       0.59 kcal/mol
-----------------------------------------------------------------------
Total Enthalpy                    ...   -304.70953616 Eh

-------
ENTROPY
-------

The entropy contributions are T*S = T*(S(el)+S(vib)+S(rot)+S(trans)
     S(el)   - electronic entropy
     S(vib)  - vibrational entropy
     S(rot)  - rotational entropy
     S(trans)- translational entropy
The entropies will be listed as mutliplied by the temperature to get
units of energy

Electronic entropy                ...      0.00000000 Eh      0.00 kcal/mol
Vibrational entropy               ...      0.00794809 Eh      4.99 kcal/mol
Rotational entropy                ...      0.01192992 Eh      7.49 kcal/mol
Translational entropy             ...      0.01883016 Eh     11.82 kcal/mol
-----------------------------------------------------------------------
Final entropy term                ...      0.03870817 Eh     24.29 kcal/mol

CAUTION: The rotational entropy is not quite correctly treated here
         because it includes a symmetry number that is not yet correctly
         implemented in ORCA!
For a nonlinear molecule the correct rotational entropy is:
    S(rot) = R*(ln(qrot/sn)+1.5)
    R    = 8.31441 J/mol/K = 1.987191683e-3 kcal/mol/K
    qrot = 205626.5856433
    sn is the rotational symmetry number. We have assumed 3 here
       if it is different for your molecule then you should correct
       the printed rotational entropy by manually evaluating the equation
       as given above

For convenience we print out the resulting values for sn=1 - 12:
 sn= 1  qrot/sn=  205626.5856 T*S(rot)=     8.14 kcal/mol T*S(tot)=    24.94 kcal/mol
 sn= 2  qrot/sn=  102813.2928 T*S(rot)=     7.73 kcal/mol T*S(tot)=    24.53 kcal/mol
 sn= 3  qrot/sn=   68542.1952 T*S(rot)=     7.49 kcal/mol T*S(tot)=    24.29 kcal/mol
 sn= 4  qrot/sn=   51406.6464 T*S(rot)=     7.32 kcal/mol T*S(tot)=    24.12 kcal/mol
 sn= 5  qrot/sn=   41125.3171 T*S(rot)=     7.18 kcal/mol T*S(tot)=    23.99 kcal/mol
 sn= 6  qrot/sn=   34271.0976 T*S(rot)=     7.08 kcal/mol T*S(tot)=    23.88 kcal/mol
 sn= 7  qrot/sn=   29375.2265 T*S(rot)=     6.98 kcal/mol T*S(tot)=    23.79 kcal/mol
 sn= 8  qrot/sn=   25703.3232 T*S(rot)=     6.90 kcal/mol T*S(tot)=    23.71 kcal/mol
 sn= 9  qrot/sn=   22847.3984 T*S(rot)=     6.84 kcal/mol T*S(tot)=    23.64 kcal/mol
 sn=10  qrot/sn=   20562.6586 T*S(rot)=     6.77 kcal/mol T*S(tot)=    23.58 kcal/mol
 sn=11  qrot/sn=   18693.3260 T*S(rot)=     6.72 kcal/mol T*S(tot)=    23.52 kcal/mol
 sn=12  qrot/sn=   17135.5488 T*S(rot)=     6.66 kcal/mol T*S(tot)=    23.47 kcal/mol

-------------------
GIBBS FREE ENTHALPY
-------------------

The Gibbs free enthalpy is G = H - T*S

Total enthalpy                    ...   -304.70953616 Eh
Total entropy correction          ...     -0.03870817 Eh    -24.29 kcal/mol
-----------------------------------------------------------------------
Final Gibbs free enthalpy         ...   -304.74824433 Eh

For completeness - the Gibbs free enthalpy minus the electronic energy
G-E(el)                           ...      0.10608795 Eh     66.57 kcal/mol

                             ****ORCA TERMINATED NORMALLY****
TOTAL RUN TIME: 0 days 0 hours 31 minutes 44 seconds 548 msec
