                         Program Version 3.0.3 - RELEASE   -
|  1> ! NORI PBE0 def2-TZVP UseSym TightOPT Freq TightSCF Grid3 FinalGrid5 XYZFile
|  2> % pal
|  3>     nprocs 8
|  4> end
|  5> %method
|  6>     SymThresh 5.0e-2
|  7> end
|  8> % geom
|  9>     MaxIter 10
| 10> end
| 11> % maxcore 2000
| 12> % output
| 13>     printlevel mini
| 14>     print[ P_Basis ] 0
| 15>     print[ P_SCFInfo ] 1
| 16>     print[ P_SCFIterInfo ] 1
| 17>     print[ P_OrbEn ] 0
| 18>     print[ P_Cartesian ] 0
| 19> end
| 20> % elprop
| 21>     Dipole false
| 22> end
| 23> *xyz 1 1
| 24>  C        1.2354551422     0.9006932551    -0.3702584115
| 25>  C        2.3861197136    -0.0711450206    -0.2444916977
| 26>  C        2.6503383817    -0.7791790648     1.0883289048
| 27>  C        1.5936224869    -1.7301910134     1.4453249454
| 28>  C        2.2851097876    -1.4368501875    -0.8941717887
| 29>  N        2.0985564399    -1.8695829410    -2.0267961457
| 30>  N        2.5898410877    -2.1362123693     0.4200862104
| 31>  H        1.0975450727     1.1671683768    -1.4183051312
| 32>  H        1.4476901124     1.8146451681     0.1853272338
| 33>  H        0.2977302083     0.4803094692    -0.0039402788
| 34>  H        3.3148623215     0.3868376137    -0.6015440728
| 35>  H        3.4587958315    -0.5496316038     1.7706223350
| 36>  H        0.5813285251    -1.6162419040     1.0760232368
| 37>  H        1.7022488154    -2.2784620804     2.3740417573
| 38>  H        2.1461815242    -2.8740829614    -2.1782599318
| 39>  H        3.2087145492    -2.9291847367     0.5693528347
| 40> *
| 41>
| 42>                          ****END OF INPUT****
 Total Charge           Charge          ....    1
 Multiplicity           Mult            ....    1
 Number of Electrons    NEL             ....   52
FINAL SINGLE POINT ENERGY      -304.876654053744

CARTESIAN COORDINATES (ANGSTROEM)
---------------------------------
  C     -2.074539    0.125706   -0.502093
  C     -0.775855   -0.600807   -0.237431
  C      0.416391   -0.409367   -1.180566
  C      0.973266    0.945323   -1.123913
  C      0.115376   -0.147939    0.902041
  N      0.000377    0.000474    2.114312
  N      1.308261   -0.000544   -0.027728
  H     -2.738503    0.007676    0.354864
  H     -2.573507   -0.294807   -1.375982
  H     -1.924848    1.193854   -0.666837
  H     -0.958172   -1.671708   -0.097048
  H      0.767324   -1.135356   -1.902553
  H      0.369321    1.793309   -0.824029
  H      1.823081    1.167388   -1.758743
  H      0.820749    0.269463    2.651836
  H      2.267651   -0.288989    0.146985

FINAL SINGLE POINT ENERGY      -304.876654601406
                    ***********************HURRAY********************
 Multiplicity           Mult            ....    1
 Number of Electrons    NEL             ....   52
 Basis Dimension        Dim             ....  271
FINAL SINGLE POINT ENERGY      -304.876654838708

VIBRATIONAL FREQUENCIES
-----------------------

   0:         0.00 cm**-1
   1:         0.00 cm**-1
   2:         0.00 cm**-1
   3:         0.00 cm**-1
   4:         0.00 cm**-1
   5:         0.00 cm**-1
   6:       145.47 cm**-1
   7:       199.50 cm**-1
   8:       223.10 cm**-1
   9:       254.35 cm**-1
  10:       426.49 cm**-1
  11:       486.86 cm**-1
  12:       602.02 cm**-1
  13:       646.91 cm**-1
  14:       695.82 cm**-1
  15:       788.50 cm**-1
  16:       805.86 cm**-1
  17:       867.64 cm**-1
  18:       891.62 cm**-1
  19:       907.77 cm**-1
  20:       928.84 cm**-1
  21:      1007.92 cm**-1
  22:      1038.46 cm**-1
  23:      1064.62 cm**-1
  24:      1096.77 cm**-1
  25:      1114.86 cm**-1
  26:      1137.89 cm**-1
  27:      1167.67 cm**-1
  28:      1180.43 cm**-1
  29:      1213.65 cm**-1
  30:      1262.87 cm**-1
  31:      1311.76 cm**-1
  32:      1354.39 cm**-1
  33:      1379.62 cm**-1
  34:      1418.58 cm**-1
  35:      1483.07 cm**-1
  36:      1486.07 cm**-1
  37:      1499.91 cm**-1
  38:      1897.65 cm**-1
  39:      3070.77 cm**-1
  40:      3077.66 cm**-1
  41:      3152.29 cm**-1
  42:      3158.24 cm**-1
  43:      3162.74 cm**-1
  44:      3234.43 cm**-1
  45:      3263.03 cm**-1
  46:      3528.61 cm**-1
  47:      3546.81 cm**-1

IR SPECTRUM
-----------

 Mode    freq (cm**-1)   T**2         TX         TY         TZ
-------------------------------------------------------------------
   6:       145.47    2.518899  (  0.567811  -1.312738   0.687901)
   7:       199.50    0.425231  ( -0.400228   0.066864  -0.510468)
   8:       223.10    3.129961  ( -0.306611  -1.440811  -0.979804)
   9:       254.35    0.522069  ( -0.509327   0.476234  -0.189356)
  10:       426.49   19.389389  (  0.674925   0.800911  -4.276962)
  11:       486.86    2.671399  ( -1.116003   1.082791  -0.503489)
  12:       602.02   17.213276  ( -3.186070   0.284350   2.642230)
  13:       646.91    2.795367  ( -0.827239   1.350014  -0.537127)
  14:       695.82   43.695970  (  1.951768   2.451565  -5.820344)
  15:       788.50    6.323887  (  2.182085  -0.117292  -1.244442)
  16:       805.86   41.052006  ( -1.333018  -3.273912  -5.343835)
  17:       867.64   12.586974  (  3.381498  -0.843119  -0.664527)
  18:       891.62    7.970284  (  0.474215  -2.776736  -0.187455)
  19:       907.77   66.219594  ( -0.439238  -7.902571  -1.891039)
  20:       928.84   91.974979  (  1.113960  -3.293970   8.937776)
  21:      1007.92   19.919653  (  0.059974   3.141821   3.169387)
  22:      1038.46   89.318226  (  4.094933   0.576103  -8.498109)
  23:      1064.62   19.483140  (  1.772324   0.518658  -4.009115)
  24:      1096.77   31.506242  ( -3.789164  -0.949595   4.030726)
  25:      1114.86    3.281101  (  0.232648  -0.491800   1.727747)
  26:      1137.89   19.769645  (  2.299395  -2.299423  -3.032340)
  27:      1167.67    2.331227  ( -0.692460  -1.090647  -0.813766)
  28:      1180.43   20.253136  (  1.730614   0.863859  -4.063479)
  29:      1213.65    4.430737  (  0.861894   1.083693   1.585398)
  30:      1262.87   11.637114  ( -1.345540  -2.282544   2.148635)
  31:      1311.76   25.970150  ( -1.003703   0.195920   4.992429)
  32:      1354.39    5.036037  (  0.173683  -0.313686  -2.215282)
  33:      1379.62    5.106706  (  0.141146   1.459301  -1.719658)
  34:      1418.58    7.950647  (  2.232038  -1.662750  -0.451571)
  35:      1483.07    7.796416  (  0.491770  -0.362126  -2.724600)
  36:      1486.07    1.773757  ( -0.988923  -0.863441   0.224183)
  37:      1499.91   25.498789  (  1.949936   4.652930   0.216296)
  38:      1897.65  156.955731  ( -1.421637   0.604095  12.432608)
  39:      3070.77    3.124505  (  0.180345   1.613355  -0.699331)
  40:      3077.66    4.089936  (  1.590329   0.615736   1.087041)
  41:      3152.29    4.695037  (  0.489817   2.108958  -0.086084)
  42:      3158.24    0.393772  ( -0.350027   0.074341  -0.515487)
  43:      3162.74    1.795167  (  0.519708   1.024656  -0.689311)
  44:      3234.43    4.843531  (  0.236256  -1.618206  -1.472795)
  45:      3263.03    9.655066  (  2.325875  -0.480523  -2.003614)
  46:      3528.61  121.632116  (-10.384578   2.864501  -2.363746)
  47:      3546.81   76.428776  (  3.996445   1.867768   7.547757)

--------------------------
THERMOCHEMISTRY AT 298.15K
--------------------------

Temperature         ... 298.15 K
Pressure            ... 1.00 atm
Total Mass          ... 97.14 AMU

Throughout the following assumptions are being made:
  (1) The electronic state is orbitally nondegenerate
  (2) There are no thermally accessible electronically excited states
  (3) Hindered rotations indicated by low frequency modes) are not
      treated as such but are treated as vibrations and this may
      case some error
  (4) All equations used are the standard statistical mechanics
      equations for an ideal gas
  (5) All vibrations are strinctly harmonic

------------
INNER ENERGY
------------

The inner energy is: U= E(el) + E(ZPE) + E(vib) + E(rot) + E(trans)
    E(el)   - is the total energy from the electronic structure calculation
              = E(kin-el) + E(nuc-el) + E(el-el) + E(nuc-nuc)
    E(ZPE)  - the the zero temperature vibrational energy from the frequency calculation
    E(vib)  - the the finite temperature correction to E(ZPE) due to population
              of excietd vibrational states
    E(rot)  - is the rotational thermal energy
    E(trans)- is the translational thermal energy

Summary of contributions to the inner energy U:
Electronic energy                ...   -304.87665484 Eh
Zero point energy                ...      0.13938177 Eh      87.46 kcal/mol
Thermal vibrational correction   ...      0.00380581 Eh       2.39 kcal/mol
Thermal rotational correction    ...      0.00141627 Eh       0.89 kcal/mol
Thermal translational correction ...      0.00141627 Eh       0.89 kcal/mol
-----------------------------------------------------------------------
Total thermal energy                   -304.73063472 Eh

Summary of corrections to the electronic energy:
(perhaps to be used in another calculation)
Total thermal correction                  0.00663835 Eh       4.17 kcal/mol
Non-thermal (ZPE) correction              0.13938177 Eh      87.46 kcal/mol
-----------------------------------------------------------------------
Total correction                          0.14602012 Eh      91.63 kcal/mol

--------
ENTHALPY
--------

The enthalpy is H = U + kB*T
                kB is Boltzmann's constant
Total free energy                 ...   -304.73063472 Eh
Thermal Enthalpy correction       ...      0.00094421 Eh       0.59 kcal/mol
-----------------------------------------------------------------------
Total Enthalpy                    ...   -304.72969051 Eh

-------
ENTROPY
-------

The entropy contributions are T*S = T*(S(el)+S(vib)+S(rot)+S(trans)
     S(el)   - electronic entropy
     S(vib)  - vibrational entropy
     S(rot)  - rotational entropy
     S(trans)- translational entropy
The entropies will be listed as mutliplied by the temperature to get
units of energy

Electronic entropy                ...      0.00000000 Eh      0.00 kcal/mol
Vibrational entropy               ...      0.00612170 Eh      3.84 kcal/mol
Rotational entropy                ...      0.01182788 Eh      7.42 kcal/mol
Translational entropy             ...      0.01883016 Eh     11.82 kcal/mol
-----------------------------------------------------------------------
Final entropy term                ...      0.03677974 Eh     23.08 kcal/mol

CAUTION: The rotational entropy is not quite correctly treated here
         because it includes a symmetry number that is not yet correctly
         implemented in ORCA!
For a nonlinear molecule the correct rotational entropy is:
    S(rot) = R*(ln(qrot/sn)+1.5)
    R    = 8.31441 J/mol/K = 1.987191683e-3 kcal/mol/K
    qrot = 184563.6625869
    sn is the rotational symmetry number. We have assumed 3 here
       if it is different for your molecule then you should correct
       the printed rotational entropy by manually evaluating the equation
       as given above

For convenience we print out the resulting values for sn=1 - 12:
 sn= 1  qrot/sn=  184563.6626 T*S(rot)=     8.07 kcal/mol T*S(tot)=    23.73 kcal/mol
 sn= 2  qrot/sn=   92281.8313 T*S(rot)=     7.66 kcal/mol T*S(tot)=    23.32 kcal/mol
 sn= 3  qrot/sn=   61521.2209 T*S(rot)=     7.42 kcal/mol T*S(tot)=    23.08 kcal/mol
 sn= 4  qrot/sn=   46140.9156 T*S(rot)=     7.25 kcal/mol T*S(tot)=    22.91 kcal/mol
 sn= 5  qrot/sn=   36912.7325 T*S(rot)=     7.12 kcal/mol T*S(tot)=    22.78 kcal/mol
 sn= 6  qrot/sn=   30760.6104 T*S(rot)=     7.01 kcal/mol T*S(tot)=    22.67 kcal/mol
 sn= 7  qrot/sn=   26366.2375 T*S(rot)=     6.92 kcal/mol T*S(tot)=    22.58 kcal/mol
 sn= 8  qrot/sn=   23070.4578 T*S(rot)=     6.84 kcal/mol T*S(tot)=    22.50 kcal/mol
 sn= 9  qrot/sn=   20507.0736 T*S(rot)=     6.77 kcal/mol T*S(tot)=    22.43 kcal/mol
 sn=10  qrot/sn=   18456.3663 T*S(rot)=     6.71 kcal/mol T*S(tot)=    22.37 kcal/mol
 sn=11  qrot/sn=   16778.5148 T*S(rot)=     6.65 kcal/mol T*S(tot)=    22.31 kcal/mol
 sn=12  qrot/sn=   15380.3052 T*S(rot)=     6.60 kcal/mol T*S(tot)=    22.26 kcal/mol

-------------------
GIBBS FREE ENTHALPY
-------------------

The Gibbs free enthalpy is G = H - T*S

Total enthalpy                    ...   -304.72969051 Eh
Total entropy correction          ...     -0.03677974 Eh    -23.08 kcal/mol
-----------------------------------------------------------------------
Final Gibbs free enthalpy         ...   -304.76647025 Eh

For completeness - the Gibbs free enthalpy minus the electronic energy
G-E(el)                           ...      0.11018459 Eh     69.14 kcal/mol

                             ****ORCA TERMINATED NORMALLY****
TOTAL RUN TIME: 0 days 0 hours 31 minutes 37 seconds 23 msec
