                         Program Version 3.0.3 - RELEASE   -
|  1> ! NORI PBE0 def2-TZVP UseSym TightOPT Freq TightSCF Grid3 FinalGrid5 XYZFile
|  2> % pal
|  3>     nprocs 8
|  4> end
|  5> %method
|  6>     SymThresh 5.0e-2
|  7> end
|  8> % geom
|  9>     MaxIter 10
| 10> end
| 11> % maxcore 2000
| 12> % output
| 13>     printlevel mini
| 14>     print[ P_Basis ] 0
| 15>     print[ P_SCFInfo ] 1
| 16>     print[ P_SCFIterInfo ] 1
| 17>     print[ P_OrbEn ] 0
| 18>     print[ P_Cartesian ] 0
| 19> end
| 20> % elprop
| 21>     Dipole false
| 22> end
| 23> *xyz 1 1
| 24>  C        0.9439662048    -0.1343144075     0.0485972779
| 25>  C        2.4488689138     0.0976570781    -0.0690503055
| 26>  C        2.8241884431     1.5459877253    -0.3770967996
| 27>  C        3.1759105452    -0.3818477367     1.2382060736
| 28>  C        3.0388655251    -0.8061373258    -1.0280106629
| 29>  N        4.0698854003    -0.9929061737    -1.8416032569
| 30>  N        2.9306567438    -2.0057065524    -1.5885127276
| 31>  H        0.4210039879     0.1802901505    -0.8566866546
| 32>  H        0.5629845382     0.4630901777     0.8777701395
| 33>  H        0.7066863355    -1.1799893591     0.2547321365
| 34>  H        2.3369300224     1.8985357652    -1.2881117462
| 35>  H        3.9042143399     1.6753546982    -0.4739925892
| 36>  H        2.4864462635     2.1761153403     0.4468530241
| 37>  H        4.2557595859    -0.2453493513     1.1761738027
| 38>  H        2.9470813609    -1.4211136111     1.4746835387
| 39>  H        2.7837308659     0.2559226808     2.0333046337
| 40>  H        4.0782602160    -0.4353863485    -2.7024100614
| 41>  H        2.1817407077    -2.1101627500    -2.2820058226
| 42> *
| 43>
| 44>                          ****END OF INPUT****
 Total Charge           Charge          ....    1
 Multiplicity           Mult            ....    1
 Number of Electrons    NEL             ....   54
FINAL SINGLE POINT ENERGY      -306.028628003129
                    ***********************HURRAY********************
 Multiplicity           Mult            ....    1
 Number of Electrons    NEL             ....   54
 Basis Dimension        Dim             ....  283
FINAL SINGLE POINT ENERGY      -306.028628193060

VIBRATIONAL FREQUENCIES
-----------------------

   0:         0.00 cm**-1
   1:         0.00 cm**-1
   2:         0.00 cm**-1
   3:         0.00 cm**-1
   4:         0.00 cm**-1
   5:         0.00 cm**-1
   6:        89.44 cm**-1
   7:       142.50 cm**-1
   8:       170.31 cm**-1
   9:       193.67 cm**-1
  10:       254.20 cm**-1
  11:       254.25 cm**-1
  12:       328.13 cm**-1
  13:       330.82 cm**-1
  14:       343.40 cm**-1
  15:       440.54 cm**-1
  16:       552.50 cm**-1
  17:       564.73 cm**-1
  18:       618.53 cm**-1
  19:       779.61 cm**-1
  20:       838.41 cm**-1
  21:       942.32 cm**-1
  22:       963.28 cm**-1
  23:       976.51 cm**-1
  24:       977.60 cm**-1
  25:      1001.22 cm**-1
  26:      1036.67 cm**-1
  27:      1078.71 cm**-1
  28:      1085.15 cm**-1
  29:      1174.93 cm**-1
  30:      1242.28 cm**-1
  31:      1263.49 cm**-1
  32:      1381.18 cm**-1
  33:      1400.09 cm**-1
  34:      1414.15 cm**-1
  35:      1426.90 cm**-1
  36:      1457.09 cm**-1
  37:      1471.38 cm**-1
  38:      1472.68 cm**-1
  39:      1485.81 cm**-1
  40:      1495.19 cm**-1
  41:      1506.41 cm**-1
  42:      1715.87 cm**-1
  43:      3062.06 cm**-1
  44:      3062.88 cm**-1
  45:      3063.78 cm**-1
  46:      3144.50 cm**-1
  47:      3145.37 cm**-1
  48:      3151.91 cm**-1
  49:      3153.79 cm**-1
  50:      3154.76 cm**-1
  51:      3169.76 cm**-1
  52:      3423.88 cm**-1
  53:      3438.56 cm**-1

IR SPECTRUM
-----------

 Mode    freq (cm**-1)   T**2         TX         TY         TZ
-------------------------------------------------------------------
   6:        89.44   10.993132  (  0.000002   0.000002  -3.315589)
   7:       142.50    1.286259  ( -0.977312  -0.575430   0.000011)
   8:       170.31    1.699188  ( -0.000005  -0.000006  -1.303529)
   9:       193.67    0.393493  (  0.000020   0.000005   0.627290)
  10:       254.20    0.009529  (  0.000912  -0.000457   0.097613)
  11:       254.25    0.000512  ( -0.019857   0.009847   0.004502)
  12:       328.13    4.429994  ( -2.043756   0.503044   0.000008)
  13:       330.82    0.001570  ( -0.000518   0.000127  -0.039617)
  14:       343.40    2.148069  (  1.411910  -0.393165   0.000012)
  15:       440.54  150.351456  (  0.000002  -0.000000 -12.261788)
  16:       552.50   98.766834  ( -9.851026   1.313055   0.000023)
  17:       564.73   81.380183  ( -0.000025   0.000002  -9.021097)
  18:       618.53    6.852464  (  2.573260  -0.480412  -0.000002)
  19:       779.61    4.862428  ( -2.162956   0.429012   0.000001)
  20:       838.41   72.275126  ( -8.208205   2.213708   0.000003)
  21:       942.32    5.439458  ( -1.148436  -2.029914  -0.000020)
  22:       963.28    2.389243  (  0.000266  -0.000007   1.545718)
  23:       976.51   75.170446  (  8.597110   1.122558   0.000090)
  24:       977.60    0.247771  (  0.002378   0.000337  -0.497760)
  25:      1001.22   14.124381  ( -0.290072  -3.747031  -0.000008)
  26:      1036.67    2.109852  ( -0.000066   0.000007   1.452533)
  27:      1078.71   11.297367  ( -0.000142  -0.000004  -3.361156)
  28:      1085.15  101.107439  (-10.044254  -0.469475   0.000035)
  29:      1174.93    0.007145  (  0.080506   0.025770  -0.000005)
  30:      1242.28    0.000074  (  0.000016   0.000001   0.008607)
  31:      1263.49   13.839993  (  3.717914  -0.130789   0.000001)
  32:      1381.18    6.887346  (  1.811511   1.898887   0.000021)
  33:      1400.09   11.824474  (  0.000008  -0.000016  -3.438673)
  34:      1414.15    0.651440  (  0.000006  -0.000023  -0.807118)
  35:      1426.90    1.055015  ( -0.401335   0.945486  -0.000093)
  36:      1457.09    4.599650  ( -0.000027   0.000063  -2.144680)
  37:      1471.38    2.223574  (  0.060348  -1.489944  -0.000084)
  38:      1472.68    0.000340  ( -0.000007   0.000215   0.018447)
  39:      1485.81   15.866225  ( -0.000143   0.000308   3.983243)
  40:      1495.19   21.522140  (  1.363739  -4.434226   0.000284)
  41:      1506.41   11.266314  ( -3.352160  -0.171283  -0.000022)
  42:      1715.87  211.145053  (-14.277434   2.701838  -0.000002)
  43:      3062.06    2.477693  (  0.000000  -0.000000   1.574069)
  44:      3062.88    0.680670  ( -0.824998  -0.006979   0.000000)
  45:      3063.78    1.982384  ( -0.718798   1.210667   0.000000)
  46:      3144.50    1.257298  ( -0.000001  -0.000001  -1.121293)
  47:      3145.37    5.930900  ( -0.847254  -2.283213   0.000000)
  48:      3151.91    1.077216  ( -0.000001   0.000004  -1.037890)
  49:      3153.79    6.211589  ( -1.389313   2.069154   0.000002)
  50:      3154.76    1.969762  ( -0.930116   1.051022  -0.000001)
  51:      3169.76    1.136808  (  0.000000  -0.000000   1.066212)
  52:      3423.88   87.476001  ( -0.000000   0.000000  -9.352861)
  53:      3438.56  162.656813  ( -8.551763   9.461721  -0.000000)

--------------------------
THERMOCHEMISTRY AT 298.15K
--------------------------

Temperature         ... 298.15 K
Pressure            ... 1.00 atm
Total Mass          ... 99.16 AMU

Throughout the following assumptions are being made:
  (1) The electronic state is orbitally nondegenerate
  (2) There are no thermally accessible electronically excited states
  (3) Hindered rotations indicated by low frequency modes) are not
      treated as such but are treated as vibrations and this may
      case some error
  (4) All equations used are the standard statistical mechanics
      equations for an ideal gas
  (5) All vibrations are strinctly harmonic

------------
INNER ENERGY
------------

The inner energy is: U= E(el) + E(ZPE) + E(vib) + E(rot) + E(trans)
    E(el)   - is the total energy from the electronic structure calculation
              = E(kin-el) + E(nuc-el) + E(el-el) + E(nuc-nuc)
    E(ZPE)  - the the zero temperature vibrational energy from the frequency calculation
    E(vib)  - the the finite temperature correction to E(ZPE) due to population
              of excietd vibrational states
    E(rot)  - is the rotational thermal energy
    E(trans)- is the translational thermal energy

Summary of contributions to the inner energy U:
Electronic energy                ...   -306.02862819 Eh
Zero point energy                ...      0.15683182 Eh      98.41 kcal/mol
Thermal vibrational correction   ...      0.00603307 Eh       3.79 kcal/mol
Thermal rotational correction    ...      0.00141627 Eh       0.89 kcal/mol
Thermal translational correction ...      0.00141627 Eh       0.89 kcal/mol
-----------------------------------------------------------------------
Total thermal energy                   -305.86293076 Eh

Summary of corrections to the electronic energy:
(perhaps to be used in another calculation)
Total thermal correction                  0.00886562 Eh       5.56 kcal/mol
Non-thermal (ZPE) correction              0.15683182 Eh      98.41 kcal/mol
-----------------------------------------------------------------------
Total correction                          0.16569744 Eh     103.98 kcal/mol

--------
ENTHALPY
--------

The enthalpy is H = U + kB*T
                kB is Boltzmann's constant
Total free energy                 ...   -305.86293076 Eh
Thermal Enthalpy correction       ...      0.00094421 Eh       0.59 kcal/mol
-----------------------------------------------------------------------
Total Enthalpy                    ...   -305.86198655 Eh

-------
ENTROPY
-------

The entropy contributions are T*S = T*(S(el)+S(vib)+S(rot)+S(trans)
     S(el)   - electronic entropy
     S(vib)  - vibrational entropy
     S(rot)  - rotational entropy
     S(trans)- translational entropy
The entropies will be listed as mutliplied by the temperature to get
units of energy

Electronic entropy                ...      0.00000000 Eh      0.00 kcal/mol
Vibrational entropy               ...      0.01040293 Eh      6.53 kcal/mol
Rotational entropy                ...      0.01199618 Eh      7.53 kcal/mol
Translational entropy             ...      0.01885925 Eh     11.83 kcal/mol
-----------------------------------------------------------------------
Final entropy term                ...      0.04125837 Eh     25.89 kcal/mol

CAUTION: The rotational entropy is not quite correctly treated here
         because it includes a symmetry number that is not yet correctly
         implemented in ORCA!
For a nonlinear molecule the correct rotational entropy is:
    S(rot) = R*(ln(qrot/sn)+1.5)
    R    = 8.31441 J/mol/K = 1.987191683e-3 kcal/mol/K
    qrot = 220575.6883711
    sn is the rotational symmetry number. We have assumed 3 here
       if it is different for your molecule then you should correct
       the printed rotational entropy by manually evaluating the equation
       as given above

For convenience we print out the resulting values for sn=1 - 12:
 sn= 1  qrot/sn=  220575.6884 T*S(rot)=     8.18 kcal/mol T*S(tot)=    26.54 kcal/mol
 sn= 2  qrot/sn=  110287.8442 T*S(rot)=     7.77 kcal/mol T*S(tot)=    26.13 kcal/mol
 sn= 3  qrot/sn=   73525.2295 T*S(rot)=     7.53 kcal/mol T*S(tot)=    25.89 kcal/mol
 sn= 4  qrot/sn=   55143.9221 T*S(rot)=     7.36 kcal/mol T*S(tot)=    25.72 kcal/mol
 sn= 5  qrot/sn=   44115.1377 T*S(rot)=     7.23 kcal/mol T*S(tot)=    25.59 kcal/mol
 sn= 6  qrot/sn=   36762.6147 T*S(rot)=     7.12 kcal/mol T*S(tot)=    25.48 kcal/mol
 sn= 7  qrot/sn=   31510.8126 T*S(rot)=     7.03 kcal/mol T*S(tot)=    25.39 kcal/mol
 sn= 8  qrot/sn=   27571.9610 T*S(rot)=     6.95 kcal/mol T*S(tot)=    25.31 kcal/mol
 sn= 9  qrot/sn=   24508.4098 T*S(rot)=     6.88 kcal/mol T*S(tot)=    25.24 kcal/mol
 sn=10  qrot/sn=   22057.5688 T*S(rot)=     6.81 kcal/mol T*S(tot)=    25.18 kcal/mol
 sn=11  qrot/sn=   20052.3353 T*S(rot)=     6.76 kcal/mol T*S(tot)=    25.12 kcal/mol
 sn=12  qrot/sn=   18381.3074 T*S(rot)=     6.71 kcal/mol T*S(tot)=    25.07 kcal/mol

-------------------
GIBBS FREE ENTHALPY
-------------------

The Gibbs free enthalpy is G = H - T*S

Total enthalpy                    ...   -305.86198655 Eh
Total entropy correction          ...     -0.04125837 Eh    -25.89 kcal/mol
-----------------------------------------------------------------------
Final Gibbs free enthalpy         ...   -305.90324492 Eh

For completeness - the Gibbs free enthalpy minus the electronic energy
G-E(el)                           ...      0.12538328 Eh     78.68 kcal/mol

                             ****ORCA TERMINATED NORMALLY****
TOTAL RUN TIME: 0 days 0 hours 40 minutes 17 seconds 319 msec
