                         Program Version 3.0.3 - RELEASE   -
|  1> ! NORI PBE0 def2-TZVP UseSym TightOPT Freq TightSCF Grid3 FinalGrid5 XYZFile
|  2> % pal
|  3>     nprocs 8
|  4> end
|  5> %method
|  6>     SymThresh 5.0e-2
|  7> end
|  8> % geom
|  9>     MaxIter 10
| 10> end
| 11> % maxcore 2000
| 12> % output
| 13>     printlevel mini
| 14>     print[ P_Basis ] 0
| 15>     print[ P_SCFInfo ] 1
| 16>     print[ P_SCFIterInfo ] 1
| 17>     print[ P_OrbEn ] 0
| 18>     print[ P_Cartesian ] 0
| 19> end
| 20> % elprop
| 21>     Dipole false
| 22> end
| 23> *xyz 1 1
| 24>  C        1.0498197534     0.0637155225     0.0150912984
| 25>  C        2.4854261196    -0.2453811351    -0.3972930749
| 26>  C        2.5869211411    -0.8984314662    -1.7606752842
| 27>  C        3.1675815021     1.1212124919    -0.2872460960
| 28>  C        2.4944725021     1.8199623676     0.8508648736
| 29>  N        2.6830786936     2.7993322047     1.5833727000
| 30>  N        1.2121663321     1.0436582611     1.1325221432
| 31>  H        0.4744361549    -0.7965566337     0.3530962801
| 32>  H        0.5058211414     0.5693460471    -0.7851718275
| 33>  H        1.3232204074     0.5725036719     2.0333562287
| 34>  H        2.9211380848    -0.9138467204     0.3554026896
| 35>  H        2.1669255095    -0.2546343942    -2.5379686020
| 36>  H        2.0554064451    -1.8510207686    -1.7820992524
| 37>  H        3.6287774355    -1.0973327566    -2.0146051781
| 38>  H        3.0020105144     1.7058862117    -1.2008656720
| 39>  H        4.2451877593     1.0670542272    -0.1266799637
| 40>  H        3.5468687645     3.3036493544     1.3925923623
| 41>  H        0.4369417391     1.6998235146     1.2410463748
| 42> *
| 43>
| 44>                          ****END OF INPUT****
 Total Charge           Charge          ....    1
 Multiplicity           Mult            ....    1
 Number of Electrons    NEL             ....   54
FINAL SINGLE POINT ENERGY      -306.157174392434

CARTESIAN COORDINATES (ANGSTROEM)
---------------------------------
  C      1.046991   -0.240558   -0.895842
  C     -0.331600    0.374422   -1.114416
  C     -0.992998   -0.086632   -2.396960
  C     -1.076906   -0.009242    0.167145
  C     -0.047743   -0.003021    1.252262
  N      0.000307   -0.000623    2.488830
  N      1.309145    0.000034    0.556276
  H      1.843869    0.194702   -1.496650
  H      1.029241   -1.321207   -1.048895
  H      1.740060    0.913829    0.714927
  H     -0.219656    1.465209   -1.139122
  H     -1.125770   -1.171724   -2.403516
  H     -0.398215    0.190076   -3.269290
  H     -1.975388    0.373736   -2.509403
  H     -1.486151   -1.023720    0.082502
  H     -1.905231    0.655674    0.414259
  H     -0.911203    0.006948    2.942257
  H      1.918047   -0.689489    1.000180

FINAL SINGLE POINT ENERGY      -306.157175116324
                    ***********************HURRAY********************
 Multiplicity           Mult            ....    1
 Number of Electrons    NEL             ....   54
 Basis Dimension        Dim             ....  283
FINAL SINGLE POINT ENERGY      -306.157175382881

VIBRATIONAL FREQUENCIES
-----------------------

   0:         0.00 cm**-1
   1:         0.00 cm**-1
   2:         0.00 cm**-1
   3:         0.00 cm**-1
   4:         0.00 cm**-1
   5:         0.00 cm**-1
   6:        69.83 cm**-1
   7:       170.79 cm**-1
   8:       236.60 cm**-1
   9:       276.13 cm**-1
  10:       409.63 cm**-1
  11:       459.87 cm**-1
  12:       463.78 cm**-1
  13:       545.33 cm**-1
  14:       597.53 cm**-1
  15:       731.98 cm**-1
  16:       809.84 cm**-1
  17:       864.86 cm**-1
  18:       906.07 cm**-1
  19:       920.39 cm**-1
  20:       949.13 cm**-1
  21:       971.11 cm**-1
  22:       984.67 cm**-1
  23:      1003.13 cm**-1
  24:      1079.11 cm**-1
  25:      1123.30 cm**-1
  26:      1163.98 cm**-1
  27:      1200.93 cm**-1
  28:      1215.15 cm**-1
  29:      1246.19 cm**-1
  30:      1287.29 cm**-1
  31:      1293.15 cm**-1
  32:      1345.35 cm**-1
  33:      1359.23 cm**-1
  34:      1365.15 cm**-1
  35:      1402.94 cm**-1
  36:      1422.79 cm**-1
  37:      1448.89 cm**-1
  38:      1487.42 cm**-1
  39:      1493.51 cm**-1
  40:      1502.08 cm**-1
  41:      1630.79 cm**-1
  42:      1842.98 cm**-1
  43:      3040.93 cm**-1
  44:      3054.05 cm**-1
  45:      3059.43 cm**-1
  46:      3101.10 cm**-1
  47:      3135.44 cm**-1
  48:      3138.79 cm**-1
  49:      3148.96 cm**-1
  50:      3171.11 cm**-1
  51:      3442.47 cm**-1
  52:      3501.90 cm**-1
  53:      3533.89 cm**-1

IR SPECTRUM
-----------

 Mode    freq (cm**-1)   T**2         TX         TY         TZ
-------------------------------------------------------------------
   6:        69.83    6.530495  (  0.161083  -2.547644   0.118557)
   7:       170.79    1.127239  ( -0.361192   0.902487  -0.426962)
   8:       236.60    0.041945  ( -0.124609  -0.106842   0.122482)
   9:       276.13    1.794016  ( -1.100373   0.002384   0.763669)
  10:       409.63    3.661778  (  0.467759  -1.000218  -1.562864)
  11:       459.87    3.088718  (  0.496110  -1.685777  -0.027382)
  12:       463.78   16.508288  ( -2.666245  -0.170903   3.061081)
  13:       545.33    2.009811  ( -0.383703  -0.431698   1.294689)
  14:       597.53    3.785519  (  1.203840  -1.285279   0.827251)
  15:       731.98   44.916407  ( -2.452044  -2.419451   5.748926)
  16:       809.84   22.099696  (  1.317727  -3.583671  -2.742369)
  17:       864.86   13.465177  (  0.311315  -3.594036  -0.671686)
  18:       906.07   15.865590  (  1.664290  -2.413335  -2.696580)
  19:       920.39   23.895733  ( -0.246845   4.865901  -0.397256)
  20:       949.13   11.038896  ( -1.273640   0.608227   3.007789)
  21:       971.11   11.059465  (  1.441085   2.548409  -1.577451)
  22:       984.67   55.229657  ( -1.565644  -0.256832   7.260334)
  23:      1003.13   23.075704  ( -2.921910   0.335345   3.798116)
  24:      1079.11   12.848966  (  0.574517   3.069403   1.760018)
  25:      1123.30   11.038945  (  1.689383  -1.013393   2.675437)
  26:      1163.98    4.967512  ( -0.515679  -0.056032   2.167590)
  27:      1200.93    2.025333  ( -0.072208  -0.101612   1.417672)
  28:      1215.15   72.241535  ( -7.188937   0.821118  -4.459427)
  29:      1246.19    1.197438  ( -0.151382  -0.883429  -0.627753)
  30:      1287.29    2.635058  ( -0.880605   0.465236  -1.281853)
  31:      1293.15   32.190800  (  0.746276   1.011239   5.532745)
  32:      1345.35   29.015261  (  3.914372   0.491157  -3.667658)
  33:      1359.23    8.692678  ( -0.681051  -0.118842   2.866134)
  34:      1365.15    1.588039  ( -0.791730  -0.245998   0.949046)
  35:      1402.94    0.623861  (  0.505471  -0.338833   0.503540)
  36:      1422.79    5.089931  ( -0.973484  -1.141396  -1.685074)
  37:      1448.89   16.696812  (  3.834777   1.387842   0.255330)
  38:      1487.42    5.858013  (  2.294543  -0.464166  -0.614520)
  39:      1493.51   10.246348  ( -0.916736  -2.459217   1.832537)
  40:      1502.08   16.382157  ( -2.065115   3.474591   0.211360)
  41:      1630.79   61.500114  (  6.800867   1.694530   3.518080)
  42:      1842.98  132.148335  (  1.376396  -0.105645 -11.412393)
  43:      3040.93    4.788755  (  1.134955   1.487843   1.134441)
  44:      3054.05    2.499695  ( -0.543128   0.723375  -1.296702)
  45:      3059.43    5.928017  ( -0.492694  -2.050402  -1.217014)
  46:      3101.10    1.792176  (  0.361743  -1.257695  -0.281998)
  47:      3135.44    8.752996  ( -0.164323  -2.570364   1.455755)
  48:      3138.79    0.582281  ( -0.756643  -0.060013   0.078558)
  49:      3148.96    3.344688  ( -1.519743   0.670475   0.765202)
  50:      3171.11    0.226727  (  0.247407   0.355100  -0.198547)
  51:      3442.47   85.960936  (  8.500242   2.574947   2.660164)
  52:      3501.90   98.658641  ( -2.523115   9.335381  -2.267862)
  53:      3533.89   67.796383  (  4.610622  -0.107259  -6.821074)

--------------------------
THERMOCHEMISTRY AT 298.15K
--------------------------

Temperature         ... 298.15 K
Pressure            ... 1.00 atm
Total Mass          ... 99.16 AMU

Throughout the following assumptions are being made:
  (1) The electronic state is orbitally nondegenerate
  (2) There are no thermally accessible electronically excited states
  (3) Hindered rotations indicated by low frequency modes) are not
      treated as such but are treated as vibrations and this may
      case some error
  (4) All equations used are the standard statistical mechanics
      equations for an ideal gas
  (5) All vibrations are strinctly harmonic

------------
INNER ENERGY
------------

The inner energy is: U= E(el) + E(ZPE) + E(vib) + E(rot) + E(trans)
    E(el)   - is the total energy from the electronic structure calculation
              = E(kin-el) + E(nuc-el) + E(el-el) + E(nuc-nuc)
    E(ZPE)  - the the zero temperature vibrational energy from the frequency calculation
    E(vib)  - the the finite temperature correction to E(ZPE) due to population
              of excietd vibrational states
    E(rot)  - is the rotational thermal energy
    E(trans)- is the translational thermal energy

Summary of contributions to the inner energy U:
Electronic energy                ...   -306.15717538 Eh
Zero point energy                ...      0.16541541 Eh     103.80 kcal/mol
Thermal vibrational correction   ...      0.00422731 Eh       2.65 kcal/mol
Thermal rotational correction    ...      0.00141627 Eh       0.89 kcal/mol
Thermal translational correction ...      0.00141627 Eh       0.89 kcal/mol
-----------------------------------------------------------------------
Total thermal energy                   -305.98470012 Eh

Summary of corrections to the electronic energy:
(perhaps to be used in another calculation)
Total thermal correction                  0.00705985 Eh       4.43 kcal/mol
Non-thermal (ZPE) correction              0.16541541 Eh     103.80 kcal/mol
-----------------------------------------------------------------------
Total correction                          0.17247526 Eh     108.23 kcal/mol

--------
ENTHALPY
--------

The enthalpy is H = U + kB*T
                kB is Boltzmann's constant
Total free energy                 ...   -305.98470012 Eh
Thermal Enthalpy correction       ...      0.00094421 Eh       0.59 kcal/mol
-----------------------------------------------------------------------
Total Enthalpy                    ...   -305.98375592 Eh

-------
ENTROPY
-------

The entropy contributions are T*S = T*(S(el)+S(vib)+S(rot)+S(trans)
     S(el)   - electronic entropy
     S(vib)  - vibrational entropy
     S(rot)  - rotational entropy
     S(trans)- translational entropy
The entropies will be listed as mutliplied by the temperature to get
units of energy

Electronic entropy                ...      0.00000000 Eh      0.00 kcal/mol
Vibrational entropy               ...      0.00724026 Eh      4.54 kcal/mol
Rotational entropy                ...      0.01196576 Eh      7.51 kcal/mol
Translational entropy             ...      0.01885925 Eh     11.83 kcal/mol
-----------------------------------------------------------------------
Final entropy term                ...      0.03806527 Eh     23.89 kcal/mol

CAUTION: The rotational entropy is not quite correctly treated here
         because it includes a symmetry number that is not yet correctly
         implemented in ORCA!
For a nonlinear molecule the correct rotational entropy is:
    S(rot) = R*(ln(qrot/sn)+1.5)
    R    = 8.31441 J/mol/K = 1.987191683e-3 kcal/mol/K
    qrot = 213581.3026104
    sn is the rotational symmetry number. We have assumed 3 here
       if it is different for your molecule then you should correct
       the printed rotational entropy by manually evaluating the equation
       as given above

For convenience we print out the resulting values for sn=1 - 12:
 sn= 1  qrot/sn=  213581.3026 T*S(rot)=     8.16 kcal/mol T*S(tot)=    24.54 kcal/mol
 sn= 2  qrot/sn=  106790.6513 T*S(rot)=     7.75 kcal/mol T*S(tot)=    24.13 kcal/mol
 sn= 3  qrot/sn=   71193.7675 T*S(rot)=     7.51 kcal/mol T*S(tot)=    23.89 kcal/mol
 sn= 4  qrot/sn=   53395.3257 T*S(rot)=     7.34 kcal/mol T*S(tot)=    23.72 kcal/mol
 sn= 5  qrot/sn=   42716.2605 T*S(rot)=     7.21 kcal/mol T*S(tot)=    23.58 kcal/mol
 sn= 6  qrot/sn=   35596.8838 T*S(rot)=     7.10 kcal/mol T*S(tot)=    23.48 kcal/mol
 sn= 7  qrot/sn=   30511.6147 T*S(rot)=     7.01 kcal/mol T*S(tot)=    23.38 kcal/mol
 sn= 8  qrot/sn=   26697.6628 T*S(rot)=     6.93 kcal/mol T*S(tot)=    23.31 kcal/mol
 sn= 9  qrot/sn=   23731.2558 T*S(rot)=     6.86 kcal/mol T*S(tot)=    23.24 kcal/mol
 sn=10  qrot/sn=   21358.1303 T*S(rot)=     6.80 kcal/mol T*S(tot)=    23.17 kcal/mol
 sn=11  qrot/sn=   19416.4821 T*S(rot)=     6.74 kcal/mol T*S(tot)=    23.12 kcal/mol
 sn=12  qrot/sn=   17798.4419 T*S(rot)=     6.69 kcal/mol T*S(tot)=    23.06 kcal/mol

-------------------
GIBBS FREE ENTHALPY
-------------------

The Gibbs free enthalpy is G = H - T*S

Total enthalpy                    ...   -305.98375592 Eh
Total entropy correction          ...     -0.03806527 Eh    -23.89 kcal/mol
-----------------------------------------------------------------------
Final Gibbs free enthalpy         ...   -306.02182118 Eh

For completeness - the Gibbs free enthalpy minus the electronic energy
G-E(el)                           ...      0.13535420 Eh     84.94 kcal/mol

                             ****ORCA TERMINATED NORMALLY****
TOTAL RUN TIME: 0 days 0 hours 37 minutes 3 seconds 2 msec
