                         Program Version 3.0.3 - RELEASE   -
|  1> ! NORI PBE0 def2-TZVP UseSym TightOPT Freq TightSCF Grid3 FinalGrid5 XYZFile
|  2> % pal
|  3>     nprocs 8
|  4> end
|  5> %method
|  6>     SymThresh 5.0e-2
|  7> end
|  8> % geom
|  9>     MaxIter 10
| 10> end
| 11> % maxcore 2000
| 12> % output
| 13>     printlevel mini
| 14>     print[ P_Basis ] 0
| 15>     print[ P_SCFInfo ] 1
| 16>     print[ P_SCFIterInfo ] 1
| 17>     print[ P_OrbEn ] 0
| 18>     print[ P_Cartesian ] 0
| 19> end
| 20> % elprop
| 21>     Dipole false
| 22> end
| 23> *xyz 1 1
| 24>  C        1.8804869491     0.3722175295     0.6865804080
| 25>  C        3.3099053916     0.0914705884     0.1961739039
| 26>  C        3.3674606562    -1.0829285198    -0.6718033734
| 27>  C        4.1781648898    -2.1648748800    -0.4861492123
| 28>  C        4.0941692914    -3.2228196434    -1.3706513757
| 29>  N        3.4402008492    -3.7204954860    -2.4354912073
| 30>  N        4.5891555467    -4.4114741534    -1.6963488377
| 31>  H        1.8813303372     1.2915684799     1.2715684899
| 32>  H        1.5178607267    -0.4377025650     1.3206795423
| 33>  H        1.1892705296     0.5007509704    -0.1479813719
| 34>  H        3.6247948270     0.9452782559    -0.4253731737
| 35>  H        4.0145585841     0.0081534347     1.0253437024
| 36>  H        2.6870026919    -1.0954962179    -1.5239094728
| 37>  H        4.8714829733    -2.2423923680     0.3437424277
| 38>  H        3.7727265005    -3.4247990751    -3.3542613946
| 39>  H        4.2626092557    -5.2363963502    -1.1919690547
| 40> *
| 41>
| 42>                          ****END OF INPUT****
 Total Charge           Charge          ....    1
 Multiplicity           Mult            ....    1
 Number of Electrons    NEL             ....   52
FINAL SINGLE POINT ENERGY      -304.826318624933

CARTESIAN COORDINATES (ANGSTROEM)
---------------------------------
  C     -1.668311    0.752828   -2.712652
  C     -0.689322   -0.327283   -2.225255
  C     -0.490020   -0.270197   -0.778803
  C      0.716475   -0.164478   -0.149786
  C      0.746205   -0.080711    1.228936
  N     -0.000097    0.000615    2.345089
  N      1.530113   -0.000727    2.298126
  H     -1.833058    0.624224   -3.781986
  H     -1.264213    1.751649   -2.545607
  H     -2.632859    0.675795   -2.208247
  H     -1.144542   -1.309442   -2.431309
  H      0.261047   -0.284597   -2.759590
  H     -1.387505   -0.293909   -0.160021
  H      1.656094   -0.117678   -0.688044
  H     -0.316065   -0.882371    2.748446
  H      1.909974    0.908571    2.563766

FINAL SINGLE POINT ENERGY      -304.826319232752
                    ***********************HURRAY********************
 Multiplicity           Mult            ....    1
 Number of Electrons    NEL             ....   52
 Basis Dimension        Dim             ....  271
FINAL SINGLE POINT ENERGY      -304.826319524027

VIBRATIONAL FREQUENCIES
-----------------------

   0:         0.00 cm**-1
   1:         0.00 cm**-1
   2:         0.00 cm**-1
   3:         0.00 cm**-1
   4:         0.00 cm**-1
   5:         0.00 cm**-1
   6:        52.31 cm**-1
   7:       102.73 cm**-1
   8:       142.75 cm**-1
   9:       178.92 cm**-1
  10:       231.51 cm**-1
  11:       361.25 cm**-1
  12:       391.49 cm**-1
  13:       471.09 cm**-1
  14:       541.91 cm**-1
  15:       706.83 cm**-1
  16:       771.92 cm**-1
  17:       780.46 cm**-1
  18:       874.66 cm**-1
  19:       934.34 cm**-1
  20:       981.18 cm**-1
  21:      1003.05 cm**-1
  22:      1015.90 cm**-1
  23:      1056.45 cm**-1
  24:      1075.80 cm**-1
  25:      1081.25 cm**-1
  26:      1176.32 cm**-1
  27:      1223.43 cm**-1
  28:      1244.47 cm**-1
  29:      1277.70 cm**-1
  30:      1315.37 cm**-1
  31:      1324.50 cm**-1
  32:      1370.43 cm**-1
  33:      1407.15 cm**-1
  34:      1448.73 cm**-1
  35:      1485.99 cm**-1
  36:      1493.98 cm**-1
  37:      1617.48 cm**-1
  38:      1777.04 cm**-1
  39:      3001.14 cm**-1
  40:      3071.29 cm**-1
  41:      3119.75 cm**-1
  42:      3153.10 cm**-1
  43:      3158.00 cm**-1
  44:      3164.75 cm**-1
  45:      3217.54 cm**-1
  46:      3476.38 cm**-1
  47:      3483.10 cm**-1

IR SPECTRUM
-----------

 Mode    freq (cm**-1)   T**2         TX         TY         TZ
-------------------------------------------------------------------
   6:        52.31    0.548511  (  0.577525  -0.407888   0.220462)
   7:       102.73    0.605344  ( -0.642830   0.000131   0.438307)
   8:       142.75    0.133256  (  0.311744   0.025915  -0.188149)
   9:       178.92    0.120900  (  0.316934   0.114343   0.085900)
  10:       231.51    0.126437  (  0.294895   0.136831   0.144053)
  11:       361.25    0.413155  ( -0.349335   0.104107  -0.529416)
  12:       391.49    0.085606  ( -0.254541   0.129519  -0.063562)
  13:       471.09    8.207602  (  2.761349  -0.756206   0.103457)
  14:       541.91    8.208603  ( -2.826795   0.191063  -0.425823)
  15:       706.83  102.391759  ( -9.964320   1.750124   0.202877)
  16:       771.92   54.147359  (  5.423663  -0.049018   4.972810)
  17:       780.46  206.776090  ( 13.587061  -2.118439   4.204769)
  18:       874.66   27.617122  ( -1.605795  -2.614186  -4.266682)
  19:       934.34   24.912165  (  0.926684  -2.364774  -4.296657)
  20:       981.18   79.275873  (  1.309651   3.650739   8.014536)
  21:      1003.05   16.389803  ( -1.344890   2.812878  -2.582400)
  22:      1015.90  376.923770  ( -2.823829   1.536420 -19.146519)
  23:      1056.45    8.389809  (  2.622737  -0.316673  -1.187763)
  24:      1075.80    1.627784  ( -0.337077  -1.003658  -0.711922)
  25:      1081.25   20.809980  ( -1.997594   0.058203  -4.100757)
  26:      1176.32    2.537867  (  0.671858  -0.889993  -1.137711)
  27:      1223.43   51.008440  (  2.954429  -0.438906   6.487461)
  28:      1244.47   12.401801  ( -1.058336  -0.588376  -3.306893)
  29:      1277.70   16.519010  (  2.989497  -1.380861   2.382255)
  30:      1315.37   37.499885  ( -3.440113  -0.147034  -5.063980)
  31:      1324.50    0.098620  ( -0.148305   0.097800  -0.258962)
  32:      1370.43    3.640920  (  0.774706   1.569294  -0.760307)
  33:      1407.15   13.140815  (  0.824260   1.025456   3.377847)
  34:      1448.73   18.515546  ( -3.473750   2.327470  -1.015622)
  35:      1485.99   14.403902  ( -2.457085  -2.583635  -1.300564)
  36:      1493.98    8.474916  ( -2.508589   0.087208   1.474548)
  37:      1617.48  342.016519  (  8.537857   0.849277  16.382925)
  38:      1777.04  741.697850  (  9.438349   1.248632  25.515806)
  39:      3001.14   32.615850  (  2.722780   0.998198   4.919951)
  40:      3071.29    5.967833  ( -1.803612   1.493597  -0.695691)
  41:      3119.75    3.129883  ( -0.477059   1.110943   1.291551)
  42:      3153.10    3.011502  ( -1.459822  -0.823260   0.450184)
  43:      3158.00    3.555864  (  1.161628   0.631477  -1.344515)
  44:      3164.75    1.393289  ( -0.366274   1.102523   0.208749)
  45:      3217.54    8.621592  ( -2.690191  -0.103739   1.172051)
  46:      3476.38  119.052392  (  4.715931   7.907298  -5.855512)
  47:      3483.10  150.786731  ( -6.321271  -6.650242  -8.161038)

--------------------------
THERMOCHEMISTRY AT 298.15K
--------------------------

Temperature         ... 298.15 K
Pressure            ... 1.00 atm
Total Mass          ... 97.14 AMU

Throughout the following assumptions are being made:
  (1) The electronic state is orbitally nondegenerate
  (2) There are no thermally accessible electronically excited states
  (3) Hindered rotations indicated by low frequency modes) are not
      treated as such but are treated as vibrations and this may
      case some error
  (4) All equations used are the standard statistical mechanics
      equations for an ideal gas
  (5) All vibrations are strinctly harmonic

------------
INNER ENERGY
------------

The inner energy is: U= E(el) + E(ZPE) + E(vib) + E(rot) + E(trans)
    E(el)   - is the total energy from the electronic structure calculation
              = E(kin-el) + E(nuc-el) + E(el-el) + E(nuc-nuc)
    E(ZPE)  - the the zero temperature vibrational energy from the frequency calculation
    E(vib)  - the the finite temperature correction to E(ZPE) due to population
              of excietd vibrational states
    E(rot)  - is the rotational thermal energy
    E(trans)- is the translational thermal energy

Summary of contributions to the inner energy U:
Electronic energy                ...   -304.82631952 Eh
Zero point energy                ...      0.13615110 Eh      85.44 kcal/mol
Thermal vibrational correction   ...      0.00513072 Eh       3.22 kcal/mol
Thermal rotational correction    ...      0.00141627 Eh       0.89 kcal/mol
Thermal translational correction ...      0.00141627 Eh       0.89 kcal/mol
-----------------------------------------------------------------------
Total thermal energy                   -304.68220516 Eh

Summary of corrections to the electronic energy:
(perhaps to be used in another calculation)
Total thermal correction                  0.00796327 Eh       5.00 kcal/mol
Non-thermal (ZPE) correction              0.13615110 Eh      85.44 kcal/mol
-----------------------------------------------------------------------
Total correction                          0.14411437 Eh      90.43 kcal/mol

--------
ENTHALPY
--------

The enthalpy is H = U + kB*T
                kB is Boltzmann's constant
Total free energy                 ...   -304.68220516 Eh
Thermal Enthalpy correction       ...      0.00094421 Eh       0.59 kcal/mol
-----------------------------------------------------------------------
Total Enthalpy                    ...   -304.68126095 Eh

-------
ENTROPY
-------

The entropy contributions are T*S = T*(S(el)+S(vib)+S(rot)+S(trans)
     S(el)   - electronic entropy
     S(vib)  - vibrational entropy
     S(rot)  - rotational entropy
     S(trans)- translational entropy
The entropies will be listed as mutliplied by the temperature to get
units of energy

Electronic entropy                ...      0.00000000 Eh      0.00 kcal/mol
Vibrational entropy               ...      0.00965337 Eh      6.06 kcal/mol
Rotational entropy                ...      0.01216948 Eh      7.64 kcal/mol
Translational entropy             ...      0.01883016 Eh     11.82 kcal/mol
-----------------------------------------------------------------------
Final entropy term                ...      0.04065301 Eh     25.51 kcal/mol

CAUTION: The rotational entropy is not quite correctly treated here
         because it includes a symmetry number that is not yet correctly
         implemented in ORCA!
For a nonlinear molecule the correct rotational entropy is:
    S(rot) = R*(ln(qrot/sn)+1.5)
    R    = 8.31441 J/mol/K = 1.987191683e-3 kcal/mol/K
    qrot = 265013.5596585
    sn is the rotational symmetry number. We have assumed 3 here
       if it is different for your molecule then you should correct
       the printed rotational entropy by manually evaluating the equation
       as given above

For convenience we print out the resulting values for sn=1 - 12:
 sn= 1  qrot/sn=  265013.5597 T*S(rot)=     8.29 kcal/mol T*S(tot)=    26.16 kcal/mol
 sn= 2  qrot/sn=  132506.7798 T*S(rot)=     7.88 kcal/mol T*S(tot)=    25.75 kcal/mol
 sn= 3  qrot/sn=   88337.8532 T*S(rot)=     7.64 kcal/mol T*S(tot)=    25.51 kcal/mol
 sn= 4  qrot/sn=   66253.3899 T*S(rot)=     7.47 kcal/mol T*S(tot)=    25.34 kcal/mol
 sn= 5  qrot/sn=   53002.7119 T*S(rot)=     7.33 kcal/mol T*S(tot)=    25.21 kcal/mol
 sn= 6  qrot/sn=   44168.9266 T*S(rot)=     7.23 kcal/mol T*S(tot)=    25.10 kcal/mol
 sn= 7  qrot/sn=   37859.0800 T*S(rot)=     7.13 kcal/mol T*S(tot)=    25.01 kcal/mol
 sn= 8  qrot/sn=   33126.6950 T*S(rot)=     7.06 kcal/mol T*S(tot)=    24.93 kcal/mol
 sn= 9  qrot/sn=   29445.9511 T*S(rot)=     6.99 kcal/mol T*S(tot)=    24.86 kcal/mol
 sn=10  qrot/sn=   26501.3560 T*S(rot)=     6.92 kcal/mol T*S(tot)=    24.80 kcal/mol
 sn=11  qrot/sn=   24092.1418 T*S(rot)=     6.87 kcal/mol T*S(tot)=    24.74 kcal/mol
 sn=12  qrot/sn=   22084.4633 T*S(rot)=     6.82 kcal/mol T*S(tot)=    24.69 kcal/mol

-------------------
GIBBS FREE ENTHALPY
-------------------

The Gibbs free enthalpy is G = H - T*S

Total enthalpy                    ...   -304.68126095 Eh
Total entropy correction          ...     -0.04065301 Eh    -25.51 kcal/mol
-----------------------------------------------------------------------
Final Gibbs free enthalpy         ...   -304.72191396 Eh

For completeness - the Gibbs free enthalpy minus the electronic energy
G-E(el)                           ...      0.10440557 Eh     65.52 kcal/mol

                             ****ORCA TERMINATED NORMALLY****
TOTAL RUN TIME: 0 days 0 hours 25 minutes 12 seconds 386 msec
