                         Program Version 3.0.3 - RELEASE   -
|  1> ! NORI PBE0 def2-TZVP UseSym TightOPT Freq TightSCF Grid3 FinalGrid5 XYZFile
|  2> % pal
|  3>     nprocs 8
|  4> end
|  5> %method
|  6>     SymThresh 5.0e-2
|  7> end
|  8> % geom
|  9>     MaxIter 10
| 10> end
| 11> % maxcore 2000
| 12> % output
| 13>     printlevel mini
| 14>     print[ P_Basis ] 0
| 15>     print[ P_SCFInfo ] 1
| 16>     print[ P_SCFIterInfo ] 1
| 17>     print[ P_OrbEn ] 0
| 18>     print[ P_Cartesian ] 0
| 19> end
| 20> % elprop
| 21>     Dipole false
| 22> end
| 23> *xyz 1 1
| 24>  C        3.4274908641     0.6553343297     1.1874436336
| 25>  C        2.8681639547     0.3118726005    -0.1822554330
| 26>  C        3.3151778550    -1.0609816747    -0.6950841596
| 27>  C        2.6382880148    -1.4440184070    -2.0489031863
| 28>  C        4.7259030513    -1.1024733242    -0.9852055997
| 29>  N        5.7776507186    -1.8932824539    -1.1201011527
| 30>  N        5.7602339078    -0.3811461612    -1.3863601480
| 31>  H        3.0416856501     1.6184668558     1.5218732321
| 32>  H        4.5190345841     0.7322387615     1.1789176246
| 33>  H        3.1416579631    -0.0895065463     1.9341745283
| 34>  H        1.7760023150     0.2854110925    -0.1527753657
| 35>  H        3.1374466224     1.0756260060    -0.9187018228
| 36>  H        3.1003239948    -1.8558238225     0.0272181414
| 37>  H        2.7966077906    -0.6671700676    -2.7980119382
| 38>  H        1.5697723923    -1.5189030835    -1.8426516189
| 39>  H        2.9867835202    -2.4034156535    -2.4308126659
| 40>  H        6.3448130904    -2.1364005427    -0.3058855460
| 41>  H        5.8972137106    -0.1655479088    -2.3746885232
| 42> *
| 43>
| 44>                          ****END OF INPUT****
 Total Charge           Charge          ....    1
 Multiplicity           Mult            ....    1
 Number of Electrons    NEL             ....   54
FINAL SINGLE POINT ENERGY      -306.033692998462
FINAL SINGLE POINT ENERGY      -306.033694059748

CARTESIAN COORDINATES (ANGSTROEM)
---------------------------------
  C      0.149318    1.818637   -1.626833
  C      0.028493    0.305232   -1.641246
  C     -0.692361   -0.259094   -0.412861
  C     -0.908213   -1.802946   -0.499742
  C      0.069981   -0.080773    0.796622
  N      0.000410   -0.000367    2.115128
  N      1.295386    0.000651    1.289999
  H      0.626306    2.167923   -2.542977
  H      0.759144    2.175146   -0.791572
  H     -0.830798    2.296829   -1.564226
  H     -0.546534   -0.023550   -2.510233
  H      1.012407   -0.165855   -1.728374
  H     -1.670144    0.210633   -0.262308
  H      0.035553   -2.319652   -0.675606
  H     -1.562843   -1.969268   -1.355855
  H     -1.391031   -2.205258    0.390916
  H     -0.171649    0.899937    2.566115
  H      1.851915   -0.839874    1.451614

FINAL SINGLE POINT ENERGY      -306.033694500853
                    ***********************HURRAY********************
 Multiplicity           Mult            ....    1
 Number of Electrons    NEL             ....   54
 Basis Dimension        Dim             ....  283
FINAL SINGLE POINT ENERGY      -306.033694736255

VIBRATIONAL FREQUENCIES
-----------------------

   0:         0.00 cm**-1
   1:         0.00 cm**-1
   2:         0.00 cm**-1
   3:         0.00 cm**-1
   4:         0.00 cm**-1
   5:         0.00 cm**-1
   6:        47.76 cm**-1
   7:        92.90 cm**-1
   8:       145.93 cm**-1
   9:       190.71 cm**-1
  10:       211.73 cm**-1
  11:       230.80 cm**-1
  12:       267.70 cm**-1
  13:       394.77 cm**-1
  14:       474.79 cm**-1
  15:       544.15 cm**-1
  16:       632.82 cm**-1
  17:       679.89 cm**-1
  18:       791.53 cm**-1
  19:       835.40 cm**-1
  20:       889.76 cm**-1
  21:       950.83 cm**-1
  22:       972.19 cm**-1
  23:       980.77 cm**-1
  24:      1015.19 cm**-1
  25:      1039.61 cm**-1
  26:      1097.28 cm**-1
  27:      1122.59 cm**-1
  28:      1161.04 cm**-1
  29:      1208.73 cm**-1
  30:      1251.85 cm**-1
  31:      1269.71 cm**-1
  32:      1331.16 cm**-1
  33:      1353.18 cm**-1
  34:      1395.29 cm**-1
  35:      1403.19 cm**-1
  36:      1421.65 cm**-1
  37:      1468.92 cm**-1
  38:      1478.84 cm**-1
  39:      1486.49 cm**-1
  40:      1491.18 cm**-1
  41:      1495.31 cm**-1
  42:      1741.41 cm**-1
  43:      3051.76 cm**-1
  44:      3063.39 cm**-1
  45:      3069.85 cm**-1
  46:      3078.17 cm**-1
  47:      3107.22 cm**-1
  48:      3129.97 cm**-1
  49:      3149.45 cm**-1
  50:      3163.45 cm**-1
  51:      3167.58 cm**-1
  52:      3473.57 cm**-1
  53:      3481.90 cm**-1

IR SPECTRUM
-----------

 Mode    freq (cm**-1)   T**2         TX         TY         TZ
-------------------------------------------------------------------
   6:        47.76    0.157039  (  0.009111   0.301275  -0.257274)
   7:        92.90    0.218611  (  0.252102  -0.349527   0.181345)
   8:       145.93    0.846404  ( -0.281761  -0.715431  -0.505146)
   9:       190.71    1.889210  ( -0.765005  -0.427189  -1.059003)
  10:       211.73    0.342886  ( -0.245160  -0.155922  -0.508400)
  11:       230.80    0.543779  ( -0.139390  -0.143579  -0.709742)
  12:       267.70    0.363624  (  0.300020   0.004363   0.523061)
  13:       394.77    1.148909  ( -0.605970  -0.870502   0.154712)
  14:       474.79   37.948952  ( -5.037875  -1.679451   3.122212)
  15:       544.15   35.910700  ( -4.410642  -0.953895   3.942971)
  16:       632.82  191.879837  ( 11.828871   3.227117  -6.445414)
  17:       679.89   86.790498  ( -7.523046  -1.662507   5.237399)
  18:       791.53    6.889466  (  0.403450  -0.393635   2.563542)
  19:       835.40    1.570917  (  1.037202   0.180391  -0.680138)
  20:       889.76  153.341742  ( -6.420483  -3.530652  -9.982667)
  21:       950.83   40.096045  ( -3.296834  -2.176627  -4.948659)
  22:       972.19   98.965720  (  5.928163   1.074303   7.916342)
  23:       980.77   70.685166  (  2.737164   0.026338   7.949365)
  24:      1015.19    5.502303  ( -0.057932  -1.595639   1.718396)
  25:      1039.61    2.141298  (  0.832071  -0.585049  -1.051986)
  26:      1097.28    3.972178  ( -0.178318   1.267204   1.527931)
  27:      1122.59    1.855479  ( -0.717573  -0.372147   1.096392)
  28:      1161.04    4.049036  (  0.268220   0.224734  -1.981562)
  29:      1208.73    1.198852  ( -0.051220  -0.887188  -0.639629)
  30:      1251.85    3.406037  (  1.117438   1.182289   0.871529)
  31:      1269.71    2.333079  ( -1.062035  -0.998264  -0.456760)
  32:      1331.16    4.149993  ( -0.098400  -1.507971  -1.366138)
  33:      1353.18    2.088763  ( -0.309098  -1.360186   0.378305)
  34:      1395.29    9.492150  (  1.184978  -1.301338   2.528734)
  35:      1403.19    1.005678  ( -0.934170  -0.131307   0.340241)
  36:      1421.65    6.857526  (  0.174536  -2.611557  -0.082650)
  37:      1468.92   10.637171  (  2.298771   1.590222  -1.680481)
  38:      1478.84   11.626554  ( -2.940746   1.498775   0.855710)
  39:      1486.49    3.691589  ( -1.576622  -0.007902  -1.098084)
  40:      1491.18    7.914571  (  2.116176  -0.820761  -1.662144)
  41:      1495.31   16.952474  (  3.379973   0.011098   2.351199)
  42:      1741.41  215.077737  ( -6.545228  -3.199431 -12.727976)
  43:      3051.76    6.427130  (  0.306231   1.608416   1.935549)
  44:      3063.39    9.493905  ( -1.298573   2.740113   0.547170)
  45:      3069.85    1.212750  (  0.782148  -0.327642   0.702599)
  46:      3078.17    2.350870  (  0.400592   0.904047   1.171792)
  47:      3107.22    1.264624  (  0.497709  -0.548951   0.845909)
  48:      3129.97   12.591233  (  2.894448  -0.475002   1.996943)
  49:      3149.45    3.472593  (  1.265704  -0.169537  -1.357145)
  50:      3163.45    5.543266  (  0.786297   1.878339   1.181883)
  51:      3167.58    1.586649  (  1.103249   0.135470  -0.592569)
  52:      3473.57  192.321224  ( -5.136469  10.627283   7.280025)
  53:      3481.90  114.391626  (  7.841275  -3.551757   6.347524)

--------------------------
THERMOCHEMISTRY AT 298.15K
--------------------------

Temperature         ... 298.15 K
Pressure            ... 1.00 atm
Total Mass          ... 99.16 AMU

Throughout the following assumptions are being made:
  (1) The electronic state is orbitally nondegenerate
  (2) There are no thermally accessible electronically excited states
  (3) Hindered rotations indicated by low frequency modes) are not
      treated as such but are treated as vibrations and this may
      case some error
  (4) All equations used are the standard statistical mechanics
      equations for an ideal gas
  (5) All vibrations are strinctly harmonic

------------
INNER ENERGY
------------

The inner energy is: U= E(el) + E(ZPE) + E(vib) + E(rot) + E(trans)
    E(el)   - is the total energy from the electronic structure calculation
              = E(kin-el) + E(nuc-el) + E(el-el) + E(nuc-nuc)
    E(ZPE)  - the the zero temperature vibrational energy from the frequency calculation
    E(vib)  - the the finite temperature correction to E(ZPE) due to population
              of excietd vibrational states
    E(rot)  - is the rotational thermal energy
    E(trans)- is the translational thermal energy

Summary of contributions to the inner energy U:
Electronic energy                ...   -306.03369474 Eh
Zero point energy                ...      0.15834035 Eh      99.36 kcal/mol
Thermal vibrational correction   ...      0.00592385 Eh       3.72 kcal/mol
Thermal rotational correction    ...      0.00141627 Eh       0.89 kcal/mol
Thermal translational correction ...      0.00141627 Eh       0.89 kcal/mol
-----------------------------------------------------------------------
Total thermal energy                   -305.86659799 Eh

Summary of corrections to the electronic energy:
(perhaps to be used in another calculation)
Total thermal correction                  0.00875639 Eh       5.49 kcal/mol
Non-thermal (ZPE) correction              0.15834035 Eh      99.36 kcal/mol
-----------------------------------------------------------------------
Total correction                          0.16709675 Eh     104.85 kcal/mol

--------
ENTHALPY
--------

The enthalpy is H = U + kB*T
                kB is Boltzmann's constant
Total free energy                 ...   -305.86659799 Eh
Thermal Enthalpy correction       ...      0.00094421 Eh       0.59 kcal/mol
-----------------------------------------------------------------------
Total Enthalpy                    ...   -305.86565378 Eh

-------
ENTROPY
-------

The entropy contributions are T*S = T*(S(el)+S(vib)+S(rot)+S(trans)
     S(el)   - electronic entropy
     S(vib)  - vibrational entropy
     S(rot)  - rotational entropy
     S(trans)- translational entropy
The entropies will be listed as mutliplied by the temperature to get
units of energy

Electronic entropy                ...      0.00000000 Eh      0.00 kcal/mol
Vibrational entropy               ...      0.01112766 Eh      6.98 kcal/mol
Rotational entropy                ...      0.01215229 Eh      7.63 kcal/mol
Translational entropy             ...      0.01885925 Eh     11.83 kcal/mol
-----------------------------------------------------------------------
Final entropy term                ...      0.04213921 Eh     26.44 kcal/mol

CAUTION: The rotational entropy is not quite correctly treated here
         because it includes a symmetry number that is not yet correctly
         implemented in ORCA!
For a nonlinear molecule the correct rotational entropy is:
    S(rot) = R*(ln(qrot/sn)+1.5)
    R    = 8.31441 J/mol/K = 1.987191683e-3 kcal/mol/K
    qrot = 260233.6919967
    sn is the rotational symmetry number. We have assumed 3 here
       if it is different for your molecule then you should correct
       the printed rotational entropy by manually evaluating the equation
       as given above

For convenience we print out the resulting values for sn=1 - 12:
 sn= 1  qrot/sn=  260233.6920 T*S(rot)=     8.28 kcal/mol T*S(tot)=    27.09 kcal/mol
 sn= 2  qrot/sn=  130116.8460 T*S(rot)=     7.87 kcal/mol T*S(tot)=    26.68 kcal/mol
 sn= 3  qrot/sn=   86744.5640 T*S(rot)=     7.63 kcal/mol T*S(tot)=    26.44 kcal/mol
 sn= 4  qrot/sn=   65058.4230 T*S(rot)=     7.46 kcal/mol T*S(tot)=    26.27 kcal/mol
 sn= 5  qrot/sn=   52046.7384 T*S(rot)=     7.32 kcal/mol T*S(tot)=    26.14 kcal/mol
 sn= 6  qrot/sn=   43372.2820 T*S(rot)=     7.21 kcal/mol T*S(tot)=    26.03 kcal/mol
 sn= 7  qrot/sn=   37176.2417 T*S(rot)=     7.12 kcal/mol T*S(tot)=    25.94 kcal/mol
 sn= 8  qrot/sn=   32529.2115 T*S(rot)=     7.04 kcal/mol T*S(tot)=    25.86 kcal/mol
 sn= 9  qrot/sn=   28914.8547 T*S(rot)=     6.97 kcal/mol T*S(tot)=    25.79 kcal/mol
 sn=10  qrot/sn=   26023.3692 T*S(rot)=     6.91 kcal/mol T*S(tot)=    25.73 kcal/mol
 sn=11  qrot/sn=   23657.6084 T*S(rot)=     6.86 kcal/mol T*S(tot)=    25.67 kcal/mol
 sn=12  qrot/sn=   21686.1410 T*S(rot)=     6.80 kcal/mol T*S(tot)=    25.62 kcal/mol

-------------------
GIBBS FREE ENTHALPY
-------------------

The Gibbs free enthalpy is G = H - T*S

Total enthalpy                    ...   -305.86565378 Eh
Total entropy correction          ...     -0.04213921 Eh    -26.44 kcal/mol
-----------------------------------------------------------------------
Final Gibbs free enthalpy         ...   -305.90779298 Eh

For completeness - the Gibbs free enthalpy minus the electronic energy
G-E(el)                           ...      0.12590175 Eh     79.00 kcal/mol

                             ****ORCA TERMINATED NORMALLY****
TOTAL RUN TIME: 0 days 0 hours 43 minutes 41 seconds 381 msec
