                         Program Version 3.0.3 - RELEASE   -
|  1> ! NORI PBE0 def2-TZVP UseSym TightOPT Freq TightSCF Grid3 FinalGrid5 XYZFile
|  2> % pal
|  3>     nprocs 8
|  4> end
|  5> %method
|  6>     SymThresh 5.0e-2
|  7> end
|  8> % geom
|  9>     MaxIter 10
| 10> end
| 11> % maxcore 2000
| 12> % output
| 13>     printlevel mini
| 14>     print[ P_Basis ] 0
| 15>     print[ P_SCFInfo ] 1
| 16>     print[ P_SCFIterInfo ] 1
| 17>     print[ P_OrbEn ] 0
| 18>     print[ P_Cartesian ] 0
| 19> end
| 20> % elprop
| 21>     Dipole false
| 22> end
| 23> *xyz 1 1
| 24>  C        0.7530224698     0.4391181353     0.0391160280
| 25>  C        2.2517051422     0.3207551050    -0.1747099004
| 26>  C        2.8733235797    -0.7697905465     0.6896277782
| 27>  C        4.3639509989    -0.8777283398     0.4556556969
| 28>  N        4.9669130267    -1.9472130458     1.2859078986
| 29>  C        6.4070497910    -1.9711824163     1.6093263863
| 30>  C        5.4221014296    -1.6897099072     2.6662185340
| 31>  H        0.3335942091     1.2264836383    -0.5879047584
| 32>  H        0.5173244137     0.6819279904     1.0779487803
| 33>  H        0.2403932433    -0.4925573662    -0.2123844920
| 34>  H        2.7341734974     1.2785152133     0.0494539334
| 35>  H        2.4594744331     0.1098423017    -1.2291683577
| 36>  H        2.3943781844    -1.7298282516     0.4617504480
| 37>  H        2.6776083843    -0.5588898008     1.7467454811
| 38>  H        4.8842237447     0.0481186648     0.7119527861
| 39>  H        4.5958419299    -1.1201209571    -0.5841673917
| 40>  H        4.5422017689    -2.8582434581     1.1405975550
| 41>  H        6.9656123916    -1.1531531155     1.1735193899
| 42>  H        6.8708176982    -2.9478223256     1.5566868330
| 43>  H        5.1716076392    -2.4595965786     3.3843682291
| 44>  H        5.2714020243    -0.6678249398     2.9890491424
| 45> *
| 46>
| 47>                          ****END OF INPUT****
 Total Charge           Charge          ....    1
 Multiplicity           Mult            ....    1
 Number of Electrons    NEL             ....   56
FINAL SINGLE POINT ENERGY      -291.298142116125

CARTESIAN COORDINATES (ANGSTROEM)
---------------------------------
  C      1.073703   -0.000154   -3.321833
  C      0.225093    0.594856   -2.211818
  C      0.537259   -0.021896   -0.853141
  C     -0.311435    0.590281    0.239360
  N      0.000272    0.000141    1.562828
  C     -0.951438    0.055905    2.689963
  C     -0.663659   -1.230650    2.035729
  H      0.830024    0.455806   -4.282029
  H      0.909555   -1.076462   -3.414924
  H      2.138678    0.162497   -3.139018
  H     -0.836524    0.449481   -2.439332
  H      0.384975    1.677252   -2.163492
  H      1.598958    0.128127   -0.622322
  H      0.369094   -1.103886   -0.891894
  H     -1.377606    0.425428    0.067190
  H     -0.144984    1.666335    0.329055
  H      0.979321    0.081739    1.820375
  H     -1.872410    0.574579    2.457397
  H     -0.507593    0.278062    3.651795
  H     -0.013426   -1.945761    2.522543
  H     -1.378282   -1.636409    1.331217

FINAL SINGLE POINT ENERGY      -291.298142861242
                    ***********************HURRAY********************
 Multiplicity           Mult            ....    1
 Number of Electrons    NEL             ....   56
 Basis Dimension        Dim             ....  301
FINAL SINGLE POINT ENERGY      -291.298143237627

VIBRATIONAL FREQUENCIES
-----------------------

   0:         0.00 cm**-1
   1:         0.00 cm**-1
   2:         0.00 cm**-1
   3:         0.00 cm**-1
   4:         0.00 cm**-1
   5:         0.00 cm**-1
   6:        64.89 cm**-1
   7:        85.10 cm**-1
   8:       122.40 cm**-1
   9:       138.24 cm**-1
  10:       245.97 cm**-1
  11:       285.04 cm**-1
  12:       316.37 cm**-1
  13:       414.27 cm**-1
  14:       453.16 cm**-1
  15:       742.79 cm**-1
  16:       783.73 cm**-1
  17:       793.05 cm**-1
  18:       840.58 cm**-1
  19:       874.67 cm**-1
  20:       915.82 cm**-1
  21:       945.53 cm**-1
  22:       963.38 cm**-1
  23:      1007.19 cm**-1
  24:      1055.16 cm**-1
  25:      1082.17 cm**-1
  26:      1109.15 cm**-1
  27:      1152.13 cm**-1
  28:      1153.14 cm**-1
  29:      1157.49 cm**-1
  30:      1178.16 cm**-1
  31:      1215.71 cm**-1
  32:      1218.03 cm**-1
  33:      1270.65 cm**-1
  34:      1283.31 cm**-1
  35:      1296.66 cm**-1
  36:      1333.95 cm**-1
  37:      1338.90 cm**-1
  38:      1379.29 cm**-1
  39:      1403.13 cm**-1
  40:      1417.04 cm**-1
  41:      1460.02 cm**-1
  42:      1475.39 cm**-1
  43:      1481.55 cm**-1
  44:      1483.33 cm**-1
  45:      1492.40 cm**-1
  46:      1493.01 cm**-1
  47:      1504.29 cm**-1
  48:      1521.53 cm**-1
  49:      3031.96 cm**-1
  50:      3045.54 cm**-1
  51:      3056.22 cm**-1
  52:      3067.87 cm**-1
  53:      3080.57 cm**-1
  54:      3090.28 cm**-1
  55:      3128.22 cm**-1
  56:      3137.37 cm**-1
  57:      3144.58 cm**-1
  58:      3172.77 cm**-1
  59:      3174.75 cm**-1
  60:      3270.35 cm**-1
  61:      3280.59 cm**-1
  62:      3537.93 cm**-1

IR SPECTRUM
-----------

 Mode    freq (cm**-1)   T**2         TX         TY         TZ
-------------------------------------------------------------------
   6:        64.89    0.356623  ( -0.116124  -0.584243  -0.042409)
   7:        85.10    0.092224  (  0.065578  -0.296494  -0.003848)
   8:       122.40    0.532810  (  0.291156   0.104338  -0.661174)
   9:       138.24    0.857429  ( -0.360116  -0.690377  -0.501124)
  10:       245.97    0.028404  ( -0.124301  -0.048742   0.102848)
  11:       285.04    0.998172  ( -0.339965   0.445557  -0.827088)
  12:       316.37    2.436481  (  0.891561   0.117088  -1.275888)
  13:       414.27    1.367101  (  0.385418  -0.129882   1.096214)
  14:       453.16    0.047440  (  0.121003   0.156741   0.090725)
  15:       742.79    5.795938  (  1.705852   1.690095   0.172001)
  16:       783.73    0.569259  ( -0.161441   0.520368  -0.521932)
  17:       793.05    2.020273  (  0.937571   0.795136  -0.713436)
  18:       840.58    5.702014  (  2.008757   1.249962  -0.323273)
  19:       874.67    1.387900  (  0.565966   0.700500   0.759528)
  20:       915.82    6.725854  (  0.436717  -2.378016  -0.938175)
  21:       945.53    2.766498  (  0.155396   1.602450   0.417735)
  22:       963.38   16.205315  (  1.595770  -1.367091  -3.433642)
  23:      1007.19   48.422175  (  3.016472   3.449952  -5.236497)
  24:      1055.16   19.568932  (  1.824727   0.487316  -4.000229)
  25:      1082.17    3.208101  (  0.189414  -0.555131   1.692351)
  26:      1109.15    2.045969  ( -0.526638  -0.142804  -1.322206)
  27:      1152.13    9.590148  (  0.500317  -3.012148  -0.516524)
  28:      1153.14    0.797047  ( -0.873978  -0.099845  -0.152447)
  29:      1157.49    5.691063  (  0.230194   0.630021   2.289355)
  30:      1178.16    0.668674  ( -0.137086   0.297126   0.749398)
  31:      1215.71    1.531622  (  0.435534  -1.152567  -0.116276)
  32:      1218.03    8.645376  ( -0.063204   2.139599   2.015812)
  33:      1270.65   11.487090  ( -1.633295  -1.219708   2.707720)
  34:      1283.31    4.567219  ( -1.830761  -0.501453   0.981875)
  35:      1296.66    0.612826  (  0.679010  -0.233482   0.311860)
  36:      1333.95    1.587845  (  0.000246   0.950245  -0.827575)
  37:      1338.90    4.376157  ( -1.813457  -0.835426  -0.624175)
  38:      1379.29    0.417056  (  0.087929   0.050927   0.637755)
  39:      1403.13    7.096425  (  0.464947   0.969251  -2.437376)
  40:      1417.04    3.126705  ( -1.127039   1.185293   0.671989)
  41:      1460.02   36.701903  ( -1.402869  -2.684378   5.246711)
  42:      1475.39   17.328553  ( -1.695513   2.640601   2.735144)
  43:      1481.55    1.244891  ( -0.001039  -0.582932   0.951357)
  44:      1483.33    4.862375  ( -0.275784  -2.034677  -0.803995)
  45:      1492.40    6.098782  (  1.115896   0.801617  -2.052065)
  46:      1493.01   12.381073  (  2.440237   2.482333   0.514138)
  47:      1504.29   12.895563  (  2.799399  -2.243959  -0.153542)
  48:      1521.53    8.524085  (  1.495626  -1.570066   1.955014)
  49:      3031.96    5.555303  (  0.823615  -0.813054   2.053267)
  50:      3045.54   17.915813  (  2.968842  -2.827311   1.052663)
  51:      3056.22   20.202210  ( -3.183081   2.649739   1.746163)
  52:      3067.87    0.184645  ( -0.027135   0.427452  -0.034534)
  53:      3080.57    5.352959  ( -1.874307   1.309438   0.353983)
  54:      3090.28   12.072687  ( -2.160185  -2.646669  -0.633588)
  55:      3128.22   23.407397  ( -3.335984  -3.408865  -0.811325)
  56:      3137.37    6.184448  ( -1.797333  -1.711729   0.154999)
  57:      3144.58   10.636208  ( -1.380538   1.888541  -2.272385)
  58:      3172.77    3.344104  (  0.269939  -1.719735  -0.560132)
  59:      3174.75    1.999054  ( -0.677909  -0.244336   1.216468)
  60:      3270.35    0.007669  ( -0.025246  -0.062952  -0.055391)
  61:      3280.59   10.384229  (  2.428528  -0.564493   2.041526)
  62:      3537.93   75.911614  ( -8.474985  -1.418550  -1.440126)

--------------------------
THERMOCHEMISTRY AT 298.15K
--------------------------

Temperature         ... 298.15 K
Pressure            ... 1.00 atm
Total Mass          ... 100.18 AMU

Throughout the following assumptions are being made:
  (1) The electronic state is orbitally nondegenerate
  (2) There are no thermally accessible electronically excited states
  (3) Hindered rotations indicated by low frequency modes) are not
      treated as such but are treated as vibrations and this may
      case some error
  (4) All equations used are the standard statistical mechanics
      equations for an ideal gas
  (5) All vibrations are strinctly harmonic

------------
INNER ENERGY
------------

The inner energy is: U= E(el) + E(ZPE) + E(vib) + E(rot) + E(trans)
    E(el)   - is the total energy from the electronic structure calculation
              = E(kin-el) + E(nuc-el) + E(el-el) + E(nuc-nuc)
    E(ZPE)  - the the zero temperature vibrational energy from the frequency calculation
    E(vib)  - the the finite temperature correction to E(ZPE) due to population
              of excietd vibrational states
    E(rot)  - is the rotational thermal energy
    E(trans)- is the translational thermal energy

Summary of contributions to the inner energy U:
Electronic energy                ...   -291.29814324 Eh
Zero point energy                ...      0.19858047 Eh     124.61 kcal/mol
Thermal vibrational correction   ...      0.00568390 Eh       3.57 kcal/mol
Thermal rotational correction    ...      0.00141627 Eh       0.89 kcal/mol
Thermal translational correction ...      0.00141627 Eh       0.89 kcal/mol
-----------------------------------------------------------------------
Total thermal energy                   -291.09104633 Eh

Summary of corrections to the electronic energy:
(perhaps to be used in another calculation)
Total thermal correction                  0.00851644 Eh       5.34 kcal/mol
Non-thermal (ZPE) correction              0.19858047 Eh     124.61 kcal/mol
-----------------------------------------------------------------------
Total correction                          0.20709691 Eh     129.95 kcal/mol

--------
ENTHALPY
--------

The enthalpy is H = U + kB*T
                kB is Boltzmann's constant
Total free energy                 ...   -291.09104633 Eh
Thermal Enthalpy correction       ...      0.00094421 Eh       0.59 kcal/mol
-----------------------------------------------------------------------
Total Enthalpy                    ...   -291.09010212 Eh

-------
ENTROPY
-------

The entropy contributions are T*S = T*(S(el)+S(vib)+S(rot)+S(trans)
     S(el)   - electronic entropy
     S(vib)  - vibrational entropy
     S(rot)  - rotational entropy
     S(trans)- translational entropy
The entropies will be listed as mutliplied by the temperature to get
units of energy

Electronic entropy                ...      0.00000000 Eh      0.00 kcal/mol
Vibrational entropy               ...      0.01068353 Eh      6.70 kcal/mol
Rotational entropy                ...      0.01228305 Eh      7.71 kcal/mol
Translational entropy             ...      0.01887386 Eh     11.84 kcal/mol
-----------------------------------------------------------------------
Final entropy term                ...      0.04184044 Eh     26.26 kcal/mol

CAUTION: The rotational entropy is not quite correctly treated here
         because it includes a symmetry number that is not yet correctly
         implemented in ORCA!
For a nonlinear molecule the correct rotational entropy is:
    S(rot) = R*(ln(qrot/sn)+1.5)
    R    = 8.31441 J/mol/K = 1.987191683e-3 kcal/mol/K
    qrot = 298888.6372207
    sn is the rotational symmetry number. We have assumed 3 here
       if it is different for your molecule then you should correct
       the printed rotational entropy by manually evaluating the equation
       as given above

For convenience we print out the resulting values for sn=1 - 12:
 sn= 1  qrot/sn=  298888.6372 T*S(rot)=     8.36 kcal/mol T*S(tot)=    26.91 kcal/mol
 sn= 2  qrot/sn=  149444.3186 T*S(rot)=     7.95 kcal/mol T*S(tot)=    26.50 kcal/mol
 sn= 3  qrot/sn=   99629.5457 T*S(rot)=     7.71 kcal/mol T*S(tot)=    26.26 kcal/mol
 sn= 4  qrot/sn=   74722.1593 T*S(rot)=     7.54 kcal/mol T*S(tot)=    26.08 kcal/mol
 sn= 5  qrot/sn=   59777.7274 T*S(rot)=     7.41 kcal/mol T*S(tot)=    25.95 kcal/mol
 sn= 6  qrot/sn=   49814.7729 T*S(rot)=     7.30 kcal/mol T*S(tot)=    25.84 kcal/mol
 sn= 7  qrot/sn=   42698.3767 T*S(rot)=     7.21 kcal/mol T*S(tot)=    25.75 kcal/mol
 sn= 8  qrot/sn=   37361.0797 T*S(rot)=     7.13 kcal/mol T*S(tot)=    25.67 kcal/mol
 sn= 9  qrot/sn=   33209.8486 T*S(rot)=     7.06 kcal/mol T*S(tot)=    25.60 kcal/mol
 sn=10  qrot/sn=   29888.8637 T*S(rot)=     6.99 kcal/mol T*S(tot)=    25.54 kcal/mol
 sn=11  qrot/sn=   27171.6943 T*S(rot)=     6.94 kcal/mol T*S(tot)=    25.49 kcal/mol
 sn=12  qrot/sn=   24907.3864 T*S(rot)=     6.89 kcal/mol T*S(tot)=    25.43 kcal/mol

-------------------
GIBBS FREE ENTHALPY
-------------------

The Gibbs free enthalpy is G = H - T*S

Total enthalpy                    ...   -291.09010212 Eh
Total entropy correction          ...     -0.04184044 Eh    -26.26 kcal/mol
-----------------------------------------------------------------------
Final Gibbs free enthalpy         ...   -291.13194256 Eh

For completeness - the Gibbs free enthalpy minus the electronic energy
G-E(el)                           ...      0.16620068 Eh    104.29 kcal/mol

                             ****ORCA TERMINATED NORMALLY****
TOTAL RUN TIME: 0 days 0 hours 42 minutes 20 seconds 896 msec
