                         Program Version 3.0.3 - RELEASE   -
|  1> ! NORI PBE0 def2-TZVP UseSym TightOPT Freq TightSCF Grid3 FinalGrid5 XYZFile
|  2> % pal
|  3>     nprocs 8
|  4> end
|  5> %method
|  6>     SymThresh 5.0e-2
|  7> end
|  8> % geom
|  9>     MaxIter 10
| 10> end
| 11> % maxcore 2000
| 12> % output
| 13>     printlevel mini
| 14>     print[ P_Basis ] 0
| 15>     print[ P_SCFInfo ] 1
| 16>     print[ P_SCFIterInfo ] 1
| 17>     print[ P_OrbEn ] 0
| 18>     print[ P_Cartesian ] 0
| 19> end
| 20> % elprop
| 21>     Dipole false
| 22> end
| 23> *xyz 1 1
| 24>  C        1.6054133338    -0.6645038023    -0.9977047074
| 25>  C        2.2692241042     0.1241134704    -0.1671353181
| 26>  C        3.1468745017     1.2546615144    -0.6091992761
| 27>  C        4.5896093061     0.9910363028    -0.2147374689
| 28>  N        5.4653695204     2.1316104891    -0.5730444668
| 29>  C        6.9245965414     1.9730961497    -0.7338613672
| 30>  C        6.0824775377     2.2406897842    -1.9106697241
| 31>  H        0.9772595003    -1.4666169998    -0.6297656172
| 32>  H        1.6508694907    -0.5318445855    -2.0745678902
| 33>  H        2.1871027188    -0.0307624383     0.9065155192
| 34>  H        3.0707433475     1.3846270119    -1.6927454810
| 35>  H        2.8091268961     2.1880587222    -0.1403046134
| 36>  H        4.9892701234     0.1117977920    -0.7236699508
| 37>  H        4.6939646331     0.8390153588     0.8619537423
| 38>  H        5.1687609747     3.0143392866    -0.1676058218
| 39>  H        7.5202399074     2.7704514500    -0.3088594400
| 40>  H        7.2741644558     0.9650135193    -0.5518947866
| 41>  H        5.8279608998     1.4242636036    -2.5743086745
| 42>  H        6.0665322070     3.2328233711    -2.3432146574
| 43> *
| 44>
| 45>                          ****END OF INPUT****
 Total Charge           Charge          ....    1
 Multiplicity           Mult            ....    1
 Number of Electrons    NEL             ....   54
FINAL SINGLE POINT ENERGY      -290.062694010445

CARTESIAN COORDINATES (ANGSTROEM)
---------------------------------
  C      0.375726    0.000191   -3.271912
  C      0.776436    0.609228   -2.166991
  C      0.855961   -0.055854   -0.827138
  C     -0.116189    0.590657    0.144153
  N      0.000065    0.000732    1.498661
  C     -1.094494    0.093160    2.485542
  C     -0.759421   -1.206648    1.882498
  H      0.341826    0.521834   -4.220499
  H      0.080772   -1.044617   -3.276235
  H      1.078525    1.653380   -2.205115
  H      0.635298   -1.122556   -0.926268
  H      1.875897    0.034606   -0.431043
  H     -1.151243    0.452712   -0.174526
  H      0.068383    1.662090    0.249742
  H      0.937175    0.055802    1.886610
  H     -0.779584    0.311237    3.497817
  H     -1.958886    0.635980    2.125507
  H     -1.383747   -1.597285    1.089263
  H     -0.202108   -1.935353    2.456660

FINAL SINGLE POINT ENERGY      -290.062694804171
                    ***********************HURRAY********************
 Multiplicity           Mult            ....    1
 Number of Electrons    NEL             ....   54
 Basis Dimension        Dim             ....  289
FINAL SINGLE POINT ENERGY      -290.062695452820

VIBRATIONAL FREQUENCIES
-----------------------

   0:         0.00 cm**-1
   1:         0.00 cm**-1
   2:         0.00 cm**-1
   3:         0.00 cm**-1
   4:         0.00 cm**-1
   5:         0.00 cm**-1
   6:        67.21 cm**-1
   7:        76.81 cm**-1
   8:       111.25 cm**-1
   9:       172.41 cm**-1
  10:       299.70 cm**-1
  11:       360.27 cm**-1
  12:       399.57 cm**-1
  13:       462.60 cm**-1
  14:       650.79 cm**-1
  15:       781.14 cm**-1
  16:       790.64 cm**-1
  17:       837.20 cm**-1
  18:       875.01 cm**-1
  19:       930.68 cm**-1
  20:       968.39 cm**-1
  21:       995.29 cm**-1
  22:      1001.58 cm**-1
  23:      1015.72 cm**-1
  24:      1030.43 cm**-1
  25:      1071.30 cm**-1
  26:      1138.20 cm**-1
  27:      1152.32 cm**-1
  28:      1156.15 cm**-1
  29:      1177.41 cm**-1
  30:      1196.91 cm**-1
  31:      1217.51 cm**-1
  32:      1270.09 cm**-1
  33:      1283.17 cm**-1
  34:      1306.79 cm**-1
  35:      1328.99 cm**-1
  36:      1339.56 cm**-1
  37:      1394.72 cm**-1
  38:      1453.92 cm**-1
  39:      1459.47 cm**-1
  40:      1472.53 cm**-1
  41:      1479.73 cm**-1
  42:      1491.78 cm**-1
  43:      1520.59 cm**-1
  44:      1729.19 cm**-1
  45:      3027.15 cm**-1
  46:      3084.84 cm**-1
  47:      3093.65 cm**-1
  48:      3143.88 cm**-1
  49:      3158.27 cm**-1
  50:      3165.40 cm**-1
  51:      3173.01 cm**-1
  52:      3174.81 cm**-1
  53:      3253.74 cm**-1
  54:      3270.72 cm**-1
  55:      3280.99 cm**-1
  56:      3536.37 cm**-1

IR SPECTRUM
-----------

 Mode    freq (cm**-1)   T**2         TX         TY         TZ
-------------------------------------------------------------------
   6:        67.21    0.247412  ( -0.042106   0.450485  -0.206647)
   7:        76.81    0.583196  (  0.254347  -0.718480  -0.047854)
   8:       111.25    0.787750  ( -0.569341  -0.562959  -0.382986)
   9:       172.41    1.265650  (  0.358682   0.035899   1.065696)
  10:       299.70    2.094060  ( -0.252385  -0.477220   1.342618)
  11:       360.27    1.463662  (  1.053134  -0.094930  -0.587843)
  12:       399.57    1.880519  ( -0.781499   0.256518  -1.097259)
  13:       462.60    0.211385  (  0.026406   0.202877   0.411739)
  14:       650.79   17.279607  ( -3.951384   0.598647   1.143590)
  15:       781.14    1.939013  (  0.976637   0.830056   0.544244)
  16:       790.64    3.414809  ( -0.309767  -1.821255   0.043385)
  17:       837.20    3.943668  ( -1.705097  -0.862140   0.541321)
  18:       875.01    1.793765  (  0.537845   1.022269   0.677830)
  19:       930.68   11.641184  ( -1.159168   2.489445   2.024890)
  20:       968.39   10.221869  ( -1.350634   1.650524   2.381896)
  21:       995.29   64.597259  ( -7.325098   1.077986   3.127002)
  22:      1001.58   31.782101  (  0.548750   2.107797  -5.199824)
  23:      1015.72   29.648161  ( -3.644025  -3.000657   2.713909)
  24:      1030.43   11.273788  ( -2.686837   1.204580   1.613592)
  25:      1071.30    7.805599  ( -0.703862   0.015576   2.703689)
  26:      1138.20    2.380173  ( -0.346964  -1.489421  -0.203507)
  27:      1152.32    2.306152  ( -1.051353   0.884462  -0.646944)
  28:      1156.15    9.668871  ( -0.206698   1.939021   2.422054)
  29:      1177.41    1.026210  (  0.292521  -0.801125  -0.546662)
  30:      1196.91    0.300157  (  0.378488   0.295317  -0.263992)
  31:      1217.51    9.947295  ( -0.443933   2.523406   1.839195)
  32:      1270.09   13.624403  ( -2.254522  -1.313023   2.611035)
  33:      1283.17    2.745129  ( -1.411288  -0.184959   0.848048)
  34:      1306.79    1.583659  ( -0.021726   1.235995   0.235591)
  35:      1328.99    5.735557  (  1.243894   0.818562   1.875698)
  36:      1339.56    1.456150  (  1.199665  -0.116182   0.058783)
  37:      1394.72    2.157560  ( -0.490051  -0.953934   1.003703)
  38:      1453.92    6.503473  ( -1.335357  -2.118673  -0.481165)
  39:      1459.47   37.586569  ( -1.804203  -2.180279   5.438548)
  40:      1472.53    7.546071  ( -1.750480  -0.004270   2.117043)
  41:      1479.73   22.256176  ( -1.044753   4.391013   1.372470)
  42:      1491.78   10.180159  ( -2.749450   1.203791   1.082391)
  43:      1520.59    7.972511  (  0.988650  -1.271111   2.319344)
  44:      1729.19    3.359705  ( -0.685620  -0.444642  -1.640708)
  45:      3027.15   14.926531  (  1.882869  -1.225874   3.143019)
  46:      3084.84    1.910908  ( -1.272703   0.495982   0.212452)
  47:      3093.65    4.747002  (  0.523006   2.096288   0.281148)
  48:      3143.88    1.531806  ( -0.909103  -0.798339   0.260756)
  49:      3158.27    4.810204  (  0.597288   2.092001  -0.277456)
  50:      3165.40    1.707332  (  0.505579   1.158705  -0.330339)
  51:      3173.01    3.638424  ( -0.507260   1.662048   0.786581)
  52:      3174.81    1.913872  (  0.737831   0.606742  -1.000670)
  53:      3253.74    1.333915  ( -0.283400  -1.092428   0.245357)
  54:      3270.72    0.025116  (  0.105466  -0.094516   0.071130)
  55:      3280.99   10.807950  ( -2.160246   0.630600  -2.396587)
  56:      3536.37   77.920974  ( -8.345129  -1.203888  -2.613512)

--------------------------
THERMOCHEMISTRY AT 298.15K
--------------------------

Temperature         ... 298.15 K
Pressure            ... 1.00 atm
Total Mass          ... 98.17 AMU

Throughout the following assumptions are being made:
  (1) The electronic state is orbitally nondegenerate
  (2) There are no thermally accessible electronically excited states
  (3) Hindered rotations indicated by low frequency modes) are not
      treated as such but are treated as vibrations and this may
      case some error
  (4) All equations used are the standard statistical mechanics
      equations for an ideal gas
  (5) All vibrations are strinctly harmonic

------------
INNER ENERGY
------------

The inner energy is: U= E(el) + E(ZPE) + E(vib) + E(rot) + E(trans)
    E(el)   - is the total energy from the electronic structure calculation
              = E(kin-el) + E(nuc-el) + E(el-el) + E(nuc-nuc)
    E(ZPE)  - the the zero temperature vibrational energy from the frequency calculation
    E(vib)  - the the finite temperature correction to E(ZPE) due to population
              of excietd vibrational states
    E(rot)  - is the rotational thermal energy
    E(trans)- is the translational thermal energy

Summary of contributions to the inner energy U:
Electronic energy                ...   -290.06269545 Eh
Zero point energy                ...      0.17503128 Eh     109.83 kcal/mol
Thermal vibrational correction   ...      0.00512713 Eh       3.22 kcal/mol
Thermal rotational correction    ...      0.00141627 Eh       0.89 kcal/mol
Thermal translational correction ...      0.00141627 Eh       0.89 kcal/mol
-----------------------------------------------------------------------
Total thermal energy                   -289.87970450 Eh

Summary of corrections to the electronic energy:
(perhaps to be used in another calculation)
Total thermal correction                  0.00795968 Eh       4.99 kcal/mol
Non-thermal (ZPE) correction              0.17503128 Eh     109.83 kcal/mol
-----------------------------------------------------------------------
Total correction                          0.18299095 Eh     114.83 kcal/mol

--------
ENTHALPY
--------

The enthalpy is H = U + kB*T
                kB is Boltzmann's constant
Total free energy                 ...   -289.87970450 Eh
Thermal Enthalpy correction       ...      0.00094421 Eh       0.59 kcal/mol
-----------------------------------------------------------------------
Total Enthalpy                    ...   -289.87876029 Eh

-------
ENTROPY
-------

The entropy contributions are T*S = T*(S(el)+S(vib)+S(rot)+S(trans)
     S(el)   - electronic entropy
     S(vib)  - vibrational entropy
     S(rot)  - rotational entropy
     S(trans)- translational entropy
The entropies will be listed as mutliplied by the temperature to get
units of energy

Electronic entropy                ...      0.00000000 Eh      0.00 kcal/mol
Vibrational entropy               ...      0.00971003 Eh      6.09 kcal/mol
Rotational entropy                ...      0.01221056 Eh      7.66 kcal/mol
Translational entropy             ...      0.01884507 Eh     11.83 kcal/mol
-----------------------------------------------------------------------
Final entropy term                ...      0.04076566 Eh     25.58 kcal/mol

CAUTION: The rotational entropy is not quite correctly treated here
         because it includes a symmetry number that is not yet correctly
         implemented in ORCA!
For a nonlinear molecule the correct rotational entropy is:
    S(rot) = R*(ln(qrot/sn)+1.5)
    R    = 8.31441 J/mol/K = 1.987191683e-3 kcal/mol/K
    qrot = 276800.0760887
    sn is the rotational symmetry number. We have assumed 3 here
       if it is different for your molecule then you should correct
       the printed rotational entropy by manually evaluating the equation
       as given above

For convenience we print out the resulting values for sn=1 - 12:
 sn= 1  qrot/sn=  276800.0761 T*S(rot)=     8.31 kcal/mol T*S(tot)=    26.23 kcal/mol
 sn= 2  qrot/sn=  138400.0380 T*S(rot)=     7.90 kcal/mol T*S(tot)=    25.82 kcal/mol
 sn= 3  qrot/sn=   92266.6920 T*S(rot)=     7.66 kcal/mol T*S(tot)=    25.58 kcal/mol
 sn= 4  qrot/sn=   69200.0190 T*S(rot)=     7.49 kcal/mol T*S(tot)=    25.41 kcal/mol
 sn= 5  qrot/sn=   55360.0152 T*S(rot)=     7.36 kcal/mol T*S(tot)=    25.28 kcal/mol
 sn= 6  qrot/sn=   46133.3460 T*S(rot)=     7.25 kcal/mol T*S(tot)=    25.17 kcal/mol
 sn= 7  qrot/sn=   39542.8680 T*S(rot)=     7.16 kcal/mol T*S(tot)=    25.08 kcal/mol
 sn= 8  qrot/sn=   34600.0095 T*S(rot)=     7.08 kcal/mol T*S(tot)=    25.00 kcal/mol
 sn= 9  qrot/sn=   30755.5640 T*S(rot)=     7.01 kcal/mol T*S(tot)=    24.93 kcal/mol
 sn=10  qrot/sn=   27680.0076 T*S(rot)=     6.95 kcal/mol T*S(tot)=    24.87 kcal/mol
 sn=11  qrot/sn=   25163.6433 T*S(rot)=     6.89 kcal/mol T*S(tot)=    24.81 kcal/mol
 sn=12  qrot/sn=   23066.6730 T*S(rot)=     6.84 kcal/mol T*S(tot)=    24.76 kcal/mol

-------------------
GIBBS FREE ENTHALPY
-------------------

The Gibbs free enthalpy is G = H - T*S

Total enthalpy                    ...   -289.87876029 Eh
Total entropy correction          ...     -0.04076566 Eh    -25.58 kcal/mol
-----------------------------------------------------------------------
Final Gibbs free enthalpy         ...   -289.91952595 Eh

For completeness - the Gibbs free enthalpy minus the electronic energy
G-E(el)                           ...      0.14316950 Eh     89.84 kcal/mol

                             ****ORCA TERMINATED NORMALLY****
TOTAL RUN TIME: 0 days 0 hours 36 minutes 38 seconds 573 msec
