                         Program Version 3.0.3 - RELEASE   -
|  1> ! NORI PBE0 def2-TZVP UseSym TightOPT Freq TightSCF Grid3 FinalGrid5 XYZFile
|  2> % pal
|  3>     nprocs 8
|  4> end
|  5> %method
|  6>     SymThresh 5.0e-2
|  7> end
|  8> % geom
|  9>     MaxIter 10
| 10> end
| 11> % maxcore 2000
| 12> % output
| 13>     printlevel mini
| 14>     print[ P_Basis ] 0
| 15>     print[ P_SCFInfo ] 1
| 16>     print[ P_SCFIterInfo ] 1
| 17>     print[ P_OrbEn ] 0
| 18>     print[ P_Cartesian ] 0
| 19> end
| 20> % elprop
| 21>     Dipole false
| 22> end
| 23> *xyz 1 1
| 24>  C        0.9194924597    -0.1799513996     0.0868553234
| 25>  C        2.1167101013    -0.1573471810     0.0543197439
| 26>  C        3.5670254580    -0.1255475750     0.0468049622
| 27>  C        4.0861550441     0.1197658503     1.4568459007
| 28>  N        5.5653790314     0.1363497254     1.4857806957
| 29>  C        6.3179710281    -0.1249661121     2.7308130975
| 30>  C        6.3503126018    -1.1082117528     1.6377318385
| 31>  H       -0.1468251274    -0.2023495831     0.1012854512
| 32>  H        3.9140087843     0.6668923264    -0.6272411551
| 33>  H        3.9574746356    -1.0726112938    -0.3417283468
| 34>  H        3.7591604894    -0.6653414368     2.1404211100
| 35>  H        3.7422957937     1.0795829216     1.8456186103
| 36>  H        5.9805005710     0.8325640593     0.8732245000
| 37>  H        5.6866118045    -0.3084256727     3.5905981966
| 38>  H        7.1686650392     0.5244278308     2.8914530156
| 39>  H        7.2254912349    -1.1785342451     1.0051236564
| 40>  H        5.7396910503    -1.9992164617     1.7117333997
| 41> *
| 42>
| 43>                          ****END OF INPUT****
 Total Charge           Charge          ....    1
 Multiplicity           Mult            ....    1
 Number of Electrons    NEL             ....   52
FINAL SINGLE POINT ENERGY      -288.807198689638
FINAL SINGLE POINT ENERGY      -288.807200463705
FINAL SINGLE POINT ENERGY      -288.807202389704

CARTESIAN COORDINATES (ANGSTROEM)
---------------------------------
  C      0.842173    0.001970   -3.350573
  C      0.625144   -0.379614   -2.235954
  C      0.361910   -0.808885   -0.875478
  C      0.282175    0.404491    0.041656
  N      0.003227    0.001832    1.437709
  C     -0.600740    0.940499    2.406380
  C     -1.378679   -0.209380    1.919928
  H      1.035879    0.326946   -4.347660
  H      1.159421   -1.482971   -0.541217
  H     -0.575716   -1.374635   -0.838313
  H     -0.518949    1.078208   -0.265646
  H      1.219690    0.962715    0.044622
  H      0.694296   -0.631577    1.828915
  H     -0.794755    1.923234    1.996298
  H     -0.166290    0.912588    3.397334
  H     -1.513331   -1.073688    2.557316
  H     -2.132896   -0.052686    1.159105

FINAL SINGLE POINT ENERGY      -288.807202881031
                    ***********************HURRAY********************
 Multiplicity           Mult            ....    1
 Number of Electrons    NEL             ....   52
 Basis Dimension        Dim             ....  277
FINAL SINGLE POINT ENERGY      -288.807203224828

VIBRATIONAL FREQUENCIES
-----------------------

   0:         0.00 cm**-1
   1:         0.00 cm**-1
   2:         0.00 cm**-1
   3:         0.00 cm**-1
   4:         0.00 cm**-1
   5:         0.00 cm**-1
   6:        69.73 cm**-1
   7:        99.34 cm**-1
   8:       118.95 cm**-1
   9:       238.86 cm**-1
  10:       328.78 cm**-1
  11:       362.02 cm**-1
  12:       413.80 cm**-1
  13:       500.24 cm**-1
  14:       718.26 cm**-1
  15:       739.45 cm**-1
  16:       776.26 cm**-1
  17:       786.19 cm**-1
  18:       842.31 cm**-1
  19:       873.96 cm**-1
  20:       938.36 cm**-1
  21:      1003.65 cm**-1
  22:      1006.03 cm**-1
  23:      1060.65 cm**-1
  24:      1076.67 cm**-1
  25:      1150.49 cm**-1
  26:      1155.51 cm**-1
  27:      1166.31 cm**-1
  28:      1179.27 cm**-1
  29:      1217.15 cm**-1
  30:      1269.42 cm**-1
  31:      1280.22 cm**-1
  32:      1317.76 cm**-1
  33:      1335.11 cm**-1
  34:      1402.57 cm**-1
  35:      1462.47 cm**-1
  36:      1468.34 cm**-1
  37:      1478.11 cm**-1
  38:      1489.04 cm**-1
  39:      1520.58 cm**-1
  40:      2257.10 cm**-1
  41:      3038.11 cm**-1
  42:      3078.63 cm**-1
  43:      3097.31 cm**-1
  44:      3156.67 cm**-1
  45:      3171.90 cm**-1
  46:      3174.52 cm**-1
  47:      3270.12 cm**-1
  48:      3280.46 cm**-1
  49:      3465.50 cm**-1
  50:      3535.78 cm**-1

IR SPECTRUM
-----------

 Mode    freq (cm**-1)   T**2         TX         TY         TZ
-------------------------------------------------------------------
   6:        69.73    0.077740  (  0.218742   0.171213   0.024036)
   7:        99.34    1.019796  (  0.974450   0.205411   0.167477)
   8:       118.95    0.947463  (  0.527607   0.812454   0.094929)
   9:       238.86    4.053231  (  0.496778   1.354087  -1.404596)
  10:       328.78   12.865016  ( -3.404267   1.058724  -0.393811)
  11:       362.02    4.205564  ( -1.038320  -1.357926  -1.132913)
  12:       413.80    0.853671  (  0.589540   0.528944  -0.475744)
  13:       500.24   15.993776  (  0.410015  -2.950046  -2.668875)
  14:       718.26   42.799215  ( -6.427357   0.426641  -1.142925)
  15:       739.45   37.075610  ( -0.177354  -5.873550  -1.595482)
  16:       776.26    3.766109  (  1.899863  -0.335159  -0.210476)
  17:       786.19    0.542572  (  0.423041   0.489783  -0.351739)
  18:       842.31    4.439309  (  2.020181  -0.595609   0.058548)
  19:       873.96    2.367273  ( -1.370572  -0.023343  -0.698757)
  20:       938.36   19.651591  ( -1.461934  -3.524103  -2.257218)
  21:      1003.65   40.499482  (  4.035277  -0.644105  -4.878643)
  22:      1006.03   25.735140  ( -2.542782   1.863723   3.974410)
  23:      1060.65   11.341201  ( -2.153634  -0.165913   2.583706)
  24:      1076.67    3.404693  (  0.203562   0.604788   1.731325)
  25:      1150.49    3.505955  ( -1.056986  -0.026812  -1.545321)
  26:      1155.51    8.993654  (  1.387988   2.186940   1.511436)
  27:      1166.31    1.065394  ( -0.040638   0.646743  -0.803409)
  28:      1179.27    1.055713  ( -0.474051  -0.741192  -0.530681)
  29:      1217.15    9.414050  ( -1.629688  -2.114271  -1.512622)
  30:      1269.42   12.446003  (  2.146399  -0.456112  -2.762415)
  31:      1280.22    5.824185  ( -1.507555   1.342675   1.322379)
  32:      1317.76    1.846702  (  0.457689   0.421838  -1.208005)
  33:      1335.11    5.053647  ( -1.595362   0.906036  -1.299063)
  34:      1402.57    0.703525  (  0.411444  -0.498355   0.534678)
  35:      1462.47   36.750531  ( -3.296198  -0.066904   5.087350)
  36:      1468.34    4.158370  (  0.750711   0.221268  -1.883041)
  37:      1478.11   26.603129  (  1.545426   4.518895   1.947917)
  38:      1489.04    8.949276  ( -1.692094   2.287222   0.924504)
  39:      1520.58    9.192556  ( -0.479862  -1.481596   2.601377)
  40:      2257.10    3.061069  (  0.314505   0.245790  -1.703450)
  41:      3038.11   12.864740  ( -0.630945  -1.439357   3.224112)
  42:      3078.63    1.010535  (  1.000532   0.067759   0.069863)
  43:      3097.31    0.852172  ( -0.242985   0.804897   0.381143)
  44:      3156.67    0.401405  ( -0.368101   0.223112   0.464895)
  45:      3171.90    4.006449  ( -1.449049  -1.379418  -0.062550)
  46:      3174.52    2.839318  ( -0.484174   0.929923   1.319142)
  47:      3270.12    0.045197  (  0.140328  -0.067128   0.144911)
  48:      3280.46   12.085791  (  1.190679  -1.990250   2.589784)
  49:      3465.50   93.966426  ( -1.851967  -2.561675   9.163758)
  50:      3535.78   81.758798  ( -6.720026   5.380630  -2.765660)

--------------------------
THERMOCHEMISTRY AT 298.15K
--------------------------

Temperature         ... 298.15 K
Pressure            ... 1.00 atm
Total Mass          ... 96.15 AMU

Throughout the following assumptions are being made:
  (1) The electronic state is orbitally nondegenerate
  (2) There are no thermally accessible electronically excited states
  (3) Hindered rotations indicated by low frequency modes) are not
      treated as such but are treated as vibrations and this may
      case some error
  (4) All equations used are the standard statistical mechanics
      equations for an ideal gas
  (5) All vibrations are strinctly harmonic

------------
INNER ENERGY
------------

The inner energy is: U= E(el) + E(ZPE) + E(vib) + E(rot) + E(trans)
    E(el)   - is the total energy from the electronic structure calculation
              = E(kin-el) + E(nuc-el) + E(el-el) + E(nuc-nuc)
    E(ZPE)  - the the zero temperature vibrational energy from the frequency calculation
    E(vib)  - the the finite temperature correction to E(ZPE) due to population
              of excietd vibrational states
    E(rot)  - is the rotational thermal energy
    E(trans)- is the translational thermal energy

Summary of contributions to the inner energy U:
Electronic energy                ...   -288.80720322 Eh
Zero point energy                ...      0.15120636 Eh      94.88 kcal/mol
Thermal vibrational correction   ...      0.00483101 Eh       3.03 kcal/mol
Thermal rotational correction    ...      0.00141627 Eh       0.89 kcal/mol
Thermal translational correction ...      0.00141627 Eh       0.89 kcal/mol
-----------------------------------------------------------------------
Total thermal energy                   -288.64833331 Eh

Summary of corrections to the electronic energy:
(perhaps to be used in another calculation)
Total thermal correction                  0.00766356 Eh       4.81 kcal/mol
Non-thermal (ZPE) correction              0.15120636 Eh      94.88 kcal/mol
-----------------------------------------------------------------------
Total correction                          0.15886992 Eh      99.69 kcal/mol

--------
ENTHALPY
--------

The enthalpy is H = U + kB*T
                kB is Boltzmann's constant
Total free energy                 ...   -288.64833331 Eh
Thermal Enthalpy correction       ...      0.00094421 Eh       0.59 kcal/mol
-----------------------------------------------------------------------
Total Enthalpy                    ...   -288.64738910 Eh

-------
ENTROPY
-------

The entropy contributions are T*S = T*(S(el)+S(vib)+S(rot)+S(trans)
     S(el)   - electronic entropy
     S(vib)  - vibrational entropy
     S(rot)  - rotational entropy
     S(trans)- translational entropy
The entropies will be listed as mutliplied by the temperature to get
units of energy

Electronic entropy                ...      0.00000000 Eh      0.00 kcal/mol
Vibrational entropy               ...      0.00888484 Eh      5.58 kcal/mol
Rotational entropy                ...      0.01210842 Eh      7.60 kcal/mol
Translational entropy             ...      0.01881568 Eh     11.81 kcal/mol
-----------------------------------------------------------------------
Final entropy term                ...      0.03980895 Eh     24.98 kcal/mol

CAUTION: The rotational entropy is not quite correctly treated here
         because it includes a symmetry number that is not yet correctly
         implemented in ORCA!
For a nonlinear molecule the correct rotational entropy is:
    S(rot) = R*(ln(qrot/sn)+1.5)
    R    = 8.31441 J/mol/K = 1.987191683e-3 kcal/mol/K
    qrot = 248418.8683993
    sn is the rotational symmetry number. We have assumed 3 here
       if it is different for your molecule then you should correct
       the printed rotational entropy by manually evaluating the equation
       as given above

For convenience we print out the resulting values for sn=1 - 12:
 sn= 1  qrot/sn=  248418.8684 T*S(rot)=     8.25 kcal/mol T*S(tot)=    25.63 kcal/mol
 sn= 2  qrot/sn=  124209.4342 T*S(rot)=     7.84 kcal/mol T*S(tot)=    25.22 kcal/mol
 sn= 3  qrot/sn=   82806.2895 T*S(rot)=     7.60 kcal/mol T*S(tot)=    24.98 kcal/mol
 sn= 4  qrot/sn=   62104.7171 T*S(rot)=     7.43 kcal/mol T*S(tot)=    24.81 kcal/mol
 sn= 5  qrot/sn=   49683.7737 T*S(rot)=     7.30 kcal/mol T*S(tot)=    24.68 kcal/mol
 sn= 6  qrot/sn=   41403.1447 T*S(rot)=     7.19 kcal/mol T*S(tot)=    24.57 kcal/mol
 sn= 7  qrot/sn=   35488.4098 T*S(rot)=     7.10 kcal/mol T*S(tot)=    24.48 kcal/mol
 sn= 8  qrot/sn=   31052.3585 T*S(rot)=     7.02 kcal/mol T*S(tot)=    24.40 kcal/mol
 sn= 9  qrot/sn=   27602.0965 T*S(rot)=     6.95 kcal/mol T*S(tot)=    24.33 kcal/mol
 sn=10  qrot/sn=   24841.8868 T*S(rot)=     6.88 kcal/mol T*S(tot)=    24.27 kcal/mol
 sn=11  qrot/sn=   22583.5335 T*S(rot)=     6.83 kcal/mol T*S(tot)=    24.21 kcal/mol
 sn=12  qrot/sn=   20701.5724 T*S(rot)=     6.78 kcal/mol T*S(tot)=    24.16 kcal/mol

-------------------
GIBBS FREE ENTHALPY
-------------------

The Gibbs free enthalpy is G = H - T*S

Total enthalpy                    ...   -288.64738910 Eh
Total entropy correction          ...     -0.03980895 Eh    -24.98 kcal/mol
-----------------------------------------------------------------------
Final Gibbs free enthalpy         ...   -288.68719804 Eh

For completeness - the Gibbs free enthalpy minus the electronic energy
G-E(el)                           ...      0.12000518 Eh     75.30 kcal/mol

                             ****ORCA TERMINATED NORMALLY****
TOTAL RUN TIME: 0 days 0 hours 34 minutes 42 seconds 454 msec
