                         Program Version 3.0.3 - RELEASE   -
|  1> ! NORI PBE0 def2-TZVP UseSym TightOPT Freq TightSCF Grid3 FinalGrid5 XYZFile
|  2> % pal
|  3>     nprocs 8
|  4> end
|  5> %method
|  6>     SymThresh 5.0e-2
|  7> end
|  8> % geom
|  9>     MaxIter 10
| 10> end
| 11> % maxcore 2000
| 12> % output
| 13>     printlevel mini
| 14>     print[ P_Basis ] 0
| 15>     print[ P_SCFInfo ] 1
| 16>     print[ P_SCFIterInfo ] 1
| 17>     print[ P_OrbEn ] 0
| 18>     print[ P_Cartesian ] 0
| 19> end
| 20> % elprop
| 21>     Dipole false
| 22> end
| 23> *xyz 1 1
| 24>  C        1.1436284625     0.0421412643     0.7403807988
| 25>  C        2.6455330555     0.1391977452     0.5233579358
| 26>  C        2.9824086725     0.1313492211    -0.9521715360
| 27>  N        4.4418141347     0.2191956209    -1.1777446676
| 28>  C        5.0075279062     0.6880771305    -2.4596118481
| 29>  C        5.1595263651     1.5224324555    -1.2534558853
| 30>  C        6.4591752236     1.6523879623    -0.5295834513
| 31>  H        0.9132538305     0.0481501708     1.8054428458
| 32>  H        0.7371276373    -0.8796161717     0.3183724044
| 33>  H        0.6190503787     0.8839806239     0.2828950947
| 34>  H        3.0324571100     1.0546260996     0.9826705755
| 35>  H        3.1456498139    -0.7016450777     1.0170303104
| 36>  H        2.6390463669    -0.7839287333    -1.4411344335
| 37>  H        2.5318347164     0.9794161539    -1.4731709158
| 38>  H        4.9706275423    -0.5198706693    -0.7236641578
| 39>  H        5.8557854680     0.1167293633    -2.8164892307
| 40>  H        4.2587705286     0.9402418817    -3.1997137766
| 41>  H        4.4626589082     2.3486644495    -1.1548060316
| 42>  H        7.0815551072     0.7624864285    -0.6492515464
| 43>  H        6.3027235118     1.8415794980     0.5334025758
| 44>  H        7.0096652600     2.4991345830    -0.9443250604
| 45> *
| 46>
| 47>                          ****END OF INPUT****
 Total Charge           Charge          ....    1
 Multiplicity           Mult            ....    1
 Number of Electrons    NEL             ....   56
FINAL SINGLE POINT ENERGY      -291.308205861231
FINAL SINGLE POINT ENERGY      -291.308206925797

CARTESIAN COORDINATES (ANGSTROEM)
---------------------------------
  C      2.254041   -0.001622   -2.307633
  C      1.232447   -0.517378   -1.306153
  C      0.984095    0.496914   -0.209709
  N     -0.000928    0.000693    0.775831
  C     -0.756122    0.917320    1.654914
  C     -1.468574    0.179662    0.595677
  C     -2.358781   -0.982376    0.890680
  H      2.426054   -0.741663   -3.089054
  H      3.213826    0.204255   -1.828927
  H      1.911577    0.916492   -2.790323
  H      0.290238   -0.745014   -1.815043
  H      1.590265   -1.453261   -0.862559
  H      1.898326    0.727766    0.342757
  H      0.586489    1.433340   -0.607719
  H      0.259650   -0.882926    1.204298
  H     -0.847128    0.586116    2.682116
  H     -0.506828    1.960953    1.512458
  H     -1.677334    0.734316   -0.313288
  H     -2.055115   -1.507423    1.799440
  H     -2.377757   -1.687397    0.058416
  H     -3.375903   -0.617130    1.044767

FINAL SINGLE POINT ENERGY      -291.308207465891
                    ***********************HURRAY********************
 Multiplicity           Mult            ....    1
 Number of Electrons    NEL             ....   56
 Basis Dimension        Dim             ....  301
FINAL SINGLE POINT ENERGY      -291.308207574149

VIBRATIONAL FREQUENCIES
-----------------------

   0:         0.00 cm**-1
   1:         0.00 cm**-1
   2:         0.00 cm**-1
   3:         0.00 cm**-1
   4:         0.00 cm**-1
   5:         0.00 cm**-1
   6:        80.41 cm**-1
   7:        86.95 cm**-1
   8:       126.16 cm**-1
   9:       214.21 cm**-1
  10:       239.14 cm**-1
  11:       275.45 cm**-1
  12:       295.76 cm**-1
  13:       363.88 cm**-1
  14:       436.24 cm**-1
  15:       462.64 cm**-1
  16:       752.38 cm**-1
  17:       781.68 cm**-1
  18:       832.80 cm**-1
  19:       885.85 cm**-1
  20:       905.44 cm**-1
  21:       912.45 cm**-1
  22:       938.83 cm**-1
  23:       987.38 cm**-1
  24:      1062.79 cm**-1
  25:      1073.70 cm**-1
  26:      1083.89 cm**-1
  27:      1126.56 cm**-1
  28:      1151.79 cm**-1
  29:      1155.90 cm**-1
  30:      1174.89 cm**-1
  31:      1217.33 cm**-1
  32:      1226.89 cm**-1
  33:      1265.01 cm**-1
  34:      1302.08 cm**-1
  35:      1328.82 cm**-1
  36:      1341.27 cm**-1
  37:      1392.82 cm**-1
  38:      1404.04 cm**-1
  39:      1419.87 cm**-1
  40:      1428.70 cm**-1
  41:      1463.28 cm**-1
  42:      1475.27 cm**-1
  43:      1481.71 cm**-1
  44:      1486.91 cm**-1
  45:      1488.45 cm**-1
  46:      1493.86 cm**-1
  47:      1503.66 cm**-1
  48:      1516.74 cm**-1
  49:      3043.26 cm**-1
  50:      3062.08 cm**-1
  51:      3062.86 cm**-1
  52:      3078.73 cm**-1
  53:      3083.67 cm**-1
  54:      3131.82 cm**-1
  55:      3138.61 cm**-1
  56:      3141.49 cm**-1
  57:      3152.33 cm**-1
  58:      3153.61 cm**-1
  59:      3167.72 cm**-1
  60:      3190.43 cm**-1
  61:      3269.03 cm**-1
  62:      3530.84 cm**-1

IR SPECTRUM
-----------

 Mode    freq (cm**-1)   T**2         TX         TY         TZ
-------------------------------------------------------------------
   6:        80.41    0.736718  ( -0.589385  -0.219414  -0.584124)
   7:        86.95    0.055743  (  0.080027  -0.189600   0.115718)
   8:       126.16    0.404073  ( -0.213642  -0.501001   0.327761)
   9:       214.21    0.171726  (  0.258797  -0.225811  -0.231861)
  10:       239.14    0.078593  ( -0.196133   0.063413  -0.190010)
  11:       275.45    0.190482  ( -0.244270  -0.160636   0.324052)
  12:       295.76    1.177041  ( -0.962875   0.211664  -0.452892)
  13:       363.88    1.345747  ( -0.197272   0.584833   0.982243)
  14:       436.24    0.350576  (  0.176643  -0.551639   0.122747)
  15:       462.64    0.858111  ( -0.535824  -0.620557   0.431176)
  16:       752.38    7.454618  (  2.541939  -0.589046   0.803859)
  17:       781.68    1.691826  ( -0.609526  -1.079344   0.394107)
  18:       832.80   10.808321  (  2.866477  -1.609503   0.033600)
  19:       885.85    1.915035  ( -0.848043   0.018412   1.093398)
  20:       905.44    7.970882  ( -2.306527   0.178377   1.618331)
  21:       912.45    1.191002  ( -0.729722   0.592644  -0.554329)
  22:       938.83    9.580391  ( -0.707834   1.326923   2.705298)
  23:       987.38   25.072386  ( -3.915739  -1.600531  -2.679118)
  24:      1062.79    2.378941  ( -1.320010   0.793166   0.086031)
  25:      1073.70   56.852182  (  6.256353  -1.759772  -3.822751)
  26:      1083.89    3.909280  (  0.486631   1.565267   1.105626)
  27:      1126.56   12.247974  ( -1.126998   1.185845   3.093804)
  28:      1151.79    2.064274  (  1.042349  -0.474194   0.867711)
  29:      1155.90    4.875649  ( -1.703715  -0.949397   1.035204)
  30:      1174.89    4.737566  (  1.596362   0.186658   1.467771)
  31:      1217.33    1.762030  ( -0.900941  -0.403366   0.887486)
  32:      1226.89    6.685009  ( -0.202174  -0.759469  -2.463197)
  33:      1265.01    5.046339  ( -1.842624   0.793759   1.010457)
  34:      1302.08    1.710937  ( -0.047656   1.224399  -0.457727)
  35:      1328.82    1.515620  (  0.447842  -1.037944   0.487574)
  36:      1341.27    4.511434  (  0.934696  -1.270268   1.422743)
  37:      1392.82    1.036766  ( -0.073363  -0.109969   1.009599)
  38:      1404.04    2.988245  (  1.508432   0.547973  -0.642343)
  39:      1419.87    3.551897  (  0.906793   1.445637  -0.799848)
  40:      1428.70    5.586922  (  0.614981   2.280778   0.082303)
  41:      1463.28   49.331158  ( -5.532820   1.149733   4.170992)
  42:      1475.27    3.452844  (  0.877358   1.296632   1.000916)
  43:      1481.71    5.279837  ( -1.260987   1.230166   1.475277)
  44:      1486.91    3.249547  (  1.059580   0.258332   1.435306)
  45:      1488.45   21.793160  (  3.233429  -0.762018   3.279852)
  46:      1493.86   10.248517  (  2.301944  -1.233107   1.851760)
  47:      1503.66   11.086504  ( -0.993976   2.664722   1.731409)
  48:      1516.74   28.619726  (  3.779798   3.725830  -0.671601)
  49:      3043.26   11.331016  (  1.923042   2.412612  -1.346190)
  50:      3062.08   10.605182  (  2.141446   1.927969  -1.517341)
  51:      3062.86    1.640228  ( -0.687403   0.852601  -0.663909)
  52:      3078.73    5.197096  (  0.487089   2.225756  -0.076482)
  53:      3083.67    4.672351  (  1.863013   0.108924   1.090719)
  54:      3131.82    1.317408  ( -0.547084   0.445008  -0.905580)
  55:      3138.61   17.102934  (  3.248041  -1.709984   1.905024)
  56:      3141.49    1.488437  (  0.261269  -0.188736   1.176671)
  57:      3152.33    0.859971  ( -0.634506  -0.348274  -0.579723)
  58:      3153.61    5.088270  (  0.336568   1.901528   1.165839)
  59:      3167.72    1.513173  ( -0.011915  -0.801498  -0.933077)
  60:      3190.43    0.838105  ( -0.867185  -0.256276  -0.142890)
  61:      3269.03    3.260954  (  0.223108   1.425293  -1.086148)
  62:      3530.84   59.122077  (  3.212458  -6.432817   2.724163)

--------------------------
THERMOCHEMISTRY AT 298.15K
--------------------------

Temperature         ... 298.15 K
Pressure            ... 1.00 atm
Total Mass          ... 100.18 AMU

Throughout the following assumptions are being made:
  (1) The electronic state is orbitally nondegenerate
  (2) There are no thermally accessible electronically excited states
  (3) Hindered rotations indicated by low frequency modes) are not
      treated as such but are treated as vibrations and this may
      case some error
  (4) All equations used are the standard statistical mechanics
      equations for an ideal gas
  (5) All vibrations are strinctly harmonic

------------
INNER ENERGY
------------

The inner energy is: U= E(el) + E(ZPE) + E(vib) + E(rot) + E(trans)
    E(el)   - is the total energy from the electronic structure calculation
              = E(kin-el) + E(nuc-el) + E(el-el) + E(nuc-nuc)
    E(ZPE)  - the the zero temperature vibrational energy from the frequency calculation
    E(vib)  - the the finite temperature correction to E(ZPE) due to population
              of excietd vibrational states
    E(rot)  - is the rotational thermal energy
    E(trans)- is the translational thermal energy

Summary of contributions to the inner energy U:
Electronic energy                ...   -291.30820757 Eh
Zero point energy                ...      0.19785970 Eh     124.16 kcal/mol
Thermal vibrational correction   ...      0.00581334 Eh       3.65 kcal/mol
Thermal rotational correction    ...      0.00141627 Eh       0.89 kcal/mol
Thermal translational correction ...      0.00141627 Eh       0.89 kcal/mol
-----------------------------------------------------------------------
Total thermal energy                   -291.10170199 Eh

Summary of corrections to the electronic energy:
(perhaps to be used in another calculation)
Total thermal correction                  0.00864588 Eh       5.43 kcal/mol
Non-thermal (ZPE) correction              0.19785970 Eh     124.16 kcal/mol
-----------------------------------------------------------------------
Total correction                          0.20650558 Eh     129.58 kcal/mol

--------
ENTHALPY
--------

The enthalpy is H = U + kB*T
                kB is Boltzmann's constant
Total free energy                 ...   -291.10170199 Eh
Thermal Enthalpy correction       ...      0.00094421 Eh       0.59 kcal/mol
-----------------------------------------------------------------------
Total Enthalpy                    ...   -291.10075778 Eh

-------
ENTROPY
-------

The entropy contributions are T*S = T*(S(el)+S(vib)+S(rot)+S(trans)
     S(el)   - electronic entropy
     S(vib)  - vibrational entropy
     S(rot)  - rotational entropy
     S(trans)- translational entropy
The entropies will be listed as mutliplied by the temperature to get
units of energy

Electronic entropy                ...      0.00000000 Eh      0.00 kcal/mol
Vibrational entropy               ...      0.01054016 Eh      6.61 kcal/mol
Rotational entropy                ...      0.01230743 Eh      7.72 kcal/mol
Translational entropy             ...      0.01887386 Eh     11.84 kcal/mol
-----------------------------------------------------------------------
Final entropy term                ...      0.04172144 Eh     26.18 kcal/mol

CAUTION: The rotational entropy is not quite correctly treated here
         because it includes a symmetry number that is not yet correctly
         implemented in ORCA!
For a nonlinear molecule the correct rotational entropy is:
    S(rot) = R*(ln(qrot/sn)+1.5)
    R    = 8.31441 J/mol/K = 1.987191683e-3 kcal/mol/K
    qrot = 306705.3721583
    sn is the rotational symmetry number. We have assumed 3 here
       if it is different for your molecule then you should correct
       the printed rotational entropy by manually evaluating the equation
       as given above

For convenience we print out the resulting values for sn=1 - 12:
 sn= 1  qrot/sn=  306705.3722 T*S(rot)=     8.37 kcal/mol T*S(tot)=    26.83 kcal/mol
 sn= 2  qrot/sn=  153352.6861 T*S(rot)=     7.96 kcal/mol T*S(tot)=    26.42 kcal/mol
 sn= 3  qrot/sn=  102235.1241 T*S(rot)=     7.72 kcal/mol T*S(tot)=    26.18 kcal/mol
 sn= 4  qrot/sn=   76676.3430 T*S(rot)=     7.55 kcal/mol T*S(tot)=    26.01 kcal/mol
 sn= 5  qrot/sn=   61341.0744 T*S(rot)=     7.42 kcal/mol T*S(tot)=    25.88 kcal/mol
 sn= 6  qrot/sn=   51117.5620 T*S(rot)=     7.31 kcal/mol T*S(tot)=    25.77 kcal/mol
 sn= 7  qrot/sn=   43815.0532 T*S(rot)=     7.22 kcal/mol T*S(tot)=    25.68 kcal/mol
 sn= 8  qrot/sn=   38338.1715 T*S(rot)=     7.14 kcal/mol T*S(tot)=    25.60 kcal/mol
 sn= 9  qrot/sn=   34078.3747 T*S(rot)=     7.07 kcal/mol T*S(tot)=    25.53 kcal/mol
 sn=10  qrot/sn=   30670.5372 T*S(rot)=     7.01 kcal/mol T*S(tot)=    25.47 kcal/mol
 sn=11  qrot/sn=   27882.3066 T*S(rot)=     6.95 kcal/mol T*S(tot)=    25.41 kcal/mol
 sn=12  qrot/sn=   25558.7810 T*S(rot)=     6.90 kcal/mol T*S(tot)=    25.36 kcal/mol

-------------------
GIBBS FREE ENTHALPY
-------------------

The Gibbs free enthalpy is G = H - T*S

Total enthalpy                    ...   -291.10075778 Eh
Total entropy correction          ...     -0.04172144 Eh    -26.18 kcal/mol
-----------------------------------------------------------------------
Final Gibbs free enthalpy         ...   -291.14247923 Eh

For completeness - the Gibbs free enthalpy minus the electronic energy
G-E(el)                           ...      0.16572835 Eh    104.00 kcal/mol

                             ****ORCA TERMINATED NORMALLY****
TOTAL RUN TIME: 0 days 0 hours 45 minutes 3 seconds 292 msec
