                         Program Version 3.0.3 - RELEASE   -
|  1> ! NORI PBE0 def2-TZVP UseSym TightOPT Freq TightSCF Grid3 FinalGrid5 XYZFile
|  2> % pal
|  3>     nprocs 8
|  4> end
|  5> %method
|  6>     SymThresh 5.0e-2
|  7> end
|  8> % geom
|  9>     MaxIter 10
| 10> end
| 11> % maxcore 2000
| 12> % output
| 13>     printlevel mini
| 14>     print[ P_Basis ] 0
| 15>     print[ P_SCFInfo ] 1
| 16>     print[ P_SCFIterInfo ] 1
| 17>     print[ P_OrbEn ] 0
| 18>     print[ P_Cartesian ] 0
| 19> end
| 20> % elprop
| 21>     Dipole false
| 22> end
| 23> *xyz 1 1
| 24>  C        1.4231794205    -0.3623357477     0.8123134778
| 25>  C        2.7671072186    -0.8049100211     0.2741167621
| 26>  C        3.9394061452    -0.3554052875     1.1201888106
| 27>  N        2.9336678724    -0.2690399423    -1.1088415428
| 28>  C        3.8134225369    -0.9225706158    -2.0976689809
| 29>  C        2.3532757836    -0.9308329521    -2.3068401355
| 30>  C        1.6853243553    -0.0731207864    -3.3311787930
| 31>  H        0.5985682196    -0.6902441874     0.1766543847
| 32>  H        1.3774092198     0.7247887829     0.9184713769
| 33>  H        1.2713857887    -0.7937806156     1.8021040163
| 34>  H        2.7850850599    -1.8922358000     0.1543096328
| 35>  H        3.9470388846     0.7310908657     1.2419807152
| 36>  H        4.8951042530    -0.6697283642     0.6962618099
| 37>  H        3.8565297794    -0.7959986078     2.1139654758
| 38>  H        2.9313170475     0.7470210696    -1.1493336349
| 39>  H        4.4285372701    -0.2465408031    -2.6791249154
| 40>  H        4.3064800954    -1.8102863408    -1.7225972116
| 41>  H        1.8406286445    -1.8463472458    -2.0298547181
| 42>  H        2.2451880854     0.8459134286    -3.5199584855
| 43>  H        0.6689426601     0.1835308371    -3.0300546418
| 44>  H        1.6283616596    -0.6245676662    -4.2715934026
| 45> *
| 46>
| 47>                          ****END OF INPUT****
 Total Charge           Charge          ....    1
 Multiplicity           Mult            ....    1
 Number of Electrons    NEL             ....   56
FINAL SINGLE POINT ENERGY      -291.312956902195
FINAL SINGLE POINT ENERGY      -291.312958129920

CARTESIAN COORDINATES (ANGSTROEM)
---------------------------------
  C      1.559930    0.000683   -1.499017
  C      0.589482    0.841967   -0.697832
  C      1.218720    2.071071   -0.077593
  N     -0.000522    0.000714    0.384641
  C     -1.323396    0.297052    0.968104
  C     -1.143876   -0.922031    0.157104
  C     -1.079879   -2.285127    0.764055
  H      1.082050   -0.882901   -1.926331
  H      2.408589   -0.317395   -0.887262
  H      1.956113    0.595339   -2.322839
  H     -0.262776    1.129683   -1.321123
  H      2.064914    1.803499    0.560852
  H      0.502015    2.647577    0.510434
  H      1.597658    2.719433   -0.868364
  H      0.689157   -0.343157    1.047696
  H     -1.375958    0.213152    2.046573
  H     -1.806948    1.163393    0.534778
  H     -1.486679   -0.862916   -0.870839
  H     -0.689182   -2.257743    1.783984
  H     -0.465460   -2.957350    0.163193
  H     -2.088392   -2.700624    0.807401

FINAL SINGLE POINT ENERGY      -291.312959049371
                    ***********************HURRAY********************
 Multiplicity           Mult            ....    1
 Number of Electrons    NEL             ....   56
 Basis Dimension        Dim             ....  301
FINAL SINGLE POINT ENERGY      -291.312959285813

VIBRATIONAL FREQUENCIES
-----------------------

   0:         0.00 cm**-1
   1:         0.00 cm**-1
   2:         0.00 cm**-1
   3:         0.00 cm**-1
   4:         0.00 cm**-1
   5:         0.00 cm**-1
   6:        77.74 cm**-1
   7:       137.53 cm**-1
   8:       196.37 cm**-1
   9:       221.45 cm**-1
  10:       228.42 cm**-1
  11:       267.62 cm**-1
  12:       308.89 cm**-1
  13:       368.89 cm**-1
  14:       405.02 cm**-1
  15:       453.00 cm**-1
  16:       474.88 cm**-1
  17:       774.59 cm**-1
  18:       811.66 cm**-1
  19:       884.40 cm**-1
  20:       906.87 cm**-1
  21:       921.52 cm**-1
  22:       940.23 cm**-1
  23:       953.54 cm**-1
  24:       989.81 cm**-1
  25:      1039.03 cm**-1
  26:      1073.87 cm**-1
  27:      1116.68 cm**-1
  28:      1152.93 cm**-1
  29:      1165.93 cm**-1
  30:      1181.01 cm**-1
  31:      1188.42 cm**-1
  32:      1222.93 cm**-1
  33:      1228.52 cm**-1
  34:      1277.05 cm**-1
  35:      1349.72 cm**-1
  36:      1356.14 cm**-1
  37:      1403.90 cm**-1
  38:      1412.36 cm**-1
  39:      1428.06 cm**-1
  40:      1430.23 cm**-1
  41:      1456.71 cm**-1
  42:      1469.97 cm**-1
  43:      1474.91 cm**-1
  44:      1480.34 cm**-1
  45:      1487.63 cm**-1
  46:      1496.26 cm**-1
  47:      1500.21 cm**-1
  48:      1512.42 cm**-1
  49:      3057.54 cm**-1
  50:      3058.90 cm**-1
  51:      3062.83 cm**-1
  52:      3078.31 cm**-1
  53:      3134.57 cm**-1
  54:      3138.72 cm**-1
  55:      3141.64 cm**-1
  56:      3151.62 cm**-1
  57:      3152.31 cm**-1
  58:      3155.76 cm**-1
  59:      3166.69 cm**-1
  60:      3189.30 cm**-1
  61:      3267.60 cm**-1
  62:      3521.93 cm**-1

IR SPECTRUM
-----------

 Mode    freq (cm**-1)   T**2         TX         TY         TZ
-------------------------------------------------------------------
   6:        77.74    0.595044  (  0.428765  -0.633424  -0.099888)
   7:       137.53    0.169162  (  0.013896   0.286731   0.294541)
   8:       196.37    0.478602  ( -0.348034   0.164435  -0.574835)
   9:       221.45    0.005841  ( -0.038977  -0.043012   0.049713)
  10:       228.42    0.434919  (  0.249016  -0.079291  -0.605494)
  11:       267.62    0.466159  (  0.319680  -0.053694   0.600900)
  12:       308.89    1.096303  ( -0.997615  -0.274868   0.159733)
  13:       368.89    0.590200  (  0.163713  -0.234026  -0.713183)
  14:       405.02    1.692407  ( -0.390286  -1.208427   0.282466)
  15:       453.00    1.506823  ( -1.016437  -0.679862  -0.107082)
  16:       474.88    0.761956  (  0.787045  -0.368675   0.081209)
  17:       774.59    0.841119  ( -0.625105   0.643892   0.189118)
  18:       811.66    2.366512  ( -1.370721   0.400375  -0.572133)
  19:       884.40   21.547475  ( -4.330625  -1.524910   0.683964)
  20:       906.87    0.267522  (  0.194673   0.479118  -0.008435)
  21:       921.52    5.294830  (  1.506951   0.433875  -1.683948)
  22:       940.23    1.940610  ( -0.237746   1.091119   0.832794)
  23:       953.54    4.727804  (  0.647087   1.848598   0.944334)
  24:       989.81   22.808228  ( -1.644647  -4.084189  -1.850073)
  25:      1039.03    2.134307  ( -1.424762  -0.217989   0.238414)
  26:      1073.87   63.327176  (  6.254424   3.495906  -3.462369)
  27:      1116.68    8.244883  (  1.438013  -2.236379  -1.084256)
  28:      1152.93    4.797396  (  0.321816   1.474427  -1.587418)
  29:      1165.93   12.161358  ( -0.458967  -2.786643  -2.045807)
  30:      1181.01    1.424231  ( -0.625205   0.988758   0.236024)
  31:      1188.42   17.959226  (  2.760564   2.282439  -2.264726)
  32:      1222.93    7.275859  (  1.029780   0.479426  -2.446541)
  33:      1228.52    3.678852  (  0.000507  -1.917946   0.018271)
  34:      1277.05    4.440801  ( -1.829774   0.422861  -0.955990)
  35:      1349.72    2.795459  (  0.926133   0.466348   1.311585)
  36:      1356.14    2.038792  (  1.018664  -0.466002   0.885414)
  37:      1403.90    5.632343  (  1.685232   0.410434  -1.619839)
  38:      1412.36   17.770137  ( -0.196022   3.757799   1.900173)
  39:      1428.06   12.944740  ( -2.770976  -1.921682   1.254420)
  40:      1430.23   17.481936  ( -4.133193   0.579577  -0.250486)
  41:      1456.71   48.843813  ( -5.765106  -2.550707   3.016829)
  42:      1469.97    0.218917  (  0.104794   0.249676   0.381572)
  43:      1474.91    4.121791  ( -1.216567   1.258057   1.029100)
  44:      1480.34    7.611887  (  0.357657  -2.306606  -1.470896)
  45:      1487.63   23.312554  (  2.080478   2.407813   3.631336)
  46:      1496.26   16.923972  ( -2.409469   1.340266  -3.053215)
  47:      1500.21    1.899073  (  0.031098   0.531490  -1.271072)
  48:      1512.42   25.851232  (  0.760871   4.457433  -2.324564)
  49:      3057.54    2.917220  (  0.173168  -1.554614  -0.685863)
  50:      3058.90    2.774488  ( -0.136482   0.729377  -1.491264)
  51:      3062.83    1.572431  ( -0.957237  -0.036650  -0.809189)
  52:      3078.31    2.747396  ( -1.551867   0.099928  -0.573689)
  53:      3134.57    4.010725  ( -0.067311   1.627510   1.165078)
  54:      3138.72   11.086366  (  3.116227  -0.312439   1.130433)
  55:      3141.64    2.006297  (  0.235773   0.423978   1.330771)
  56:      3151.62    0.225118  (  0.051426   0.412313   0.229066)
  57:      3152.31    4.018656  ( -0.163443   1.660531   1.111115)
  58:      3155.76    1.662284  ( -0.471600  -0.802182   0.892402)
  59:      3166.69    1.301703  ( -0.712625   0.633830   0.626201)
  60:      3189.30    0.789638  ( -0.413334  -0.784479  -0.058193)
  61:      3267.60    2.828779  ( -0.557961   0.769535  -1.387543)
  62:      3521.93   50.352633  ( -5.566783   1.719259  -4.050643)

--------------------------
THERMOCHEMISTRY AT 298.15K
--------------------------

Temperature         ... 298.15 K
Pressure            ... 1.00 atm
Total Mass          ... 100.18 AMU

Throughout the following assumptions are being made:
  (1) The electronic state is orbitally nondegenerate
  (2) There are no thermally accessible electronically excited states
  (3) Hindered rotations indicated by low frequency modes) are not
      treated as such but are treated as vibrations and this may
      case some error
  (4) All equations used are the standard statistical mechanics
      equations for an ideal gas
  (5) All vibrations are strinctly harmonic

------------
INNER ENERGY
------------

The inner energy is: U= E(el) + E(ZPE) + E(vib) + E(rot) + E(trans)
    E(el)   - is the total energy from the electronic structure calculation
              = E(kin-el) + E(nuc-el) + E(el-el) + E(nuc-nuc)
    E(ZPE)  - the the zero temperature vibrational energy from the frequency calculation
    E(vib)  - the the finite temperature correction to E(ZPE) due to population
              of excietd vibrational states
    E(rot)  - is the rotational thermal energy
    E(trans)- is the translational thermal energy

Summary of contributions to the inner energy U:
Electronic energy                ...   -291.31295929 Eh
Zero point energy                ...      0.19707373 Eh     123.67 kcal/mol
Thermal vibrational correction   ...      0.00581432 Eh       3.65 kcal/mol
Thermal rotational correction    ...      0.00141627 Eh       0.89 kcal/mol
Thermal translational correction ...      0.00141627 Eh       0.89 kcal/mol
-----------------------------------------------------------------------
Total thermal energy                   -291.10723870 Eh

Summary of corrections to the electronic energy:
(perhaps to be used in another calculation)
Total thermal correction                  0.00864686 Eh       5.43 kcal/mol
Non-thermal (ZPE) correction              0.19707373 Eh     123.67 kcal/mol
-----------------------------------------------------------------------
Total correction                          0.20572059 Eh     129.09 kcal/mol

--------
ENTHALPY
--------

The enthalpy is H = U + kB*T
                kB is Boltzmann's constant
Total free energy                 ...   -291.10723870 Eh
Thermal Enthalpy correction       ...      0.00094421 Eh       0.59 kcal/mol
-----------------------------------------------------------------------
Total Enthalpy                    ...   -291.10629449 Eh

-------
ENTROPY
-------

The entropy contributions are T*S = T*(S(el)+S(vib)+S(rot)+S(trans)
     S(el)   - electronic entropy
     S(vib)  - vibrational entropy
     S(rot)  - rotational entropy
     S(trans)- translational entropy
The entropies will be listed as mutliplied by the temperature to get
units of energy

Electronic entropy                ...      0.00000000 Eh      0.00 kcal/mol
Vibrational entropy               ...      0.01006708 Eh      6.32 kcal/mol
Rotational entropy                ...      0.01217561 Eh      7.64 kcal/mol
Translational entropy             ...      0.01887386 Eh     11.84 kcal/mol
-----------------------------------------------------------------------
Final entropy term                ...      0.04111655 Eh     25.80 kcal/mol

CAUTION: The rotational entropy is not quite correctly treated here
         because it includes a symmetry number that is not yet correctly
         implemented in ORCA!
For a nonlinear molecule the correct rotational entropy is:
    S(rot) = R*(ln(qrot/sn)+1.5)
    R    = 8.31441 J/mol/K = 1.987191683e-3 kcal/mol/K
    qrot = 266740.4241368
    sn is the rotational symmetry number. We have assumed 3 here
       if it is different for your molecule then you should correct
       the printed rotational entropy by manually evaluating the equation
       as given above

For convenience we print out the resulting values for sn=1 - 12:
 sn= 1  qrot/sn=  266740.4241 T*S(rot)=     8.29 kcal/mol T*S(tot)=    26.45 kcal/mol
 sn= 2  qrot/sn=  133370.2121 T*S(rot)=     7.88 kcal/mol T*S(tot)=    26.04 kcal/mol
 sn= 3  qrot/sn=   88913.4747 T*S(rot)=     7.64 kcal/mol T*S(tot)=    25.80 kcal/mol
 sn= 4  qrot/sn=   66685.1060 T*S(rot)=     7.47 kcal/mol T*S(tot)=    25.63 kcal/mol
 sn= 5  qrot/sn=   53348.0848 T*S(rot)=     7.34 kcal/mol T*S(tot)=    25.50 kcal/mol
 sn= 6  qrot/sn=   44456.7374 T*S(rot)=     7.23 kcal/mol T*S(tot)=    25.39 kcal/mol
 sn= 7  qrot/sn=   38105.7749 T*S(rot)=     7.14 kcal/mol T*S(tot)=    25.30 kcal/mol
 sn= 8  qrot/sn=   33342.5530 T*S(rot)=     7.06 kcal/mol T*S(tot)=    25.22 kcal/mol
 sn= 9  qrot/sn=   29637.8249 T*S(rot)=     6.99 kcal/mol T*S(tot)=    25.15 kcal/mol
 sn=10  qrot/sn=   26674.0424 T*S(rot)=     6.93 kcal/mol T*S(tot)=    25.09 kcal/mol
 sn=11  qrot/sn=   24249.1295 T*S(rot)=     6.87 kcal/mol T*S(tot)=    25.03 kcal/mol
 sn=12  qrot/sn=   22228.3687 T*S(rot)=     6.82 kcal/mol T*S(tot)=    24.98 kcal/mol

-------------------
GIBBS FREE ENTHALPY
-------------------

The Gibbs free enthalpy is G = H - T*S

Total enthalpy                    ...   -291.10629449 Eh
Total entropy correction          ...     -0.04111655 Eh    -25.80 kcal/mol
-----------------------------------------------------------------------
Final Gibbs free enthalpy         ...   -291.14741104 Eh

For completeness - the Gibbs free enthalpy minus the electronic energy
G-E(el)                           ...      0.16554825 Eh    103.88 kcal/mol

                             ****ORCA TERMINATED NORMALLY****
TOTAL RUN TIME: 0 days 0 hours 49 minutes 15 seconds 879 msec
