                         Program Version 3.0.3 - RELEASE   -
|  1> ! NORI PBE0 def2-TZVP UseSym TightOPT Freq TightSCF Grid3 FinalGrid5 XYZFile
|  2> % pal
|  3>     nprocs 8
|  4> end
|  5> %method
|  6>     SymThresh 5.0e-2
|  7> end
|  8> % geom
|  9>     MaxIter 10
| 10> end
| 11> % maxcore 2000
| 12> % output
| 13>     printlevel mini
| 14>     print[ P_Basis ] 0
| 15>     print[ P_SCFInfo ] 1
| 16>     print[ P_SCFIterInfo ] 1
| 17>     print[ P_OrbEn ] 0
| 18>     print[ P_Cartesian ] 0
| 19> end
| 20> % elprop
| 21>     Dipole false
| 22> end
| 23> *xyz 1 1
| 24>  C        0.8368558335     0.2430110389     0.1536133843
| 25>  C        2.2316955213     0.8431437643     0.0686440784
| 26>  C        3.2923223022    -0.2369515596     0.0615654138
| 27>  N        4.6609013393     0.3312483308    -0.0166587184
| 28>  C        5.8522349843    -0.6032288495    -0.0772755848
| 29>  C        6.5028604830     0.2986497980    -1.1314419496
| 30>  C        5.1360566002     0.9684682657    -1.3090121092
| 31>  H        0.0846736263     1.0315690202     0.1600806450
| 32>  H        0.7105941653    -0.3447397645     1.0655514667
| 33>  H        0.6298898827    -0.4064927506    -0.6998446666
| 34>  H        2.3180690520     1.4519948668    -0.8375276348
| 35>  H        2.3984144196     1.5121611507     0.9210967704
| 36>  H        3.2538726566    -0.8415806668     0.9721154999
| 37>  H        3.1825278946    -0.9068617227    -0.7946749755
| 38>  H        4.7811983134     0.9926182969     0.7507548445
| 39>  H        6.3391371650    -0.7340315729     0.8867540891
| 40>  H        5.5143113538    -1.5643808086    -0.4614921962
| 41>  H        7.2543031829     0.9677061993    -0.7142104779
| 42>  H        6.9123403428    -0.1991683218    -2.0060642759
| 43>  H        4.5452120062     0.5608291916    -2.1284210256
| 44>  H        5.0703588749     2.0542560939    -1.3020225775
| 45> *
| 46>
| 47>                          ****END OF INPUT****
 Total Charge           Charge          ....    1
 Multiplicity           Mult            ....    1
 Number of Electrons    NEL             ....   56
FINAL SINGLE POINT ENERGY      -291.311674504478
FINAL SINGLE POINT ENERGY      -291.311676079282
FINAL SINGLE POINT ENERGY      -291.311677427137
FINAL SINGLE POINT ENERGY      -291.311677757453

CARTESIAN COORDINATES (ANGSTROEM)
---------------------------------
  C      1.822648   -0.003611   -2.679374
  C      1.208329   -0.563318   -1.405731
  C      0.601563    0.536783   -0.560839
  N      0.001157    0.005320    0.688120
  C     -0.709066    0.949781    1.636574
  C     -1.803091   -0.099959    1.857341
  C     -1.267056   -0.824221    0.617714
  H      2.258159   -0.805797   -3.274890
  H      2.615768    0.713796   -2.457795
  H      1.073507    0.497657   -3.296217
  H      0.439719   -1.301118   -1.658692
  H      1.976166   -1.088000   -0.825212
  H      1.352760    1.272540   -0.260911
  H     -0.195104    1.063677   -1.091422
  H      0.717224   -0.516025    1.194444
  H     -0.087815    1.259886    2.474227
  H     -1.037225    1.820061    1.069720
  H     -1.666917   -0.670082    2.775282
  H     -2.829160    0.253407    1.803418
  H     -1.789845   -0.571702   -0.303873
  H     -1.083126   -1.895131    0.664450

FINAL SINGLE POINT ENERGY      -291.311677973552
                    ***********************HURRAY********************
 Multiplicity           Mult            ....    1
 Number of Electrons    NEL             ....   56
 Basis Dimension        Dim             ....  301
FINAL SINGLE POINT ENERGY      -291.311678109393

VIBRATIONAL FREQUENCIES
-----------------------

   0:         0.00 cm**-1
   1:         0.00 cm**-1
   2:         0.00 cm**-1
   3:         0.00 cm**-1
   4:         0.00 cm**-1
   5:         0.00 cm**-1
   6:        80.32 cm**-1
   7:       100.64 cm**-1
   8:       118.17 cm**-1
   9:       174.09 cm**-1
  10:       240.69 cm**-1
  11:       317.68 cm**-1
  12:       379.19 cm**-1
  13:       437.96 cm**-1
  14:       675.96 cm**-1
  15:       757.53 cm**-1
  16:       782.67 cm**-1
  17:       807.69 cm**-1
  18:       886.32 cm**-1
  19:       917.13 cm**-1
  20:       925.73 cm**-1
  21:       968.04 cm**-1
  22:       978.54 cm**-1
  23:      1004.67 cm**-1
  24:      1066.93 cm**-1
  25:      1072.03 cm**-1
  26:      1090.52 cm**-1
  27:      1105.87 cm**-1
  28:      1164.99 cm**-1
  29:      1199.67 cm**-1
  30:      1229.53 cm**-1
  31:      1244.76 cm**-1
  32:      1290.57 cm**-1
  33:      1301.71 cm**-1
  34:      1310.32 cm**-1
  35:      1320.92 cm**-1
  36:      1337.09 cm**-1
  37:      1351.63 cm**-1
  38:      1357.19 cm**-1
  39:      1406.30 cm**-1
  40:      1419.11 cm**-1
  41:      1439.10 cm**-1
  42:      1480.77 cm**-1
  43:      1483.88 cm**-1
  44:      1486.76 cm**-1
  45:      1492.36 cm**-1
  46:      1493.91 cm**-1
  47:      1504.64 cm**-1
  48:      1517.45 cm**-1
  49:      3038.92 cm**-1
  50:      3062.14 cm**-1
  51:      3074.11 cm**-1
  52:      3080.40 cm**-1
  53:      3116.05 cm**-1
  54:      3118.40 cm**-1
  55:      3122.62 cm**-1
  56:      3129.77 cm**-1
  57:      3137.62 cm**-1
  58:      3153.82 cm**-1
  59:      3179.92 cm**-1
  60:      3188.01 cm**-1
  61:      3195.60 cm**-1
  62:      3473.98 cm**-1

IR SPECTRUM
-----------

 Mode    freq (cm**-1)   T**2         TX         TY         TZ
-------------------------------------------------------------------
   6:        80.32    0.878220  ( -0.742393   0.170527  -0.545888)
   7:       100.64    0.714862  ( -0.539243  -0.508807  -0.406441)
   8:       118.17    0.650601  ( -0.435179   0.637117  -0.235162)
   9:       174.09    0.717055  ( -0.652197  -0.224035   0.491429)
  10:       240.69    0.081346  ( -0.223172  -0.069249  -0.163538)
  11:       317.68    0.860218  ( -0.608732  -0.388822   0.581792)
  12:       379.19    1.000736  (  0.059331  -0.813370  -0.579349)
  13:       437.96    0.516525  ( -0.141210  -0.063082   0.701858)
  14:       675.96    4.413404  ( -0.456676   0.582583  -1.966074)
  15:       757.53    4.856797  ( -2.050050  -0.615053  -0.525166)
  16:       782.67    1.024986  ( -0.061360   0.910720  -0.437962)
  17:       807.69    1.508550  ( -0.207111  -0.887596  -0.823303)
  18:       886.32    1.441994  ( -0.827568  -0.415295   0.764627)
  19:       917.13    2.605132  ( -1.385591   0.823485   0.084501)
  20:       925.73    2.623569  ( -1.425081  -0.510260   0.576495)
  21:       968.04    4.981282  ( -0.272180   1.865354   1.194845)
  22:       978.54    6.605759  (  0.398586   2.176222   1.308032)
  23:      1004.67    6.888396  ( -2.083228  -0.403580   1.544565)
  24:      1066.93    1.977845  ( -0.054343   0.065730   1.403770)
  25:      1072.03    7.233819  ( -1.333786  -2.199923  -0.784330)
  26:      1090.52   26.781957  (  3.522695  -1.153933  -3.611235)
  27:      1105.87   12.096526  ( -2.476991  -0.445311   2.400571)
  28:      1164.99    0.626543  ( -0.662419  -0.324439   0.287199)
  29:      1199.67    1.368543  (  1.030065  -0.089372  -0.547287)
  30:      1229.53    4.977610  (  0.646666   1.915637   0.943275)
  31:      1244.76    2.046836  (  0.967878  -0.902220  -0.544103)
  32:      1290.57    3.067346  (  0.559066   1.478588   0.754034)
  33:      1301.71    1.484715  (  0.180931   1.204586  -0.030844)
  34:      1310.32    0.797692  ( -0.071760  -0.848492   0.269453)
  35:      1320.92    3.551608  (  0.131164   0.843614   1.680095)
  36:      1337.09    4.146614  ( -0.487765   1.973938   0.110761)
  37:      1351.63    2.980897  (  1.127109   0.024315   1.307644)
  38:      1357.19   20.248006  ( -1.254099  -2.783228  -3.305886)
  39:      1406.30    0.917918  ( -0.537106   0.485842   0.627210)
  40:      1419.11    0.807925  (  0.787600  -0.348933   0.256628)
  41:      1439.10   41.664007  ( -4.423182  -1.072412   4.577052)
  42:      1480.77    9.469872  ( -1.422756   1.492247   2.284477)
  43:      1483.88    7.469937  ( -0.888944  -2.269718  -1.236161)
  44:      1486.76    1.873039  (  0.682947   1.179515  -0.123962)
  45:      1492.36    7.379262  ( -0.411588  -0.457358   2.645880)
  46:      1493.91   11.546087  (  2.997772   0.488093   1.523553)
  47:      1504.64   13.455734  (  0.483133  -3.632024  -0.175270)
  48:      1517.45    8.114182  ( -0.692864   2.492572  -1.192143)
  49:      3038.92   12.673412  (  0.444844   2.447199  -2.546908)
  50:      3062.14    9.889743  ( -0.930047  -1.896393   2.329903)
  51:      3074.11    4.972756  (  0.898405  -1.992642   0.441592)
  52:      3080.40    4.699493  (  1.727967   1.234401   0.435747)
  53:      3116.05    1.917357  ( -0.232328  -1.169070  -0.704738)
  54:      3118.40    0.446582  (  0.403215   0.057754  -0.529777)
  55:      3122.62    2.327062  ( -0.549438  -0.551137   1.312032)
  56:      3129.77    0.093421  ( -0.053917   0.199234   0.225433)
  57:      3137.62   17.319844  ( -3.734013  -0.365194  -1.801006)
  58:      3153.82    5.016104  ( -0.546227   2.085323   0.607592)
  59:      3179.92    0.071642  ( -0.157686   0.095650   0.193979)
  60:      3188.01    0.583013  (  0.202899   0.615461   0.403797)
  61:      3195.60    0.009599  (  0.035822   0.063315  -0.065628)
  62:      3473.98   44.426890  ( -5.205616   3.083014  -2.797047)

--------------------------
THERMOCHEMISTRY AT 298.15K
--------------------------

Temperature         ... 298.15 K
Pressure            ... 1.00 atm
Total Mass          ... 100.18 AMU

Throughout the following assumptions are being made:
  (1) The electronic state is orbitally nondegenerate
  (2) There are no thermally accessible electronically excited states
  (3) Hindered rotations indicated by low frequency modes) are not
      treated as such but are treated as vibrations and this may
      case some error
  (4) All equations used are the standard statistical mechanics
      equations for an ideal gas
  (5) All vibrations are strinctly harmonic

------------
INNER ENERGY
------------

The inner energy is: U= E(el) + E(ZPE) + E(vib) + E(rot) + E(trans)
    E(el)   - is the total energy from the electronic structure calculation
              = E(kin-el) + E(nuc-el) + E(el-el) + E(nuc-nuc)
    E(ZPE)  - the the zero temperature vibrational energy from the frequency calculation
    E(vib)  - the the finite temperature correction to E(ZPE) due to population
              of excietd vibrational states
    E(rot)  - is the rotational thermal energy
    E(trans)- is the translational thermal energy

Summary of contributions to the inner energy U:
Electronic energy                ...   -291.31167811 Eh
Zero point energy                ...      0.20000576 Eh     125.51 kcal/mol
Thermal vibrational correction   ...      0.00525898 Eh       3.30 kcal/mol
Thermal rotational correction    ...      0.00141627 Eh       0.89 kcal/mol
Thermal translational correction ...      0.00141627 Eh       0.89 kcal/mol
-----------------------------------------------------------------------
Total thermal energy                   -291.10358083 Eh

Summary of corrections to the electronic energy:
(perhaps to be used in another calculation)
Total thermal correction                  0.00809152 Eh       5.08 kcal/mol
Non-thermal (ZPE) correction              0.20000576 Eh     125.51 kcal/mol
-----------------------------------------------------------------------
Total correction                          0.20809728 Eh     130.58 kcal/mol

--------
ENTHALPY
--------

The enthalpy is H = U + kB*T
                kB is Boltzmann's constant
Total free energy                 ...   -291.10358083 Eh
Thermal Enthalpy correction       ...      0.00094421 Eh       0.59 kcal/mol
-----------------------------------------------------------------------
Total Enthalpy                    ...   -291.10263662 Eh

-------
ENTROPY
-------

The entropy contributions are T*S = T*(S(el)+S(vib)+S(rot)+S(trans)
     S(el)   - electronic entropy
     S(vib)  - vibrational entropy
     S(rot)  - rotational entropy
     S(trans)- translational entropy
The entropies will be listed as mutliplied by the temperature to get
units of energy

Electronic entropy                ...      0.00000000 Eh      0.00 kcal/mol
Vibrational entropy               ...      0.00963752 Eh      6.05 kcal/mol
Rotational entropy                ...      0.01216680 Eh      7.63 kcal/mol
Translational entropy             ...      0.01887386 Eh     11.84 kcal/mol
-----------------------------------------------------------------------
Final entropy term                ...      0.04067818 Eh     25.53 kcal/mol

CAUTION: The rotational entropy is not quite correctly treated here
         because it includes a symmetry number that is not yet correctly
         implemented in ORCA!
For a nonlinear molecule the correct rotational entropy is:
    S(rot) = R*(ln(qrot/sn)+1.5)
    R    = 8.31441 J/mol/K = 1.987191683e-3 kcal/mol/K
    qrot = 264263.1548798
    sn is the rotational symmetry number. We have assumed 3 here
       if it is different for your molecule then you should correct
       the printed rotational entropy by manually evaluating the equation
       as given above

For convenience we print out the resulting values for sn=1 - 12:
 sn= 1  qrot/sn=  264263.1549 T*S(rot)=     8.29 kcal/mol T*S(tot)=    26.18 kcal/mol
 sn= 2  qrot/sn=  132131.5774 T*S(rot)=     7.87 kcal/mol T*S(tot)=    25.77 kcal/mol
 sn= 3  qrot/sn=   88087.7183 T*S(rot)=     7.63 kcal/mol T*S(tot)=    25.53 kcal/mol
 sn= 4  qrot/sn=   66065.7887 T*S(rot)=     7.46 kcal/mol T*S(tot)=    25.36 kcal/mol
 sn= 5  qrot/sn=   52852.6310 T*S(rot)=     7.33 kcal/mol T*S(tot)=    25.22 kcal/mol
 sn= 6  qrot/sn=   44043.8591 T*S(rot)=     7.22 kcal/mol T*S(tot)=    25.12 kcal/mol
 sn= 7  qrot/sn=   37751.8793 T*S(rot)=     7.13 kcal/mol T*S(tot)=    25.02 kcal/mol
 sn= 8  qrot/sn=   33032.8944 T*S(rot)=     7.05 kcal/mol T*S(tot)=    24.94 kcal/mol
 sn= 9  qrot/sn=   29362.5728 T*S(rot)=     6.98 kcal/mol T*S(tot)=    24.87 kcal/mol
 sn=10  qrot/sn=   26426.3155 T*S(rot)=     6.92 kcal/mol T*S(tot)=    24.81 kcal/mol
 sn=11  qrot/sn=   24023.9232 T*S(rot)=     6.86 kcal/mol T*S(tot)=    24.76 kcal/mol
 sn=12  qrot/sn=   22021.9296 T*S(rot)=     6.81 kcal/mol T*S(tot)=    24.70 kcal/mol

-------------------
GIBBS FREE ENTHALPY
-------------------

The Gibbs free enthalpy is G = H - T*S

Total enthalpy                    ...   -291.10263662 Eh
Total entropy correction          ...     -0.04067818 Eh    -25.53 kcal/mol
-----------------------------------------------------------------------
Final Gibbs free enthalpy         ...   -291.14331480 Eh

For completeness - the Gibbs free enthalpy minus the electronic energy
G-E(el)                           ...      0.16836331 Eh    105.65 kcal/mol

                             ****ORCA TERMINATED NORMALLY****
TOTAL RUN TIME: 0 days 0 hours 48 minutes 17 seconds 316 msec
