                         Program Version 3.0.3 - RELEASE   -
|  1> ! NORI PBE0 def2-TZVP UseSym TightOPT Freq TightSCF Grid3 FinalGrid5 XYZFile
|  2> % pal
|  3>     nprocs 8
|  4> end
|  5> %method
|  6>     SymThresh 5.0e-2
|  7> end
|  8> % geom
|  9>     MaxIter 10
| 10> end
| 11> % maxcore 2000
| 12> % output
| 13>     printlevel mini
| 14>     print[ P_Basis ] 0
| 15>     print[ P_SCFInfo ] 1
| 16>     print[ P_SCFIterInfo ] 1
| 17>     print[ P_OrbEn ] 0
| 18>     print[ P_Cartesian ] 0
| 19> end
| 20> % elprop
| 21>     Dipole false
| 22> end
| 23> *xyz 1 1
| 24>  C        1.9828251188    -2.8872111458     0.3016865466
| 25>  C        2.3248642864    -1.6529203226    -0.0365317215
| 26>  C        3.2134169551    -0.7969513429     0.7982550219
| 27>  N        4.4810332001    -0.4785031597     0.0792017906
| 28>  C        5.5579168380     0.3204327542     0.7856706310
| 29>  C        6.6253984483    -0.6085744512     0.1984411520
| 30>  C        5.4947492350    -1.5798111166    -0.1614611208
| 31>  H        1.3109337818    -3.4731237716    -0.3138418863
| 32>  H        2.3396396488    -3.3510097634     1.2159293671
| 33>  H        1.9237085381    -1.2049234686    -0.9431172317
| 34>  H        3.4936176597    -1.2912676326     1.7296858447
| 35>  H        2.7498336799     0.1643393447     1.0400834300
| 36>  H        4.2469035274    -0.0340038162    -0.8085368085
| 37>  H        5.4159380097     0.2124506852     1.8607237567
| 38>  H        5.5563359952     1.3734774143     0.5113794762
| 39>  H        7.1221899388    -0.1888094435    -0.6747752508
| 40>  H        7.3745373022    -0.9796528826     0.8928829876
| 41>  H        5.4449703815    -1.9946082031    -1.1653295091
| 42>  H        5.3290174552    -2.3662196780     0.5735535243
| 43> *
| 44>
| 45>                          ****END OF INPUT****
 Total Charge           Charge          ....    1
 Multiplicity           Mult            ....    1
 Number of Electrons    NEL             ....   54
FINAL SINGLE POINT ENERGY      -290.075643133655
FINAL SINGLE POINT ENERGY      -290.075644574419
FINAL SINGLE POINT ENERGY      -290.075645330156

CARTESIAN COORDINATES (ANGSTROEM)
---------------------------------
  C      1.678430   -0.003571   -2.364503
  C      1.751361    0.099347   -1.045478
  C      0.779449    0.886612   -0.236857
  N      0.000766    0.001319    0.678045
  C     -1.102065    0.595335    1.531899
  C     -1.986208   -0.617431    1.223333
  C     -1.011408   -0.963382    0.091684
  H      2.418029   -0.560426   -2.926768
  H      0.893448    0.482602   -2.935532
  H      2.569377   -0.373264   -0.505726
  H      0.054494    1.404060   -0.867381
  H      1.276001    1.624230    0.401002
  H      0.655534   -0.512030    1.268095
  H     -1.436651    1.520853    1.065385
  H     -0.791641    0.783107    2.557603
  H     -1.989766   -1.356204    2.023521
  H     -3.009802   -0.404116    0.927938
  H     -0.632813   -1.978887    0.003667
  H     -1.311226   -0.592302   -0.887130

FINAL SINGLE POINT ENERGY      -290.075645633713
                    ***********************HURRAY********************
 Multiplicity           Mult            ....    1
 Number of Electrons    NEL             ....   54
 Basis Dimension        Dim             ....  289
FINAL SINGLE POINT ENERGY      -290.075645858272

VIBRATIONAL FREQUENCIES
-----------------------

   0:         0.00 cm**-1
   1:         0.00 cm**-1
   2:         0.00 cm**-1
   3:         0.00 cm**-1
   4:         0.00 cm**-1
   5:         0.00 cm**-1
   6:        77.06 cm**-1
   7:        90.25 cm**-1
   8:       115.91 cm**-1
   9:       208.10 cm**-1
  10:       366.67 cm**-1
  11:       395.84 cm**-1
  12:       435.94 cm**-1
  13:       603.22 cm**-1
  14:       704.10 cm**-1
  15:       785.68 cm**-1
  16:       809.77 cm**-1
  17:       903.78 cm**-1
  18:       923.64 cm**-1
  19:       947.50 cm**-1
  20:       976.99 cm**-1
  21:       999.53 cm**-1
  22:      1014.44 cm**-1
  23:      1018.08 cm**-1
  24:      1028.77 cm**-1
  25:      1079.91 cm**-1
  26:      1089.13 cm**-1
  27:      1109.36 cm**-1
  28:      1194.62 cm**-1
  29:      1226.16 cm**-1
  30:      1239.13 cm**-1
  31:      1289.62 cm**-1
  32:      1299.47 cm**-1
  33:      1317.98 cm**-1
  34:      1323.30 cm**-1
  35:      1336.21 cm**-1
  36:      1346.75 cm**-1
  37:      1382.46 cm**-1
  38:      1434.38 cm**-1
  39:      1459.15 cm**-1
  40:      1481.00 cm**-1
  41:      1485.33 cm**-1
  42:      1491.99 cm**-1
  43:      1515.66 cm**-1
  44:      1725.89 cm**-1
  45:      3070.84 cm**-1
  46:      3116.64 cm**-1
  47:      3121.36 cm**-1
  48:      3123.68 cm**-1
  49:      3134.90 cm**-1
  50:      3159.46 cm**-1
  51:      3164.40 cm**-1
  52:      3180.18 cm**-1
  53:      3189.38 cm**-1
  54:      3197.07 cm**-1
  55:      3256.42 cm**-1
  56:      3478.05 cm**-1

IR SPECTRUM
-----------

 Mode    freq (cm**-1)   T**2         TX         TY         TZ
-------------------------------------------------------------------
   6:        77.06    1.018873  ( -0.771699  -0.116700  -0.640105)
   7:        90.25    0.527987  ( -0.023022   0.311897   0.655879)
   8:       115.91    0.801250  ( -0.629925   0.618821  -0.146646)
   9:       208.10    1.094295  ( -0.593214  -0.860330   0.047169)
  10:       366.67    1.766349  (  0.120042  -1.016652  -0.847560)
  11:       395.84    0.335136  (  0.413391   0.311219   0.259590)
  12:       435.94    1.018819  ( -0.425817  -0.491687   0.771844)
  13:       603.22    6.630259  ( -1.952959  -1.633608  -0.384101)
  14:       704.10   13.580949  (  1.707648   2.540036  -2.052585)
  15:       785.68    2.083403  (  1.064485  -0.181967  -0.957686)
  16:       809.77    1.894261  ( -0.607194  -1.095411  -0.570660)
  17:       903.78    3.534599  ( -1.436998  -0.510825  -1.099406)
  18:       923.64    2.105709  (  0.668841  -0.845265  -0.971539)
  19:       947.50    2.025282  (  1.124129  -0.139960  -0.861409)
  20:       976.99    2.906856  (  0.025632   1.281391   1.124383)
  21:       999.53   25.226778  ( -4.241877  -1.947492   1.854867)
  22:      1014.44    1.181128  ( -0.122010   0.996945  -0.415140)
  23:      1018.08   54.889241  ( -4.268188  -5.910722   1.317262)
  24:      1028.77    2.332863  (  0.721484   0.020189  -1.346075)
  25:      1079.91   33.100589  ( -4.674717  -2.344452   2.398156)
  26:      1089.13   13.950918  (  1.805177  -1.992393  -2.592803)
  27:      1109.36    2.619806  ( -0.201026   1.196408   1.071449)
  28:      1194.62    1.132216  (  0.986803   0.370046  -0.146633)
  29:      1226.16    2.781519  (  0.286553   1.470681   0.732464)
  30:      1239.13    6.168632  (  1.359224  -1.397031  -1.539301)
  31:      1289.62    3.136304  ( -0.054149   1.245779   1.257540)
  32:      1299.47    1.501798  ( -0.028680   1.066537  -0.602889)
  33:      1317.98    2.957702  ( -0.490012   1.471726  -0.742708)
  34:      1323.30    0.993665  (  0.212393  -0.943509   0.241545)
  35:      1336.21    9.289573  (  0.009877  -0.773814  -2.947997)
  36:      1346.75   21.715548  (  0.264291   2.165218   4.117952)
  37:      1382.46   10.280315  (  1.256408  -1.794515  -2.341254)
  38:      1434.38   31.731107  (  4.731280   1.579561  -2.617458)
  39:      1459.15   21.253430  ( -1.160203   0.750046   4.398271)
  40:      1481.00   13.073837  (  1.453893  -3.263909  -0.554012)
  41:      1485.33    7.005849  ( -0.669312  -1.102857  -2.311185)
  42:      1491.99   12.804321  ( -1.070085  -2.828534   1.912756)
  43:      1515.66    4.484108  (  0.484738  -1.638872   1.250295)
  44:      1725.89    1.433522  (  1.150854  -0.020308  -0.329613)
  45:      3070.84    2.764265  ( -0.950631   0.990892   0.937389)
  46:      3116.64    1.482859  (  0.125073   1.033778   0.631284)
  47:      3121.36    0.271684  ( -0.005273   0.459661   0.245700)
  48:      3123.68    2.797414  ( -0.786356  -0.743071   1.275501)
  49:      3134.90    0.282400  ( -0.479854   0.192786  -0.122368)
  50:      3159.46    2.372974  (  1.264060  -0.820779   0.318511)
  51:      3164.40    0.365255  ( -0.094442   0.054990  -0.594401)
  52:      3180.18    0.054506  (  0.153832  -0.110893  -0.136179)
  53:      3189.38    0.403819  (  0.034642  -0.387581  -0.502394)
  54:      3197.07    0.023872  (  0.034413  -0.100631  -0.112078)
  55:      3256.42    0.196734  (  0.129449  -0.011052   0.424093)
  56:      3478.05   48.252509  ( -4.839816   3.000955  -3.977809)

--------------------------
THERMOCHEMISTRY AT 298.15K
--------------------------

Temperature         ... 298.15 K
Pressure            ... 1.00 atm
Total Mass          ... 98.17 AMU

Throughout the following assumptions are being made:
  (1) The electronic state is orbitally nondegenerate
  (2) There are no thermally accessible electronically excited states
  (3) Hindered rotations indicated by low frequency modes) are not
      treated as such but are treated as vibrations and this may
      case some error
  (4) All equations used are the standard statistical mechanics
      equations for an ideal gas
  (5) All vibrations are strinctly harmonic

------------
INNER ENERGY
------------

The inner energy is: U= E(el) + E(ZPE) + E(vib) + E(rot) + E(trans)
    E(el)   - is the total energy from the electronic structure calculation
              = E(kin-el) + E(nuc-el) + E(el-el) + E(nuc-nuc)
    E(ZPE)  - the the zero temperature vibrational energy from the frequency calculation
    E(vib)  - the the finite temperature correction to E(ZPE) due to population
              of excietd vibrational states
    E(rot)  - is the rotational thermal energy
    E(trans)- is the translational thermal energy

Summary of contributions to the inner energy U:
Electronic energy                ...   -290.07564586 Eh
Zero point energy                ...      0.17638737 Eh     110.68 kcal/mol
Thermal vibrational correction   ...      0.00470147 Eh       2.95 kcal/mol
Thermal rotational correction    ...      0.00141627 Eh       0.89 kcal/mol
Thermal translational correction ...      0.00141627 Eh       0.89 kcal/mol
-----------------------------------------------------------------------
Total thermal energy                   -289.89172447 Eh

Summary of corrections to the electronic energy:
(perhaps to be used in another calculation)
Total thermal correction                  0.00753402 Eh       4.73 kcal/mol
Non-thermal (ZPE) correction              0.17638737 Eh     110.68 kcal/mol
-----------------------------------------------------------------------
Total correction                          0.18392139 Eh     115.41 kcal/mol

--------
ENTHALPY
--------

The enthalpy is H = U + kB*T
                kB is Boltzmann's constant
Total free energy                 ...   -289.89172447 Eh
Thermal Enthalpy correction       ...      0.00094421 Eh       0.59 kcal/mol
-----------------------------------------------------------------------
Total Enthalpy                    ...   -289.89078026 Eh

-------
ENTROPY
-------

The entropy contributions are T*S = T*(S(el)+S(vib)+S(rot)+S(trans)
     S(el)   - electronic entropy
     S(vib)  - vibrational entropy
     S(rot)  - rotational entropy
     S(trans)- translational entropy
The entropies will be listed as mutliplied by the temperature to get
units of energy

Electronic entropy                ...      0.00000000 Eh      0.00 kcal/mol
Vibrational entropy               ...      0.00870392 Eh      5.46 kcal/mol
Rotational entropy                ...      0.01207536 Eh      7.58 kcal/mol
Translational entropy             ...      0.01884507 Eh     11.83 kcal/mol
-----------------------------------------------------------------------
Final entropy term                ...      0.03962435 Eh     24.86 kcal/mol

CAUTION: The rotational entropy is not quite correctly treated here
         because it includes a symmetry number that is not yet correctly
         implemented in ORCA!
For a nonlinear molecule the correct rotational entropy is:
    S(rot) = R*(ln(qrot/sn)+1.5)
    R    = 8.31441 J/mol/K = 1.987191683e-3 kcal/mol/K
    qrot = 239870.0367648
    sn is the rotational symmetry number. We have assumed 3 here
       if it is different for your molecule then you should correct
       the printed rotational entropy by manually evaluating the equation
       as given above

For convenience we print out the resulting values for sn=1 - 12:
 sn= 1  qrot/sn=  239870.0368 T*S(rot)=     8.23 kcal/mol T*S(tot)=    25.52 kcal/mol
 sn= 2  qrot/sn=  119935.0184 T*S(rot)=     7.82 kcal/mol T*S(tot)=    25.10 kcal/mol
 sn= 3  qrot/sn=   79956.6789 T*S(rot)=     7.58 kcal/mol T*S(tot)=    24.86 kcal/mol
 sn= 4  qrot/sn=   59967.5092 T*S(rot)=     7.41 kcal/mol T*S(tot)=    24.69 kcal/mol
 sn= 5  qrot/sn=   47974.0074 T*S(rot)=     7.27 kcal/mol T*S(tot)=    24.56 kcal/mol
 sn= 6  qrot/sn=   39978.3395 T*S(rot)=     7.17 kcal/mol T*S(tot)=    24.45 kcal/mol
 sn= 7  qrot/sn=   34267.1481 T*S(rot)=     7.08 kcal/mol T*S(tot)=    24.36 kcal/mol
 sn= 8  qrot/sn=   29983.7546 T*S(rot)=     7.00 kcal/mol T*S(tot)=    24.28 kcal/mol
 sn= 9  qrot/sn=   26652.2263 T*S(rot)=     6.93 kcal/mol T*S(tot)=    24.21 kcal/mol
 sn=10  qrot/sn=   23987.0037 T*S(rot)=     6.86 kcal/mol T*S(tot)=    24.15 kcal/mol
 sn=11  qrot/sn=   21806.3670 T*S(rot)=     6.81 kcal/mol T*S(tot)=    24.09 kcal/mol
 sn=12  qrot/sn=   19989.1697 T*S(rot)=     6.76 kcal/mol T*S(tot)=    24.04 kcal/mol

-------------------
GIBBS FREE ENTHALPY
-------------------

The Gibbs free enthalpy is G = H - T*S

Total enthalpy                    ...   -289.89078026 Eh
Total entropy correction          ...     -0.03962435 Eh    -24.86 kcal/mol
-----------------------------------------------------------------------
Final Gibbs free enthalpy         ...   -289.93040460 Eh

For completeness - the Gibbs free enthalpy minus the electronic energy
G-E(el)                           ...      0.14524126 Eh     91.14 kcal/mol

                             ****ORCA TERMINATED NORMALLY****
TOTAL RUN TIME: 0 days 0 hours 45 minutes 59 seconds 318 msec
