                         Program Version 3.0.3 - RELEASE   -
|  1> ! NORI PBE0 def2-TZVP UseSym TightOPT Freq TightSCF Grid3 FinalGrid5 XYZFile
|  2> % pal
|  3>     nprocs 8
|  4> end
|  5> %method
|  6>     SymThresh 5.0e-2
|  7> end
|  8> % geom
|  9>     MaxIter 10
| 10> end
| 11> % maxcore 2000
| 12> % output
| 13>     printlevel mini
| 14>     print[ P_Basis ] 0
| 15>     print[ P_SCFInfo ] 1
| 16>     print[ P_SCFIterInfo ] 1
| 17>     print[ P_OrbEn ] 0
| 18>     print[ P_Cartesian ] 0
| 19> end
| 20> % elprop
| 21>     Dipole false
| 22> end
| 23> *xyz 1 1
| 24>  C        3.7062521596    -2.5428739975     0.1457976466
| 25>  C        3.6511248693    -1.3462448170     0.1383676815
| 26>  C        3.5919521070     0.0975571881     0.1138578159
| 27>  N        4.1138468102     0.6158137441    -1.1812785406
| 28>  C        4.2480641020     2.1121838292    -1.3841531694
| 29>  C        5.5974763671     1.8887934051    -2.0755772850
| 30>  C        5.5915947829     0.4695661323    -1.4948839193
| 31>  H        3.7438102489    -3.6099479617     0.1665162402
| 32>  H        2.5664111339     0.4621102199     0.2242568989
| 33>  H        4.1989737049     0.5417259377     0.9073644865
| 34>  H        3.5634677705     0.2018402767    -1.9344771477
| 35>  H        3.4212614100     2.5403822460    -1.9472458533
| 36>  H        4.3232001232     2.5868132837    -0.4064652716
| 37>  H        5.5250431114     1.9039219673    -3.1623539657
| 38>  H        6.4128067573     2.5346698478    -1.7605803270
| 39>  H        6.1326307050     0.3690490399    -0.5552488701
| 40>  H        5.8050938368    -0.3772003416    -2.1428464197
| 41> *
| 42>
| 43>                          ****END OF INPUT****
 Total Charge           Charge          ....    1
 Multiplicity           Mult            ....    1
 Number of Electrons    NEL             ....   52
FINAL SINGLE POINT ENERGY      -288.817369528374
FINAL SINGLE POINT ENERGY      -288.817370326664

CARTESIAN COORDINATES (ANGSTROEM)
---------------------------------
  C      2.187799    0.000749   -2.112092
  C      1.460299    0.490656   -1.296115
  C      0.579217    1.067023   -0.305928
  N     -0.000486   -0.000229    0.555793
  C     -1.037985    0.366435    1.598845
  C     -1.839746   -0.885829    1.229061
  C     -0.992693   -0.978727   -0.045383
  H      2.842945   -0.420149   -2.842638
  H      1.109176    1.765641    0.348402
  H     -0.256872    1.598712   -0.767470
  H      0.769051   -0.515564    0.984553
  H     -0.619974    0.459698    2.598888
  H     -1.511396    1.301042    1.299793
  H     -1.670542   -1.715710    1.913752
  H     -2.908245   -0.748820    1.087778
  H     -1.446577   -0.512695   -0.919103
  H     -0.538532   -1.927153   -0.320996

FINAL SINGLE POINT ENERGY      -288.817370765456
                    ***********************HURRAY********************
 Multiplicity           Mult            ....    1
 Number of Electrons    NEL             ....   52
 Basis Dimension        Dim             ....  277
FINAL SINGLE POINT ENERGY      -288.817371008311

VIBRATIONAL FREQUENCIES
-----------------------

   0:         0.00 cm**-1
   1:         0.00 cm**-1
   2:         0.00 cm**-1
   3:         0.00 cm**-1
   4:         0.00 cm**-1
   5:         0.00 cm**-1
   6:        73.03 cm**-1
   7:       104.87 cm**-1
   8:       146.76 cm**-1
   9:       295.62 cm**-1
  10:       336.75 cm**-1
  11:       396.01 cm**-1
  12:       479.16 cm**-1
  13:       680.78 cm**-1
  14:       726.81 cm**-1
  15:       771.27 cm**-1
  16:       776.77 cm**-1
  17:       808.89 cm**-1
  18:       904.58 cm**-1
  19:       941.71 cm**-1
  20:       974.97 cm**-1
  21:       983.35 cm**-1
  22:      1005.24 cm**-1
  23:      1019.27 cm**-1
  24:      1090.43 cm**-1
  25:      1093.10 cm**-1
  26:      1162.00 cm**-1
  27:      1221.04 cm**-1
  28:      1230.97 cm**-1
  29:      1290.35 cm**-1
  30:      1301.48 cm**-1
  31:      1316.45 cm**-1
  32:      1330.99 cm**-1
  33:      1347.76 cm**-1
  34:      1387.80 cm**-1
  35:      1439.04 cm**-1
  36:      1471.97 cm**-1
  37:      1484.11 cm**-1
  38:      1491.23 cm**-1
  39:      1514.88 cm**-1
  40:      2257.90 cm**-1
  41:      3070.31 cm**-1
  42:      3115.65 cm**-1
  43:      3119.41 cm**-1
  44:      3120.92 cm**-1
  45:      3124.07 cm**-1
  46:      3181.50 cm**-1
  47:      3190.50 cm**-1
  48:      3198.31 cm**-1
  49:      3455.51 cm**-1
  50:      3473.39 cm**-1

IR SPECTRUM
-----------

 Mode    freq (cm**-1)   T**2         TX         TY         TZ
-------------------------------------------------------------------
   6:        73.03    0.739258  (  0.545980   0.302147   0.591499)
   7:       104.87    0.517877  ( -0.592188   0.305071  -0.272254)
   8:       146.76    1.382258  ( -1.014480   0.593768   0.022960)
   9:       295.62    8.745959  ( -1.528070  -2.465137  -0.577979)
  10:       336.75   13.989620  (  2.706115  -0.577504   2.516555)
  11:       396.01    0.387726  (  0.047277  -0.136358  -0.605721)
  12:       479.16   12.618644  (  1.456749   2.319103  -2.262364)
  13:       680.78   12.932459  ( -0.346895  -2.258637   2.776812)
  14:       726.81   40.481383  (  4.920442   0.738715   3.965467)
  15:       771.27   29.101759  ( -0.467428  -5.190564   1.393310)
  16:       776.77    3.208962  (  0.573378   0.998729  -1.372130)
  17:       808.89    1.191806  (  0.293936   0.928871   0.492550)
  18:       904.58    4.319843  ( -1.938229  -0.732648  -0.162295)
  19:       941.71    2.629536  (  0.883477  -1.246046  -0.544402)
  20:       974.97    3.567983  ( -0.615970  -1.669319  -0.633987)
  21:       983.35    4.805249  ( -1.347674  -0.903264   1.474157)
  22:      1005.24   11.539727  (  2.541477   1.727185  -1.448259)
  23:      1019.27    2.455605  (  0.935727  -0.664498  -1.066988)
  24:      1090.43   11.047526  ( -0.622646  -2.489692  -2.112173)
  25:      1093.10   34.517493  (  4.545580   1.545363  -3.386304)
  26:      1162.00    0.251012  (  0.104994  -0.488573   0.035843)
  27:      1221.04    1.906105  ( -1.099817  -0.784053  -0.285950)
  28:      1230.97    5.960696  (  0.844487  -1.458013  -1.766843)
  29:      1290.35    2.874989  (  0.032092   1.029154   1.347145)
  30:      1301.48    1.291534  ( -0.121369   1.059936  -0.391586)
  31:      1316.45    3.636356  (  1.036263  -1.598143  -0.091951)
  32:      1330.99    6.648133  (  0.664396   0.385026   2.461395)
  33:      1347.76   17.240028  (  0.076441   1.861264   3.710779)
  34:      1387.80   27.077842  ( -2.606270   2.672247   3.625506)
  35:      1439.04   49.147222  (  5.685401   1.699346  -3.733050)
  36:      1471.97   10.920988  ( -0.974173   3.014214   0.941534)
  37:      1484.11   11.223514  ( -0.072435   2.146796   2.570902)
  38:      1491.23   11.667556  (  0.819550   2.823908  -1.738228)
  39:      1514.88    3.208058  ( -0.368942   1.470609  -0.953545)
  40:      2257.90   29.006829  (  3.481040  -1.142422  -3.947665)
  41:      3070.31    2.927291  ( -1.383813  -0.091660   1.001974)
  42:      3115.65    0.881427  (  0.138973   0.844102   0.386787)
  43:      3119.41    1.091554  (  0.172924   0.196041   1.011543)
  44:      3120.92    0.155789  (  0.370860  -0.028398   0.132081)
  45:      3124.07    1.897186  (  0.458432   0.960734  -0.874080)
  46:      3181.50    0.054788  (  0.109160  -0.167145  -0.122209)
  47:      3190.50    0.279043  (  0.008076  -0.232058  -0.474475)
  48:      3198.31    0.134310  ( -0.246954   0.093452  -0.254147)
  49:      3455.51   93.727354  (  6.074733  -3.293384  -6.780752)
  50:      3473.39   58.145767  ( -6.207636   3.298954  -2.954307)

--------------------------
THERMOCHEMISTRY AT 298.15K
--------------------------

Temperature         ... 298.15 K
Pressure            ... 1.00 atm
Total Mass          ... 96.15 AMU

Throughout the following assumptions are being made:
  (1) The electronic state is orbitally nondegenerate
  (2) There are no thermally accessible electronically excited states
  (3) Hindered rotations indicated by low frequency modes) are not
      treated as such but are treated as vibrations and this may
      case some error
  (4) All equations used are the standard statistical mechanics
      equations for an ideal gas
  (5) All vibrations are strinctly harmonic

------------
INNER ENERGY
------------

The inner energy is: U= E(el) + E(ZPE) + E(vib) + E(rot) + E(trans)
    E(el)   - is the total energy from the electronic structure calculation
              = E(kin-el) + E(nuc-el) + E(el-el) + E(nuc-nuc)
    E(ZPE)  - the the zero temperature vibrational energy from the frequency calculation
    E(vib)  - the the finite temperature correction to E(ZPE) due to population
              of excietd vibrational states
    E(rot)  - is the rotational thermal energy
    E(trans)- is the translational thermal energy

Summary of contributions to the inner energy U:
Electronic energy                ...   -288.81737101 Eh
Zero point energy                ...      0.15242519 Eh      95.65 kcal/mol
Thermal vibrational correction   ...      0.00442622 Eh       2.78 kcal/mol
Thermal rotational correction    ...      0.00141627 Eh       0.89 kcal/mol
Thermal translational correction ...      0.00141627 Eh       0.89 kcal/mol
-----------------------------------------------------------------------
Total thermal energy                   -288.65768706 Eh

Summary of corrections to the electronic energy:
(perhaps to be used in another calculation)
Total thermal correction                  0.00725876 Eh       4.55 kcal/mol
Non-thermal (ZPE) correction              0.15242519 Eh      95.65 kcal/mol
-----------------------------------------------------------------------
Total correction                          0.15968395 Eh     100.20 kcal/mol

--------
ENTHALPY
--------

The enthalpy is H = U + kB*T
                kB is Boltzmann's constant
Total free energy                 ...   -288.65768706 Eh
Thermal Enthalpy correction       ...      0.00094421 Eh       0.59 kcal/mol
-----------------------------------------------------------------------
Total Enthalpy                    ...   -288.65674285 Eh

-------
ENTROPY
-------

The entropy contributions are T*S = T*(S(el)+S(vib)+S(rot)+S(trans)
     S(el)   - electronic entropy
     S(vib)  - vibrational entropy
     S(rot)  - rotational entropy
     S(trans)- translational entropy
The entropies will be listed as mutliplied by the temperature to get
units of energy

Electronic entropy                ...      0.00000000 Eh      0.00 kcal/mol
Vibrational entropy               ...      0.00801517 Eh      5.03 kcal/mol
Rotational entropy                ...      0.01200648 Eh      7.53 kcal/mol
Translational entropy             ...      0.01881568 Eh     11.81 kcal/mol
-----------------------------------------------------------------------
Final entropy term                ...      0.03883733 Eh     24.37 kcal/mol

CAUTION: The rotational entropy is not quite correctly treated here
         because it includes a symmetry number that is not yet correctly
         implemented in ORCA!
For a nonlinear molecule the correct rotational entropy is:
    S(rot) = R*(ln(qrot/sn)+1.5)
    R    = 8.31441 J/mol/K = 1.987191683e-3 kcal/mol/K
    qrot = 222994.8607378
    sn is the rotational symmetry number. We have assumed 3 here
       if it is different for your molecule then you should correct
       the printed rotational entropy by manually evaluating the equation
       as given above

For convenience we print out the resulting values for sn=1 - 12:
 sn= 1  qrot/sn=  222994.8607 T*S(rot)=     8.19 kcal/mol T*S(tot)=    25.02 kcal/mol
 sn= 2  qrot/sn=  111497.4304 T*S(rot)=     7.77 kcal/mol T*S(tot)=    24.61 kcal/mol
 sn= 3  qrot/sn=   74331.6202 T*S(rot)=     7.53 kcal/mol T*S(tot)=    24.37 kcal/mol
 sn= 4  qrot/sn=   55748.7152 T*S(rot)=     7.36 kcal/mol T*S(tot)=    24.20 kcal/mol
 sn= 5  qrot/sn=   44598.9721 T*S(rot)=     7.23 kcal/mol T*S(tot)=    24.07 kcal/mol
 sn= 6  qrot/sn=   37165.8101 T*S(rot)=     7.12 kcal/mol T*S(tot)=    23.96 kcal/mol
 sn= 7  qrot/sn=   31856.4087 T*S(rot)=     7.03 kcal/mol T*S(tot)=    23.87 kcal/mol
 sn= 8  qrot/sn=   27874.3576 T*S(rot)=     6.95 kcal/mol T*S(tot)=    23.79 kcal/mol
 sn= 9  qrot/sn=   24777.2067 T*S(rot)=     6.88 kcal/mol T*S(tot)=    23.72 kcal/mol
 sn=10  qrot/sn=   22299.4861 T*S(rot)=     6.82 kcal/mol T*S(tot)=    23.66 kcal/mol
 sn=11  qrot/sn=   20272.2601 T*S(rot)=     6.76 kcal/mol T*S(tot)=    23.60 kcal/mol
 sn=12  qrot/sn=   18582.9051 T*S(rot)=     6.71 kcal/mol T*S(tot)=    23.55 kcal/mol

-------------------
GIBBS FREE ENTHALPY
-------------------

The Gibbs free enthalpy is G = H - T*S

Total enthalpy                    ...   -288.65674285 Eh
Total entropy correction          ...     -0.03883733 Eh    -24.37 kcal/mol
-----------------------------------------------------------------------
Final Gibbs free enthalpy         ...   -288.69558018 Eh

For completeness - the Gibbs free enthalpy minus the electronic energy
G-E(el)                           ...      0.12179082 Eh     76.42 kcal/mol

                             ****ORCA TERMINATED NORMALLY****
TOTAL RUN TIME: 0 days 0 hours 37 minutes 33 seconds 648 msec
