                         Program Version 3.0.3 - RELEASE   -
|  1> ! NORI PBE0 def2-TZVP UseSym TightOPT Freq TightSCF Grid3 FinalGrid5 XYZFile
|  2> % pal
|  3>     nprocs 8
|  4> end
|  5> %method
|  6>     SymThresh 5.0e-2
|  7> end
|  8> % geom
|  9>     MaxIter 10
| 10> end
| 11> % maxcore 2000
| 12> % output
| 13>     printlevel mini
| 14>     print[ P_Basis ] 0
| 15>     print[ P_SCFInfo ] 1
| 16>     print[ P_SCFIterInfo ] 1
| 17>     print[ P_OrbEn ] 0
| 18>     print[ P_Cartesian ] 0
| 19> end
| 20> % elprop
| 21>     Dipole false
| 22> end
| 23> *xyz 1 1
| 24>  C        1.0605604098    -0.0305716265     0.1155620170
| 25>  C        2.5621399661    -0.2221938550     0.1801357134
| 26>  C        2.9646795333    -1.4467710704     0.9715319119
| 27>  N        3.0943305473    -0.2458468439    -1.2293215667
| 28>  C        4.5802531311    -0.2828863008    -1.5168935023
| 29>  C        4.3126463941    -1.1838509252    -2.7272843360
| 30>  C        2.9211391880    -1.4461471193    -2.1409661532
| 31>  H        0.7827246670     0.8740360708    -0.4324956751
| 32>  H        0.6643226735     0.0694876193     1.1261571572
| 33>  H        0.5674907812    -0.8896687258    -0.3462474914
| 34>  H        3.0311836708     0.6654430530     0.6178254685
| 35>  H        2.4536977771    -2.3471804996     0.6254620011
| 36>  H        2.6668772988    -1.2898418127     2.0090177154
| 37>  H        4.0409122565    -1.6254249242     0.9756914549
| 38>  H        2.6987781621     0.5673995636    -1.7008682609
| 39>  H        5.0067483572     0.7064222777    -1.6687263631
| 40>  H        5.0870856969    -0.7888556379    -0.6985033687
| 41>  H        4.2796395970    -0.6319710868    -3.6658443564
| 42>  H        4.9598736560    -2.0491591262    -2.8410473161
| 43>  H        2.8701036812    -2.3452901005    -1.5316857639
| 44>  H        2.0468025551    -1.3735389296    -2.7834392857
| 45> *
| 46>
| 47>                          ****END OF INPUT****
 Total Charge           Charge          ....    1
 Multiplicity           Mult            ....    1
 Number of Electrons    NEL             ....   56
FINAL SINGLE POINT ENERGY      -291.312919277443

CARTESIAN COORDINATES (ANGSTROEM)
---------------------------------
  C      2.316432    0.000029   -0.228803
  C      0.989753    0.727843   -0.309076
  C      0.496502    0.896063   -1.729088
  N     -0.000032   -0.000263    0.563035
  C     -1.388209    0.547626    0.816960
  C     -1.941318   -0.881444    0.813000
  C     -0.630350   -1.316758    0.149044
  H      2.677663   -0.087701    0.799443
  H      3.068690    0.555344   -0.789527
  H      2.251626   -0.998864   -0.667402
  H      1.076553    1.710924    0.165652
  H      0.474932   -0.050185   -2.272899
  H      1.195834    1.549046   -2.252903
  H     -0.484659    1.368313   -1.793672
  H      0.457292   -0.139638    1.464051
  H     -1.448545    1.143602    1.725293
  H     -1.697782    1.139030   -0.041513
  H     -2.064525   -1.289963    1.815306
  H     -2.850708   -1.048176    0.242242
  H     -0.685588   -1.353866   -0.936251
  H     -0.099054   -2.185314    0.531370

FINAL SINGLE POINT ENERGY      -291.312920105480
                    ***********************HURRAY********************
 Multiplicity           Mult            ....    1
 Number of Electrons    NEL             ....   56
 Basis Dimension        Dim             ....  301
FINAL SINGLE POINT ENERGY      -291.312920716403

VIBRATIONAL FREQUENCIES
-----------------------

   0:         0.00 cm**-1
   1:         0.00 cm**-1
   2:         0.00 cm**-1
   3:         0.00 cm**-1
   4:         0.00 cm**-1
   5:         0.00 cm**-1
   6:        60.30 cm**-1
   7:       107.82 cm**-1
   8:       205.77 cm**-1
   9:       243.06 cm**-1
  10:       256.09 cm**-1
  11:       299.22 cm**-1
  12:       349.35 cm**-1
  13:       438.51 cm**-1
  14:       534.86 cm**-1
  15:       619.38 cm**-1
  16:       751.92 cm**-1
  17:       807.18 cm**-1
  18:       878.01 cm**-1
  19:       919.79 cm**-1
  20:       936.90 cm**-1
  21:       950.94 cm**-1
  22:       963.76 cm**-1
  23:       975.99 cm**-1
  24:       986.01 cm**-1
  25:      1059.74 cm**-1
  26:      1077.14 cm**-1
  27:      1104.10 cm**-1
  28:      1156.00 cm**-1
  29:      1191.28 cm**-1
  30:      1208.57 cm**-1
  31:      1231.96 cm**-1
  32:      1261.23 cm**-1
  33:      1289.25 cm**-1
  34:      1298.72 cm**-1
  35:      1335.73 cm**-1
  36:      1346.83 cm**-1
  37:      1352.16 cm**-1
  38:      1388.34 cm**-1
  39:      1412.70 cm**-1
  40:      1425.66 cm**-1
  41:      1450.22 cm**-1
  42:      1469.28 cm**-1
  43:      1479.52 cm**-1
  44:      1489.35 cm**-1
  45:      1493.22 cm**-1
  46:      1497.69 cm**-1
  47:      1503.65 cm**-1
  48:      1518.99 cm**-1
  49:      3054.80 cm**-1
  50:      3067.52 cm**-1
  51:      3071.74 cm**-1
  52:      3120.01 cm**-1
  53:      3125.95 cm**-1
  54:      3129.25 cm**-1
  55:      3130.92 cm**-1
  56:      3148.43 cm**-1
  57:      3151.79 cm**-1
  58:      3154.56 cm**-1
  59:      3182.03 cm**-1
  60:      3196.45 cm**-1
  61:      3202.24 cm**-1
  62:      3473.28 cm**-1

IR SPECTRUM
-----------

 Mode    freq (cm**-1)   T**2         TX         TY         TZ
-------------------------------------------------------------------
   6:        60.30    0.342069  (  0.002330   0.508439   0.289055)
   7:       107.82    1.053394  ( -0.780645  -0.185094  -0.640099)
   8:       205.77    0.336333  (  0.103950   0.568952  -0.042671)
   9:       243.06    0.351480  ( -0.420621  -0.367641   0.198489)
  10:       256.09    0.492539  (  0.183592   0.669065   0.105762)
  11:       299.22    0.094563  (  0.113323  -0.223249   0.178551)
  12:       349.35    1.274780  ( -0.938437   0.124714   0.615275)
  13:       438.51    0.854315  (  0.348670  -0.778263  -0.356441)
  14:       534.86    2.050005  ( -0.529213  -1.311202   0.225140)
  15:       619.38    4.652703  (  0.768865  -0.028712  -2.015124)
  16:       751.92    1.322356  (  0.060007  -0.700822   0.909728)
  17:       807.18    1.442091  (  0.609445  -0.954144  -0.400346)
  18:       878.01    0.207175  ( -0.119080  -0.415390  -0.142992)
  19:       919.79    4.361412  ( -2.056930  -0.338547  -0.125841)
  20:       936.90    1.681697  (  0.617318  -1.105283   0.281009)
  21:       950.94    1.504412  ( -0.314267   0.956056   0.701145)
  22:       963.76    3.800548  (  1.070967   1.612548  -0.230793)
  23:       975.99    3.389919  (  0.063407  -1.786511  -0.440768)
  24:       986.01    9.151474  ( -2.915833  -0.204791   0.779392)
  25:      1059.74    1.445275  ( -0.409117  -1.016070  -0.495479)
  26:      1077.14    9.371604  ( -2.714825   0.704956   1.226526)
  27:      1104.10    2.093822  (  1.188896  -0.062157  -0.822488)
  28:      1156.00   36.935099  (  4.570187   3.350792  -2.195606)
  29:      1191.28    1.539725  ( -1.041234   0.634134  -0.231149)
  30:      1208.57    8.674369  ( -2.156436  -1.146922   1.645820)
  31:      1231.96    5.576598  ( -0.397964   2.298772   0.365885)
  32:      1261.23    9.983245  (  3.113212   0.317469   0.436311)
  33:      1289.25    3.795470  ( -0.626053   1.746744   0.593643)
  34:      1298.72    1.563937  ( -0.441653  -1.099015   0.401305)
  35:      1335.73    5.742453  (  1.891993  -0.877394  -1.180253)
  36:      1346.83    9.243094  (  0.525597  -2.934908  -0.594267)
  37:      1352.16    9.810962  ( -1.618549  -2.478968   1.022730)
  38:      1388.34   35.630678  ( -4.819069   0.728187   3.446301)
  39:      1412.70   16.455506  ( -1.910358   2.211479  -2.813432)
  40:      1425.66   15.483181  ( -3.387447   0.429444   1.955496)
  41:      1450.22   17.662091  (  2.517515   1.715071   2.895296)
  42:      1469.28    0.909007  ( -0.875065  -0.244549  -0.288901)
  43:      1479.52    2.793871  (  1.013882  -1.181664  -0.607934)
  44:      1489.35    6.654977  (  0.642700  -1.015917  -2.282504)
  45:      1493.22    7.286062  (  0.339077  -2.632096   0.493110)
  46:      1497.69   18.154269  (  1.730409   3.876243  -0.367005)
  47:      1503.65   14.913758  (  1.955571  -2.602203  -2.077989)
  48:      1518.99    3.444649  (  0.257254   1.329474  -1.269239)
  49:      3054.80    4.056456  ( -0.324841   1.331318  -1.475984)
  50:      3067.52    1.906168  ( -1.311175   0.302523   0.308979)
  51:      3071.74    3.673432  (  1.166593   1.330630   0.736151)
  52:      3120.01    1.833239  (  0.736143   0.637607  -0.940633)
  53:      3125.95    1.625348  ( -0.355170   1.217182   0.132928)
  54:      3129.25    2.392595  (  0.865132   0.507872   1.177373)
  55:      3130.92    5.784954  ( -0.301850  -0.799569  -2.248228)
  56:      3148.43    2.680846  (  0.034552  -1.241435  -1.067001)
  57:      3151.79    8.503097  ( -2.080531   2.022478   0.289946)
  58:      3154.56    1.626445  (  0.689358   1.064698  -0.132853)
  59:      3182.03    0.026122  ( -0.129069  -0.087059   0.043402)
  60:      3196.45    0.133130  (  0.011361  -0.240223  -0.274397)
  61:      3202.24    0.110159  (  0.316261  -0.055400   0.084078)
  62:      3473.28   39.447323  ( -3.482833   0.406794  -5.210731)

--------------------------
THERMOCHEMISTRY AT 298.15K
--------------------------

Temperature         ... 298.15 K
Pressure            ... 1.00 atm
Total Mass          ... 100.18 AMU

Throughout the following assumptions are being made:
  (1) The electronic state is orbitally nondegenerate
  (2) There are no thermally accessible electronically excited states
  (3) Hindered rotations indicated by low frequency modes) are not
      treated as such but are treated as vibrations and this may
      case some error
  (4) All equations used are the standard statistical mechanics
      equations for an ideal gas
  (5) All vibrations are strinctly harmonic

------------
INNER ENERGY
------------

The inner energy is: U= E(el) + E(ZPE) + E(vib) + E(rot) + E(trans)
    E(el)   - is the total energy from the electronic structure calculation
              = E(kin-el) + E(nuc-el) + E(el-el) + E(nuc-nuc)
    E(ZPE)  - the the zero temperature vibrational energy from the frequency calculation
    E(vib)  - the the finite temperature correction to E(ZPE) due to population
              of excietd vibrational states
    E(rot)  - is the rotational thermal energy
    E(trans)- is the translational thermal energy

Summary of contributions to the inner energy U:
Electronic energy                ...   -291.31292072 Eh
Zero point energy                ...      0.19941976 Eh     125.14 kcal/mol
Thermal vibrational correction   ...      0.00523362 Eh       3.28 kcal/mol
Thermal rotational correction    ...      0.00141627 Eh       0.89 kcal/mol
Thermal translational correction ...      0.00141627 Eh       0.89 kcal/mol
-----------------------------------------------------------------------
Total thermal energy                   -291.10543478 Eh

Summary of corrections to the electronic energy:
(perhaps to be used in another calculation)
Total thermal correction                  0.00806617 Eh       5.06 kcal/mol
Non-thermal (ZPE) correction              0.19941976 Eh     125.14 kcal/mol
-----------------------------------------------------------------------
Total correction                          0.20748593 Eh     130.20 kcal/mol

--------
ENTHALPY
--------

The enthalpy is H = U + kB*T
                kB is Boltzmann's constant
Total free energy                 ...   -291.10543478 Eh
Thermal Enthalpy correction       ...      0.00094421 Eh       0.59 kcal/mol
-----------------------------------------------------------------------
Total Enthalpy                    ...   -291.10449058 Eh

-------
ENTROPY
-------

The entropy contributions are T*S = T*(S(el)+S(vib)+S(rot)+S(trans)
     S(el)   - electronic entropy
     S(vib)  - vibrational entropy
     S(rot)  - rotational entropy
     S(trans)- translational entropy
The entropies will be listed as mutliplied by the temperature to get
units of energy

Electronic entropy                ...      0.00000000 Eh      0.00 kcal/mol
Vibrational entropy               ...      0.00934971 Eh      5.87 kcal/mol
Rotational entropy                ...      0.01205633 Eh      7.57 kcal/mol
Translational entropy             ...      0.01887386 Eh     11.84 kcal/mol
-----------------------------------------------------------------------
Final entropy term                ...      0.04027990 Eh     25.28 kcal/mol

CAUTION: The rotational entropy is not quite correctly treated here
         because it includes a symmetry number that is not yet correctly
         implemented in ORCA!
For a nonlinear molecule the correct rotational entropy is:
    S(rot) = R*(ln(qrot/sn)+1.5)
    R    = 8.31441 J/mol/K = 1.987191683e-3 kcal/mol/K
    qrot = 235084.0373794
    sn is the rotational symmetry number. We have assumed 3 here
       if it is different for your molecule then you should correct
       the printed rotational entropy by manually evaluating the equation
       as given above

For convenience we print out the resulting values for sn=1 - 12:
 sn= 1  qrot/sn=  235084.0374 T*S(rot)=     8.22 kcal/mol T*S(tot)=    25.93 kcal/mol
 sn= 2  qrot/sn=  117542.0187 T*S(rot)=     7.81 kcal/mol T*S(tot)=    25.52 kcal/mol
 sn= 3  qrot/sn=   78361.3458 T*S(rot)=     7.57 kcal/mol T*S(tot)=    25.28 kcal/mol
 sn= 4  qrot/sn=   58771.0093 T*S(rot)=     7.39 kcal/mol T*S(tot)=    25.11 kcal/mol
 sn= 5  qrot/sn=   47016.8075 T*S(rot)=     7.26 kcal/mol T*S(tot)=    24.97 kcal/mol
 sn= 6  qrot/sn=   39180.6729 T*S(rot)=     7.15 kcal/mol T*S(tot)=    24.87 kcal/mol
 sn= 7  qrot/sn=   33583.4339 T*S(rot)=     7.06 kcal/mol T*S(tot)=    24.77 kcal/mol
 sn= 8  qrot/sn=   29385.5047 T*S(rot)=     6.98 kcal/mol T*S(tot)=    24.69 kcal/mol
 sn= 9  qrot/sn=   26120.4486 T*S(rot)=     6.91 kcal/mol T*S(tot)=    24.63 kcal/mol
 sn=10  qrot/sn=   23508.4037 T*S(rot)=     6.85 kcal/mol T*S(tot)=    24.56 kcal/mol
 sn=11  qrot/sn=   21371.2761 T*S(rot)=     6.80 kcal/mol T*S(tot)=    24.51 kcal/mol
 sn=12  qrot/sn=   19590.3364 T*S(rot)=     6.74 kcal/mol T*S(tot)=    24.45 kcal/mol

-------------------
GIBBS FREE ENTHALPY
-------------------

The Gibbs free enthalpy is G = H - T*S

Total enthalpy                    ...   -291.10449058 Eh
Total entropy correction          ...     -0.04027990 Eh    -25.28 kcal/mol
-----------------------------------------------------------------------
Final Gibbs free enthalpy         ...   -291.14477047 Eh

For completeness - the Gibbs free enthalpy minus the electronic energy
G-E(el)                           ...      0.16815024 Eh    105.52 kcal/mol

                             ****ORCA TERMINATED NORMALLY****
TOTAL RUN TIME: 0 days 0 hours 50 minutes 44 seconds 631 msec
