                         Program Version 3.0.3 - RELEASE   -
|  1> ! NORI PBE0 def2-TZVP UseSym TightOPT Freq TightSCF Grid3 FinalGrid5 XYZFile
|  2> % pal
|  3>     nprocs 8
|  4> end
|  5> %method
|  6>     SymThresh 5.0e-2
|  7> end
|  8> % geom
|  9>     MaxIter 10
| 10> end
| 11> % maxcore 2000
| 12> % output
| 13>     printlevel mini
| 14>     print[ P_Basis ] 0
| 15>     print[ P_SCFInfo ] 1
| 16>     print[ P_SCFIterInfo ] 1
| 17>     print[ P_OrbEn ] 0
| 18>     print[ P_Cartesian ] 0
| 19> end
| 20> % elprop
| 21>     Dipole false
| 22> end
| 23> *xyz 1 1
| 24>  C        0.8430634088    -0.3447628610    -0.3553322612
| 25>  C        2.3139856968    -0.1134303556    -0.0434972898
| 26>  C        2.7697726585     1.2412874146    -0.5400696649
| 27>  N        4.2220885183     1.4739761411    -0.2352141675
| 28>  C        4.7434078987     2.7834250472    -0.6708047432
| 29>  C        4.6030631632     3.9416555002     0.2530733040
| 30>  C        5.9502051542     3.3324701041     0.0087138174
| 31>  H        0.5290975237    -1.3231133476     0.0077060237
| 32>  H        0.6551904525    -0.3132198373    -1.4307489941
| 33>  H        0.2110080855     0.4056579198     0.1239093989
| 34>  H        2.4770992749    -0.1828864052     1.0383812305
| 35>  H        2.9173794977    -0.9000542114    -0.5104869831
| 36>  H        2.6624464484     1.3367827828    -1.6223678165
| 37>  H        2.2232216597     2.0593557117    -0.0687559022
| 38>  H        4.3635146187     1.3756516337     0.7728755691
| 39>  H        4.7740234974     0.7270886717    -0.6646705658
| 40>  H        4.6103209903     2.9170957128    -1.7368174040
| 41>  H        4.1467599673     3.7760313640     1.2229845826
| 42>  H        4.3675532555     4.9009962257    -0.1878483625
| 43>  H        6.6658690931     3.8593127902    -0.6084584374
| 44>  H        6.3958291369     2.7595999984     0.8144886658
| 45> *
| 46>
| 47>                          ****END OF INPUT****
 Total Charge           Charge          ....    1
 Multiplicity           Mult            ....    1
 Number of Electrons    NEL             ....   56
FINAL SINGLE POINT ENERGY      -291.305503103215
FINAL SINGLE POINT ENERGY      -291.305504199659

CARTESIAN COORDINATES (ANGSTROEM)
---------------------------------
  C      2.953523    0.001542   -1.790464
  C      2.170888   -0.293475   -0.520089
  C      0.774157    0.283331   -0.593558
  N      0.000048    0.000201    0.661919
  C     -1.382998    0.513668    0.664876
  C     -2.455101   -0.341829    0.086600
  C     -2.378619   -0.126494    1.568275
  H      3.956184   -0.420082   -1.723207
  H      3.055472    1.076313   -1.954765
  H      2.468401   -0.432617   -2.667258
  H      2.114186   -1.377093   -0.365170
  H      2.698832    0.126738    0.343772
  H      0.786332    1.368439   -0.709823
  H      0.193286   -0.141681   -1.413598
  H     -0.017755   -1.011008    0.813326
  H      0.509729    0.388904    1.459661
  H     -1.397999    1.584809    0.510234
  H     -2.185382   -1.322214   -0.291227
  H     -3.231803    0.152942   -0.481015
  H     -3.099321    0.523440    2.046445
  H     -2.059121   -0.962171    2.181107

FINAL SINGLE POINT ENERGY      -291.305504720361
                    ***********************HURRAY********************
 Multiplicity           Mult            ....    1
 Number of Electrons    NEL             ....   56
 Basis Dimension        Dim             ....  301
FINAL SINGLE POINT ENERGY      -291.305504833640

VIBRATIONAL FREQUENCIES
-----------------------

   0:         0.00 cm**-1
   1:         0.00 cm**-1
   2:         0.00 cm**-1
   3:         0.00 cm**-1
   4:         0.00 cm**-1
   5:         0.00 cm**-1
   6:        65.74 cm**-1
   7:        74.81 cm**-1
   8:       126.54 cm**-1
   9:       140.90 cm**-1
  10:       238.22 cm**-1
  11:       288.91 cm**-1
  12:       312.79 cm**-1
  13:       418.19 cm**-1
  14:       461.04 cm**-1
  15:       756.25 cm**-1
  16:       757.68 cm**-1
  17:       802.26 cm**-1
  18:       838.41 cm**-1
  19:       850.74 cm**-1
  20:       916.86 cm**-1
  21:       924.17 cm**-1
  22:       963.07 cm**-1
  23:      1002.73 cm**-1
  24:      1012.11 cm**-1
  25:      1068.44 cm**-1
  26:      1075.27 cm**-1
  27:      1097.56 cm**-1
  28:      1104.81 cm**-1
  29:      1126.26 cm**-1
  30:      1164.52 cm**-1
  31:      1192.72 cm**-1
  32:      1217.75 cm**-1
  33:      1248.81 cm**-1
  34:      1264.35 cm**-1
  35:      1311.19 cm**-1
  36:      1332.58 cm**-1
  37:      1371.43 cm**-1
  38:      1392.14 cm**-1
  39:      1409.53 cm**-1
  40:      1427.88 cm**-1
  41:      1440.50 cm**-1
  42:      1463.89 cm**-1
  43:      1481.26 cm**-1
  44:      1492.19 cm**-1
  45:      1493.89 cm**-1
  46:      1506.63 cm**-1
  47:      1514.46 cm**-1
  48:      1646.40 cm**-1
  49:      3035.38 cm**-1
  50:      3063.68 cm**-1
  51:      3074.81 cm**-1
  52:      3094.20 cm**-1
  53:      3137.13 cm**-1
  54:      3153.24 cm**-1
  55:      3154.96 cm**-1
  56:      3155.39 cm**-1
  57:      3158.89 cm**-1
  58:      3211.63 cm**-1
  59:      3244.21 cm**-1
  60:      3255.34 cm**-1
  61:      3425.17 cm**-1
  62:      3476.11 cm**-1

IR SPECTRUM
-----------

 Mode    freq (cm**-1)   T**2         TX         TY         TZ
-------------------------------------------------------------------
   6:        65.74    2.172157  (  0.302665   1.061029   0.977123)
   7:        74.81    1.759843  (  0.109253   1.286195   0.305955)
   8:       126.54    1.918904  (  0.209899  -0.449770   1.293272)
   9:       140.90    1.881039  ( -0.140968  -1.332184  -0.294028)
  10:       238.22    0.031257  ( -0.011800   0.175265   0.020006)
  11:       288.91    1.199454  (  0.741057  -0.714546  -0.373781)
  12:       312.79    1.717626  (  0.638383   0.651360   0.941182)
  13:       418.19    4.550492  (  2.027749   0.587265   0.306345)
  14:       461.04    7.096276  (  1.709282  -0.135842  -2.038671)
  15:       756.25    6.255789  (  0.818572   2.208654   0.841176)
  16:       757.68    1.102751  (  0.673647   0.631822   0.499752)
  17:       802.26    9.983080  ( -1.781788  -2.434571  -0.938709)
  18:       838.41    8.859137  ( -0.793339   0.340849   2.848433)
  19:       850.74    7.826813  (  1.748619   0.771297  -2.043097)
  20:       916.86    1.534620  ( -1.061571  -0.638495   0.003165)
  21:       924.17    4.229978  (  0.542393   1.960046  -0.306607)
  22:       963.07   14.531184  (  3.515263   1.436257  -0.333578)
  23:      1002.73    2.888753  ( -1.525024   0.298031  -0.688646)
  24:      1012.11    4.373561  (  0.479549  -0.654283  -1.927565)
  25:      1068.44    9.379057  ( -2.443402  -0.355346   1.811787)
  26:      1075.27   15.493094  ( -3.107185  -2.386032   0.381247)
  27:      1097.56    7.174648  (  2.451424  -0.126967   1.071937)
  28:      1104.81   10.511872  (  2.372774  -0.665159  -2.106983)
  29:      1126.26    4.085387  (  1.455410  -0.551391  -1.289627)
  30:      1164.52    1.450295  ( -0.829335   0.248116   0.837220)
  31:      1192.72    0.947707  ( -0.094882   0.246810   0.936904)
  32:      1217.75    1.756471  ( -0.958045   0.782756   0.475305)
  33:      1248.81    2.307771  (  0.571217   1.386383  -0.243771)
  34:      1264.35    2.928938  ( -1.140018   0.395256   1.213700)
  35:      1311.19   10.096095  ( -2.336107   0.585966   2.072521)
  36:      1332.58    2.762784  (  0.143361   1.383821   0.909545)
  37:      1371.43    3.877434  ( -0.708194   1.539284   1.003244)
  38:      1392.14   15.006725  ( -3.281608   0.258359   2.042309)
  39:      1409.53   17.724660  ( -3.620557   0.680852   2.037809)
  40:      1427.88   27.172275  (  3.474688  -0.011419  -3.885703)
  41:      1440.50   25.960058  ( -4.543777   0.365154   2.276140)
  42:      1463.89    9.268614  (  1.399312   0.247860   2.692416)
  43:      1481.26    6.400482  (  2.354158  -0.328440  -0.866342)
  44:      1492.19    0.114267  ( -0.128526  -0.302483  -0.079070)
  45:      1493.89   13.381988  ( -1.236030  -3.108204  -1.480974)
  46:      1506.63   16.049572  (  3.175976  -1.228343   2.110432)
  47:      1514.46    9.184383  ( -1.308401  -2.527473   1.041323)
  48:      1646.40   44.396419  ( -2.944688   4.093072  -4.355685)
  49:      3035.38   14.153620  ( -0.350661  -1.516758   3.424924)
  50:      3063.68    9.465371  ( -0.699877  -1.092078   2.789786)
  51:      3074.81    5.869756  (  0.869123   2.038838   0.978530)
  52:      3094.20    3.121554  ( -1.052394   1.061584  -0.941839)
  53:      3137.13   10.764190  ( -1.117835  -2.789779  -1.315967)
  54:      3153.24    3.565584  ( -0.511211  -1.654954  -0.751913)
  55:      3154.96    0.782841  (  0.714270  -0.461687  -0.243935)
  56:      3155.39    4.381868  ( -1.603271   1.011086  -0.888310)
  57:      3158.89    3.968083  (  1.909607  -0.562822  -0.068676)
  58:      3211.63    0.489046  (  0.456442  -0.520636   0.098209)
  59:      3244.21    0.173561  (  0.040816  -0.015492  -0.414313)
  60:      3255.34    1.018374  (  0.615860  -0.794161   0.091645)
  61:      3425.17   30.710678  ( -2.233667   1.318160  -4.897332)
  62:      3476.11   50.807594  ( -1.824606  -6.370052  -2.626946)

--------------------------
THERMOCHEMISTRY AT 298.15K
--------------------------

Temperature         ... 298.15 K
Pressure            ... 1.00 atm
Total Mass          ... 100.18 AMU

Throughout the following assumptions are being made:
  (1) The electronic state is orbitally nondegenerate
  (2) There are no thermally accessible electronically excited states
  (3) Hindered rotations indicated by low frequency modes) are not
      treated as such but are treated as vibrations and this may
      case some error
  (4) All equations used are the standard statistical mechanics
      equations for an ideal gas
  (5) All vibrations are strinctly harmonic

------------
INNER ENERGY
------------

The inner energy is: U= E(el) + E(ZPE) + E(vib) + E(rot) + E(trans)
    E(el)   - is the total energy from the electronic structure calculation
              = E(kin-el) + E(nuc-el) + E(el-el) + E(nuc-nuc)
    E(ZPE)  - the the zero temperature vibrational energy from the frequency calculation
    E(vib)  - the the finite temperature correction to E(ZPE) due to population
              of excietd vibrational states
    E(rot)  - is the rotational thermal energy
    E(trans)- is the translational thermal energy

Summary of contributions to the inner energy U:
Electronic energy                ...   -291.30550483 Eh
Zero point energy                ...      0.19919392 Eh     125.00 kcal/mol
Thermal vibrational correction   ...      0.00572427 Eh       3.59 kcal/mol
Thermal rotational correction    ...      0.00141627 Eh       0.89 kcal/mol
Thermal translational correction ...      0.00141627 Eh       0.89 kcal/mol
-----------------------------------------------------------------------
Total thermal energy                   -291.09775410 Eh

Summary of corrections to the electronic energy:
(perhaps to be used in another calculation)
Total thermal correction                  0.00855681 Eh       5.37 kcal/mol
Non-thermal (ZPE) correction              0.19919392 Eh     125.00 kcal/mol
-----------------------------------------------------------------------
Total correction                          0.20775073 Eh     130.37 kcal/mol

--------
ENTHALPY
--------

The enthalpy is H = U + kB*T
                kB is Boltzmann's constant
Total free energy                 ...   -291.09775410 Eh
Thermal Enthalpy correction       ...      0.00094421 Eh       0.59 kcal/mol
-----------------------------------------------------------------------
Total Enthalpy                    ...   -291.09680990 Eh

-------
ENTROPY
-------

The entropy contributions are T*S = T*(S(el)+S(vib)+S(rot)+S(trans)
     S(el)   - electronic entropy
     S(vib)  - vibrational entropy
     S(rot)  - rotational entropy
     S(trans)- translational entropy
The entropies will be listed as mutliplied by the temperature to get
units of energy

Electronic entropy                ...      0.00000000 Eh      0.00 kcal/mol
Vibrational entropy               ...      0.01079383 Eh      6.77 kcal/mol
Rotational entropy                ...      0.01227427 Eh      7.70 kcal/mol
Translational entropy             ...      0.01887386 Eh     11.84 kcal/mol
-----------------------------------------------------------------------
Final entropy term                ...      0.04194196 Eh     26.32 kcal/mol

CAUTION: The rotational entropy is not quite correctly treated here
         because it includes a symmetry number that is not yet correctly
         implemented in ORCA!
For a nonlinear molecule the correct rotational entropy is:
    S(rot) = R*(ln(qrot/sn)+1.5)
    R    = 8.31441 J/mol/K = 1.987191683e-3 kcal/mol/K
    qrot = 296120.7294277
    sn is the rotational symmetry number. We have assumed 3 here
       if it is different for your molecule then you should correct
       the printed rotational entropy by manually evaluating the equation
       as given above

For convenience we print out the resulting values for sn=1 - 12:
 sn= 1  qrot/sn=  296120.7294 T*S(rot)=     8.35 kcal/mol T*S(tot)=    26.97 kcal/mol
 sn= 2  qrot/sn=  148060.3647 T*S(rot)=     7.94 kcal/mol T*S(tot)=    26.56 kcal/mol
 sn= 3  qrot/sn=   98706.9098 T*S(rot)=     7.70 kcal/mol T*S(tot)=    26.32 kcal/mol
 sn= 4  qrot/sn=   74030.1824 T*S(rot)=     7.53 kcal/mol T*S(tot)=    26.15 kcal/mol
 sn= 5  qrot/sn=   59224.1459 T*S(rot)=     7.40 kcal/mol T*S(tot)=    26.02 kcal/mol
 sn= 6  qrot/sn=   49353.4549 T*S(rot)=     7.29 kcal/mol T*S(tot)=    25.91 kcal/mol
 sn= 7  qrot/sn=   42302.9613 T*S(rot)=     7.20 kcal/mol T*S(tot)=    25.82 kcal/mol
 sn= 8  qrot/sn=   37015.0912 T*S(rot)=     7.12 kcal/mol T*S(tot)=    25.74 kcal/mol
 sn= 9  qrot/sn=   32902.3033 T*S(rot)=     7.05 kcal/mol T*S(tot)=    25.67 kcal/mol
 sn=10  qrot/sn=   29612.0729 T*S(rot)=     6.99 kcal/mol T*S(tot)=    25.61 kcal/mol
 sn=11  qrot/sn=   26920.0663 T*S(rot)=     6.93 kcal/mol T*S(tot)=    25.55 kcal/mol
 sn=12  qrot/sn=   24676.7275 T*S(rot)=     6.88 kcal/mol T*S(tot)=    25.50 kcal/mol

-------------------
GIBBS FREE ENTHALPY
-------------------

The Gibbs free enthalpy is G = H - T*S

Total enthalpy                    ...   -291.09680990 Eh
Total entropy correction          ...     -0.04194196 Eh    -26.32 kcal/mol
-----------------------------------------------------------------------
Final Gibbs free enthalpy         ...   -291.13875185 Eh

For completeness - the Gibbs free enthalpy minus the electronic energy
G-E(el)                           ...      0.16675298 Eh    104.64 kcal/mol

                             ****ORCA TERMINATED NORMALLY****
TOTAL RUN TIME: 0 days 0 hours 41 minutes 29 seconds 879 msec
