                         Program Version 3.0.3 - RELEASE   -
|  1> ! NORI PBE0 def2-TZVP UseSym TightOPT Freq TightSCF Grid3 FinalGrid5 XYZFile
|  2> % pal
|  3>     nprocs 8
|  4> end
|  5> %method
|  6>     SymThresh 5.0e-2
|  7> end
|  8> % geom
|  9>     MaxIter 10
| 10> end
| 11> % maxcore 2000
| 12> % output
| 13>     printlevel mini
| 14>     print[ P_Basis ] 0
| 15>     print[ P_SCFInfo ] 1
| 16>     print[ P_SCFIterInfo ] 1
| 17>     print[ P_OrbEn ] 0
| 18>     print[ P_Cartesian ] 0
| 19> end
| 20> % elprop
| 21>     Dipole false
| 22> end
| 23> *xyz 1 1
| 24>  C        2.4225081433    -1.3369042620    -0.0705339275
| 25>  C        2.2596349983    -0.0387832681    -0.2836234259
| 26>  C        2.9014204049     0.6810675127    -1.4175613986
| 27>  N        3.9591561717     1.6342635332    -0.9104524101
| 28>  C        4.6325753421     2.4206557427    -1.9593406927
| 29>  C        4.0030662939     3.6957108818    -2.4010792039
| 30>  C        5.2610170963     3.7181812218    -1.5862244577
| 31>  H        1.9277956214    -1.8374394472     0.7528996863
| 32>  H        3.0371790725    -1.9530971149    -0.7199277787
| 33>  H        1.6117788776     0.5449504240     0.3666803027
| 34>  H        3.4051324474    -0.0022554594    -2.1021876352
| 35>  H        2.1987207653     1.2939910465    -1.9851593675
| 36>  H        3.5292523751     2.2708002163    -0.2351461045
| 37>  H        4.6478314758     1.0947224348    -0.3788375064
| 38>  H        5.1117546946     1.7720402974    -2.6814870011
| 39>  H        3.0866886134     4.0139674369    -1.9160933980
| 40>  H        4.0512325654     3.9325391244    -3.4553931634
| 41>  H        5.1873566335     4.0518038777    -0.5572485455
| 42>  H        6.1977784075     3.9677058015    -2.0663139721
| 43> *
| 44>
| 45>                          ****END OF INPUT****
 Total Charge           Charge          ....    1
 Multiplicity           Mult            ....    1
 Number of Electrons    NEL             ....   54
FINAL SINGLE POINT ENERGY      -290.069598467490

CARTESIAN COORDINATES (ANGSTROEM)
---------------------------------
  C      3.289222    0.000551   -0.582758
  C      2.133685   -0.648622   -0.597735
  C      0.827024    0.032265   -0.810096
  N     -0.000313   -0.000848    0.454719
  C     -1.330405    0.623731    0.337074
  C     -2.459676   -0.207126   -0.164139
  C     -2.403909    0.198891    1.277746
  H      4.226763   -0.524195   -0.444904
  H      3.346336    1.074942   -0.728782
  H      2.112439   -1.729888   -0.480679
  H      0.952096    1.083954   -1.069055
  H      0.215622   -0.448565   -1.576001
  H     -0.109504   -0.974192    0.748766
  H      0.535888    0.452071    1.199783
  H     -1.245864    1.661726    0.041592
  H     -2.269620   -1.249030   -0.398328
  H     -3.172962    0.271616   -0.821580
  H     -2.177594   -0.570253    2.008015
  H     -3.075531    0.966961    1.637453

FINAL SINGLE POINT ENERGY      -290.069599344169
                    ***********************HURRAY********************
 Multiplicity           Mult            ....    1
 Number of Electrons    NEL             ....   54
 Basis Dimension        Dim             ....  289
FINAL SINGLE POINT ENERGY      -290.069599769927

VIBRATIONAL FREQUENCIES
-----------------------

   0:         0.00 cm**-1
   1:         0.00 cm**-1
   2:         0.00 cm**-1
   3:         0.00 cm**-1
   4:         0.00 cm**-1
   5:         0.00 cm**-1
   6:        64.81 cm**-1
   7:        70.02 cm**-1
   8:       119.83 cm**-1
   9:       170.60 cm**-1
  10:       308.96 cm**-1
  11:       359.75 cm**-1
  12:       418.78 cm**-1
  13:       455.18 cm**-1
  14:       651.52 cm**-1
  15:       760.09 cm**-1
  16:       797.23 cm**-1
  17:       839.20 cm**-1
  18:       856.66 cm**-1
  19:       933.70 cm**-1
  20:       950.18 cm**-1
  21:       965.66 cm**-1
  22:       993.85 cm**-1
  23:      1020.23 cm**-1
  24:      1030.80 cm**-1
  25:      1054.33 cm**-1
  26:      1075.32 cm**-1
  27:      1100.23 cm**-1
  28:      1111.50 cm**-1
  29:      1130.31 cm**-1
  30:      1192.69 cm**-1
  31:      1210.92 cm**-1
  32:      1249.32 cm**-1
  33:      1263.17 cm**-1
  34:      1320.62 cm**-1
  35:      1340.68 cm**-1
  36:      1372.83 cm**-1
  37:      1408.04 cm**-1
  38:      1439.06 cm**-1
  39:      1459.30 cm**-1
  40:      1464.08 cm**-1
  41:      1490.30 cm**-1
  42:      1513.50 cm**-1
  43:      1644.73 cm**-1
  44:      1724.20 cm**-1
  45:      3094.78 cm**-1
  46:      3151.81 cm**-1
  47:      3154.85 cm**-1
  48:      3158.47 cm**-1
  49:      3160.72 cm**-1
  50:      3168.91 cm**-1
  51:      3210.04 cm**-1
  52:      3244.21 cm**-1
  53:      3255.26 cm**-1
  54:      3257.07 cm**-1
  55:      3424.33 cm**-1
  56:      3477.12 cm**-1

IR SPECTRUM
-----------

 Mode    freq (cm**-1)   T**2         TX         TY         TZ
-------------------------------------------------------------------
   6:        64.81    1.591663  ( -0.277278  -1.205918   0.246053)
   7:        70.02    2.391765  (  0.069827  -1.292429  -0.846472)
   8:       119.83    2.913275  (  0.762745   1.484336   0.358109)
   9:       170.60    1.906330  ( -0.369594   0.394566  -1.270452)
  10:       308.96    1.694506  ( -0.642732  -0.919879  -0.659715)
  11:       359.75    3.195583  (  1.677224  -0.521890  -0.331862)
  12:       418.78    3.721073  (  1.504550   0.554982   1.072099)
  13:       455.18    3.709378  (  1.575989  -0.182935  -1.091865)
  14:       651.52   19.630627  ( -1.451102   0.621620   4.139869)
  15:       760.09    0.746699  ( -0.170542  -0.324752   0.782400)
  16:       797.23   16.094174  ( -2.228614  -3.195927  -0.955773)
  17:       839.20   15.737145  (  1.656650  -0.528073  -3.565641)
  18:       856.66    3.623790  ( -1.685813  -0.372021   0.802137)
  19:       933.70    8.148019  ( -2.310265  -0.887306   1.422457)
  20:       950.18    8.495941  (  2.756180   0.526655  -0.788700)
  21:       965.66   16.099445  ( -3.740994  -0.261005   1.426983)
  22:       993.85    7.138229  (  1.331641  -1.512634  -1.754110)
  23:      1020.23   50.008927  ( -1.330912   1.082131   6.860510)
  24:      1030.80    6.173183  (  0.881821   0.269558   2.307144)
  25:      1054.33   15.663221  ( -1.557921   0.392449   3.616917)
  26:      1075.32   16.472546  ( -3.476805  -1.968471   0.713788)
  27:      1100.23    5.555532  ( -1.033500  -0.672604  -2.008735)
  28:      1111.50    4.277770  (  2.037327  -0.200621  -0.294654)
  29:      1130.31    2.731556  (  1.452081  -0.590777  -0.523450)
  30:      1192.69    0.847830  (  0.167138  -0.362561  -0.829725)
  31:      1210.92    3.060933  (  1.567287  -0.737027   0.247657)
  32:      1249.32    3.024695  (  0.965242   1.415434  -0.299247)
  33:      1263.17    3.058515  (  0.787024  -1.029172  -1.174696)
  34:      1320.62    6.325722  (  0.003653  -2.247784  -1.128350)
  35:      1340.68   13.883009  ( -3.034144   0.433772   2.118683)
  36:      1372.83    4.569281  (  1.914564   0.794253  -0.522386)
  37:      1408.04   59.103957  (  6.858255  -1.646409  -3.059024)
  38:      1439.06   29.004846  ( -5.166446   0.623667   1.386983)
  39:      1459.30   17.094611  (  3.834094   1.539219   0.158542)
  40:      1464.08   11.169256  ( -1.515809  -0.650190  -2.906688)
  41:      1490.30   10.150122  ( -0.569791   2.160001  -2.271532)
  42:      1513.50    7.230979  ( -2.027754  -1.679614   0.545978)
  43:      1644.73   44.879421  (  2.788013  -3.499487   4.985980)
  44:      1724.20    1.223500  (  0.767576  -0.422404  -0.675205)
  45:      3094.78    1.970419  (  1.243261  -0.593512   0.269193)
  46:      3151.81    0.051314  (  0.026136  -0.212314   0.074525)
  47:      3154.85    0.336898  (  0.524027  -0.186490  -0.165875)
  48:      3158.47    4.556284  ( -1.973846   0.809959  -0.064664)
  49:      3160.72    1.469953  ( -0.629826   1.014319  -0.210781)
  50:      3168.91    0.496918  ( -0.151949  -0.661681   0.189759)
  51:      3210.04    0.464148  ( -0.390772   0.535254  -0.157949)
  52:      3244.21    0.165530  ( -0.101562   0.077816   0.386211)
  53:      3255.26    1.071520  (  0.549496  -0.846828   0.229033)
  54:      3257.07    0.225459  (  0.446441   0.158950  -0.029730)
  55:      3424.33   32.397848  ( -2.006586   0.844676  -5.259086)
  56:      3477.12   53.548406  ( -2.578507  -6.669742  -1.553788)

--------------------------
THERMOCHEMISTRY AT 298.15K
--------------------------

Temperature         ... 298.15 K
Pressure            ... 1.00 atm
Total Mass          ... 98.17 AMU

Throughout the following assumptions are being made:
  (1) The electronic state is orbitally nondegenerate
  (2) There are no thermally accessible electronically excited states
  (3) Hindered rotations indicated by low frequency modes) are not
      treated as such but are treated as vibrations and this may
      case some error
  (4) All equations used are the standard statistical mechanics
      equations for an ideal gas
  (5) All vibrations are strinctly harmonic

------------
INNER ENERGY
------------

The inner energy is: U= E(el) + E(ZPE) + E(vib) + E(rot) + E(trans)
    E(el)   - is the total energy from the electronic structure calculation
              = E(kin-el) + E(nuc-el) + E(el-el) + E(nuc-nuc)
    E(ZPE)  - the the zero temperature vibrational energy from the frequency calculation
    E(vib)  - the the finite temperature correction to E(ZPE) due to population
              of excietd vibrational states
    E(rot)  - is the rotational thermal energy
    E(trans)- is the translational thermal energy

Summary of contributions to the inner energy U:
Electronic energy                ...   -290.06959977 Eh
Zero point energy                ...      0.17562328 Eh     110.21 kcal/mol
Thermal vibrational correction   ...      0.00514383 Eh       3.23 kcal/mol
Thermal rotational correction    ...      0.00141627 Eh       0.89 kcal/mol
Thermal translational correction ...      0.00141627 Eh       0.89 kcal/mol
-----------------------------------------------------------------------
Total thermal energy                   -289.88600012 Eh

Summary of corrections to the electronic energy:
(perhaps to be used in another calculation)
Total thermal correction                  0.00797637 Eh       5.01 kcal/mol
Non-thermal (ZPE) correction              0.17562328 Eh     110.21 kcal/mol
-----------------------------------------------------------------------
Total correction                          0.18359965 Eh     115.21 kcal/mol

--------
ENTHALPY
--------

The enthalpy is H = U + kB*T
                kB is Boltzmann's constant
Total free energy                 ...   -289.88600012 Eh
Thermal Enthalpy correction       ...      0.00094421 Eh       0.59 kcal/mol
-----------------------------------------------------------------------
Total Enthalpy                    ...   -289.88505591 Eh

-------
ENTROPY
-------

The entropy contributions are T*S = T*(S(el)+S(vib)+S(rot)+S(trans)
     S(el)   - electronic entropy
     S(vib)  - vibrational entropy
     S(rot)  - rotational entropy
     S(trans)- translational entropy
The entropies will be listed as mutliplied by the temperature to get
units of energy

Electronic entropy                ...      0.00000000 Eh      0.00 kcal/mol
Vibrational entropy               ...      0.00976966 Eh      6.13 kcal/mol
Rotational entropy                ...      0.01215995 Eh      7.63 kcal/mol
Translational entropy             ...      0.01884507 Eh     11.83 kcal/mol
-----------------------------------------------------------------------
Final entropy term                ...      0.04077467 Eh     25.59 kcal/mol

CAUTION: The rotational entropy is not quite correctly treated here
         because it includes a symmetry number that is not yet correctly
         implemented in ORCA!
For a nonlinear molecule the correct rotational entropy is:
    S(rot) = R*(ln(qrot/sn)+1.5)
    R    = 8.31441 J/mol/K = 1.987191683e-3 kcal/mol/K
    qrot = 262352.1305343
    sn is the rotational symmetry number. We have assumed 3 here
       if it is different for your molecule then you should correct
       the printed rotational entropy by manually evaluating the equation
       as given above

For convenience we print out the resulting values for sn=1 - 12:
 sn= 1  qrot/sn=  262352.1305 T*S(rot)=     8.28 kcal/mol T*S(tot)=    26.24 kcal/mol
 sn= 2  qrot/sn=  131176.0653 T*S(rot)=     7.87 kcal/mol T*S(tot)=    25.83 kcal/mol
 sn= 3  qrot/sn=   87450.7102 T*S(rot)=     7.63 kcal/mol T*S(tot)=    25.59 kcal/mol
 sn= 4  qrot/sn=   65588.0326 T*S(rot)=     7.46 kcal/mol T*S(tot)=    25.42 kcal/mol
 sn= 5  qrot/sn=   52470.4261 T*S(rot)=     7.33 kcal/mol T*S(tot)=    25.28 kcal/mol
 sn= 6  qrot/sn=   43725.3551 T*S(rot)=     7.22 kcal/mol T*S(tot)=    25.18 kcal/mol
 sn= 7  qrot/sn=   37478.8758 T*S(rot)=     7.13 kcal/mol T*S(tot)=    25.08 kcal/mol
 sn= 8  qrot/sn=   32794.0163 T*S(rot)=     7.05 kcal/mol T*S(tot)=    25.01 kcal/mol
 sn= 9  qrot/sn=   29150.2367 T*S(rot)=     6.98 kcal/mol T*S(tot)=    24.94 kcal/mol
 sn=10  qrot/sn=   26235.2131 T*S(rot)=     6.92 kcal/mol T*S(tot)=    24.87 kcal/mol
 sn=11  qrot/sn=   23850.1937 T*S(rot)=     6.86 kcal/mol T*S(tot)=    24.82 kcal/mol
 sn=12  qrot/sn=   21862.6775 T*S(rot)=     6.81 kcal/mol T*S(tot)=    24.77 kcal/mol

-------------------
GIBBS FREE ENTHALPY
-------------------

The Gibbs free enthalpy is G = H - T*S

Total enthalpy                    ...   -289.88505591 Eh
Total entropy correction          ...     -0.04077467 Eh    -25.59 kcal/mol
-----------------------------------------------------------------------
Final Gibbs free enthalpy         ...   -289.92583058 Eh

For completeness - the Gibbs free enthalpy minus the electronic energy
G-E(el)                           ...      0.14376919 Eh     90.22 kcal/mol

                             ****ORCA TERMINATED NORMALLY****
TOTAL RUN TIME: 0 days 0 hours 36 minutes 43 seconds 625 msec
