                         Program Version 3.0.3 - RELEASE   -
|  1> ! NORI PBE0 def2-TZVP UseSym TightOPT Freq TightSCF Grid3 FinalGrid5 XYZFile
|  2> % pal
|  3>     nprocs 8
|  4> end
|  5> %method
|  6>     SymThresh 5.0e-2
|  7> end
|  8> % geom
|  9>     MaxIter 10
| 10> end
| 11> % maxcore 2000
| 12> % output
| 13>     printlevel mini
| 14>     print[ P_Basis ] 0
| 15>     print[ P_SCFInfo ] 1
| 16>     print[ P_SCFIterInfo ] 1
| 17>     print[ P_OrbEn ] 0
| 18>     print[ P_Cartesian ] 0
| 19> end
| 20> % elprop
| 21>     Dipole false
| 22> end
| 23> *xyz 1 1
| 24>  C        1.0028554358    -0.0343821586     0.1816309595
| 25>  C        2.1856449459     0.1179532327     0.0681495743
| 26>  C        3.6138925342     0.2733818281    -0.0720693894
| 27>  N        4.2680175261    -1.0784773390    -0.2121262104
| 28>  C        5.7364608100    -1.0332490110    -0.3389426883
| 29>  C        6.5496761182    -0.9648947819     0.9074570164
| 30>  C        6.5220781573    -2.2223049253     0.0928788006
| 31>  H       -0.0533752334    -0.1537407340     0.2858135644
| 32>  H        3.8788316001     0.8499028684    -0.9614615688
| 33>  H        4.0679675006     0.7531503795     0.7974175343
| 34>  H        4.0075401500    -1.6432948756     0.6003027547
| 35>  H        3.8580047953    -1.5547593007    -1.0205617943
| 36>  H        6.0334491863    -0.4744172432    -1.2173627729
| 37>  H        6.0340020729    -0.9766954157     1.8618039109
| 38>  H        7.4329813888    -0.3406396844     0.8876561829
| 39>  H        7.3840347174    -2.4838124057    -0.5061356556
| 40>  H        5.9908682944    -3.0746404337     0.5018997815
| 41> *
| 42>
| 43>                          ****END OF INPUT****
 Total Charge           Charge          ....    1
 Multiplicity           Mult            ....    1
 Number of Electrons    NEL             ....   52
FINAL SINGLE POINT ENERGY      -288.810752182427
FINAL SINGLE POINT ENERGY      -288.810753582229
FINAL SINGLE POINT ENERGY      -288.810755146616

CARTESIAN COORDINATES (ANGSTROEM)
---------------------------------
  C      3.402309    0.003045   -0.130663
  C      2.264411    0.319885   -0.330445
  C      0.885960    0.687556   -0.550059
  N     -0.000201   -0.005191    0.455646
  C     -1.437216    0.289804    0.303454
  C     -2.225342   -0.523022   -0.663926
  C     -2.422454   -0.705646    0.810457
  H      4.421252   -0.270879    0.034253
  H      0.723164    1.760906   -0.430146
  H      0.529114    0.393701   -1.539133
  H      0.157455   -1.013180    0.378283
  H      0.315776    0.250806    1.395340
  H     -1.629392    1.349749    0.411997
  H     -1.720783   -1.318090   -1.202231
  H     -2.982539   -0.007984   -1.239883
  H     -3.316535   -0.315116    1.278027
  H     -2.050401   -1.620869    1.257638

FINAL SINGLE POINT ENERGY      -288.810755621207
                    ***********************HURRAY********************
 Multiplicity           Mult            ....    1
 Number of Electrons    NEL             ....   52
 Basis Dimension        Dim             ....  277
FINAL SINGLE POINT ENERGY      -288.810755990151

VIBRATIONAL FREQUENCIES
-----------------------

   0:         0.00 cm**-1
   1:         0.00 cm**-1
   2:         0.00 cm**-1
   3:         0.00 cm**-1
   4:         0.00 cm**-1
   5:         0.00 cm**-1
   6:        63.40 cm**-1
   7:       100.71 cm**-1
   8:       119.80 cm**-1
   9:       237.64 cm**-1
  10:       321.36 cm**-1
  11:       353.29 cm**-1
  12:       424.18 cm**-1
  13:       510.40 cm**-1
  14:       728.54 cm**-1
  15:       759.17 cm**-1
  16:       776.13 cm**-1
  17:       802.36 cm**-1
  18:       839.36 cm**-1
  19:       855.26 cm**-1
  20:       947.26 cm**-1
  21:       963.90 cm**-1
  22:      1003.10 cm**-1
  23:      1005.78 cm**-1
  24:      1068.11 cm**-1
  25:      1076.38 cm**-1
  26:      1105.28 cm**-1
  27:      1127.48 cm**-1
  28:      1160.88 cm**-1
  29:      1193.22 cm**-1
  30:      1245.92 cm**-1
  31:      1257.56 cm**-1
  32:      1333.66 cm**-1
  33:      1372.77 cm**-1
  34:      1417.13 cm**-1
  35:      1438.69 cm**-1
  36:      1463.98 cm**-1
  37:      1478.55 cm**-1
  38:      1512.42 cm**-1
  39:      1645.16 cm**-1
  40:      2258.51 cm**-1
  41:      3087.64 cm**-1
  42:      3138.55 cm**-1
  43:      3155.45 cm**-1
  44:      3159.38 cm**-1
  45:      3209.08 cm**-1
  46:      3245.02 cm**-1
  47:      3256.03 cm**-1
  48:      3422.54 cm**-1
  49:      3453.65 cm**-1
  50:      3472.74 cm**-1

IR SPECTRUM
-----------

 Mode    freq (cm**-1)   T**2         TX         TY         TZ
-------------------------------------------------------------------
   6:        63.40    2.350271  ( -0.215378   1.312264   0.762788)
   7:       100.71    3.677090  ( -0.182887   1.168128   1.509675)
   8:       119.80    0.259321  ( -0.155299  -0.383782   0.296504)
   9:       237.64    4.019204  ( -0.499498   1.603944  -1.094106)
  10:       321.36    9.542750  ( -0.293322   2.795151   1.282124)
  11:       353.29   11.767895  (  1.193666   1.742897   2.702844)
  12:       424.18    5.817618  ( -0.502373   0.183327   2.351942)
  13:       510.40   31.306058  ( -3.837037  -2.714225   3.035817)
  14:       728.54   41.004353  (  0.692432   4.934092   4.022391)
  15:       759.17    0.894192  (  0.217793   0.824944  -0.407707)
  16:       776.13   28.844727  (  0.857042   3.106564  -4.296448)
  17:       802.36   13.928464  (  0.901403   2.795298   2.302661)
  18:       839.36   13.390794  ( -1.884860  -1.073470   2.947161)
  19:       855.26    3.329198  (  1.245793   1.039656  -0.834454)
  20:       947.26   16.189341  (  3.344061   2.237542   0.001693)
  21:       963.90   10.317148  (  2.314135   2.200824  -0.343948)
  22:      1003.10    9.364189  (  2.557188   0.193884  -1.669546)
  23:      1005.78    6.406035  (  2.530502  -0.020614  -0.046604)
  24:      1068.11    6.768734  ( -0.153125   0.313297  -2.578203)
  25:      1076.38   17.258924  ( -2.840754  -2.842269  -1.053824)
  26:      1105.28    4.410840  (  0.863703   0.371929  -1.877904)
  27:      1127.48    0.869063  ( -0.707027  -0.078099   0.602558)
  28:      1160.88    5.052004  (  2.174831  -0.565051   0.053212)
  29:      1193.22    0.790180  (  0.139037   0.093523  -0.872985)
  30:      1245.92    3.375873  ( -0.053410   1.734644   0.603351)
  31:      1257.56    4.745911  ( -1.904446   0.081190   1.054707)
  32:      1333.66    8.829486  (  1.455322   0.210881  -2.582063)
  33:      1372.77    3.563107  ( -0.796304  -1.680763   0.322559)
  34:      1417.13   83.364276  ( -8.941606   0.330856   1.817277)
  35:      1438.69   26.317101  ( -5.048577  -0.259502   0.872712)
  36:      1463.98   11.400877  ( -1.110873   0.495822  -3.149762)
  37:      1478.55    9.701320  (  1.146884  -1.653773   2.377186)
  38:      1512.42    7.481686  (  1.316376   2.351586   0.467847)
  39:      1645.16   45.637096  (  3.058885  -4.615639   3.869909)
  40:      2258.51   31.111827  ( -5.530201   0.722159  -0.084816)
  41:      3087.64    2.001310  (  1.339428   0.268121  -0.367906)
  42:      3138.55    1.645967  ( -0.386134  -0.920905  -0.805483)
  43:      3155.45    0.679726  (  0.819598  -0.020996   0.086851)
  44:      3159.38    4.444906  (  2.098704  -0.164994   0.114556)
  45:      3209.08    0.734182  ( -0.656369   0.550782   0.001189)
  46:      3245.02    0.191240  ( -0.138315  -0.121456   0.396683)
  47:      3256.03    1.682371  ( -0.953563   0.879253   0.001771)
  48:      3422.54   37.634487  ( -1.548372   2.318693  -5.464494)
  49:      3453.65  100.325880  (  9.647218  -2.261263   1.464157)
  50:      3472.74   65.095777  ( -0.300348  -6.556413  -4.692443)

--------------------------
THERMOCHEMISTRY AT 298.15K
--------------------------

Temperature         ... 298.15 K
Pressure            ... 1.00 atm
Total Mass          ... 96.15 AMU

Throughout the following assumptions are being made:
  (1) The electronic state is orbitally nondegenerate
  (2) There are no thermally accessible electronically excited states
  (3) Hindered rotations indicated by low frequency modes) are not
      treated as such but are treated as vibrations and this may
      case some error
  (4) All equations used are the standard statistical mechanics
      equations for an ideal gas
  (5) All vibrations are strinctly harmonic

------------
INNER ENERGY
------------

The inner energy is: U= E(el) + E(ZPE) + E(vib) + E(rot) + E(trans)
    E(el)   - is the total energy from the electronic structure calculation
              = E(kin-el) + E(nuc-el) + E(el-el) + E(nuc-nuc)
    E(ZPE)  - the the zero temperature vibrational energy from the frequency calculation
    E(vib)  - the the finite temperature correction to E(ZPE) due to population
              of excietd vibrational states
    E(rot)  - is the rotational thermal energy
    E(trans)- is the translational thermal energy

Summary of contributions to the inner energy U:
Electronic energy                ...   -288.81075599 Eh
Zero point energy                ...      0.15165180 Eh      95.16 kcal/mol
Thermal vibrational correction   ...      0.00486098 Eh       3.05 kcal/mol
Thermal rotational correction    ...      0.00141627 Eh       0.89 kcal/mol
Thermal translational correction ...      0.00141627 Eh       0.89 kcal/mol
-----------------------------------------------------------------------
Total thermal energy                   -288.65141066 Eh

Summary of corrections to the electronic energy:
(perhaps to be used in another calculation)
Total thermal correction                  0.00769352 Eh       4.83 kcal/mol
Non-thermal (ZPE) correction              0.15165180 Eh      95.16 kcal/mol
-----------------------------------------------------------------------
Total correction                          0.15934533 Eh      99.99 kcal/mol

--------
ENTHALPY
--------

The enthalpy is H = U + kB*T
                kB is Boltzmann's constant
Total free energy                 ...   -288.65141066 Eh
Thermal Enthalpy correction       ...      0.00094421 Eh       0.59 kcal/mol
-----------------------------------------------------------------------
Total Enthalpy                    ...   -288.65046645 Eh

-------
ENTROPY
-------

The entropy contributions are T*S = T*(S(el)+S(vib)+S(rot)+S(trans)
     S(el)   - electronic entropy
     S(vib)  - vibrational entropy
     S(rot)  - rotational entropy
     S(trans)- translational entropy
The entropies will be listed as mutliplied by the temperature to get
units of energy

Electronic entropy                ...      0.00000000 Eh      0.00 kcal/mol
Vibrational entropy               ...      0.00898732 Eh      5.64 kcal/mol
Rotational entropy                ...      0.01210784 Eh      7.60 kcal/mol
Translational entropy             ...      0.01881568 Eh     11.81 kcal/mol
-----------------------------------------------------------------------
Final entropy term                ...      0.03991084 Eh     25.04 kcal/mol

CAUTION: The rotational entropy is not quite correctly treated here
         because it includes a symmetry number that is not yet correctly
         implemented in ORCA!
For a nonlinear molecule the correct rotational entropy is:
    S(rot) = R*(ln(qrot/sn)+1.5)
    R    = 8.31441 J/mol/K = 1.987191683e-3 kcal/mol/K
    qrot = 248265.2667905
    sn is the rotational symmetry number. We have assumed 3 here
       if it is different for your molecule then you should correct
       the printed rotational entropy by manually evaluating the equation
       as given above

For convenience we print out the resulting values for sn=1 - 12:
 sn= 1  qrot/sn=  248265.2668 T*S(rot)=     8.25 kcal/mol T*S(tot)=    25.70 kcal/mol
 sn= 2  qrot/sn=  124132.6334 T*S(rot)=     7.84 kcal/mol T*S(tot)=    25.28 kcal/mol
 sn= 3  qrot/sn=   82755.0889 T*S(rot)=     7.60 kcal/mol T*S(tot)=    25.04 kcal/mol
 sn= 4  qrot/sn=   62066.3167 T*S(rot)=     7.43 kcal/mol T*S(tot)=    24.87 kcal/mol
 sn= 5  qrot/sn=   49653.0534 T*S(rot)=     7.30 kcal/mol T*S(tot)=    24.74 kcal/mol
 sn= 6  qrot/sn=   41377.5445 T*S(rot)=     7.19 kcal/mol T*S(tot)=    24.63 kcal/mol
 sn= 7  qrot/sn=   35466.4667 T*S(rot)=     7.10 kcal/mol T*S(tot)=    24.54 kcal/mol
 sn= 8  qrot/sn=   31033.1583 T*S(rot)=     7.02 kcal/mol T*S(tot)=    24.46 kcal/mol
 sn= 9  qrot/sn=   27585.0296 T*S(rot)=     6.95 kcal/mol T*S(tot)=    24.39 kcal/mol
 sn=10  qrot/sn=   24826.5267 T*S(rot)=     6.88 kcal/mol T*S(tot)=    24.33 kcal/mol
 sn=11  qrot/sn=   22569.5697 T*S(rot)=     6.83 kcal/mol T*S(tot)=    24.27 kcal/mol
 sn=12  qrot/sn=   20688.7722 T*S(rot)=     6.78 kcal/mol T*S(tot)=    24.22 kcal/mol

-------------------
GIBBS FREE ENTHALPY
-------------------

The Gibbs free enthalpy is G = H - T*S

Total enthalpy                    ...   -288.65046645 Eh
Total entropy correction          ...     -0.03991084 Eh    -25.04 kcal/mol
-----------------------------------------------------------------------
Final Gibbs free enthalpy         ...   -288.69037729 Eh

For completeness - the Gibbs free enthalpy minus the electronic energy
G-E(el)                           ...      0.12037870 Eh     75.54 kcal/mol

                             ****ORCA TERMINATED NORMALLY****
TOTAL RUN TIME: 0 days 0 hours 33 minutes 21 seconds 513 msec
