                         Program Version 3.0.3 - RELEASE   -
|  1> ! NORI PBE0 def2-TZVP UseSym TightOPT Freq TightSCF Grid3 FinalGrid5 XYZFile
|  2> % pal
|  3>     nprocs 8
|  4> end
|  5> %method
|  6>     SymThresh 5.0e-2
|  7> end
|  8> % geom
|  9>     MaxIter 10
| 10> end
| 11> % maxcore 2000
| 12> % output
| 13>     printlevel mini
| 14>     print[ P_Basis ] 0
| 15>     print[ P_SCFInfo ] 1
| 16>     print[ P_SCFIterInfo ] 1
| 17>     print[ P_OrbEn ] 0
| 18>     print[ P_Cartesian ] 0
| 19> end
| 20> % elprop
| 21>     Dipole false
| 22> end
| 23> *xyz 1 1
| 24>  C        0.4179934209    -0.5364129180     0.6314301546
| 25>  C        1.8831717672    -0.6650482594     0.2752567939
| 26>  C        2.4852219656    -1.9927418846     0.6737197950
| 27>  N        2.0193828750    -0.4561474902    -1.2239261109
| 28>  C        3.3922150870    -0.3328400470    -1.7492518797
| 29>  C        4.0547896405    -1.5235650095    -2.3500630559
| 30>  C        3.5893039410    -0.4009736464    -3.2255010174
| 31>  H        0.0019411440     0.4287116877     0.3308298673
| 32>  H        0.3027048682    -0.6168816349     1.7128887401
| 33>  H       -0.1763144170    -1.3353054164     0.1789794573
| 34>  H        2.4522504515     0.1587406639     0.7144967445
| 35>  H        1.9516425146    -2.8270484851     0.2091882625
| 36>  H        2.3895769178    -2.1079747759     1.7541985095
| 37>  H        3.5437747236    -2.0648692591     0.4249358307
| 38>  H        1.5446356724    -1.2278819048    -1.6991806687
| 39>  H        1.4953367228     0.3875709578    -1.4702053676
| 40>  H        3.9680263753     0.3714399761    -1.1623148618
| 41>  H        5.1140059332    -1.6466346555    -2.1657201023
| 42>  H        3.5002440397    -2.4542155698    -2.3930476720
| 43>  H        2.7239325459    -0.5816879662    -3.8536584112
| 44>  H        4.3189438105     0.2718256373    -3.6565550079
| 45> *
| 46>
| 47>                          ****END OF INPUT****
 Total Charge           Charge          ....    1
 Multiplicity           Mult            ....    1
 Number of Electrons    NEL             ....   56
FINAL SINGLE POINT ENERGY      -291.308748717633
FINAL SINGLE POINT ENERGY      -291.308750856822

CARTESIAN COORDINATES (ANGSTROEM)
---------------------------------
  C      2.416188    0.000457    1.106116
  C      1.351052    0.384763    0.101695
  C      1.537539   -0.258143   -1.253020
  N      0.000365   -0.000403    0.682026
  C     -1.188863    0.478987   -0.048096
  C     -1.882004   -0.435423   -0.997198
  C     -2.516580   -0.093731    0.315280
  H      2.259061    0.474080    2.078808
  H      3.389506    0.328061    0.740157
  H      2.466505   -1.083447    1.243038
  H      1.300783    1.472384    0.003158
  H      1.549904   -1.349397   -1.177600
  H      2.502982    0.050458   -1.655333
  H      0.770020    0.040685   -1.966313
  H     -0.037247   -1.020300    0.755212
  H     -0.038060    0.349838    1.642281
  H     -1.102820    1.534209   -0.274190
  H     -2.277351    0.000656   -1.905146
  H     -1.494248   -1.440504   -1.119358
  H     -2.553883   -0.870565    1.071000
  H     -3.357465    0.586557    0.335747

FINAL SINGLE POINT ENERGY      -291.308751299477
                    ***********************HURRAY********************
 Multiplicity           Mult            ....    1
 Number of Electrons    NEL             ....   56
 Basis Dimension        Dim             ....  301
FINAL SINGLE POINT ENERGY      -291.308751393934

VIBRATIONAL FREQUENCIES
-----------------------

   0:         0.00 cm**-1
   1:         0.00 cm**-1
   2:         0.00 cm**-1
   3:         0.00 cm**-1
   4:         0.00 cm**-1
   5:         0.00 cm**-1
   6:        61.37 cm**-1
   7:        98.53 cm**-1
   8:       172.54 cm**-1
   9:       225.52 cm**-1
  10:       261.72 cm**-1
  11:       314.75 cm**-1
  12:       323.94 cm**-1
  13:       392.63 cm**-1
  14:       442.93 cm**-1
  15:       455.62 cm**-1
  16:       754.55 cm**-1
  17:       795.67 cm**-1
  18:       841.79 cm**-1
  19:       849.51 cm**-1
  20:       873.44 cm**-1
  21:       932.90 cm**-1
  22:       942.86 cm**-1
  23:       958.63 cm**-1
  24:       986.81 cm**-1
  25:      1008.03 cm**-1
  26:      1075.87 cm**-1
  27:      1090.62 cm**-1
  28:      1104.17 cm**-1
  29:      1126.79 cm**-1
  30:      1177.62 cm**-1
  31:      1182.43 cm**-1
  32:      1194.18 cm**-1
  33:      1223.68 cm**-1
  34:      1251.90 cm**-1
  35:      1292.51 cm**-1
  36:      1338.00 cm**-1
  37:      1399.04 cm**-1
  38:      1406.58 cm**-1
  39:      1418.67 cm**-1
  40:      1431.64 cm**-1
  41:      1438.63 cm**-1
  42:      1463.44 cm**-1
  43:      1468.59 cm**-1
  44:      1482.62 cm**-1
  45:      1497.82 cm**-1
  46:      1498.99 cm**-1
  47:      1513.53 cm**-1
  48:      1636.83 cm**-1
  49:      3052.08 cm**-1
  50:      3060.08 cm**-1
  51:      3090.47 cm**-1
  52:      3127.88 cm**-1
  53:      3142.50 cm**-1
  54:      3154.08 cm**-1
  55:      3156.42 cm**-1
  56:      3159.57 cm**-1
  57:      3164.10 cm**-1
  58:      3208.31 cm**-1
  59:      3243.70 cm**-1
  60:      3255.11 cm**-1
  61:      3421.59 cm**-1
  62:      3474.51 cm**-1

IR SPECTRUM
-----------

 Mode    freq (cm**-1)   T**2         TX         TY         TZ
-------------------------------------------------------------------
   6:        61.37    0.296096  ( -0.029219   0.532507   0.108068)
   7:        98.53    3.561967  (  0.157998  -1.614034  -0.965348)
   8:       172.54    1.642296  ( -0.030292  -1.020302   0.774831)
   9:       225.52    0.051403  ( -0.132769  -0.098847   0.154933)
  10:       261.72    0.845041  (  0.397411  -0.812824  -0.162548)
  11:       314.75    0.971251  ( -0.156506   0.432725   0.871496)
  12:       323.94    0.593937  (  0.752719  -0.152438  -0.064145)
  13:       392.63    5.057226  ( -1.822628  -0.711655  -1.108513)
  14:       442.93    5.246298  (  2.017810  -0.891714  -0.616107)
  15:       455.62    2.399971  (  0.257389  -0.553028  -1.424037)
  16:       754.55    0.183912  (  0.041271  -0.037639  -0.425196)
  17:       795.67    7.098348  ( -1.155352   1.872447   1.502482)
  18:       841.79    7.846305  (  1.443573   1.632145   1.760257)
  19:       849.51   13.443561  ( -3.303168  -0.701511   1.428470)
  20:       873.44    0.508161  (  0.166306  -0.582752  -0.375371)
  21:       932.90    3.680580  ( -1.558484  -0.995716   0.510154)
  22:       942.86    3.599818  (  1.295922   0.510683   1.288258)
  23:       958.63    1.130636  (  0.846176   0.632032   0.123115)
  24:       986.81    6.422658  (  0.926057   1.949043   1.329026)
  25:      1008.03    5.262872  (  1.666062   0.377604  -1.531185)
  26:      1075.87   13.259157  ( -2.597108  -2.237637  -1.227668)
  27:      1090.62   26.403620  ( -4.864205  -1.401689  -0.882268)
  28:      1104.17   12.943103  ( -3.268304  -0.008273   1.503736)
  29:      1126.79    5.616621  (  2.222817  -0.212353  -0.794110)
  30:      1177.62    8.009017  (  2.511318   1.127441   0.656639)
  31:      1182.43   10.328296  ( -2.169736   0.268522   2.355512)
  32:      1194.18    1.541595  (  0.720494  -0.470102  -0.895258)
  33:      1223.68    2.976371  (  0.224445  -1.703717   0.152784)
  34:      1251.90    2.280222  (  1.017584   1.078048  -0.287325)
  35:      1292.51    5.348551  (  2.279706   0.197174  -0.335583)
  36:      1338.00   15.286851  (  3.879902  -0.051459  -0.480167)
  37:      1399.04   32.045545  ( -5.365901   0.880134   1.574172)
  38:      1406.58   26.873196  (  4.874287  -1.763936   0.055261)
  39:      1418.67   26.881642  ( -3.483545  -0.045451  -3.839856)
  40:      1431.64   14.156847  (  2.745193  -2.005292  -1.612318)
  41:      1438.63   11.323069  ( -3.164512  -0.566912  -0.993751)
  42:      1463.44   11.503567  (  0.762603  -0.733144  -3.222500)
  43:      1468.59    0.745268  ( -0.326984  -0.798147   0.036208)
  44:      1482.62    2.511230  (  0.315135   0.235159  -1.535128)
  45:      1497.82   10.151978  ( -2.104560  -1.958236   1.374088)
  46:      1498.99   11.618120  ( -0.094980   3.406952   0.042136)
  47:      1513.53   14.012848  ( -2.139606  -3.071628  -0.005917)
  48:      1636.83   49.618612  (  0.259444   4.516674  -5.399163)
  49:      3052.08    3.792447  ( -0.561629  -0.659356   1.744210)
  50:      3060.08    2.953292  ( -0.987070  -1.404828  -0.073779)
  51:      3090.47    1.362710  (  0.517752  -1.043037   0.081950)
  52:      3127.88    7.450520  (  0.435000  -2.150488  -1.623790)
  53:      3142.50    3.704103  (  0.201590  -1.895607   0.264834)
  54:      3154.08    1.873159  ( -0.130313   0.830842  -1.079759)
  55:      3156.42    0.097807  (  0.183929  -0.089354  -0.236628)
  56:      3159.57    4.460002  (  1.824396  -0.677313   0.820262)
  57:      3164.10    3.435244  ( -1.378573   0.461634  -1.149641)
  58:      3208.31    0.485111  ( -0.422820   0.455232  -0.314798)
  59:      3243.70    0.138670  (  0.257518  -0.017161  -0.268440)
  60:      3255.11    0.846696  (  0.448917  -0.716184   0.363661)
  61:      3421.59   25.286917  (  0.510462   1.917756  -4.620450)
  62:      3474.51   45.864605  ( -0.229303   5.588092   3.819065)

--------------------------
THERMOCHEMISTRY AT 298.15K
--------------------------

Temperature         ... 298.15 K
Pressure            ... 1.00 atm
Total Mass          ... 100.18 AMU

Throughout the following assumptions are being made:
  (1) The electronic state is orbitally nondegenerate
  (2) There are no thermally accessible electronically excited states
  (3) Hindered rotations indicated by low frequency modes) are not
      treated as such but are treated as vibrations and this may
      case some error
  (4) All equations used are the standard statistical mechanics
      equations for an ideal gas
  (5) All vibrations are strinctly harmonic

------------
INNER ENERGY
------------

The inner energy is: U= E(el) + E(ZPE) + E(vib) + E(rot) + E(trans)
    E(el)   - is the total energy from the electronic structure calculation
              = E(kin-el) + E(nuc-el) + E(el-el) + E(nuc-nuc)
    E(ZPE)  - the the zero temperature vibrational energy from the frequency calculation
    E(vib)  - the the finite temperature correction to E(ZPE) due to population
              of excietd vibrational states
    E(rot)  - is the rotational thermal energy
    E(trans)- is the translational thermal energy

Summary of contributions to the inner energy U:
Electronic energy                ...   -291.30875139 Eh
Zero point energy                ...      0.19847005 Eh     124.54 kcal/mol
Thermal vibrational correction   ...      0.00563237 Eh       3.53 kcal/mol
Thermal rotational correction    ...      0.00141627 Eh       0.89 kcal/mol
Thermal translational correction ...      0.00141627 Eh       0.89 kcal/mol
-----------------------------------------------------------------------
Total thermal energy                   -291.10181644 Eh

Summary of corrections to the electronic energy:
(perhaps to be used in another calculation)
Total thermal correction                  0.00846491 Eh       5.31 kcal/mol
Non-thermal (ZPE) correction              0.19847005 Eh     124.54 kcal/mol
-----------------------------------------------------------------------
Total correction                          0.20693496 Eh     129.85 kcal/mol

--------
ENTHALPY
--------

The enthalpy is H = U + kB*T
                kB is Boltzmann's constant
Total free energy                 ...   -291.10181644 Eh
Thermal Enthalpy correction       ...      0.00094421 Eh       0.59 kcal/mol
-----------------------------------------------------------------------
Total Enthalpy                    ...   -291.10087223 Eh

-------
ENTROPY
-------

The entropy contributions are T*S = T*(S(el)+S(vib)+S(rot)+S(trans)
     S(el)   - electronic entropy
     S(vib)  - vibrational entropy
     S(rot)  - rotational entropy
     S(trans)- translational entropy
The entropies will be listed as mutliplied by the temperature to get
units of energy

Electronic entropy                ...      0.00000000 Eh      0.00 kcal/mol
Vibrational entropy               ...      0.01009751 Eh      6.34 kcal/mol
Rotational entropy                ...      0.01218916 Eh      7.65 kcal/mol
Translational entropy             ...      0.01887386 Eh     11.84 kcal/mol
-----------------------------------------------------------------------
Final entropy term                ...      0.04116052 Eh     25.83 kcal/mol

CAUTION: The rotational entropy is not quite correctly treated here
         because it includes a symmetry number that is not yet correctly
         implemented in ORCA!
For a nonlinear molecule the correct rotational entropy is:
    S(rot) = R*(ln(qrot/sn)+1.5)
    R    = 8.31441 J/mol/K = 1.987191683e-3 kcal/mol/K
    qrot = 270595.4396726
    sn is the rotational symmetry number. We have assumed 3 here
       if it is different for your molecule then you should correct
       the printed rotational entropy by manually evaluating the equation
       as given above

For convenience we print out the resulting values for sn=1 - 12:
 sn= 1  qrot/sn=  270595.4397 T*S(rot)=     8.30 kcal/mol T*S(tot)=    26.48 kcal/mol
 sn= 2  qrot/sn=  135297.7198 T*S(rot)=     7.89 kcal/mol T*S(tot)=    26.07 kcal/mol
 sn= 3  qrot/sn=   90198.4799 T*S(rot)=     7.65 kcal/mol T*S(tot)=    25.83 kcal/mol
 sn= 4  qrot/sn=   67648.8599 T*S(rot)=     7.48 kcal/mol T*S(tot)=    25.66 kcal/mol
 sn= 5  qrot/sn=   54119.0879 T*S(rot)=     7.35 kcal/mol T*S(tot)=    25.53 kcal/mol
 sn= 6  qrot/sn=   45099.2399 T*S(rot)=     7.24 kcal/mol T*S(tot)=    25.42 kcal/mol
 sn= 7  qrot/sn=   38656.4914 T*S(rot)=     7.15 kcal/mol T*S(tot)=    25.33 kcal/mol
 sn= 8  qrot/sn=   33824.4300 T*S(rot)=     7.07 kcal/mol T*S(tot)=    25.25 kcal/mol
 sn= 9  qrot/sn=   30066.1600 T*S(rot)=     7.00 kcal/mol T*S(tot)=    25.18 kcal/mol
 sn=10  qrot/sn=   27059.5440 T*S(rot)=     6.94 kcal/mol T*S(tot)=    25.12 kcal/mol
 sn=11  qrot/sn=   24599.5854 T*S(rot)=     6.88 kcal/mol T*S(tot)=    25.06 kcal/mol
 sn=12  qrot/sn=   22549.6200 T*S(rot)=     6.83 kcal/mol T*S(tot)=    25.01 kcal/mol

-------------------
GIBBS FREE ENTHALPY
-------------------

The Gibbs free enthalpy is G = H - T*S

Total enthalpy                    ...   -291.10087223 Eh
Total entropy correction          ...     -0.04116052 Eh    -25.83 kcal/mol
-----------------------------------------------------------------------
Final Gibbs free enthalpy         ...   -291.14203275 Eh

For completeness - the Gibbs free enthalpy minus the electronic energy
G-E(el)                           ...      0.16671864 Eh    104.62 kcal/mol

                             ****ORCA TERMINATED NORMALLY****
TOTAL RUN TIME: 0 days 0 hours 47 minutes 52 seconds 171 msec
