                         Program Version 3.0.3 - RELEASE   -
|  1> ! NORI PBE0 def2-TZVP UseSym TightOPT Freq TightSCF Grid3 FinalGrid5 XYZFile
|  2> % pal
|  3>     nprocs 8
|  4> end
|  5> %method
|  6>     SymThresh 5.0e-2
|  7> end
|  8> % geom
|  9>     MaxIter 10
| 10> end
| 11> % maxcore 2000
| 12> % output
| 13>     printlevel mini
| 14>     print[ P_Basis ] 0
| 15>     print[ P_SCFInfo ] 1
| 16>     print[ P_SCFIterInfo ] 1
| 17>     print[ P_OrbEn ] 0
| 18>     print[ P_Cartesian ] 0
| 19> end
| 20> % elprop
| 21>     Dipole false
| 22> end
| 23> *xyz 1 1
| 24>  C        1.1751688226     0.1038560273    -0.1296136345
| 25>  C        2.6699251793    -0.1191492902     0.0171046852
| 26>  C        3.0072626317    -1.5617164687     0.3528344835
| 27>  N        3.2865699027     0.1610335747    -1.3482582238
| 28>  C        3.2758189048     0.8360104109     1.0225592153
| 29>  C        4.6979024645     1.3029814827     1.0062296096
| 30>  C        3.5836755303     2.2740416155     0.7479605159
| 31>  H        0.7286566796    -0.5821433054    -0.8545812295
| 32>  H        0.9469573193     1.1325771900    -0.4181095715
| 33>  H        0.6935143408    -0.0785647771     0.8314325649
| 34>  H        2.5922514312    -2.2597803131    -0.3793846859
| 35>  H        2.5729776051    -1.8110999578     1.3212228320
| 36>  H        4.0864539837    -1.7163248216     0.4278217265
| 37>  H        2.8852672087    -0.4593150543    -2.0528426359
| 38>  H        4.2968537287     0.0102010926    -1.3266097606
| 39>  H        3.1120829771     1.1257997175    -1.6358679657
| 40>  H        2.8721906320     0.6337171049     2.0092571899
| 41>  H        5.2238872556     1.3499201039     1.9505618465
| 42>  H        5.3522584159     1.0543994544     0.1759802662
| 43>  H        3.4860175553     2.6737150125    -0.2573434231
| 44>  H        3.3339074311     2.9998612014     1.5103161949
| 45> *
| 46>
| 47>                          ****END OF INPUT****
 Total Charge           Charge          ....    1
 Multiplicity           Mult            ....    1
 Number of Electrons    NEL             ....   56
FINAL SINGLE POINT ENERGY      -291.311103375081
FINAL SINGLE POINT ENERGY      -291.311105615864
FINAL SINGLE POINT ENERGY      -291.311108097310

CARTESIAN COORDINATES (ANGSTROEM)
---------------------------------
  C      1.963281   -0.002420    0.115451
  C      0.507566   -0.429078    0.193133
  C      0.342994   -1.937612    0.132231
  N      0.004937    0.003904    1.565731
  C     -0.326917    0.260276   -0.864583
  C     -1.794504    0.533077   -0.748974
  C     -0.817869    1.671187   -0.772799
  H      2.572781   -0.491367    0.880389
  H      2.071276    1.081236    0.205705
  H      2.366273   -0.290739   -0.855712
  H      0.929514   -2.443721    0.903960
  H      0.698904   -2.295426   -0.834214
  H     -0.705245   -2.232122    0.224016
  H      0.560007   -0.437799    2.300240
  H     -0.971655   -0.265570    1.698061
  H      0.077425    1.017036    1.676987
  H      0.005448   -0.046730   -1.850857
  H     -2.410197    0.354387   -1.620409
  H     -2.321258    0.339778    0.181050
  H     -0.685075    2.241804    0.141937
  H     -0.753530    2.287289   -1.659922

FINAL SINGLE POINT ENERGY      -291.311109022816
                    ***********************HURRAY********************
 Multiplicity           Mult            ....    1
 Number of Electrons    NEL             ....   56
 Basis Dimension        Dim             ....  301
FINAL SINGLE POINT ENERGY      -291.311109995308

VIBRATIONAL FREQUENCIES
-----------------------

   0:         0.00 cm**-1
   1:         0.00 cm**-1
   2:         0.00 cm**-1
   3:         0.00 cm**-1
   4:         0.00 cm**-1
   5:         0.00 cm**-1
   6:        62.03 cm**-1
   7:       191.38 cm**-1
   8:       214.99 cm**-1
   9:       243.21 cm**-1
  10:       247.28 cm**-1
  11:       279.61 cm**-1
  12:       320.12 cm**-1
  13:       358.73 cm**-1
  14:       390.84 cm**-1
  15:       480.99 cm**-1
  16:       481.51 cm**-1
  17:       667.45 cm**-1
  18:       772.39 cm**-1
  19:       829.23 cm**-1
  20:       838.15 cm**-1
  21:       904.91 cm**-1
  22:       938.34 cm**-1
  23:       952.11 cm**-1
  24:       955.95 cm**-1
  25:       970.61 cm**-1
  26:      1011.88 cm**-1
  27:      1056.62 cm**-1
  28:      1063.37 cm**-1
  29:      1087.73 cm**-1
  30:      1104.15 cm**-1
  31:      1139.32 cm**-1
  32:      1185.70 cm**-1
  33:      1201.93 cm**-1
  34:      1241.00 cm**-1
  35:      1294.04 cm**-1
  36:      1296.90 cm**-1
  37:      1411.01 cm**-1
  38:      1419.05 cm**-1
  39:      1425.35 cm**-1
  40:      1463.74 cm**-1
  41:      1473.93 cm**-1
  42:      1478.72 cm**-1
  43:      1479.71 cm**-1
  44:      1489.88 cm**-1
  45:      1498.31 cm**-1
  46:      1525.85 cm**-1
  47:      1643.39 cm**-1
  48:      1651.96 cm**-1
  49:      3052.46 cm**-1
  50:      3055.66 cm**-1
  51:      3129.43 cm**-1
  52:      3131.67 cm**-1
  53:      3134.22 cm**-1
  54:      3141.64 cm**-1
  55:      3152.78 cm**-1
  56:      3156.12 cm**-1
  57:      3177.10 cm**-1
  58:      3228.61 cm**-1
  59:      3240.19 cm**-1
  60:      3421.44 cm**-1
  61:      3509.31 cm**-1
  62:      3516.86 cm**-1

IR SPECTRUM
-----------

 Mode    freq (cm**-1)   T**2         TX         TY         TZ
-------------------------------------------------------------------
   6:        62.03    1.749988  (  0.854119   1.010157  -0.007204)
   7:       191.38    0.126102  (  0.188833   0.293346  -0.066269)
   8:       214.99    0.054867  (  0.174612   0.148453   0.048366)
   9:       243.21   12.132845  (  1.571126  -1.273110   2.836124)
  10:       247.28    0.104404  (  0.021591   0.246052  -0.208318)
  11:       279.61    6.590064  ( -1.292254   1.086535  -1.933801)
  12:       320.12    0.203097  (  0.214864  -0.174205  -0.355785)
  13:       358.73    6.346626  ( -1.606335  -1.940408   0.033606)
  14:       390.84    4.514704  (  1.512282  -1.260108  -0.799897)
  15:       480.99    4.356191  (  0.986318  -0.827258   1.642867)
  16:       481.51    0.007970  ( -0.029460  -0.081419   0.021750)
  17:       667.45    0.914898  ( -0.458207   0.386003   0.745618)
  18:       772.39    0.892381  (  0.730748  -0.597135  -0.042641)
  19:       829.23    8.306936  (  2.005963  -1.744083  -1.114103)
  20:       838.15    6.976059  (  1.731644   1.994175  -0.027079)
  21:       904.91    9.656043  ( -1.811250   1.555828  -1.988672)
  22:       938.34    2.688708  (  1.044243   1.263745  -0.034809)
  23:       952.11    2.936210  (  1.094172   1.318607  -0.016485)
  24:       955.95    4.120149  (  1.332810   1.530677  -0.028192)
  25:       970.61    2.528317  ( -1.006003   0.879369   0.861966)
  26:      1011.88   10.457193  (  2.399420  -2.042014  -0.728120)
  27:      1056.62    5.719371  (  1.489518   1.870398  -0.048144)
  28:      1063.37    7.219855  (  2.063459  -1.719788  -0.065726)
  29:      1087.73    2.463560  (  1.012072   1.199542  -0.019168)
  30:      1104.15    7.856143  ( -1.122254   0.915294  -2.399776)
  31:      1139.32    0.449671  (  0.425032   0.518201  -0.022068)
  32:      1185.70    1.481108  (  0.794530   0.921663  -0.019144)
  33:      1201.93   20.840070  (  2.501630  -2.132063  -3.168000)
  34:      1241.00    2.760577  (  1.093773  -0.907220   0.860924)
  35:      1294.04   26.245356  ( -2.584035   2.580112  -3.593208)
  36:      1296.90   12.715389  (  2.519268   2.505495   0.301945)
  37:      1411.01   23.023449  ( -3.133654  -3.633561   0.029839)
  38:      1419.05   30.045070  ( -4.133539   3.558652  -0.543064)
  39:      1425.35   36.606591  (  1.938707  -1.685844  -5.477768)
  40:      1463.74    0.010516  ( -0.064096  -0.078359   0.016362)
  41:      1473.93    7.357340  ( -1.871060  -1.823219   0.729621)
  42:      1478.72  132.536568  ( -2.346101   2.531537  10.982882)
  43:      1479.71    4.212651  (  1.104341   0.514804  -1.651683)
  44:      1489.88   15.685707  ( -1.482157   1.275619   3.444084)
  45:      1498.31    9.291702  (  0.148459  -0.071752   3.043766)
  46:      1525.85    4.341782  ( -1.212448   1.039245   1.338552)
  47:      1643.39   50.259798  (  4.458311   5.509996  -0.152353)
  48:      1651.96   55.190158  (  4.535356  -3.582328   4.667722)
  49:      3052.46    2.244867  ( -0.958326  -1.150320   0.056952)
  50:      3055.66    6.081423  (  0.533787  -0.400762   2.374002)
  51:      3129.43    2.202947  ( -1.099648  -0.994035  -0.074928)
  52:      3131.67   12.237286  ( -2.427479   2.152585  -1.308055)
  53:      3134.22    5.244676  ( -1.501017  -1.706515  -0.281832)
  54:      3141.64   18.976393  ( -0.017697  -0.124359   4.354379)
  55:      3152.78    2.081514  (  0.909429   1.119531  -0.033216)
  56:      3156.12    1.644279  ( -0.443448   0.330219  -1.156973)
  57:      3177.10    0.791084  ( -0.597185   0.496454  -0.433575)
  58:      3228.61    0.336577  ( -0.372460  -0.442574  -0.044487)
  59:      3240.19    1.287219  (  0.157497  -0.109158  -1.118257)
  60:      3421.44   22.179631  (  1.866467  -1.630433  -4.004699)
  61:      3509.31   54.791898  ( -4.481062  -5.880469   0.363406)
  62:      3516.86   80.594636  (  5.874279  -4.408518   5.162601)

--------------------------
THERMOCHEMISTRY AT 298.15K
--------------------------

Temperature         ... 298.15 K
Pressure            ... 1.00 atm
Total Mass          ... 100.18 AMU

Throughout the following assumptions are being made:
  (1) The electronic state is orbitally nondegenerate
  (2) There are no thermally accessible electronically excited states
  (3) Hindered rotations indicated by low frequency modes) are not
      treated as such but are treated as vibrations and this may
      case some error
  (4) All equations used are the standard statistical mechanics
      equations for an ideal gas
  (5) All vibrations are strinctly harmonic

------------
INNER ENERGY
------------

The inner energy is: U= E(el) + E(ZPE) + E(vib) + E(rot) + E(trans)
    E(el)   - is the total energy from the electronic structure calculation
              = E(kin-el) + E(nuc-el) + E(el-el) + E(nuc-nuc)
    E(ZPE)  - the the zero temperature vibrational energy from the frequency calculation
    E(vib)  - the the finite temperature correction to E(ZPE) due to population
              of excietd vibrational states
    E(rot)  - is the rotational thermal energy
    E(trans)- is the translational thermal energy

Summary of contributions to the inner energy U:
Electronic energy                ...   -291.31111000 Eh
Zero point energy                ...      0.19772405 Eh     124.07 kcal/mol
Thermal vibrational correction   ...      0.00577719 Eh       3.63 kcal/mol
Thermal rotational correction    ...      0.00141627 Eh       0.89 kcal/mol
Thermal translational correction ...      0.00141627 Eh       0.89 kcal/mol
-----------------------------------------------------------------------
Total thermal energy                   -291.10477622 Eh

Summary of corrections to the electronic energy:
(perhaps to be used in another calculation)
Total thermal correction                  0.00860973 Eh       5.40 kcal/mol
Non-thermal (ZPE) correction              0.19772405 Eh     124.07 kcal/mol
-----------------------------------------------------------------------
Total correction                          0.20633378 Eh     129.48 kcal/mol

--------
ENTHALPY
--------

The enthalpy is H = U + kB*T
                kB is Boltzmann's constant
Total free energy                 ...   -291.10477622 Eh
Thermal Enthalpy correction       ...      0.00094421 Eh       0.59 kcal/mol
-----------------------------------------------------------------------
Total Enthalpy                    ...   -291.10383201 Eh

-------
ENTROPY
-------

The entropy contributions are T*S = T*(S(el)+S(vib)+S(rot)+S(trans)
     S(el)   - electronic entropy
     S(vib)  - vibrational entropy
     S(rot)  - rotational entropy
     S(trans)- translational entropy
The entropies will be listed as mutliplied by the temperature to get
units of energy

Electronic entropy                ...      0.00000000 Eh      0.00 kcal/mol
Vibrational entropy               ...      0.00987778 Eh      6.20 kcal/mol
Rotational entropy                ...      0.01203721 Eh      7.55 kcal/mol
Translational entropy             ...      0.01887386 Eh     11.84 kcal/mol
-----------------------------------------------------------------------
Final entropy term                ...      0.04078885 Eh     25.60 kcal/mol

CAUTION: The rotational entropy is not quite correctly treated here
         because it includes a symmetry number that is not yet correctly
         implemented in ORCA!
For a nonlinear molecule the correct rotational entropy is:
    S(rot) = R*(ln(qrot/sn)+1.5)
    R    = 8.31441 J/mol/K = 1.987191683e-3 kcal/mol/K
    qrot = 230371.1450853
    sn is the rotational symmetry number. We have assumed 3 here
       if it is different for your molecule then you should correct
       the printed rotational entropy by manually evaluating the equation
       as given above

For convenience we print out the resulting values for sn=1 - 12:
 sn= 1  qrot/sn=  230371.1451 T*S(rot)=     8.20 kcal/mol T*S(tot)=    26.25 kcal/mol
 sn= 2  qrot/sn=  115185.5725 T*S(rot)=     7.79 kcal/mol T*S(tot)=    25.84 kcal/mol
 sn= 3  qrot/sn=   76790.3817 T*S(rot)=     7.55 kcal/mol T*S(tot)=    25.60 kcal/mol
 sn= 4  qrot/sn=   57592.7863 T*S(rot)=     7.38 kcal/mol T*S(tot)=    25.42 kcal/mol
 sn= 5  qrot/sn=   46074.2290 T*S(rot)=     7.25 kcal/mol T*S(tot)=    25.29 kcal/mol
 sn= 6  qrot/sn=   38395.1908 T*S(rot)=     7.14 kcal/mol T*S(tot)=    25.18 kcal/mol
 sn= 7  qrot/sn=   32910.1636 T*S(rot)=     7.05 kcal/mol T*S(tot)=    25.09 kcal/mol
 sn= 8  qrot/sn=   28796.3931 T*S(rot)=     6.97 kcal/mol T*S(tot)=    25.01 kcal/mol
 sn= 9  qrot/sn=   25596.7939 T*S(rot)=     6.90 kcal/mol T*S(tot)=    24.94 kcal/mol
 sn=10  qrot/sn=   23037.1145 T*S(rot)=     6.84 kcal/mol T*S(tot)=    24.88 kcal/mol
 sn=11  qrot/sn=   20942.8314 T*S(rot)=     6.78 kcal/mol T*S(tot)=    24.83 kcal/mol
 sn=12  qrot/sn=   19197.5954 T*S(rot)=     6.73 kcal/mol T*S(tot)=    24.77 kcal/mol

-------------------
GIBBS FREE ENTHALPY
-------------------

The Gibbs free enthalpy is G = H - T*S

Total enthalpy                    ...   -291.10383201 Eh
Total entropy correction          ...     -0.04078885 Eh    -25.60 kcal/mol
-----------------------------------------------------------------------
Final Gibbs free enthalpy         ...   -291.14462086 Eh

For completeness - the Gibbs free enthalpy minus the electronic energy
G-E(el)                           ...      0.16648914 Eh    104.47 kcal/mol

                             ****ORCA TERMINATED NORMALLY****
TOTAL RUN TIME: 0 days 0 hours 55 minutes 59 seconds 184 msec
