                         Program Version 3.0.3 - RELEASE   -
|  1> ! NORI PBE0 def2-TZVP UseSym TightOPT Freq TightSCF Grid3 FinalGrid5 XYZFile
|  2> % pal
|  3>     nprocs 8
|  4> end
|  5> %method
|  6>     SymThresh 5.0e-2
|  7> end
|  8> % geom
|  9>     MaxIter 10
| 10> end
| 11> % maxcore 2000
| 12> % output
| 13>     printlevel mini
| 14>     print[ P_Basis ] 0
| 15>     print[ P_SCFInfo ] 1
| 16>     print[ P_SCFIterInfo ] 1
| 17>     print[ P_OrbEn ] 0
| 18>     print[ P_Cartesian ] 0
| 19> end
| 20> % elprop
| 21>     Dipole false
| 22> end
| 23> *xyz 1 1
| 24>  C        0.5015703145     0.0824778580     0.8784880474
| 25>  C        1.8062223016    -0.2029051187     0.1436721931
| 26>  C        3.0172963209    -0.1064614335     1.0557802565
| 27>  N        3.1234055743     1.2577272565     1.6918709796
| 28>  C        1.8081623144    -1.5805486329    -0.4734412325
| 29>  C        1.2087539716    -1.7885389889    -1.8287360079
| 30>  C        2.6898805717    -1.8869175554    -1.6491187299
| 31>  H       -0.3418029510    -0.0684050355     0.2042080549
| 32>  H        0.4156943577     1.1128661874     1.2426023212
| 33>  H        0.3685663375    -0.5971997557     1.7251559165
| 34>  H        1.9321651941     0.5247686944    -0.6706954478
| 35>  H        3.9473235547    -0.2720241898     0.5115081934
| 36>  H        2.9561953817    -0.8212898402     1.8785283998
| 37>  H        3.2233579519     1.9843530569     0.9799722626
| 38>  H        3.9230159041     1.3245524020     2.3239253280
| 39>  H        2.2761005650     1.4666585633     2.2248140274
| 40>  H        1.6575796619    -2.3844325434     0.2428998447
| 41>  H        0.6494550386    -2.6983963941    -2.0012623035
| 42>  H        0.8207988841    -0.9205707937    -2.3492550890
| 43>  H        3.2957176410    -1.0846162741    -2.0557096372
| 44>  H        3.1530511099    -2.8635374623    -1.7014273774
| 45> *
| 46>
| 47>                          ****END OF INPUT****
 Total Charge           Charge          ....    1
 Multiplicity           Mult            ....    1
 Number of Electrons    NEL             ....   56
FINAL SINGLE POINT ENERGY      -291.305196570007
FINAL SINGLE POINT ENERGY      -291.305197816854

CARTESIAN COORDINATES (ANGSTROEM)
---------------------------------
  C      1.837143    0.000424    0.311574
  C      0.328484   -0.182423    0.191857
  C     -0.430068    0.507922    1.312759
  N     -0.001646   -0.000644    2.667728
  C     -0.198090    0.358038   -1.115731
  C     -0.178032   -0.505421   -2.337792
  C     -1.482495   -0.162850   -1.691612
  H      2.332110   -0.448350   -0.549994
  H      2.271942   -0.483015    1.194406
  H      2.107497    1.060435    0.327801
  H      0.089090   -1.254705    0.226170
  H     -1.504270    0.337208    1.239103
  H     -0.242505    1.583425    1.319693
  H     -0.183212   -1.002685    2.754446
  H     -0.491794    0.474835    3.427273
  H      1.002569    0.140443    2.797948
  H      0.011230    1.412853   -1.273751
  H      0.066103   -0.039717   -3.283309
  H      0.183427   -1.521858   -2.234078
  H     -1.997570   -0.955502   -1.159499
  H     -2.139654    0.535733   -2.192599

FINAL SINGLE POINT ENERGY      -291.305198283585
                    ***********************HURRAY********************
 Multiplicity           Mult            ....    1
 Number of Electrons    NEL             ....   56
 Basis Dimension        Dim             ....  301
FINAL SINGLE POINT ENERGY      -291.305198343426

VIBRATIONAL FREQUENCIES
-----------------------

   0:         0.00 cm**-1
   1:         0.00 cm**-1
   2:         0.00 cm**-1
   3:         0.00 cm**-1
   4:         0.00 cm**-1
   5:         0.00 cm**-1
   6:        86.69 cm**-1
   7:       102.42 cm**-1
   8:       166.38 cm**-1
   9:       199.84 cm**-1
  10:       214.42 cm**-1
  11:       271.37 cm**-1
  12:       298.15 cm**-1
  13:       400.10 cm**-1
  14:       445.73 cm**-1
  15:       470.21 cm**-1
  16:       767.39 cm**-1
  17:       806.94 cm**-1
  18:       837.73 cm**-1
  19:       848.25 cm**-1
  20:       866.86 cm**-1
  21:       938.16 cm**-1
  22:       962.17 cm**-1
  23:       969.88 cm**-1
  24:       984.03 cm**-1
  25:      1009.08 cm**-1
  26:      1037.77 cm**-1
  27:      1063.09 cm**-1
  28:      1093.36 cm**-1
  29:      1133.78 cm**-1
  30:      1170.95 cm**-1
  31:      1178.48 cm**-1
  32:      1198.45 cm**-1
  33:      1228.50 cm**-1
  34:      1239.91 cm**-1
  35:      1297.37 cm**-1
  36:      1334.25 cm**-1
  37:      1359.87 cm**-1
  38:      1401.30 cm**-1
  39:      1416.25 cm**-1
  40:      1424.42 cm**-1
  41:      1464.25 cm**-1
  42:      1478.94 cm**-1
  43:      1487.38 cm**-1
  44:      1493.95 cm**-1
  45:      1505.75 cm**-1
  46:      1512.43 cm**-1
  47:      1653.39 cm**-1
  48:      1664.37 cm**-1
  49:      3016.98 cm**-1
  50:      3031.23 cm**-1
  51:      3095.56 cm**-1
  52:      3101.15 cm**-1
  53:      3146.67 cm**-1
  54:      3147.14 cm**-1
  55:      3150.05 cm**-1
  56:      3157.26 cm**-1
  57:      3159.58 cm**-1
  58:      3235.05 cm**-1
  59:      3249.72 cm**-1
  60:      3422.76 cm**-1
  61:      3501.61 cm**-1
  62:      3513.95 cm**-1

IR SPECTRUM
-----------

 Mode    freq (cm**-1)   T**2         TX         TY         TZ
-------------------------------------------------------------------
   6:        86.69    5.574142  (  1.630358   1.552556   0.711088)
   7:       102.42    2.475804  ( -1.200351  -0.969704   0.307629)
   8:       166.38    4.395993  ( -1.735262   1.173251   0.091322)
   9:       199.84    0.628604  (  0.396383   0.104640  -0.678627)
  10:       214.42    2.031397  ( -0.462621   0.265974   1.321604)
  11:       271.37   11.630653  ( -1.677460   0.663945   2.894125)
  12:       298.15    0.699656  ( -0.393480   0.286840  -0.680112)
  13:       400.10    7.823904  (  0.893003   0.210055  -2.642409)
  14:       445.73    2.145633  ( -0.614484   0.001311   1.329677)
  15:       470.21    2.227348  (  0.284274  -0.942511  -1.121700)
  16:       767.39    4.414545  (  0.625763  -0.013125  -2.005690)
  17:       806.94    3.990187  ( -1.623353  -0.188617   1.148623)
  18:       837.73    4.188899  ( -1.024977   1.201072   1.302208)
  19:       848.25   10.432411  (  2.736132   1.557702   0.720802)
  20:       866.86    7.669290  (  2.470528   0.417631  -1.179563)
  21:       938.16   28.212103  ( -0.047091  -1.419916  -5.117980)
  22:       962.17    7.532442  ( -1.009700  -1.711083  -1.893448)
  23:       969.88    3.875656  ( -0.154038  -1.060854  -1.651217)
  24:       984.03    7.023587  ( -0.927851   2.253710  -1.040900)
  25:      1009.08   11.074243  ( -2.874687  -0.936435  -1.390507)
  26:      1037.77   14.419622  ( -2.484511   1.427329   2.491899)
  27:      1063.09    9.652162  (  0.898041   2.317556   1.864032)
  28:      1093.36    3.058788  ( -1.552722   0.319325   0.738833)
  29:      1133.78    1.028087  ( -0.625370   0.286882   0.744780)
  30:      1170.95    3.526798  ( -0.990754   0.850501   1.349760)
  31:      1178.48    3.671349  (  0.715348  -0.200928  -1.766141)
  32:      1198.45    1.287058  (  0.946960  -0.290483  -0.553122)
  33:      1228.50    1.817740  ( -0.222687   0.998226   0.878462)
  34:      1239.91    3.529427  ( -0.816364  -1.221357  -1.171010)
  35:      1297.37    4.291133  ( -0.108681  -1.686673  -1.197688)
  36:      1334.25    2.689738  (  0.971277   1.086127   0.752788)
  37:      1359.87    2.536105  (  1.392722   0.408150  -0.655625)
  38:      1401.30    4.539709  (  1.952181  -0.266041   0.811124)
  39:      1416.25    9.544706  (  2.467813   0.897917  -1.627376)
  40:      1424.42    1.352583  ( -0.392199   0.917336   0.597711)
  41:      1464.25    6.734672  (  2.253278  -0.614774  -1.131133)
  42:      1478.94   36.555145  (  0.208905  -0.344678   6.032636)
  43:      1487.38    6.591389  (  2.292162  -0.954163   0.653418)
  44:      1493.95   59.558450  ( -0.570785  -0.815488  -7.652949)
  45:      1505.75   94.180780  ( -2.885667   5.554814  -7.416046)
  46:      1512.43    1.437864  (  0.450358   0.999367  -0.486114)
  47:      1653.39   47.018352  ( -4.151939  -5.304944  -1.279578)
  48:      1664.37   37.261742  (  4.420581  -2.220258  -3.576403)
  49:      3016.98    9.100965  (  1.317156   2.649432  -0.588705)
  50:      3031.23   31.068353  (  2.657417  -0.298077   4.890566)
  51:      3095.56    1.988743  (  0.656014  -0.670497  -1.053006)
  52:      3101.15   18.890682  ( -0.575166   3.132622  -2.957456)
  53:      3146.67    1.428837  ( -0.595700  -0.960651  -0.388751)
  54:      3147.14    7.042089  (  2.168722   0.435825  -1.465875)
  55:      3150.05    6.078326  ( -0.497471  -2.340057  -0.595804)
  56:      3157.26    2.592488  ( -0.568027   1.483669   0.261842)
  57:      3159.58    1.452472  ( -0.939721  -0.695004   0.293881)
  58:      3235.05    0.539326  (  0.005331   0.487386  -0.549320)
  59:      3249.72    2.508127  ( -0.160230   1.212502  -1.006128)
  60:      3422.76   35.080357  (  1.930800  -1.468706   5.403265)
  61:      3501.61   94.285600  (  8.039703   4.873801  -2.427930)
  62:      3513.95  101.187070  (  4.519124  -7.301522  -5.239500)

--------------------------
THERMOCHEMISTRY AT 298.15K
--------------------------

Temperature         ... 298.15 K
Pressure            ... 1.00 atm
Total Mass          ... 100.18 AMU

Throughout the following assumptions are being made:
  (1) The electronic state is orbitally nondegenerate
  (2) There are no thermally accessible electronically excited states
  (3) Hindered rotations indicated by low frequency modes) are not
      treated as such but are treated as vibrations and this may
      case some error
  (4) All equations used are the standard statistical mechanics
      equations for an ideal gas
  (5) All vibrations are strinctly harmonic

------------
INNER ENERGY
------------

The inner energy is: U= E(el) + E(ZPE) + E(vib) + E(rot) + E(trans)
    E(el)   - is the total energy from the electronic structure calculation
              = E(kin-el) + E(nuc-el) + E(el-el) + E(nuc-nuc)
    E(ZPE)  - the the zero temperature vibrational energy from the frequency calculation
    E(vib)  - the the finite temperature correction to E(ZPE) due to population
              of excietd vibrational states
    E(rot)  - is the rotational thermal energy
    E(trans)- is the translational thermal energy

Summary of contributions to the inner energy U:
Electronic energy                ...   -291.30519834 Eh
Zero point energy                ...      0.19914078 Eh     124.96 kcal/mol
Thermal vibrational correction   ...      0.00575210 Eh       3.61 kcal/mol
Thermal rotational correction    ...      0.00141627 Eh       0.89 kcal/mol
Thermal translational correction ...      0.00141627 Eh       0.89 kcal/mol
-----------------------------------------------------------------------
Total thermal energy                   -291.09747291 Eh

Summary of corrections to the electronic energy:
(perhaps to be used in another calculation)
Total thermal correction                  0.00858464 Eh       5.39 kcal/mol
Non-thermal (ZPE) correction              0.19914078 Eh     124.96 kcal/mol
-----------------------------------------------------------------------
Total correction                          0.20772543 Eh     130.35 kcal/mol

--------
ENTHALPY
--------

The enthalpy is H = U + kB*T
                kB is Boltzmann's constant
Total free energy                 ...   -291.09747291 Eh
Thermal Enthalpy correction       ...      0.00094421 Eh       0.59 kcal/mol
-----------------------------------------------------------------------
Total Enthalpy                    ...   -291.09652871 Eh

-------
ENTROPY
-------

The entropy contributions are T*S = T*(S(el)+S(vib)+S(rot)+S(trans)
     S(el)   - electronic entropy
     S(vib)  - vibrational entropy
     S(rot)  - rotational entropy
     S(trans)- translational entropy
The entropies will be listed as mutliplied by the temperature to get
units of energy

Electronic entropy                ...      0.00000000 Eh      0.00 kcal/mol
Vibrational entropy               ...      0.01018560 Eh      6.39 kcal/mol
Rotational entropy                ...      0.01223339 Eh      7.68 kcal/mol
Translational entropy             ...      0.01887386 Eh     11.84 kcal/mol
-----------------------------------------------------------------------
Final entropy term                ...      0.04129285 Eh     25.91 kcal/mol

CAUTION: The rotational entropy is not quite correctly treated here
         because it includes a symmetry number that is not yet correctly
         implemented in ORCA!
For a nonlinear molecule the correct rotational entropy is:
    S(rot) = R*(ln(qrot/sn)+1.5)
    R    = 8.31441 J/mol/K = 1.987191683e-3 kcal/mol/K
    qrot = 283574.1916008
    sn is the rotational symmetry number. We have assumed 3 here
       if it is different for your molecule then you should correct
       the printed rotational entropy by manually evaluating the equation
       as given above

For convenience we print out the resulting values for sn=1 - 12:
 sn= 1  qrot/sn=  283574.1916 T*S(rot)=     8.33 kcal/mol T*S(tot)=    26.56 kcal/mol
 sn= 2  qrot/sn=  141787.0958 T*S(rot)=     7.92 kcal/mol T*S(tot)=    26.15 kcal/mol
 sn= 3  qrot/sn=   94524.7305 T*S(rot)=     7.68 kcal/mol T*S(tot)=    25.91 kcal/mol
 sn= 4  qrot/sn=   70893.5479 T*S(rot)=     7.51 kcal/mol T*S(tot)=    25.74 kcal/mol
 sn= 5  qrot/sn=   56714.8383 T*S(rot)=     7.37 kcal/mol T*S(tot)=    25.61 kcal/mol
 sn= 6  qrot/sn=   47262.3653 T*S(rot)=     7.27 kcal/mol T*S(tot)=    25.50 kcal/mol
 sn= 7  qrot/sn=   40510.5988 T*S(rot)=     7.17 kcal/mol T*S(tot)=    25.41 kcal/mol
 sn= 8  qrot/sn=   35446.7740 T*S(rot)=     7.10 kcal/mol T*S(tot)=    25.33 kcal/mol
 sn= 9  qrot/sn=   31508.2435 T*S(rot)=     7.03 kcal/mol T*S(tot)=    25.26 kcal/mol
 sn=10  qrot/sn=   28357.4192 T*S(rot)=     6.96 kcal/mol T*S(tot)=    25.20 kcal/mol
 sn=11  qrot/sn=   25779.4720 T*S(rot)=     6.91 kcal/mol T*S(tot)=    25.14 kcal/mol
 sn=12  qrot/sn=   23631.1826 T*S(rot)=     6.86 kcal/mol T*S(tot)=    25.09 kcal/mol

-------------------
GIBBS FREE ENTHALPY
-------------------

The Gibbs free enthalpy is G = H - T*S

Total enthalpy                    ...   -291.09652871 Eh
Total entropy correction          ...     -0.04129285 Eh    -25.91 kcal/mol
-----------------------------------------------------------------------
Final Gibbs free enthalpy         ...   -291.13782156 Eh

For completeness - the Gibbs free enthalpy minus the electronic energy
G-E(el)                           ...      0.16737678 Eh    105.03 kcal/mol

                             ****ORCA TERMINATED NORMALLY****
TOTAL RUN TIME: 0 days 0 hours 48 minutes 46 seconds 881 msec
