                         Program Version 3.0.3 - RELEASE   -
|  1> ! NORI PBE0 def2-TZVP UseSym TightOPT Freq TightSCF Grid3 FinalGrid5 XYZFile
|  2> % pal
|  3>     nprocs 8
|  4> end
|  5> %method
|  6>     SymThresh 5.0e-2
|  7> end
|  8> % geom
|  9>     MaxIter 10
| 10> end
| 11> % maxcore 2000
| 12> % output
| 13>     printlevel mini
| 14>     print[ P_Basis ] 0
| 15>     print[ P_SCFInfo ] 1
| 16>     print[ P_SCFIterInfo ] 1
| 17>     print[ P_OrbEn ] 0
| 18>     print[ P_Cartesian ] 0
| 19> end
| 20> % elprop
| 21>     Dipole false
| 22> end
| 23> *xyz 1 1
| 24>  C        1.1442531931    -0.0462900187     0.2130371935
| 25>  C        1.9959750563     1.1979512169     0.0049380789
| 26>  C        3.1448094423     1.2780173798     0.9982961956
| 27>  N        3.5435093708     2.7437443847     1.1639159148
| 28>  C        4.4135051433     0.5370282848     0.6732085441
| 29>  C        4.5051608531    -0.5024508410    -0.4003620415
| 30>  C        5.1637586352     0.8169482457    -0.6086788311
| 31>  H        0.3592130745    -0.0963066504    -0.5418192556
| 32>  H        0.6623076650    -0.0296516107     1.1929909050
| 33>  H        1.7317352693    -0.9626126916     0.1459616180
| 34>  H        1.3532809820     2.0783053784     0.1254127331
| 35>  H        2.3786625524     1.2391180034    -1.0200538285
| 36>  H        2.7841724569     0.9862803205     1.9889329078
| 37>  H        3.9210274677     3.0908466061     0.2792196507
| 38>  H        4.2783189170     2.8446514307     1.8663924658
| 39>  H        2.7517944393     3.3296155306     1.4340145554
| 40>  H        5.0379319735     0.3516536508     1.5422466440
| 41>  H        5.1227981399    -1.3661378945    -0.1936486677
| 42>  H        3.6256457793    -0.7123803241    -0.9933669889
| 43>  H        4.7129840055     1.4711858393    -1.3491477596
| 44>  H        6.2428355833     0.8832337592    -0.5560300337
| 45> *
| 46>
| 47>                          ****END OF INPUT****
 Total Charge           Charge          ....    1
 Multiplicity           Mult            ....    1
 Number of Electrons    NEL             ....   56
FINAL SINGLE POINT ENERGY      -291.307709287934
FINAL SINGLE POINT ENERGY      -291.307715773969
FINAL SINGLE POINT ENERGY      -291.307719076915
FINAL SINGLE POINT ENERGY      -291.307720899589

CARTESIAN COORDINATES (ANGSTROEM)
---------------------------------
  C      2.191624   -0.007273   -1.071189
  C      1.324544   -0.598986    0.030766
  C      0.356027    0.423304    0.606351
  N      0.003603    0.009769    2.034937
  C     -0.956148    0.628439   -0.101019
  C     -1.227219    0.144619   -1.492454
  C     -1.893808   -0.531194   -0.345377
  H      2.835945   -0.776508   -1.497145
  H      2.834041    0.784414   -0.679467
  H      1.595825    0.416408   -1.880096
  H      1.982376   -0.962835    0.828842
  H      0.775748   -1.473787   -0.332848
  H      0.871664    1.380418    0.725967
  H     -0.507472   -0.875603    2.013318
  H     -0.606825    0.700895    2.474484
  H      0.834438   -0.107661    2.617167
  H     -1.439195    1.566833    0.155488
  H     -1.816112    0.792915   -2.127300
  H     -0.455183   -0.407147   -2.011129
  H     -1.556706   -1.536788   -0.113181
  H     -2.950366   -0.367243   -0.178533

FINAL SINGLE POINT ENERGY      -291.307721440947
                    ***********************HURRAY********************
 Multiplicity           Mult            ....    1
 Number of Electrons    NEL             ....   56
 Basis Dimension        Dim             ....  301
FINAL SINGLE POINT ENERGY      -291.307721651591

VIBRATIONAL FREQUENCIES
-----------------------

   0:         0.00 cm**-1
   1:         0.00 cm**-1
   2:         0.00 cm**-1
   3:         0.00 cm**-1
   4:         0.00 cm**-1
   5:         0.00 cm**-1
   6:        96.18 cm**-1
   7:       147.79 cm**-1
   8:       175.87 cm**-1
   9:       197.52 cm**-1
  10:       221.44 cm**-1
  11:       264.12 cm**-1
  12:       286.11 cm**-1
  13:       383.22 cm**-1
  14:       475.20 cm**-1
  15:       535.26 cm**-1
  16:       732.38 cm**-1
  17:       793.71 cm**-1
  18:       799.23 cm**-1
  19:       840.62 cm**-1
  20:       869.86 cm**-1
  21:       916.27 cm**-1
  22:       930.66 cm**-1
  23:       995.30 cm**-1
  24:       999.13 cm**-1
  25:      1049.05 cm**-1
  26:      1065.10 cm**-1
  27:      1067.59 cm**-1
  28:      1106.39 cm**-1
  29:      1116.43 cm**-1
  30:      1131.67 cm**-1
  31:      1150.83 cm**-1
  32:      1203.07 cm**-1
  33:      1214.09 cm**-1
  34:      1264.85 cm**-1
  35:      1289.72 cm**-1
  36:      1352.98 cm**-1
  37:      1387.39 cm**-1
  38:      1398.60 cm**-1
  39:      1419.58 cm**-1
  40:      1425.46 cm**-1
  41:      1462.47 cm**-1
  42:      1476.78 cm**-1
  43:      1486.63 cm**-1
  44:      1492.64 cm**-1
  45:      1503.90 cm**-1
  46:      1514.04 cm**-1
  47:      1642.01 cm**-1
  48:      1655.38 cm**-1
  49:      3040.22 cm**-1
  50:      3068.24 cm**-1
  51:      3077.41 cm**-1
  52:      3093.12 cm**-1
  53:      3140.76 cm**-1
  54:      3143.89 cm**-1
  55:      3158.26 cm**-1
  56:      3158.75 cm**-1
  57:      3175.33 cm**-1
  58:      3235.58 cm**-1
  59:      3263.64 cm**-1
  60:      3418.77 cm**-1
  61:      3506.31 cm**-1
  62:      3519.11 cm**-1

IR SPECTRUM
-----------

 Mode    freq (cm**-1)   T**2         TX         TY         TZ
-------------------------------------------------------------------
   6:        96.18    3.602773  (  1.162359   1.297951   0.753006)
   7:       147.79    0.735288  (  0.429721   0.249654  -0.698785)
   8:       175.87    0.825841  ( -0.263346   0.664145   0.561605)
   9:       197.52    2.440889  ( -1.147487   0.322908  -1.009898)
  10:       221.44    7.089663  (  1.929200   0.756673   1.671914)
  11:       264.12    0.350470  ( -0.240112   0.541125   0.000580)
  12:       286.11    3.269961  ( -1.395635   1.122835   0.247801)
  13:       383.22    3.157821  (  1.222846  -1.267587  -0.235990)
  14:       475.20    6.348768  (  0.790378   0.511813  -2.337117)
  15:       535.26    3.604141  (  1.141548   0.303194   1.486298)
  16:       732.38    8.078077  ( -1.739542  -1.310169  -1.826343)
  17:       793.71    2.293643  ( -0.376494   0.721340   1.277327)
  18:       799.23    1.136207  ( -0.847326   0.375948   0.526221)
  19:       840.62    0.638277  ( -0.236766  -0.440117   0.623310)
  20:       869.86    7.874978  (  0.723117   1.120872  -2.468952)
  21:       916.27   19.877860  (  0.981516  -0.292512   4.339231)
  22:       930.66    5.798092  (  2.376079   0.389337  -0.027525)
  23:       995.30   24.183527  (  1.635364   3.369167   3.187134)
  24:       999.13   13.199667  (  2.608902  -2.501505   0.368474)
  25:      1049.05    3.986492  (  1.756000  -0.746945   0.587392)
  26:      1065.10    7.822419  (  1.738706   1.519992   1.577639)
  27:      1067.59    6.004560  (  1.575050  -0.287024  -1.855100)
  28:      1106.39    4.680607  ( -0.897415  -1.194012   1.565116)
  29:      1116.43    9.361532  ( -3.053706  -0.149583   0.118484)
  30:      1131.67    4.784237  ( -0.889911   0.320938  -1.972130)
  31:      1150.83    3.741245  (  1.846993   0.499887  -0.282799)
  32:      1203.07    0.740776  (  0.290041  -0.437693   0.681965)
  33:      1214.09    2.819281  (  0.707006  -1.129537  -1.021553)
  34:      1264.85    6.929929  (  1.989288  -0.015642   1.724069)
  35:      1289.72    2.835221  ( -1.287557  -0.305247  -1.041269)
  36:      1352.98    0.647429  (  0.183359  -0.770285   0.143072)
  37:      1387.39   10.354179  ( -1.670113  -0.958984  -2.577839)
  38:      1398.60    4.490079  (  1.900729   0.413826   0.840271)
  39:      1419.58    9.853425  ( -2.174326  -1.121008  -1.966996)
  40:      1425.46   19.618640  (  0.716046   0.176334  -4.367473)
  41:      1462.47    0.857611  (  0.589773   0.712601   0.044486)
  42:      1476.78   95.168488  (  1.819293   1.912882  -9.391461)
  43:      1486.63   50.066734  ( -2.530857  -2.300962   6.194116)
  44:      1492.64   22.199578  ( -1.270866  -0.051534  -4.536719)
  45:      1503.90   28.362590  (  0.541970  -4.213027   3.212361)
  46:      1514.04    3.776197  (  0.318867   1.915668  -0.068833)
  47:      1642.01   44.810306  ( -1.382700   6.236304   2.001740)
  48:      1655.38   39.126750  ( -5.510356  -1.610792  -2.483562)
  49:      3040.22   16.019108  ( -0.426944   2.363819  -3.201435)
  50:      3068.24    6.465497  ( -1.114199  -1.663282   1.567658)
  51:      3077.41    1.114713  (  1.004919   0.103313   0.306883)
  52:      3093.12   11.361868  (  2.482537   1.796631   1.403921)
  53:      3140.76    4.908441  ( -0.630445   1.656694  -1.329039)
  54:      3143.89   10.650926  ( -1.919709  -1.486737  -2.180654)
  55:      3158.26    5.702426  (  1.728169  -1.426720   0.824821)
  56:      3158.75    3.552791  ( -0.443642   1.421002   1.156169)
  57:      3175.33    0.989950  (  0.697772  -0.216105  -0.675546)
  58:      3235.58    0.461627  ( -0.512797   0.395982  -0.204608)
  59:      3263.64    0.272385  ( -0.409133   0.238447   0.219405)
  60:      3418.77   29.879278  (  1.638435   1.170991  -5.081692)
  61:      3506.31   76.499371  ( -2.528315  -7.252952  -4.183501)
  62:      3519.11   69.728389  (  7.642563  -3.255777   0.848250)

--------------------------
THERMOCHEMISTRY AT 298.15K
--------------------------

Temperature         ... 298.15 K
Pressure            ... 1.00 atm
Total Mass          ... 100.18 AMU

Throughout the following assumptions are being made:
  (1) The electronic state is orbitally nondegenerate
  (2) There are no thermally accessible electronically excited states
  (3) Hindered rotations indicated by low frequency modes) are not
      treated as such but are treated as vibrations and this may
      case some error
  (4) All equations used are the standard statistical mechanics
      equations for an ideal gas
  (5) All vibrations are strinctly harmonic

------------
INNER ENERGY
------------

The inner energy is: U= E(el) + E(ZPE) + E(vib) + E(rot) + E(trans)
    E(el)   - is the total energy from the electronic structure calculation
              = E(kin-el) + E(nuc-el) + E(el-el) + E(nuc-nuc)
    E(ZPE)  - the the zero temperature vibrational energy from the frequency calculation
    E(vib)  - the the finite temperature correction to E(ZPE) due to population
              of excietd vibrational states
    E(rot)  - is the rotational thermal energy
    E(trans)- is the translational thermal energy

Summary of contributions to the inner energy U:
Electronic energy                ...   -291.30772165 Eh
Zero point energy                ...      0.19942148 Eh     125.14 kcal/mol
Thermal vibrational correction   ...      0.00562363 Eh       3.53 kcal/mol
Thermal rotational correction    ...      0.00141627 Eh       0.89 kcal/mol
Thermal translational correction ...      0.00141627 Eh       0.89 kcal/mol
-----------------------------------------------------------------------
Total thermal energy                   -291.09984399 Eh

Summary of corrections to the electronic energy:
(perhaps to be used in another calculation)
Total thermal correction                  0.00845618 Eh       5.31 kcal/mol
Non-thermal (ZPE) correction              0.19942148 Eh     125.14 kcal/mol
-----------------------------------------------------------------------
Total correction                          0.20787766 Eh     130.44 kcal/mol

--------
ENTHALPY
--------

The enthalpy is H = U + kB*T
                kB is Boltzmann's constant
Total free energy                 ...   -291.09984399 Eh
Thermal Enthalpy correction       ...      0.00094421 Eh       0.59 kcal/mol
-----------------------------------------------------------------------
Total Enthalpy                    ...   -291.09889978 Eh

-------
ENTROPY
-------

The entropy contributions are T*S = T*(S(el)+S(vib)+S(rot)+S(trans)
     S(el)   - electronic entropy
     S(vib)  - vibrational entropy
     S(rot)  - rotational entropy
     S(trans)- translational entropy
The entropies will be listed as mutliplied by the temperature to get
units of energy

Electronic entropy                ...      0.00000000 Eh      0.00 kcal/mol
Vibrational entropy               ...      0.00968952 Eh      6.08 kcal/mol
Rotational entropy                ...      0.01218119 Eh      7.64 kcal/mol
Translational entropy             ...      0.01887386 Eh     11.84 kcal/mol
-----------------------------------------------------------------------
Final entropy term                ...      0.04074457 Eh     25.57 kcal/mol

CAUTION: The rotational entropy is not quite correctly treated here
         because it includes a symmetry number that is not yet correctly
         implemented in ORCA!
For a nonlinear molecule the correct rotational entropy is:
    S(rot) = R*(ln(qrot/sn)+1.5)
    R    = 8.31441 J/mol/K = 1.987191683e-3 kcal/mol/K
    qrot = 268321.7877237
    sn is the rotational symmetry number. We have assumed 3 here
       if it is different for your molecule then you should correct
       the printed rotational entropy by manually evaluating the equation
       as given above

For convenience we print out the resulting values for sn=1 - 12:
 sn= 1  qrot/sn=  268321.7877 T*S(rot)=     8.29 kcal/mol T*S(tot)=    26.22 kcal/mol
 sn= 2  qrot/sn=  134160.8939 T*S(rot)=     7.88 kcal/mol T*S(tot)=    25.81 kcal/mol
 sn= 3  qrot/sn=   89440.5959 T*S(rot)=     7.64 kcal/mol T*S(tot)=    25.57 kcal/mol
 sn= 4  qrot/sn=   67080.4469 T*S(rot)=     7.47 kcal/mol T*S(tot)=    25.40 kcal/mol
 sn= 5  qrot/sn=   53664.3575 T*S(rot)=     7.34 kcal/mol T*S(tot)=    25.26 kcal/mol
 sn= 6  qrot/sn=   44720.2980 T*S(rot)=     7.23 kcal/mol T*S(tot)=    25.16 kcal/mol
 sn= 7  qrot/sn=   38331.6840 T*S(rot)=     7.14 kcal/mol T*S(tot)=    25.07 kcal/mol
 sn= 8  qrot/sn=   33540.2235 T*S(rot)=     7.06 kcal/mol T*S(tot)=    24.99 kcal/mol
 sn= 9  qrot/sn=   29813.5320 T*S(rot)=     6.99 kcal/mol T*S(tot)=    24.92 kcal/mol
 sn=10  qrot/sn=   26832.1788 T*S(rot)=     6.93 kcal/mol T*S(tot)=    24.85 kcal/mol
 sn=11  qrot/sn=   24392.8898 T*S(rot)=     6.87 kcal/mol T*S(tot)=    24.80 kcal/mol
 sn=12  qrot/sn=   22360.1490 T*S(rot)=     6.82 kcal/mol T*S(tot)=    24.75 kcal/mol

-------------------
GIBBS FREE ENTHALPY
-------------------

The Gibbs free enthalpy is G = H - T*S

Total enthalpy                    ...   -291.09889978 Eh
Total entropy correction          ...     -0.04074457 Eh    -25.57 kcal/mol
-----------------------------------------------------------------------
Final Gibbs free enthalpy         ...   -291.13964435 Eh

For completeness - the Gibbs free enthalpy minus the electronic energy
G-E(el)                           ...      0.16807730 Eh    105.47 kcal/mol

                             ****ORCA TERMINATED NORMALLY****
TOTAL RUN TIME: 0 days 0 hours 55 minutes 2 seconds 387 msec
