                         Program Version 3.0.3 - RELEASE   -
|  1> ! NORI PBE0 def2-TZVP UseSym TightOPT Freq TightSCF Grid3 FinalGrid5 XYZFile
|  2> % pal
|  3>     nprocs 8
|  4> end
|  5> %method
|  6>     SymThresh 5.0e-2
|  7> end
|  8> % geom
|  9>     MaxIter 10
| 10> end
| 11> % maxcore 2000
| 12> % output
| 13>     printlevel mini
| 14>     print[ P_Basis ] 0
| 15>     print[ P_SCFInfo ] 1
| 16>     print[ P_SCFIterInfo ] 1
| 17>     print[ P_OrbEn ] 0
| 18>     print[ P_Cartesian ] 0
| 19> end
| 20> % elprop
| 21>     Dipole false
| 22> end
| 23> *xyz 1 1
| 24>  C        2.5446119298    -1.0151966002    -0.6242927141
| 25>  C        2.1360880827     0.1764597266    -0.1907267229
| 26>  C        0.7599748233     0.4993732630     0.0165302711
| 27>  N       -0.3252105506     0.8476817907     0.1784651891
| 28>  C        3.0754553116     1.2744675797     0.1652243344
| 29>  C        4.2686252409     1.5910765030    -0.6321566186
| 30>  N        3.0757544244     2.4636799826    -0.7450405047
| 31>  H        3.5963174346    -1.2383631751    -0.7601593334
| 32>  H        1.8333120576    -1.8044328081    -0.8335250808
| 33>  H        3.0755188786     1.5843222667     1.2063369210
| 34>  H        5.1195547871     2.0614043198    -0.1560920214
| 35>  H        4.4752157970     1.0248586616    -1.5313031527
| 36>  H        2.5202955995     2.4021174024    -1.5939528346
| 37>  H        3.1034561836     3.3912910873    -0.3333277323
| 38> *
| 39>
| 40>                          ****END OF INPUT****
 Total Charge           Charge          ....    1
 Multiplicity           Mult            ....    1
 Number of Electrons    NEL             ....   50
FINAL SINGLE POINT ENERGY      -303.660887958165
FINAL SINGLE POINT ENERGY      -303.660888649514

CARTESIAN COORDINATES (ANGSTROEM)
---------------------------------
  C     -1.813178    0.648400   -0.302879
  C     -0.706067    0.069225    0.159370
  C     -0.362137    0.042773    1.545666
  N      0.001362    0.005664    2.637285
  C      0.257890   -0.647977   -0.718610
  C      0.661996   -0.139903   -2.037142
  N      1.596897   -0.001625   -0.895266
  H     -2.056840    0.641976   -1.358980
  H     -2.514321    1.124778    0.371155
  H      0.362852   -1.714938   -0.542421
  H      0.990965   -0.834768   -2.799028
  H      0.266653    0.804893   -2.388154
  H      1.725111    0.923017   -0.493163
  H      2.426761   -0.585864   -0.865315

FINAL SINGLE POINT ENERGY      -303.660889206517
                    ***********************HURRAY********************
 Multiplicity           Mult            ....    1
 Number of Electrons    NEL             ....   50
 Basis Dimension        Dim             ....  259
FINAL SINGLE POINT ENERGY      -303.660889407989

VIBRATIONAL FREQUENCIES
-----------------------

   0:         0.00 cm**-1
   1:         0.00 cm**-1
   2:         0.00 cm**-1
   3:         0.00 cm**-1
   4:         0.00 cm**-1
   5:         0.00 cm**-1
   6:        53.28 cm**-1
   7:       140.13 cm**-1
   8:       216.02 cm**-1
   9:       263.46 cm**-1
  10:       357.16 cm**-1
  11:       453.48 cm**-1
  12:       563.36 cm**-1
  13:       641.29 cm**-1
  14:       734.51 cm**-1
  15:       767.20 cm**-1
  16:       830.05 cm**-1
  17:       879.31 cm**-1
  18:       892.26 cm**-1
  19:       935.99 cm**-1
  20:       963.69 cm**-1
  21:      1030.58 cm**-1
  22:      1038.32 cm**-1
  23:      1126.84 cm**-1
  24:      1159.86 cm**-1
  25:      1183.63 cm**-1
  26:      1241.57 cm**-1
  27:      1257.10 cm**-1
  28:      1291.76 cm**-1
  29:      1428.46 cm**-1
  30:      1450.82 cm**-1
  31:      1493.17 cm**-1
  32:      1632.04 cm**-1
  33:      1699.07 cm**-1
  34:      2369.89 cm**-1
  35:      3174.80 cm**-1
  36:      3175.96 cm**-1
  37:      3178.87 cm**-1
  38:      3275.08 cm**-1
  39:      3277.00 cm**-1
  40:      3496.23 cm**-1
  41:      3600.38 cm**-1

IR SPECTRUM
-----------

 Mode    freq (cm**-1)   T**2         TX         TY         TZ
-------------------------------------------------------------------
   6:        53.28    7.870794  (  1.154484   1.848972  -1.766143)
   7:       140.13   12.580348  (  2.075709  -1.868947  -2.186051)
   8:       216.02    0.980086  (  0.468404  -0.400096  -0.774988)
   9:       263.46    0.470337  ( -0.682623  -0.013736   0.064613)
  10:       357.16    1.150217  ( -0.365023   0.568915   0.832653)
  11:       453.48    0.096777  (  0.175767   0.194617   0.167352)
  12:       563.36    6.280725  ( -1.607581  -1.304812   1.412046)
  13:       641.29    6.011099  (  0.867747   2.278097  -0.261510)
  14:       734.51    4.606308  ( -2.058728  -0.575726   0.191015)
  15:       767.20    0.650699  (  0.796249  -0.112517   0.063457)
  16:       830.05    6.639843  (  2.519225   0.530891  -0.107263)
  17:       879.31    3.406192  (  0.062648  -0.913383  -1.602498)
  18:       892.26   16.719727  ( -3.855303   0.130323  -1.356239)
  19:       935.99    7.021145  ( -2.026580  -1.614611   0.554211)
  20:       963.69   14.397422  ( -3.003974  -2.212554   0.691493)
  21:      1030.58   23.996834  (  2.051123   4.443462   0.213004)
  22:      1038.32  101.051125  (  3.799860   3.779916  -8.504377)
  23:      1126.84    7.346661  (  0.542692  -1.468742  -2.212452)
  24:      1159.86    1.560342  (  0.269574   1.050205  -0.620275)
  25:      1183.63    1.211050  (  0.806195   0.583914  -0.469196)
  26:      1241.57    3.874603  (  1.352899  -0.092265  -1.426799)
  27:      1257.10    3.856963  (  0.916035   1.736977  -0.027465)
  28:      1291.76    8.271918  ( -0.950004   1.470371   2.281977)
  29:      1428.46    0.250502  ( -0.139168  -0.464599   0.123623)
  30:      1450.82   35.422557  (  4.732869  -2.736528   2.352429)
  31:      1493.17   10.511654  (  0.701025   0.386334  -3.141809)
  32:      1632.04   68.695566  (  7.584041   2.776135   1.863054)
  33:      1699.07    0.729412  ( -0.366882  -0.201114  -0.744556)
  34:      2369.89    0.705799  ( -0.065376   0.140095   0.825772)
  35:      3174.80    5.823301  ( -0.265294  -0.236199   2.386866)
  36:      3175.96    8.031324  (  2.237177  -1.733897   0.141299)
  37:      3178.87    5.080908  (  1.070789   1.903448  -0.557856)
  38:      3275.08    6.711149  ( -1.387403   1.422558   1.662104)
  39:      3277.00    7.267143  (  0.830201  -2.537098  -0.375558)
  40:      3496.23  120.723631  (-10.061313  -3.126370  -3.117599)
  41:      3600.38  141.456654  ( -5.706839  10.124051   2.528288)

--------------------------
THERMOCHEMISTRY AT 298.15K
--------------------------

Temperature         ... 298.15 K
Pressure            ... 1.00 atm
Total Mass          ... 95.12 AMU

Throughout the following assumptions are being made:
  (1) The electronic state is orbitally nondegenerate
  (2) There are no thermally accessible electronically excited states
  (3) Hindered rotations indicated by low frequency modes) are not
      treated as such but are treated as vibrations and this may
      case some error
  (4) All equations used are the standard statistical mechanics
      equations for an ideal gas
  (5) All vibrations are strinctly harmonic

------------
INNER ENERGY
------------

The inner energy is: U= E(el) + E(ZPE) + E(vib) + E(rot) + E(trans)
    E(el)   - is the total energy from the electronic structure calculation
              = E(kin-el) + E(nuc-el) + E(el-el) + E(nuc-nuc)
    E(ZPE)  - the the zero temperature vibrational energy from the frequency calculation
    E(vib)  - the the finite temperature correction to E(ZPE) due to population
              of excietd vibrational states
    E(rot)  - is the rotational thermal energy
    E(trans)- is the translational thermal energy

Summary of contributions to the inner energy U:
Electronic energy                ...   -303.66088941 Eh
Zero point energy                ...      0.11680760 Eh      73.30 kcal/mol
Thermal vibrational correction   ...      0.00407486 Eh       2.56 kcal/mol
Thermal rotational correction    ...      0.00141627 Eh       0.89 kcal/mol
Thermal translational correction ...      0.00141627 Eh       0.89 kcal/mol
-----------------------------------------------------------------------
Total thermal energy                   -303.53717440 Eh

Summary of corrections to the electronic energy:
(perhaps to be used in another calculation)
Total thermal correction                  0.00690740 Eh       4.33 kcal/mol
Non-thermal (ZPE) correction              0.11680760 Eh      73.30 kcal/mol
-----------------------------------------------------------------------
Total correction                          0.12371500 Eh      77.63 kcal/mol

--------
ENTHALPY
--------

The enthalpy is H = U + kB*T
                kB is Boltzmann's constant
Total free energy                 ...   -303.53717440 Eh
Thermal Enthalpy correction       ...      0.00094421 Eh       0.59 kcal/mol
-----------------------------------------------------------------------
Total Enthalpy                    ...   -303.53623019 Eh

-------
ENTROPY
-------

The entropy contributions are T*S = T*(S(el)+S(vib)+S(rot)+S(trans)
     S(el)   - electronic entropy
     S(vib)  - vibrational entropy
     S(rot)  - rotational entropy
     S(trans)- translational entropy
The entropies will be listed as mutliplied by the temperature to get
units of energy

Electronic entropy                ...      0.00000000 Eh      0.00 kcal/mol
Vibrational entropy               ...      0.00742177 Eh      4.66 kcal/mol
Rotational entropy                ...      0.01201254 Eh      7.54 kcal/mol
Translational entropy             ...      0.01880046 Eh     11.80 kcal/mol
-----------------------------------------------------------------------
Final entropy term                ...      0.03823477 Eh     23.99 kcal/mol

CAUTION: The rotational entropy is not quite correctly treated here
         because it includes a symmetry number that is not yet correctly
         implemented in ORCA!
For a nonlinear molecule the correct rotational entropy is:
    S(rot) = R*(ln(qrot/sn)+1.5)
    R    = 8.31441 J/mol/K = 1.987191683e-3 kcal/mol/K
    qrot = 224430.2982576
    sn is the rotational symmetry number. We have assumed 3 here
       if it is different for your molecule then you should correct
       the printed rotational entropy by manually evaluating the equation
       as given above

For convenience we print out the resulting values for sn=1 - 12:
 sn= 1  qrot/sn=  224430.2983 T*S(rot)=     8.19 kcal/mol T*S(tot)=    24.64 kcal/mol
 sn= 2  qrot/sn=  112215.1491 T*S(rot)=     7.78 kcal/mol T*S(tot)=    24.23 kcal/mol
 sn= 3  qrot/sn=   74810.0994 T*S(rot)=     7.54 kcal/mol T*S(tot)=    23.99 kcal/mol
 sn= 4  qrot/sn=   56107.5746 T*S(rot)=     7.37 kcal/mol T*S(tot)=    23.82 kcal/mol
 sn= 5  qrot/sn=   44886.0597 T*S(rot)=     7.24 kcal/mol T*S(tot)=    23.69 kcal/mol
 sn= 6  qrot/sn=   37405.0497 T*S(rot)=     7.13 kcal/mol T*S(tot)=    23.58 kcal/mol
 sn= 7  qrot/sn=   32061.4712 T*S(rot)=     7.04 kcal/mol T*S(tot)=    23.49 kcal/mol
 sn= 8  qrot/sn=   28053.7873 T*S(rot)=     6.96 kcal/mol T*S(tot)=    23.41 kcal/mol
 sn= 9  qrot/sn=   24936.6998 T*S(rot)=     6.89 kcal/mol T*S(tot)=    23.34 kcal/mol
 sn=10  qrot/sn=   22443.0298 T*S(rot)=     6.82 kcal/mol T*S(tot)=    23.28 kcal/mol
 sn=11  qrot/sn=   20402.7544 T*S(rot)=     6.77 kcal/mol T*S(tot)=    23.22 kcal/mol
 sn=12  qrot/sn=   18702.5249 T*S(rot)=     6.72 kcal/mol T*S(tot)=    23.17 kcal/mol

-------------------
GIBBS FREE ENTHALPY
-------------------

The Gibbs free enthalpy is G = H - T*S

Total enthalpy                    ...   -303.53623019 Eh
Total entropy correction          ...     -0.03823477 Eh    -23.99 kcal/mol
-----------------------------------------------------------------------
Final Gibbs free enthalpy         ...   -303.57446496 Eh

For completeness - the Gibbs free enthalpy minus the electronic energy
G-E(el)                           ...      0.08642444 Eh     54.23 kcal/mol

                             ****ORCA TERMINATED NORMALLY****
TOTAL RUN TIME: 0 days 0 hours 25 minutes 48 seconds 745 msec
