                         Program Version 3.0.3 - RELEASE   -
|  1> ! NORI PBE0 def2-TZVP UseSym TightOPT Freq TightSCF Grid3 FinalGrid5 XYZFile
|  2> % pal
|  3>     nprocs 8
|  4> end
|  5> %method
|  6>     SymThresh 5.0e-2
|  7> end
|  8> % geom
|  9>     MaxIter 10
| 10> end
| 11> % maxcore 2000
| 12> % output
| 13>     printlevel mini
| 14>     print[ P_Basis ] 0
| 15>     print[ P_SCFInfo ] 1
| 16>     print[ P_SCFIterInfo ] 1
| 17>     print[ P_OrbEn ] 0
| 18>     print[ P_Cartesian ] 0
| 19> end
| 20> % elprop
| 21>     Dipole false
| 22> end
| 23> *xyz 1 1
| 24>  C        1.0235878893    -0.0867260588    -0.0364855275
| 25>  C        2.5467789398    -0.0955722364     0.0982853485
| 26>  C        2.9787914788    -0.6952095203     1.3557401365
| 27>  N        3.3525460535    -1.3101194928     2.2531039388
| 28>  C        3.2277684093    -0.8513502328    -1.0320389935
| 29>  C        4.6143768106    -1.3343794813    -0.9635643757
| 30>  N        3.4989470349    -2.2998605441    -0.8160410618
| 31>  H        0.7361037939     0.3836195838    -0.9779010143
| 32>  H        0.5802522896     0.4838842213     0.7787225005
| 33>  H        0.6130806155    -1.0973408731    -0.0037766168
| 34>  H        2.9262839623     0.9319956306     0.0543368633
| 35>  H        2.8218579065    -0.6543342775    -2.0185921692
| 36>  H        5.1798807364    -1.1986587874    -0.0486999694
| 37>  H        5.1854895386    -1.4441715827    -1.8762549171
| 38>  H        3.3119422308    -2.9592926415    -1.5638806089
| 39>  H        3.3445523104    -2.6575237071     0.1282264664
| 40> *
| 41>
| 42>                          ****END OF INPUT****
 Total Charge           Charge          ....    1
 Multiplicity           Mult            ....    1
 Number of Electrons    NEL             ....   52
FINAL SINGLE POINT ENERGY      -304.898948135615

CARTESIAN COORDINATES (ANGSTROEM)
---------------------------------
  C     -1.528687   -1.480461   -0.539943
  C     -0.988062   -0.095598   -0.181086
  C     -0.524415   -0.033111    1.200453
  N      0.000644   -0.000803    2.223339
  C      0.166355    0.329135   -1.075508
  C      1.101666    1.410366   -0.733068
  N      1.543006    0.000309   -0.611346
  H     -1.882147   -1.485780   -1.572030
  H     -2.366663   -1.733354    0.108554
  H     -0.764956   -2.250877   -0.421084
  H     -1.776138    0.654094   -0.318045
  H      0.027462    0.111906   -2.129207
  H      1.010165    1.908610    0.225118
  H      1.586659    1.965607   -1.525227
  H      2.218286   -0.366506   -1.273416
  H      1.630229   -0.356062    0.342041

FINAL SINGLE POINT ENERGY      -304.898948642938
                    ***********************HURRAY********************
 Multiplicity           Mult            ....    1
 Number of Electrons    NEL             ....   52
 Basis Dimension        Dim             ....  271
FINAL SINGLE POINT ENERGY      -304.898948798443

VIBRATIONAL FREQUENCIES
-----------------------

   0:         0.00 cm**-1
   1:         0.00 cm**-1
   2:         0.00 cm**-1
   3:         0.00 cm**-1
   4:         0.00 cm**-1
   5:         0.00 cm**-1
   6:        86.37 cm**-1
   7:       148.16 cm**-1
   8:       201.72 cm**-1
   9:       219.20 cm**-1
  10:       254.46 cm**-1
  11:       386.00 cm**-1
  12:       426.49 cm**-1
  13:       567.86 cm**-1
  14:       641.67 cm**-1
  15:       734.16 cm**-1
  16:       836.36 cm**-1
  17:       870.90 cm**-1
  18:       896.18 cm**-1
  19:       914.56 cm**-1
  20:       957.10 cm**-1
  21:      1043.96 cm**-1
  22:      1056.47 cm**-1
  23:      1095.23 cm**-1
  24:      1108.15 cm**-1
  25:      1159.63 cm**-1
  26:      1174.83 cm**-1
  27:      1187.76 cm**-1
  28:      1253.96 cm**-1
  29:      1282.59 cm**-1
  30:      1306.86 cm**-1
  31:      1341.35 cm**-1
  32:      1404.40 cm**-1
  33:      1424.28 cm**-1
  34:      1483.58 cm**-1
  35:      1488.11 cm**-1
  36:      1492.89 cm**-1
  37:      1611.48 cm**-1
  38:      2372.80 cm**-1
  39:      3066.63 cm**-1
  40:      3072.32 cm**-1
  41:      3153.73 cm**-1
  42:      3167.68 cm**-1
  43:      3168.56 cm**-1
  44:      3198.99 cm**-1
  45:      3273.48 cm**-1
  46:      3435.63 cm**-1
  47:      3587.54 cm**-1

IR SPECTRUM
-----------

 Mode    freq (cm**-1)   T**2         TX         TY         TZ
-------------------------------------------------------------------
   6:        86.37    5.844695  ( -0.423626   1.551777   1.804778)
   7:       148.16   19.267585  (  3.047620   1.535290  -2.760885)
   8:       201.72    4.904929  (  1.569789  -0.978412  -1.217950)
   9:       219.20    1.417557  ( -0.824729  -0.658013   0.551722)
  10:       254.46    1.793732  (  1.001116   0.861517   0.222010)
  11:       386.00    1.543397  ( -0.956571  -0.164607   0.775418)
  12:       426.49    1.323875  ( -0.506226  -0.671409   0.785379)
  13:       567.86    1.421750  (  0.928172   0.500970   0.556126)
  14:       641.67    0.094438  (  0.190509   0.056084  -0.234520)
  15:       734.16    0.468326  (  0.190839  -0.591345   0.286737)
  16:       836.36    5.227004  (  1.326599  -1.833051  -0.327204)
  17:       870.90    7.828328  ( -1.268960   2.443249  -0.498601)
  18:       896.18   11.733429  (  2.939393   0.033661  -1.758483)
  19:       914.56    6.987189  ( -2.068950   0.266497  -1.623457)
  20:       957.10   12.437497  ( -2.295213   2.431425  -1.121459)
  21:      1043.96    2.808803  (  1.168732   0.484140   1.099307)
  22:      1056.47   63.894073  (  5.374144   5.384408   2.453731)
  23:      1095.23   34.699865  (  4.328820   3.080605  -2.543828)
  24:      1108.15    2.528152  ( -1.229299  -0.677610  -0.746873)
  25:      1159.63    2.795396  ( -1.455310  -0.182462  -0.802607)
  26:      1174.83    0.646450  (  0.342638  -0.638282   0.348776)
  27:      1187.76    5.278013  ( -2.150159  -0.352429  -0.728440)
  28:      1253.96    1.558390  (  0.477349   0.158678  -1.142519)
  29:      1282.59    6.948305  (  0.314608   1.730200  -1.963602)
  30:      1306.86    0.719936  ( -0.511701   0.676779  -0.008300)
  31:      1341.35    0.265181  ( -0.200443  -0.331548   0.339234)
  32:      1404.40    5.964662  ( -0.673853  -1.728606  -1.588239)
  33:      1424.28    2.366864  (  0.318032  -1.296733   0.764333)
  34:      1483.58   10.387414  (  2.810463  -0.624273  -1.448790)
  35:      1488.11   16.124341  ( -0.766473  -3.935087   0.227920)
  36:      1492.89   11.951399  ( -2.240163   1.197465  -2.345026)
  37:      1611.48   77.647248  ( -7.852977   3.984691  -0.316599)
  38:      2372.80    0.695860  (  0.587464   0.339419   0.485325)
  39:      3066.63    5.678157  (  2.090912  -1.021857  -0.511911)
  40:      3072.32    1.485420  ( -0.398521  -0.485796  -1.044320)
  41:      3153.73    2.408628  (  0.936909  -0.850585   0.898518)
  42:      3167.68    0.215042  (  0.109852  -0.144428  -0.426749)
  43:      3168.56    5.843002  (  0.666285   2.220938   0.683007)
  44:      3198.99    2.626176  (  0.529411   0.293161   1.503316)
  45:      3273.48   10.740329  (  1.046074   0.098158  -3.104259)
  46:      3435.63   97.347239  ( -3.525902   5.924002  -7.058432)
  47:      3587.54  172.256345  (  8.266113  -2.438840  -9.898474)

--------------------------
THERMOCHEMISTRY AT 298.15K
--------------------------

Temperature         ... 298.15 K
Pressure            ... 1.00 atm
Total Mass          ... 97.14 AMU

Throughout the following assumptions are being made:
  (1) The electronic state is orbitally nondegenerate
  (2) There are no thermally accessible electronically excited states
  (3) Hindered rotations indicated by low frequency modes) are not
      treated as such but are treated as vibrations and this may
      case some error
  (4) All equations used are the standard statistical mechanics
      equations for an ideal gas
  (5) All vibrations are strinctly harmonic

------------
INNER ENERGY
------------

The inner energy is: U= E(el) + E(ZPE) + E(vib) + E(rot) + E(trans)
    E(el)   - is the total energy from the electronic structure calculation
              = E(kin-el) + E(nuc-el) + E(el-el) + E(nuc-nuc)
    E(ZPE)  - the the zero temperature vibrational energy from the frequency calculation
    E(vib)  - the the finite temperature correction to E(ZPE) due to population
              of excietd vibrational states
    E(rot)  - is the rotational thermal energy
    E(trans)- is the translational thermal energy

Summary of contributions to the inner energy U:
Electronic energy                ...   -304.89894880 Eh
Zero point energy                ...      0.14023055 Eh      88.00 kcal/mol
Thermal vibrational correction   ...      0.00452439 Eh       2.84 kcal/mol
Thermal rotational correction    ...      0.00141627 Eh       0.89 kcal/mol
Thermal translational correction ...      0.00141627 Eh       0.89 kcal/mol
-----------------------------------------------------------------------
Total thermal energy                   -304.75136132 Eh

Summary of corrections to the electronic energy:
(perhaps to be used in another calculation)
Total thermal correction                  0.00735693 Eh       4.62 kcal/mol
Non-thermal (ZPE) correction              0.14023055 Eh      88.00 kcal/mol
-----------------------------------------------------------------------
Total correction                          0.14758748 Eh      92.61 kcal/mol

--------
ENTHALPY
--------

The enthalpy is H = U + kB*T
                kB is Boltzmann's constant
Total free energy                 ...   -304.75136132 Eh
Thermal Enthalpy correction       ...      0.00094421 Eh       0.59 kcal/mol
-----------------------------------------------------------------------
Total Enthalpy                    ...   -304.75041711 Eh

-------
ENTROPY
-------

The entropy contributions are T*S = T*(S(el)+S(vib)+S(rot)+S(trans)
     S(el)   - electronic entropy
     S(vib)  - vibrational entropy
     S(rot)  - rotational entropy
     S(trans)- translational entropy
The entropies will be listed as mutliplied by the temperature to get
units of energy

Electronic entropy                ...      0.00000000 Eh      0.00 kcal/mol
Vibrational entropy               ...      0.00788304 Eh      4.95 kcal/mol
Rotational entropy                ...      0.01198531 Eh      7.52 kcal/mol
Translational entropy             ...      0.01883016 Eh     11.82 kcal/mol
-----------------------------------------------------------------------
Final entropy term                ...      0.03869851 Eh     24.28 kcal/mol

CAUTION: The rotational entropy is not quite correctly treated here
         because it includes a symmetry number that is not yet correctly
         implemented in ORCA!
For a nonlinear molecule the correct rotational entropy is:
    S(rot) = R*(ln(qrot/sn)+1.5)
    R    = 8.31441 J/mol/K = 1.987191683e-3 kcal/mol/K
    qrot = 218049.4808639
    sn is the rotational symmetry number. We have assumed 3 here
       if it is different for your molecule then you should correct
       the printed rotational entropy by manually evaluating the equation
       as given above

For convenience we print out the resulting values for sn=1 - 12:
 sn= 1  qrot/sn=  218049.4809 T*S(rot)=     8.17 kcal/mol T*S(tot)=    24.93 kcal/mol
 sn= 2  qrot/sn=  109024.7404 T*S(rot)=     7.76 kcal/mol T*S(tot)=    24.52 kcal/mol
 sn= 3  qrot/sn=   72683.1603 T*S(rot)=     7.52 kcal/mol T*S(tot)=    24.28 kcal/mol
 sn= 4  qrot/sn=   54512.3702 T*S(rot)=     7.35 kcal/mol T*S(tot)=    24.11 kcal/mol
 sn= 5  qrot/sn=   43609.8962 T*S(rot)=     7.22 kcal/mol T*S(tot)=    23.98 kcal/mol
 sn= 6  qrot/sn=   36341.5801 T*S(rot)=     7.11 kcal/mol T*S(tot)=    23.87 kcal/mol
 sn= 7  qrot/sn=   31149.9258 T*S(rot)=     7.02 kcal/mol T*S(tot)=    23.78 kcal/mol
 sn= 8  qrot/sn=   27256.1851 T*S(rot)=     6.94 kcal/mol T*S(tot)=    23.70 kcal/mol
 sn= 9  qrot/sn=   24227.7201 T*S(rot)=     6.87 kcal/mol T*S(tot)=    23.63 kcal/mol
 sn=10  qrot/sn=   21804.9481 T*S(rot)=     6.81 kcal/mol T*S(tot)=    23.57 kcal/mol
 sn=11  qrot/sn=   19822.6801 T*S(rot)=     6.75 kcal/mol T*S(tot)=    23.51 kcal/mol
 sn=12  qrot/sn=   18170.7901 T*S(rot)=     6.70 kcal/mol T*S(tot)=    23.46 kcal/mol

-------------------
GIBBS FREE ENTHALPY
-------------------

The Gibbs free enthalpy is G = H - T*S

Total enthalpy                    ...   -304.75041711 Eh
Total entropy correction          ...     -0.03869851 Eh    -24.28 kcal/mol
-----------------------------------------------------------------------
Final Gibbs free enthalpy         ...   -304.78911562 Eh

For completeness - the Gibbs free enthalpy minus the electronic energy
G-E(el)                           ...      0.10983318 Eh     68.92 kcal/mol

                             ****ORCA TERMINATED NORMALLY****
TOTAL RUN TIME: 0 days 0 hours 30 minutes 23 seconds 429 msec
