                         Program Version 3.0.3 - RELEASE   -
|  1> ! NORI PBE0 def2-TZVP UseSym TightOPT Freq TightSCF Grid3 FinalGrid5 XYZFile
|  2> % pal
|  3>     nprocs 8
|  4> end
|  5> %method
|  6>     SymThresh 5.0e-2
|  7> end
|  8> % geom
|  9>     MaxIter 10
| 10> end
| 11> % maxcore 2000
| 12> % output
| 13>     printlevel mini
| 14>     print[ P_Basis ] 0
| 15>     print[ P_SCFInfo ] 1
| 16>     print[ P_SCFIterInfo ] 1
| 17>     print[ P_OrbEn ] 0
| 18>     print[ P_Cartesian ] 0
| 19> end
| 20> % elprop
| 21>     Dipole false
| 22> end
| 23> *xyz 1 1
| 24>  C        1.8047765914     0.0428842572    -0.6323660759
| 25>  C        3.0079548897    -0.7891496012    -1.0478285483
| 26>  C        3.4286992831    -0.5934867905    -2.4896068065
| 27>  N        3.8493089527     0.8193194302    -2.7538737801
| 28>  C        4.2649993259     1.1093843032    -4.1629758218
| 29>  C        4.6458864067     2.5641910648    -4.3419035405
| 30>  C        3.5111024951     3.5415785379    -4.0773855940
| 31>  H        1.4988121058    -0.2131065692     0.3819623129
| 32>  H        0.9482718030    -0.1369982815    -1.2874206539
| 33>  H        2.0092895572     1.1191420950    -0.6223961952
| 34>  H        3.8601285927    -0.5996349709    -0.3851238571
| 35>  H        2.7790900677    -1.8522270941    -0.9355507676
| 36>  H        4.2761354672    -1.2257973803    -2.7581744309
| 37>  H        2.6095615778    -0.8021725183    -3.1809505088
| 38>  H        3.0809539661     1.4454754247    -2.5030384542
| 39>  H        4.6178323073     1.0602192485    -2.1236937124
| 40>  H        5.0940295936     0.4367295913    -4.3875462171
| 41>  H        3.4171047749     0.8352694324    -4.7940916308
| 42>  H        4.9893340331     2.6680092670    -5.3742121659
| 43>  H        5.5152695216     2.7988559356    -3.7175938482
| 44>  H        2.6389788452     3.3200541331    -4.6976918584
| 45>  H        3.8256997280     4.5594758735    -4.3088311416
| 46>  H        3.1919001142     3.5567146114    -3.0297167036
| 47> *
| 48>
| 49>                          ****END OF INPUT****
 Total Charge           Charge          ....    1
 Multiplicity           Mult            ....    1
 Number of Electrons    NEL             ....   58
FINAL SINGLE POINT ENERGY      -292.545030946319
FINAL SINGLE POINT ENERGY      -292.545032040760

CARTESIAN COORDINATES (ANGSTROEM)
---------------------------------
  C     -1.060309    0.651434    2.604493
  C      0.345617    0.082354    2.489644
  C      0.568191   -0.780533    1.264890
  N      0.387842    0.001042   -0.000001
  C      0.568188   -0.780535   -1.264889
  C      0.345617    0.082350   -2.489645
  C     -1.060305    0.651441   -2.604492
  H     -1.178413    1.182295    3.549281
  H     -1.815592   -0.138289    2.576848
  H     -1.295421    1.378747    1.819877
  H      1.093381    0.882994    2.519263
  H      0.559275   -0.550900    3.354510
  H      1.576866   -1.194641    1.232979
  H     -0.145147   -1.605855    1.218224
  H     -0.545844    0.417052   -0.000000
  H      1.040428    0.788320   -0.000002
  H      1.576862   -1.194647   -1.232979
  H     -0.145153   -1.605855   -1.218222
  H      0.559267   -0.550909   -3.354510
  H      1.093387    0.882983   -2.519269
  H     -1.815594   -0.138276   -2.576840
  H     -1.178408    1.182299   -3.549281
  H     -1.295407    1.378759   -1.819878

FINAL SINGLE POINT ENERGY      -292.545032272588
                    ***********************HURRAY********************
 Multiplicity           Mult            ....    1
 Number of Electrons    NEL             ....   58
 Basis Dimension        Dim             ....  313
FINAL SINGLE POINT ENERGY      -292.545031598255

VIBRATIONAL FREQUENCIES
-----------------------

   0:         0.00 cm**-1
   1:         0.00 cm**-1
   2:         0.00 cm**-1
   3:         0.00 cm**-1
   4:         0.00 cm**-1
   5:         0.00 cm**-1
   6:        45.77 cm**-1
   7:        65.25 cm**-1
   8:       129.24 cm**-1
   9:       131.00 cm**-1
  10:       152.62 cm**-1
  11:       234.47 cm**-1
  12:       270.17 cm**-1
  13:       309.35 cm**-1
  14:       321.85 cm**-1
  15:       459.91 cm**-1
  16:       474.48 cm**-1
  17:       747.22 cm**-1
  18:       769.05 cm**-1
  19:       798.94 cm**-1
  20:       860.32 cm**-1
  21:       891.61 cm**-1
  22:       910.72 cm**-1
  23:       939.02 cm**-1
  24:       957.44 cm**-1
  25:       989.86 cm**-1
  26:      1071.14 cm**-1
  27:      1074.32 cm**-1
  28:      1088.94 cm**-1
  29:      1100.21 cm**-1
  30:      1151.66 cm**-1
  31:      1201.47 cm**-1
  32:      1223.29 cm**-1
  33:      1279.04 cm**-1
  34:      1309.99 cm**-1
  35:      1346.20 cm**-1
  36:      1353.35 cm**-1
  37:      1379.38 cm**-1
  38:      1386.90 cm**-1
  39:      1393.05 cm**-1
  40:      1413.70 cm**-1
  41:      1417.27 cm**-1
  42:      1423.40 cm**-1
  43:      1429.74 cm**-1
  44:      1474.84 cm**-1
  45:      1477.17 cm**-1
  46:      1485.94 cm**-1
  47:      1490.33 cm**-1
  48:      1491.19 cm**-1
  49:      1499.06 cm**-1
  50:      1504.78 cm**-1
  51:      1508.58 cm**-1
  52:      1655.05 cm**-1
  53:      3040.69 cm**-1
  54:      3041.01 cm**-1
  55:      3052.64 cm**-1
  56:      3052.92 cm**-1
  57:      3087.66 cm**-1
  58:      3091.10 cm**-1
  59:      3099.93 cm**-1
  60:      3100.16 cm**-1
  61:      3119.04 cm**-1
  62:      3119.31 cm**-1
  63:      3147.79 cm**-1
  64:      3148.29 cm**-1
  65:      3149.19 cm**-1
  66:      3151.02 cm**-1
  67:      3432.54 cm**-1
  68:      3482.31 cm**-1

IR SPECTRUM
-----------

 Mode    freq (cm**-1)   T**2         TX         TY         TZ
-------------------------------------------------------------------
   6:        45.77    0.003843  (  0.000075   0.000550   0.061989)
   7:        65.25    1.737966  (  1.318164   0.020198   0.000845)
   8:       129.24    2.683501  ( -0.017305  -0.007274   1.638032)
   9:       131.00    6.555685  ( -2.352841  -1.009778  -0.013009)
  10:       152.62    1.361653  ( -1.031703   0.545198  -0.001084)
  11:       234.47    5.049779  ( -0.001279   0.000030   2.247171)
  12:       270.17    0.304583  (  0.368912  -0.410472  -0.000179)
  13:       309.35    1.641988  (  0.857573  -0.952132  -0.001726)
  14:       321.85    3.581608  (  0.001161  -0.000201   1.892513)
  15:       459.91    0.608504  ( -0.762517  -0.164534   0.000441)
  16:       474.48    8.657048  (  0.001856  -0.000506   2.942286)
  17:       747.22    6.531520  (  2.010538   1.577731   0.004514)
  18:       769.05   11.529739  ( -0.005151  -0.000445   3.395543)
  19:       798.94    8.474264  (  2.870177  -0.486152  -0.000992)
  20:       860.32    0.420296  (  0.000756   0.001810   0.648299)
  21:       891.61    0.218594  (  0.002035   0.001737   0.467533)
  22:       910.72    1.556017  ( -0.473765  -1.153934  -0.000157)
  23:       939.02    1.735206  (  0.185886  -1.304091  -0.000465)
  24:       957.44    0.290772  ( -0.225126  -0.489989   0.000736)
  25:       989.86   19.367230  (  0.000211   0.000361  -4.400821)
  26:      1071.14    0.269815  ( -0.000186   0.000115  -0.519437)
  27:      1074.32   11.680536  (  0.000423  -0.000481  -3.417680)
  28:      1088.94    2.043281  ( -0.477776   1.347223  -0.000551)
  29:      1100.21    2.397430  (  0.000091  -0.000328  -1.548363)
  30:      1151.66    3.735847  (  0.069499  -1.931584   0.000005)
  31:      1201.47    0.109729  (  0.323591  -0.070828   0.000851)
  32:      1223.29   13.765486  (  0.000153   0.000316  -3.710187)
  33:      1279.04   24.867501  ( -0.001374   0.001032  -4.986732)
  34:      1309.99    1.619991  ( -0.735280   1.038919   0.001153)
  35:      1346.20   17.625506  (  0.004462   0.001403   4.198272)
  36:      1353.35    8.880549  (  2.956470   0.373857  -0.007894)
  37:      1379.38   12.204217  (  0.002628   0.003447  -3.493451)
  38:      1386.90    1.573523  (  1.015912   0.735811  -0.005195)
  39:      1393.05   12.433890  (  0.001189   0.000017   3.526172)
  40:      1413.70    8.200403  ( -2.786234   0.661230   0.008807)
  41:      1417.27  104.012672  (  0.004389   0.000320  10.198659)
  42:      1423.40    0.073483  ( -0.003295  -0.000954   0.271057)
  43:      1429.74    9.756368  (  3.038488  -0.723849  -0.000894)
  44:      1474.84   10.575130  ( -3.176727  -0.695362   0.002052)
  45:      1477.17    0.858308  ( -0.001285  -0.001681   0.926447)
  46:      1485.94   25.666897  (  0.001284  -0.003462   5.066249)
  47:      1490.33    0.443015  (  0.567125   0.348283   0.009148)
  48:      1491.19    6.311513  (  0.007265   0.013901  -2.512224)
  49:      1499.06    3.634237  (  1.474646   1.208092   0.012980)
  50:      1504.78    4.366539  ( -0.003568   0.014163   2.089575)
  51:      1508.58   45.791751  (  0.168210   6.764869   0.000154)
  52:      1655.05   27.041133  ( -2.014653   4.793986   0.000518)
  53:      3040.69   23.467759  (  0.030244  -0.026284   4.844188)
  54:      3041.01   11.364824  (  2.536384  -2.220002  -0.056339)
  55:      3052.64    0.451208  ( -0.159177  -0.038396   0.651457)
  56:      3052.92   19.289923  ( -4.265975  -1.044429  -0.023492)
  57:      3087.66    1.173408  ( -0.000755  -0.000398  -1.083239)
  58:      3091.10    4.298336  ( -0.367615  -2.040391   0.001032)
  59:      3099.93    5.879914  (  0.029362   0.010440  -2.424653)
  60:      3100.16    2.382114  (  1.416958   0.609641   0.051780)
  61:      3119.04    9.140316  ( -0.015351  -0.064569   3.022567)
  62:      3119.31   20.904976  ( -1.229056  -4.403707  -0.041934)
  63:      3147.79    2.462692  ( -0.001642  -0.003354  -1.569292)
  64:      3148.29    1.926134  ( -0.271104  -1.361114   0.002495)
  65:      3149.19    0.593983  ( -0.001399  -0.000395   0.770702)
  66:      3151.02    5.597748  ( -2.215736  -0.829615   0.001264)
  67:      3432.54   26.985287  ( -0.972960   5.102807  -0.000042)
  68:      3482.31   53.910255  (  7.257422   1.113591   0.001109)

--------------------------
THERMOCHEMISTRY AT 298.15K
--------------------------

Temperature         ... 298.15 K
Pressure            ... 1.00 atm
Total Mass          ... 102.20 AMU

Throughout the following assumptions are being made:
  (1) The electronic state is orbitally nondegenerate
  (2) There are no thermally accessible electronically excited states
  (3) Hindered rotations indicated by low frequency modes) are not
      treated as such but are treated as vibrations and this may
      case some error
  (4) All equations used are the standard statistical mechanics
      equations for an ideal gas
  (5) All vibrations are strinctly harmonic

------------
INNER ENERGY
------------

The inner energy is: U= E(el) + E(ZPE) + E(vib) + E(rot) + E(trans)
    E(el)   - is the total energy from the electronic structure calculation
              = E(kin-el) + E(nuc-el) + E(el-el) + E(nuc-nuc)
    E(ZPE)  - the the zero temperature vibrational energy from the frequency calculation
    E(vib)  - the the finite temperature correction to E(ZPE) due to population
              of excietd vibrational states
    E(rot)  - is the rotational thermal energy
    E(trans)- is the translational thermal energy

Summary of contributions to the inner energy U:
Electronic energy                ...   -292.54503160 Eh
Zero point energy                ...      0.22190251 Eh     139.25 kcal/mol
Thermal vibrational correction   ...      0.00676641 Eh       4.25 kcal/mol
Thermal rotational correction    ...      0.00141627 Eh       0.89 kcal/mol
Thermal translational correction ...      0.00141627 Eh       0.89 kcal/mol
-----------------------------------------------------------------------
Total thermal energy                   -292.31353013 Eh

Summary of corrections to the electronic energy:
(perhaps to be used in another calculation)
Total thermal correction                  0.00959895 Eh       6.02 kcal/mol
Non-thermal (ZPE) correction              0.22190251 Eh     139.25 kcal/mol
-----------------------------------------------------------------------
Total correction                          0.23150147 Eh     145.27 kcal/mol

--------
ENTHALPY
--------

The enthalpy is H = U + kB*T
                kB is Boltzmann's constant
Total free energy                 ...   -292.31353013 Eh
Thermal Enthalpy correction       ...      0.00094421 Eh       0.59 kcal/mol
-----------------------------------------------------------------------
Total Enthalpy                    ...   -292.31258592 Eh

-------
ENTROPY
-------

The entropy contributions are T*S = T*(S(el)+S(vib)+S(rot)+S(trans)
     S(el)   - electronic entropy
     S(vib)  - vibrational entropy
     S(rot)  - rotational entropy
     S(trans)- translational entropy
The entropies will be listed as mutliplied by the temperature to get
units of energy

Electronic entropy                ...      0.00000000 Eh      0.00 kcal/mol
Vibrational entropy               ...      0.01311356 Eh      8.23 kcal/mol
Rotational entropy                ...      0.01251456 Eh      7.85 kcal/mol
Translational entropy             ...      0.01890208 Eh     11.86 kcal/mol
-----------------------------------------------------------------------
Final entropy term                ...      0.04453020 Eh     27.94 kcal/mol

CAUTION: The rotational entropy is not quite correctly treated here
         because it includes a symmetry number that is not yet correctly
         implemented in ORCA!
For a nonlinear molecule the correct rotational entropy is:
    S(rot) = R*(ln(qrot/sn)+1.5)
    R    = 8.31441 J/mol/K = 1.987191683e-3 kcal/mol/K
    qrot = 381940.0459245
    sn is the rotational symmetry number. We have assumed 3 here
       if it is different for your molecule then you should correct
       the printed rotational entropy by manually evaluating the equation
       as given above

For convenience we print out the resulting values for sn=1 - 12:
 sn= 1  qrot/sn=  381940.0459 T*S(rot)=     8.50 kcal/mol T*S(tot)=    28.59 kcal/mol
 sn= 2  qrot/sn=  190970.0230 T*S(rot)=     8.09 kcal/mol T*S(tot)=    28.18 kcal/mol
 sn= 3  qrot/sn=  127313.3486 T*S(rot)=     7.85 kcal/mol T*S(tot)=    27.94 kcal/mol
 sn= 4  qrot/sn=   95485.0115 T*S(rot)=     7.68 kcal/mol T*S(tot)=    27.77 kcal/mol
 sn= 5  qrot/sn=   76388.0092 T*S(rot)=     7.55 kcal/mol T*S(tot)=    27.64 kcal/mol
 sn= 6  qrot/sn=   63656.6743 T*S(rot)=     7.44 kcal/mol T*S(tot)=    27.53 kcal/mol
 sn= 7  qrot/sn=   54562.8637 T*S(rot)=     7.35 kcal/mol T*S(tot)=    27.44 kcal/mol
 sn= 8  qrot/sn=   47742.5057 T*S(rot)=     7.27 kcal/mol T*S(tot)=    27.36 kcal/mol
 sn= 9  qrot/sn=   42437.7829 T*S(rot)=     7.20 kcal/mol T*S(tot)=    27.29 kcal/mol
 sn=10  qrot/sn=   38194.0046 T*S(rot)=     7.14 kcal/mol T*S(tot)=    27.23 kcal/mol
 sn=11  qrot/sn=   34721.8224 T*S(rot)=     7.08 kcal/mol T*S(tot)=    27.17 kcal/mol
 sn=12  qrot/sn=   31828.3372 T*S(rot)=     7.03 kcal/mol T*S(tot)=    27.12 kcal/mol

-------------------
GIBBS FREE ENTHALPY
-------------------

The Gibbs free enthalpy is G = H - T*S

Total enthalpy                    ...   -292.31258592 Eh
Total entropy correction          ...     -0.04453020 Eh    -27.94 kcal/mol
-----------------------------------------------------------------------
Final Gibbs free enthalpy         ...   -292.35711612 Eh

For completeness - the Gibbs free enthalpy minus the electronic energy
G-E(el)                           ...      0.18791548 Eh    117.92 kcal/mol

                             ****ORCA TERMINATED NORMALLY****
TOTAL RUN TIME: 0 days 0 hours 49 minutes 37 seconds 3 msec
