                         Program Version 3.0.3 - RELEASE   -
|  1> ! NORI PBE0 def2-TZVP UseSym TightOPT Freq TightSCF Grid3 FinalGrid5 XYZFile
|  2> % pal
|  3>     nprocs 8
|  4> end
|  5> %method
|  6>     SymThresh 5.0e-2
|  7> end
|  8> % geom
|  9>     MaxIter 10
| 10> end
| 11> % maxcore 2000
| 12> % output
| 13>     printlevel mini
| 14>     print[ P_Basis ] 0
| 15>     print[ P_SCFInfo ] 1
| 16>     print[ P_SCFIterInfo ] 1
| 17>     print[ P_OrbEn ] 0
| 18>     print[ P_Cartesian ] 0
| 19> end
| 20> % elprop
| 21>     Dipole false
| 22> end
| 23> *xyz 1 1
| 24>  C        2.3002445729     0.9237795547    -1.4521819002
| 25>  C        2.2305536954     0.7659178105    -0.1379319375
| 26>  C        2.7829351508     1.7606820128     0.8228864517
| 27>  N        3.9742239682     1.1894508360     1.5498033425
| 28>  C        4.6021907841     2.1014675817     2.5448752020
| 29>  C        5.7782256555     1.4876810332     3.2248272051
| 30>  C        6.2691386959     0.2753092834     3.0205377296
| 31>  H        1.8728385264     0.1943624398    -2.1293904587
| 32>  H        2.7669685869     1.7950822667    -1.9015489024
| 33>  H        1.7287683372    -0.1016908055     0.2845471714
| 34>  H        2.0631332001     2.0421253084     1.5943641445
| 35>  H        3.1288879348     2.6632468115     0.3179224909
| 36>  H        4.6732862306     0.9118521319     0.8562217438
| 37>  H        3.6977750115     0.3244353439     2.0213771135
| 38>  H        3.8256963104     2.3739317062     3.2644638917
| 39>  H        4.8849660825     3.0124212731     2.0104017144
| 40>  H        6.2460629136     2.1435853869     3.9531815160
| 41>  H        5.8622799556    -0.4402759568     2.3112015978
| 42>  H        7.1338143876    -0.0682640181     3.5735218838
| 43> *
| 44>
| 45>                          ****END OF INPUT****
 Total Charge           Charge          ....    1
 Multiplicity           Mult            ....    1
 Number of Electrons    NEL             ....   54
FINAL SINGLE POINT ENERGY      -290.071401760589
FINAL SINGLE POINT ENERGY      -290.071402818238

CARTESIAN COORDINATES (ANGSTROEM)
---------------------------------
  C      2.060352   -0.000164   -2.581789
  C      1.996392   -0.023309   -1.258131
  C      1.019818   -0.865251   -0.513074
  N     -0.001384   -0.000481    0.181947
  C     -1.024301   -0.741570    0.969590
  C     -2.008906    0.162991    1.629388
  C     -2.039947    1.484974    1.565308
  H      2.793961    0.606701   -3.098353
  H      1.399146   -0.600514   -3.199345
  H      2.693843    0.564055   -0.665265
  H      1.493528   -1.462820    0.269025
  H      0.466516   -1.529817   -1.177278
  H     -0.468311    0.577991   -0.521186
  H      0.480009    0.656624    0.800681
  H     -0.485838   -1.345414    1.705135
  H     -1.519417   -1.432385    0.281694
  H     -2.757335   -0.366502    2.211291
  H     -1.331136    2.089409    1.005856
  H     -2.805403    2.042876    2.089229

FINAL SINGLE POINT ENERGY      -290.071403245724
                    ***********************HURRAY********************
 Multiplicity           Mult            ....    1
 Number of Electrons    NEL             ....   54
 Basis Dimension        Dim             ....  289
FINAL SINGLE POINT ENERGY      -290.071403395986

VIBRATIONAL FREQUENCIES
-----------------------

   0:         0.00 cm**-1
   1:         0.00 cm**-1
   2:         0.00 cm**-1
   3:         0.00 cm**-1
   4:         0.00 cm**-1
   5:         0.00 cm**-1
   6:        58.46 cm**-1
   7:        75.88 cm**-1
   8:       113.42 cm**-1
   9:       143.65 cm**-1
  10:       159.77 cm**-1
  11:       290.16 cm**-1
  12:       362.76 cm**-1
  13:       432.29 cm**-1
  14:       561.52 cm**-1
  15:       565.03 cm**-1
  16:       673.91 cm**-1
  17:       800.96 cm**-1
  18:       909.71 cm**-1
  19:       924.22 cm**-1
  20:       970.34 cm**-1
  21:       976.20 cm**-1
  22:       985.06 cm**-1
  23:      1005.25 cm**-1
  24:      1020.30 cm**-1
  25:      1030.95 cm**-1
  26:      1032.17 cm**-1
  27:      1047.05 cm**-1
  28:      1123.11 cm**-1
  29:      1152.92 cm**-1
  30:      1220.45 cm**-1
  31:      1305.66 cm**-1
  32:      1326.32 cm**-1
  33:      1333.43 cm**-1
  34:      1348.21 cm**-1
  35:      1388.52 cm**-1
  36:      1400.54 cm**-1
  37:      1424.09 cm**-1
  38:      1458.66 cm**-1
  39:      1467.31 cm**-1
  40:      1479.83 cm**-1
  41:      1494.68 cm**-1
  42:      1656.16 cm**-1
  43:      1724.32 cm**-1
  44:      1732.58 cm**-1
  45:      3074.49 cm**-1
  46:      3088.61 cm**-1
  47:      3119.32 cm**-1
  48:      3148.82 cm**-1
  49:      3154.13 cm**-1
  50:      3160.18 cm**-1
  51:      3169.14 cm**-1
  52:      3189.22 cm**-1
  53:      3250.96 cm**-1
  54:      3257.00 cm**-1
  55:      3426.88 cm**-1
  56:      3476.02 cm**-1

IR SPECTRUM
-----------

 Mode    freq (cm**-1)   T**2         TX         TY         TZ
-------------------------------------------------------------------
   6:        58.46    0.881489  (  0.571237  -0.297325   0.683209)
   7:        75.88    1.889669  (  0.935355   0.087048   1.003595)
   8:       113.42    4.943479  (  1.452910   0.731998   1.515490)
   9:       143.65    0.850345  ( -0.590484  -0.665927   0.241278)
  10:       159.77    5.001314  (  0.075472  -0.869727   2.058930)
  11:       290.16    5.352825  (  1.773622  -0.955570  -1.137531)
  12:       362.76    1.752833  (  0.906292   0.639542  -0.722810)
  13:       432.29    1.521449  ( -0.687897   0.654613   0.787228)
  14:       561.52    2.899539  (  0.989383   0.966081  -0.993654)
  15:       565.03   19.756297  (  2.415450   0.146966   3.728310)
  16:       673.91   28.567943  ( -4.350925   2.915136   1.067419)
  17:       800.96   10.422858  ( -1.626971  -0.451263  -2.751761)
  18:       909.71    1.451038  ( -0.398589  -0.111043  -1.131298)
  19:       924.22   10.775830  ( -1.901862   1.724856   2.045391)
  20:       970.34    9.435528  ( -3.010701   0.538001  -0.285942)
  21:       976.20   39.805574  ( -3.025929  -0.911398  -5.460648)
  22:       985.06    7.481312  ( -2.120846   0.926311  -1.457831)
  23:      1005.25   30.541977  ( -4.471606   1.121541   3.047764)
  24:      1020.30   49.908687  ( -4.997275   4.993158   0.065536)
  25:      1030.95    5.622097  (  0.174535   1.715168   1.627831)
  26:      1032.17    8.584378  ( -1.340164   1.109778  -2.357273)
  27:      1047.05   10.268897  (  3.053702  -0.871084  -0.430128)
  28:      1123.11   10.660001  (  0.532346   2.895519  -1.411588)
  29:      1152.92    2.566443  ( -0.414680  -0.965657  -1.209128)
  30:      1220.45    0.547946  ( -0.277443   0.457692  -0.511360)
  31:      1305.66   24.587949  (  4.204133   0.220094  -2.620072)
  32:      1326.32    3.458456  ( -0.600547   0.292305   1.735614)
  33:      1333.43   10.927313  (  1.525212  -0.408237  -2.904201)
  34:      1348.21    6.426974  (  1.541721  -0.129548   2.008305)
  35:      1388.52    0.525681  (  0.525718  -0.004940  -0.499277)
  36:      1400.54   39.332417  ( -4.509010  -0.272666   4.350506)
  37:      1424.09   90.889905  ( -7.090923   1.399634   6.216892)
  38:      1458.66   18.799505  (  1.044556  -0.284093  -4.198535)
  39:      1467.31   15.548238  (  1.887169   2.809591  -2.023124)
  40:      1479.83    9.979738  ( -1.871449   2.522996  -0.334529)
  41:      1494.68   30.250288  (  0.356320  -5.392655  -1.021078)
  42:      1656.16   27.080917  ( -0.892279   5.126068   0.090478)
  43:      1724.32    1.478733  (  1.111421  -0.122073  -0.478095)
  44:      1732.58    3.598938  (  0.276322  -1.852091  -0.303883)
  45:      3074.49    1.297062  ( -0.640756   0.821095   0.460756)
  46:      3088.61    2.482889  (  0.883439   0.932641  -0.912472)
  47:      3119.32    0.017607  (  0.060621  -0.013197   0.117296)
  48:      3148.82    0.029326  (  0.011135   0.039503  -0.166259)
  49:      3154.13   11.914532  ( -2.754256  -0.083924   2.078837)
  50:      3160.18    1.545297  ( -0.930516  -0.824242   0.007859)
  51:      3169.14    0.426015  (  0.215518   0.276752   0.550432)
  52:      3189.22    0.902060  ( -0.654782  -0.461338   0.510380)
  53:      3250.96    1.144386  (  0.055799   1.060711  -0.127140)
  54:      3257.00    0.267628  ( -0.159948  -0.078074   0.485746)
  55:      3426.88   27.195718  ( -0.567553   5.181676   0.154406)
  56:      3476.02   56.988582  ( -4.238894  -0.533904  -6.223770)

--------------------------
THERMOCHEMISTRY AT 298.15K
--------------------------

Temperature         ... 298.15 K
Pressure            ... 1.00 atm
Total Mass          ... 98.17 AMU

Throughout the following assumptions are being made:
  (1) The electronic state is orbitally nondegenerate
  (2) There are no thermally accessible electronically excited states
  (3) Hindered rotations indicated by low frequency modes) are not
      treated as such but are treated as vibrations and this may
      case some error
  (4) All equations used are the standard statistical mechanics
      equations for an ideal gas
  (5) All vibrations are strinctly harmonic

------------
INNER ENERGY
------------

The inner energy is: U= E(el) + E(ZPE) + E(vib) + E(rot) + E(trans)
    E(el)   - is the total energy from the electronic structure calculation
              = E(kin-el) + E(nuc-el) + E(el-el) + E(nuc-nuc)
    E(ZPE)  - the the zero temperature vibrational energy from the frequency calculation
    E(vib)  - the the finite temperature correction to E(ZPE) due to population
              of excietd vibrational states
    E(rot)  - is the rotational thermal energy
    E(trans)- is the translational thermal energy

Summary of contributions to the inner energy U:
Electronic energy                ...   -290.07140340 Eh
Zero point energy                ...      0.17471401 Eh     109.63 kcal/mol
Thermal vibrational correction   ...      0.00574980 Eh       3.61 kcal/mol
Thermal rotational correction    ...      0.00141627 Eh       0.89 kcal/mol
Thermal translational correction ...      0.00141627 Eh       0.89 kcal/mol
-----------------------------------------------------------------------
Total thermal energy                   -289.88810704 Eh

Summary of corrections to the electronic energy:
(perhaps to be used in another calculation)
Total thermal correction                  0.00858235 Eh       5.39 kcal/mol
Non-thermal (ZPE) correction              0.17471401 Eh     109.63 kcal/mol
-----------------------------------------------------------------------
Total correction                          0.18329635 Eh     115.02 kcal/mol

--------
ENTHALPY
--------

The enthalpy is H = U + kB*T
                kB is Boltzmann's constant
Total free energy                 ...   -289.88810704 Eh
Thermal Enthalpy correction       ...      0.00094421 Eh       0.59 kcal/mol
-----------------------------------------------------------------------
Total Enthalpy                    ...   -289.88716283 Eh

-------
ENTROPY
-------

The entropy contributions are T*S = T*(S(el)+S(vib)+S(rot)+S(trans)
     S(el)   - electronic entropy
     S(vib)  - vibrational entropy
     S(rot)  - rotational entropy
     S(trans)- translational entropy
The entropies will be listed as mutliplied by the temperature to get
units of energy

Electronic entropy                ...      0.00000000 Eh      0.00 kcal/mol
Vibrational entropy               ...      0.01111139 Eh      6.97 kcal/mol
Rotational entropy                ...      0.01234402 Eh      7.75 kcal/mol
Translational entropy             ...      0.01884507 Eh     11.83 kcal/mol
-----------------------------------------------------------------------
Final entropy term                ...      0.04230048 Eh     26.54 kcal/mol

CAUTION: The rotational entropy is not quite correctly treated here
         because it includes a symmetry number that is not yet correctly
         implemented in ORCA!
For a nonlinear molecule the correct rotational entropy is:
    S(rot) = R*(ln(qrot/sn)+1.5)
    R    = 8.31441 J/mol/K = 1.987191683e-3 kcal/mol/K
    qrot = 318826.7528939
    sn is the rotational symmetry number. We have assumed 3 here
       if it is different for your molecule then you should correct
       the printed rotational entropy by manually evaluating the equation
       as given above

For convenience we print out the resulting values for sn=1 - 12:
 sn= 1  qrot/sn=  318826.7529 T*S(rot)=     8.40 kcal/mol T*S(tot)=    27.19 kcal/mol
 sn= 2  qrot/sn=  159413.3764 T*S(rot)=     7.99 kcal/mol T*S(tot)=    26.78 kcal/mol
 sn= 3  qrot/sn=  106275.5843 T*S(rot)=     7.75 kcal/mol T*S(tot)=    26.54 kcal/mol
 sn= 4  qrot/sn=   79706.6882 T*S(rot)=     7.58 kcal/mol T*S(tot)=    26.37 kcal/mol
 sn= 5  qrot/sn=   63765.3506 T*S(rot)=     7.44 kcal/mol T*S(tot)=    26.24 kcal/mol
 sn= 6  qrot/sn=   53137.7921 T*S(rot)=     7.34 kcal/mol T*S(tot)=    26.13 kcal/mol
 sn= 7  qrot/sn=   45546.6790 T*S(rot)=     7.24 kcal/mol T*S(tot)=    26.04 kcal/mol
 sn= 8  qrot/sn=   39853.3441 T*S(rot)=     7.16 kcal/mol T*S(tot)=    25.96 kcal/mol
 sn= 9  qrot/sn=   35425.1948 T*S(rot)=     7.10 kcal/mol T*S(tot)=    25.89 kcal/mol
 sn=10  qrot/sn=   31882.6753 T*S(rot)=     7.03 kcal/mol T*S(tot)=    25.83 kcal/mol
 sn=11  qrot/sn=   28984.2503 T*S(rot)=     6.98 kcal/mol T*S(tot)=    25.77 kcal/mol
 sn=12  qrot/sn=   26568.8961 T*S(rot)=     6.92 kcal/mol T*S(tot)=    25.72 kcal/mol

-------------------
GIBBS FREE ENTHALPY
-------------------

The Gibbs free enthalpy is G = H - T*S

Total enthalpy                    ...   -289.88716283 Eh
Total entropy correction          ...     -0.04230048 Eh    -26.54 kcal/mol
-----------------------------------------------------------------------
Final Gibbs free enthalpy         ...   -289.92946331 Eh

For completeness - the Gibbs free enthalpy minus the electronic energy
G-E(el)                           ...      0.14194008 Eh     89.07 kcal/mol

                             ****ORCA TERMINATED NORMALLY****
TOTAL RUN TIME: 0 days 0 hours 38 minutes 25 seconds 51 msec
