                         Program Version 3.0.3 - RELEASE   -
|  1> ! NORI PBE0 def2-TZVP UseSym TightOPT Freq TightSCF Grid3 FinalGrid5 XYZFile
|  2> % pal
|  3>     nprocs 8
|  4> end
|  5> %method
|  6>     SymThresh 5.0e-2
|  7> end
|  8> % geom
|  9>     MaxIter 10
| 10> end
| 11> % maxcore 2000
| 12> % output
| 13>     printlevel mini
| 14>     print[ P_Basis ] 0
| 15>     print[ P_SCFInfo ] 1
| 16>     print[ P_SCFIterInfo ] 1
| 17>     print[ P_OrbEn ] 0
| 18>     print[ P_Cartesian ] 0
| 19> end
| 20> % elprop
| 21>     Dipole false
| 22> end
| 23> *xyz 1 1
| 24>  C        1.0173536442    -0.9742231102    -0.1956630383
| 25>  C        1.8718436413    -0.0332433862     0.1799869842
| 26>  C        2.7181139524     0.7175716552    -0.7875183664
| 27>  N        4.1694364928     0.3446044031    -0.6163781992
| 28>  C        5.1203054918     1.0475165674    -1.5455711135
| 29>  C        6.4742523959     0.6182396942    -1.2873779373
| 30>  C        7.5906275241     0.2491480779    -1.0579929091
| 31>  H        0.3993050965    -1.4926190880     0.5272064294
| 32>  H        0.8863421844    -1.2488021930    -1.2378992051
| 33>  H        1.9584438398     0.2432375888     1.2283101677
| 34>  H        2.4562929342     0.4879010059    -1.8210361025
| 35>  H        2.6638253132     1.7991678311    -0.6409105802
| 36>  H        4.4600531604     0.5299105828     0.3469091129
| 37>  H        4.2692040362    -0.6664790368    -0.7395754385
| 38>  H        4.8046573626     0.8143988672    -2.5653335064
| 39>  H        4.9941511718     2.1208526341    -1.3835046859
| 40>  H        8.5910417585    -0.0700320935    -0.8638316116
| 41> *
| 42>
| 43>                          ****END OF INPUT****
 Total Charge           Charge          ....    1
 Multiplicity           Mult            ....    1
 Number of Electrons    NEL             ....   52
FINAL SINGLE POINT ENERGY      -288.814400957474
FINAL SINGLE POINT ENERGY      -288.814401761493
FINAL SINGLE POINT ENERGY      -288.814402152017

CARTESIAN COORDINATES (ANGSTROEM)
---------------------------------
  C      2.918471   -0.002865   -1.654958
  C      2.302702   -0.449444   -0.569415
  C      0.897141   -0.940362   -0.586155
  N      0.000690    0.003066    0.176558
  C     -1.446437   -0.403686    0.231085
  C     -2.207342    0.564991    0.983842
  C     -2.822535    1.379091    1.611210
  H      3.948586    0.330120   -1.618831
  H      2.427381    0.028230   -2.622827
  H      2.830306   -0.498993    0.380098
  H      0.498791   -0.998890   -1.599702
  H      0.787904   -1.915586   -0.106378
  H      0.345594    0.106464    1.134134
  H      0.070062    0.935588   -0.238903
  H     -1.796165   -0.485498   -0.800656
  H     -1.484128   -1.396107    0.686169
  H     -3.383546    2.096612    2.168821

FINAL SINGLE POINT ENERGY      -288.814402348317
                    ***********************HURRAY********************
 Multiplicity           Mult            ....    1
 Number of Electrons    NEL             ....   52
 Basis Dimension        Dim             ....  277
FINAL SINGLE POINT ENERGY      -288.814402456433

VIBRATIONAL FREQUENCIES
-----------------------

   0:         0.00 cm**-1
   1:         0.00 cm**-1
   2:         0.00 cm**-1
   3:         0.00 cm**-1
   4:         0.00 cm**-1
   5:         0.00 cm**-1
   6:        58.99 cm**-1
   7:        82.84 cm**-1
   8:       103.01 cm**-1
   9:       140.07 cm**-1
  10:       252.42 cm**-1
  11:       328.99 cm**-1
  12:       349.98 cm**-1
  13:       427.07 cm**-1
  14:       512.15 cm**-1
  15:       671.01 cm**-1
  16:       728.28 cm**-1
  17:       775.32 cm**-1
  18:       791.52 cm**-1
  19:       903.65 cm**-1
  20:       939.04 cm**-1
  21:       976.06 cm**-1
  22:       999.65 cm**-1
  23:      1011.96 cm**-1
  24:      1020.56 cm**-1
  25:      1032.03 cm**-1
  26:      1053.24 cm**-1
  27:      1152.18 cm**-1
  28:      1218.84 cm**-1
  29:      1305.14 cm**-1
  30:      1331.71 cm**-1
  31:      1338.91 cm**-1
  32:      1388.95 cm**-1
  33:      1398.80 cm**-1
  34:      1419.54 cm**-1
  35:      1459.00 cm**-1
  36:      1475.58 cm**-1
  37:      1491.88 cm**-1
  38:      1652.88 cm**-1
  39:      1723.11 cm**-1
  40:      2259.16 cm**-1
  41:      3082.32 cm**-1
  42:      3087.76 cm**-1
  43:      3132.49 cm**-1
  44:      3148.33 cm**-1
  45:      3160.73 cm**-1
  46:      3171.26 cm**-1
  47:      3257.68 cm**-1
  48:      3430.38 cm**-1
  49:      3453.95 cm**-1
  50:      3480.39 cm**-1

IR SPECTRUM
-----------

 Mode    freq (cm**-1)   T**2         TX         TY         TZ
-------------------------------------------------------------------
   6:        58.99    1.270971  ( -0.294474   0.853209  -0.675492)
   7:        82.84    2.640723  ( -0.471610   0.726036  -1.375201)
   8:       103.01    2.941081  (  0.373051  -0.323870   1.642261)
   9:       140.07    3.114319  (  0.292756   1.063063  -1.377864)
  10:       252.42    6.059561  (  0.832772   2.132058   0.905749)
  11:       328.99   19.532969  ( -0.662084   2.360498  -3.677317)
  12:       349.98    0.320360  ( -0.434909  -0.185342  -0.311227)
  13:       427.07    3.341055  (  1.153977   1.109112   0.882759)
  14:       512.15   28.617339  (  4.941943   1.974865  -0.542632)
  15:       671.01   32.449782  ( -4.287879   3.528465   1.270356)
  16:       728.28   40.683152  (  1.110022  -3.296032   5.346698)
  17:       775.32   29.214323  (  4.113123   3.295134   1.199431)
  18:       791.52    9.927839  ( -0.305023   1.359303  -2.826145)
  19:       903.65    0.618434  (  0.411414   0.051581  -0.668215)
  20:       939.04   19.915922  ( -3.898427   0.964871   1.946077)
  21:       976.06   25.418033  (  4.468178  -1.554290  -1.742871)
  22:       999.65   14.074688  ( -3.392204  -1.596885   0.132646)
  23:      1011.96   25.215761  (  3.613379  -2.661624  -2.252778)
  24:      1020.56   41.716191  ( -2.675098   5.750091   1.223315)
  25:      1032.03    8.447711  ( -0.447895   2.862408   0.231780)
  26:      1053.24   11.245176  (  0.727612  -3.056232  -1.172691)
  27:      1152.18    0.932607  (  0.230581  -0.221649  -0.911214)
  28:      1218.84    0.324856  ( -0.271905  -0.497140   0.061440)
  29:      1305.14    6.464602  (  2.540931   0.029109   0.086169)
  30:      1331.71    8.838679  ( -1.885531  -0.458240   2.252436)
  31:      1338.91    8.064742  (  0.317599  -1.579219   2.338790)
  32:      1388.95    2.422762  ( -1.279231   0.736145   0.494388)
  33:      1398.80    5.076998  ( -1.436846  -1.729665  -0.143984)
  34:      1419.54  162.548920  (-10.751528   3.657261   5.794652)
  35:      1459.00   18.017226  (  2.515557   1.618676  -3.011492)
  36:      1475.58    3.638371  (  0.461800   1.847953  -0.100902)
  37:      1491.88   18.886369  (  1.850072   2.886994   2.669994)
  38:      1652.88   38.259735  (  2.246774   5.224170   2.433062)
  39:      1723.11    1.555068  (  1.159593  -0.406942  -0.211686)
  40:      2259.16   32.587316  ( -3.868018   3.135691   2.791629)
  41:      3082.32    3.861241  (  1.810742  -0.313937  -0.695626)
  42:      3087.76    1.885845  (  1.187817   0.689152   0.002150)
  43:      3132.49    1.231096  (  0.169496  -0.576496   0.932749)
  44:      3148.33    0.037623  (  0.085679   0.043893  -0.168390)
  45:      3160.73    1.617614  ( -1.128746  -0.266963  -0.521803)
  46:      3171.26    0.286675  (  0.099279  -0.030991   0.525222)
  47:      3257.68    0.326773  ( -0.446988  -0.164180   0.316258)
  48:      3430.38   34.679198  ( -2.369992  -4.792734  -2.468204)
  49:      3453.95  100.894281  (  5.537602  -6.515023  -5.271027)
  50:      3480.39   69.015419  ( -1.344522   4.090702  -7.104494)

--------------------------
THERMOCHEMISTRY AT 298.15K
--------------------------

Temperature         ... 298.15 K
Pressure            ... 1.00 atm
Total Mass          ... 96.15 AMU

Throughout the following assumptions are being made:
  (1) The electronic state is orbitally nondegenerate
  (2) There are no thermally accessible electronically excited states
  (3) Hindered rotations indicated by low frequency modes) are not
      treated as such but are treated as vibrations and this may
      case some error
  (4) All equations used are the standard statistical mechanics
      equations for an ideal gas
  (5) All vibrations are strinctly harmonic

------------
INNER ENERGY
------------

The inner energy is: U= E(el) + E(ZPE) + E(vib) + E(rot) + E(trans)
    E(el)   - is the total energy from the electronic structure calculation
              = E(kin-el) + E(nuc-el) + E(el-el) + E(nuc-nuc)
    E(ZPE)  - the the zero temperature vibrational energy from the frequency calculation
    E(vib)  - the the finite temperature correction to E(ZPE) due to population
              of excietd vibrational states
    E(rot)  - is the rotational thermal energy
    E(trans)- is the translational thermal energy

Summary of contributions to the inner energy U:
Electronic energy                ...   -288.81440246 Eh
Zero point energy                ...      0.15076638 Eh      94.61 kcal/mol
Thermal vibrational correction   ...      0.00551436 Eh       3.46 kcal/mol
Thermal rotational correction    ...      0.00141627 Eh       0.89 kcal/mol
Thermal translational correction ...      0.00141627 Eh       0.89 kcal/mol
-----------------------------------------------------------------------
Total thermal energy                   -288.65528918 Eh

Summary of corrections to the electronic energy:
(perhaps to be used in another calculation)
Total thermal correction                  0.00834690 Eh       5.24 kcal/mol
Non-thermal (ZPE) correction              0.15076638 Eh      94.61 kcal/mol
-----------------------------------------------------------------------
Total correction                          0.15911328 Eh      99.84 kcal/mol

--------
ENTHALPY
--------

The enthalpy is H = U + kB*T
                kB is Boltzmann's constant
Total free energy                 ...   -288.65528918 Eh
Thermal Enthalpy correction       ...      0.00094421 Eh       0.59 kcal/mol
-----------------------------------------------------------------------
Total Enthalpy                    ...   -288.65434497 Eh

-------
ENTROPY
-------

The entropy contributions are T*S = T*(S(el)+S(vib)+S(rot)+S(trans)
     S(el)   - electronic entropy
     S(vib)  - vibrational entropy
     S(rot)  - rotational entropy
     S(trans)- translational entropy
The entropies will be listed as mutliplied by the temperature to get
units of energy

Electronic entropy                ...      0.00000000 Eh      0.00 kcal/mol
Vibrational entropy               ...      0.01057975 Eh      6.64 kcal/mol
Rotational entropy                ...      0.01226053 Eh      7.69 kcal/mol
Translational entropy             ...      0.01881568 Eh     11.81 kcal/mol
-----------------------------------------------------------------------
Final entropy term                ...      0.04165596 Eh     26.14 kcal/mol

CAUTION: The rotational entropy is not quite correctly treated here
         because it includes a symmetry number that is not yet correctly
         implemented in ORCA!
For a nonlinear molecule the correct rotational entropy is:
    S(rot) = R*(ln(qrot/sn)+1.5)
    R    = 8.31441 J/mol/K = 1.987191683e-3 kcal/mol/K
    qrot = 291842.9672092
    sn is the rotational symmetry number. We have assumed 3 here
       if it is different for your molecule then you should correct
       the printed rotational entropy by manually evaluating the equation
       as given above

For convenience we print out the resulting values for sn=1 - 12:
 sn= 1  qrot/sn=  291842.9672 T*S(rot)=     8.34 kcal/mol T*S(tot)=    26.79 kcal/mol
 sn= 2  qrot/sn=  145921.4836 T*S(rot)=     7.93 kcal/mol T*S(tot)=    26.38 kcal/mol
 sn= 3  qrot/sn=   97280.9891 T*S(rot)=     7.69 kcal/mol T*S(tot)=    26.14 kcal/mol
 sn= 4  qrot/sn=   72960.7418 T*S(rot)=     7.52 kcal/mol T*S(tot)=    25.97 kcal/mol
 sn= 5  qrot/sn=   58368.5934 T*S(rot)=     7.39 kcal/mol T*S(tot)=    25.84 kcal/mol
 sn= 6  qrot/sn=   48640.4945 T*S(rot)=     7.28 kcal/mol T*S(tot)=    25.73 kcal/mol
 sn= 7  qrot/sn=   41691.8525 T*S(rot)=     7.19 kcal/mol T*S(tot)=    25.64 kcal/mol
 sn= 8  qrot/sn=   36480.3709 T*S(rot)=     7.11 kcal/mol T*S(tot)=    25.56 kcal/mol
 sn= 9  qrot/sn=   32426.9964 T*S(rot)=     7.04 kcal/mol T*S(tot)=    25.49 kcal/mol
 sn=10  qrot/sn=   29184.2967 T*S(rot)=     6.98 kcal/mol T*S(tot)=    25.43 kcal/mol
 sn=11  qrot/sn=   26531.1788 T*S(rot)=     6.92 kcal/mol T*S(tot)=    25.37 kcal/mol
 sn=12  qrot/sn=   24320.2473 T*S(rot)=     6.87 kcal/mol T*S(tot)=    25.32 kcal/mol

-------------------
GIBBS FREE ENTHALPY
-------------------

The Gibbs free enthalpy is G = H - T*S

Total enthalpy                    ...   -288.65434497 Eh
Total entropy correction          ...     -0.04165596 Eh    -26.14 kcal/mol
-----------------------------------------------------------------------
Final Gibbs free enthalpy         ...   -288.69600093 Eh

For completeness - the Gibbs free enthalpy minus the electronic energy
G-E(el)                           ...      0.11840152 Eh     74.30 kcal/mol

                             ****ORCA TERMINATED NORMALLY****
TOTAL RUN TIME: 0 days 0 hours 32 minutes 49 seconds 137 msec
