                         Program Version 3.0.3 - RELEASE   -
|  1> ! NORI PBE0 def2-TZVP UseSym TightOPT Freq TightSCF Grid3 FinalGrid5 XYZFile
|  2> % pal
|  3>     nprocs 8
|  4> end
|  5> %method
|  6>     SymThresh 5.0e-2
|  7> end
|  8> % geom
|  9>     MaxIter 10
| 10> end
| 11> % maxcore 2000
| 12> % output
| 13>     printlevel mini
| 14>     print[ P_Basis ] 0
| 15>     print[ P_SCFInfo ] 1
| 16>     print[ P_SCFIterInfo ] 1
| 17>     print[ P_OrbEn ] 0
| 18>     print[ P_Cartesian ] 0
| 19> end
| 20> % elprop
| 21>     Dipole false
| 22> end
| 23> *xyz 1 1
| 24>  C        0.9844457426    -0.6120754573     0.6047374919
| 25>  C        2.1217132089    -0.2825938356     0.4231351902
| 26>  C        3.4944799679     0.0955563270     0.1898959382
| 27>  N        4.1488082505    -0.8977567560    -0.7332259413
| 28>  C        5.5943142259    -0.6110460243    -1.0420246195
| 29>  C        6.1150914322    -1.6202805811    -1.9320682417
| 30>  C        6.5301735941    -2.4652683812    -2.6726576444
| 31>  H       -0.0307075446    -0.8954937281     0.7777858130
| 32>  H        3.5739434435     1.0767093814    -0.2845991127
| 33>  H        4.0779016055     0.1092689910     1.1135688777
| 34>  H        4.0730090134    -1.8339120541    -0.3260012888
| 35>  H        3.6210916651    -0.9387529744    -1.6092920565
| 36>  H        5.6367933073     0.3869535145    -1.4849592854
| 37>  H        6.1283191227    -0.5903076277    -0.0891278883
| 38>  H        6.9138429650    -3.2128107939    -3.3321172325
| 39> *
| 40>
| 41>                          ****END OF INPUT****
 Total Charge           Charge          ....    1
 Multiplicity           Mult            ....    1
 Number of Electrons    NEL             ....   50
FINAL SINGLE POINT ENERGY      -287.554719854663
FINAL SINGLE POINT ENERGY      -287.554720151981
FINAL SINGLE POINT ENERGY      -287.554720216542

CARTESIAN COORDINATES (ANGSTROEM)
---------------------------------
  C     -0.000004    3.355292    0.807060
  C     -0.000003    2.413841    0.066585
  C     -0.000002    1.266778   -0.808609
  N      0.000007   -0.000000    0.005162
  C      0.000004   -1.266778   -0.808609
  C     -0.000002   -2.413841    0.066585
  C     -0.000006   -3.355292    0.807060
  H     -0.000004    4.203802    1.455820
  H     -0.886717    1.238875   -1.446759
  H      0.886706    1.238883   -1.446769
  H      0.814406    0.000002    0.625381
  H     -0.814384   -0.000002    0.625391
  H     -0.886707   -1.238876   -1.446765
  H      0.886716   -1.238882   -1.446764
  H     -0.000011   -4.203802    1.455820

FINAL SINGLE POINT ENERGY      -287.554720240855
                    ***********************HURRAY********************
 Multiplicity           Mult            ....    1
 Number of Electrons    NEL             ....   50
 Basis Dimension        Dim             ....  265
FINAL SINGLE POINT ENERGY      -287.554719847308

VIBRATIONAL FREQUENCIES
-----------------------

   0:         0.00 cm**-1
   1:         0.00 cm**-1
   2:         0.00 cm**-1
   3:         0.00 cm**-1
   4:         0.00 cm**-1
   5:         0.00 cm**-1
   6:        74.44 cm**-1
   7:        89.40 cm**-1
   8:        92.17 cm**-1
   9:       186.49 cm**-1
  10:       311.62 cm**-1
  11:       321.59 cm**-1
  12:       329.19 cm**-1
  13:       437.63 cm**-1
  14:       570.13 cm**-1
  15:       729.29 cm**-1
  16:       729.58 cm**-1
  17:       777.97 cm**-1
  18:       778.65 cm**-1
  19:       794.18 cm**-1
  20:       919.36 cm**-1
  21:       948.31 cm**-1
  22:       998.52 cm**-1
  23:      1010.04 cm**-1
  24:      1038.50 cm**-1
  25:      1083.15 cm**-1
  26:      1184.96 cm**-1
  27:      1311.58 cm**-1
  28:      1333.21 cm**-1
  29:      1385.40 cm**-1
  30:      1404.59 cm**-1
  31:      1425.45 cm**-1
  32:      1470.93 cm**-1
  33:      1484.01 cm**-1
  34:      1652.89 cm**-1
  35:      2259.03 cm**-1
  36:      2260.13 cm**-1
  37:      3078.20 cm**-1
  38:      3081.30 cm**-1
  39:      3129.29 cm**-1
  40:      3130.77 cm**-1
  41:      3427.43 cm**-1
  42:      3452.33 cm**-1
  43:      3452.73 cm**-1
  44:      3475.61 cm**-1

IR SPECTRUM
-----------

 Mode    freq (cm**-1)   T**2         TX         TY         TZ
-------------------------------------------------------------------
   6:        74.44    0.000013  (  0.003258  -0.001666   0.000198)
   7:        89.40    0.403473  ( -0.025894  -0.000029  -0.634667)
   8:        92.17    7.879132  ( -2.806972   0.000704   0.006243)
   9:       186.49    0.009296  (  0.000580   0.096412  -0.000075)
  10:       311.62   12.650345  (  0.005777  -0.000103   3.556728)
  11:       321.59    0.001971  ( -0.043568  -0.001385   0.008407)
  12:       329.19   39.889604  (  6.315821   0.000082  -0.003164)
  13:       437.63   14.142008  ( -0.002159  -0.000047   3.760585)
  14:       570.13   56.540939  ( -0.000752   7.519371   0.000059)
  15:       729.29    0.034812  ( -0.186570  -0.001925   0.000095)
  16:       729.58   81.552012  (  9.030615   0.000466  -0.001307)
  17:       777.97   14.713233  (  0.000263  -3.835680   0.028147)
  18:       778.65   42.703648  (  0.000437   0.016521   6.534782)
  19:       794.18    9.916311  (  3.149017   0.000894  -0.000728)
  20:       919.36    0.000004  (  0.000456  -0.000907   0.001619)
  21:       948.31   21.086221  ( -0.000410  -4.591974   0.000040)
  22:       998.52    1.900128  (  0.000984   0.000553  -1.378451)
  23:      1010.04   39.349226  ( -0.000222   6.272896   0.000085)
  24:      1038.50    9.444767  ( -0.000050  -0.000056  -3.073234)
  25:      1083.15    2.555412  (  1.598566  -0.000493   0.000394)
  26:      1184.96    0.000000  ( -0.000042   0.000206   0.000188)
  27:      1311.58    3.683642  ( -0.000080   1.919282  -0.000088)
  28:      1333.21    7.983849  (  2.825569   0.001141  -0.002155)
  29:      1385.40    0.000038  (  0.000077  -0.006127  -0.000034)
  30:      1404.59   14.552686  ( -0.000970  -0.000333   3.814798)
  31:      1425.45  180.026779  ( -0.000774  13.417406   0.000138)
  32:      1470.93    0.010826  (  0.001988  -0.104031  -0.000407)
  33:      1484.01   21.811376  (  0.002340   0.000035  -4.670264)
  34:      1652.89   38.567300  (  0.000403   0.000015  -6.210258)
  35:      2259.03   14.202417  (  0.002436   0.023967  -3.768532)
  36:      2260.13   60.188662  (  0.001267   7.758126   0.011650)
  37:      3078.20    6.457003  (  0.000704   2.541063  -0.000031)
  38:      3081.30    0.014770  ( -0.000561   0.000349   0.121530)
  39:      3129.29    0.000013  ( -0.000691  -0.002918   0.001913)
  40:      3130.77    2.884369  (  1.698343  -0.000017   0.001381)
  41:      3427.43   37.654926  (  0.004782   0.000010  -6.136359)
  42:      3452.33  135.107434  (  0.000816 -11.623558  -0.018241)
  43:      3452.73   66.771432  ( -0.001579   0.025930  -8.171338)
  44:      3475.61   82.466592  (  9.081111  -0.001076   0.004670)

--------------------------
THERMOCHEMISTRY AT 298.15K
--------------------------

Temperature         ... 298.15 K
Pressure            ... 1.00 atm
Total Mass          ... 94.14 AMU

Throughout the following assumptions are being made:
  (1) The electronic state is orbitally nondegenerate
  (2) There are no thermally accessible electronically excited states
  (3) Hindered rotations indicated by low frequency modes) are not
      treated as such but are treated as vibrations and this may
      case some error
  (4) All equations used are the standard statistical mechanics
      equations for an ideal gas
  (5) All vibrations are strinctly harmonic

------------
INNER ENERGY
------------

The inner energy is: U= E(el) + E(ZPE) + E(vib) + E(rot) + E(trans)
    E(el)   - is the total energy from the electronic structure calculation
              = E(kin-el) + E(nuc-el) + E(el-el) + E(nuc-nuc)
    E(ZPE)  - the the zero temperature vibrational energy from the frequency calculation
    E(vib)  - the the finite temperature correction to E(ZPE) due to population
              of excietd vibrational states
    E(rot)  - is the rotational thermal energy
    E(trans)- is the translational thermal energy

Summary of contributions to the inner energy U:
Electronic energy                ...   -287.55471985 Eh
Zero point energy                ...      0.12671183 Eh      79.51 kcal/mol
Thermal vibrational correction   ...      0.00526084 Eh       3.30 kcal/mol
Thermal rotational correction    ...      0.00141627 Eh       0.89 kcal/mol
Thermal translational correction ...      0.00141627 Eh       0.89 kcal/mol
-----------------------------------------------------------------------
Total thermal energy                   -287.41991463 Eh

Summary of corrections to the electronic energy:
(perhaps to be used in another calculation)
Total thermal correction                  0.00809338 Eh       5.08 kcal/mol
Non-thermal (ZPE) correction              0.12671183 Eh      79.51 kcal/mol
-----------------------------------------------------------------------
Total correction                          0.13480521 Eh      84.59 kcal/mol

--------
ENTHALPY
--------

The enthalpy is H = U + kB*T
                kB is Boltzmann's constant
Total free energy                 ...   -287.41991463 Eh
Thermal Enthalpy correction       ...      0.00094421 Eh       0.59 kcal/mol
-----------------------------------------------------------------------
Total Enthalpy                    ...   -287.41897043 Eh

-------
ENTROPY
-------

The entropy contributions are T*S = T*(S(el)+S(vib)+S(rot)+S(trans)
     S(el)   - electronic entropy
     S(vib)  - vibrational entropy
     S(rot)  - rotational entropy
     S(trans)- translational entropy
The entropies will be listed as mutliplied by the temperature to get
units of energy

Electronic entropy                ...      0.00000000 Eh      0.00 kcal/mol
Vibrational entropy               ...      0.00988467 Eh      6.20 kcal/mol
Rotational entropy                ...      0.01221016 Eh      7.66 kcal/mol
Translational entropy             ...      0.01878567 Eh     11.79 kcal/mol
-----------------------------------------------------------------------
Final entropy term                ...      0.04088051 Eh     25.65 kcal/mol

CAUTION: The rotational entropy is not quite correctly treated here
         because it includes a symmetry number that is not yet correctly
         implemented in ORCA!
For a nonlinear molecule the correct rotational entropy is:
    S(rot) = R*(ln(qrot/sn)+1.5)
    R    = 8.31441 J/mol/K = 1.987191683e-3 kcal/mol/K
    qrot = 276683.5493455
    sn is the rotational symmetry number. We have assumed 3 here
       if it is different for your molecule then you should correct
       the printed rotational entropy by manually evaluating the equation
       as given above

For convenience we print out the resulting values for sn=1 - 12:
 sn= 1  qrot/sn=  276683.5493 T*S(rot)=     8.31 kcal/mol T*S(tot)=    26.30 kcal/mol
 sn= 2  qrot/sn=  138341.7747 T*S(rot)=     7.90 kcal/mol T*S(tot)=    25.89 kcal/mol
 sn= 3  qrot/sn=   92227.8498 T*S(rot)=     7.66 kcal/mol T*S(tot)=    25.65 kcal/mol
 sn= 4  qrot/sn=   69170.8873 T*S(rot)=     7.49 kcal/mol T*S(tot)=    25.48 kcal/mol
 sn= 5  qrot/sn=   55336.7099 T*S(rot)=     7.36 kcal/mol T*S(tot)=    25.35 kcal/mol
 sn= 6  qrot/sn=   46113.9249 T*S(rot)=     7.25 kcal/mol T*S(tot)=    25.24 kcal/mol
 sn= 7  qrot/sn=   39526.2213 T*S(rot)=     7.16 kcal/mol T*S(tot)=    25.15 kcal/mol
 sn= 8  qrot/sn=   34585.4437 T*S(rot)=     7.08 kcal/mol T*S(tot)=    25.07 kcal/mol
 sn= 9  qrot/sn=   30742.6166 T*S(rot)=     7.01 kcal/mol T*S(tot)=    25.00 kcal/mol
 sn=10  qrot/sn=   27668.3549 T*S(rot)=     6.95 kcal/mol T*S(tot)=    24.94 kcal/mol
 sn=11  qrot/sn=   25153.0499 T*S(rot)=     6.89 kcal/mol T*S(tot)=    24.88 kcal/mol
 sn=12  qrot/sn=   23056.9624 T*S(rot)=     6.84 kcal/mol T*S(tot)=    24.83 kcal/mol

-------------------
GIBBS FREE ENTHALPY
-------------------

The Gibbs free enthalpy is G = H - T*S

Total enthalpy                    ...   -287.41897043 Eh
Total entropy correction          ...     -0.04088051 Eh    -25.65 kcal/mol
-----------------------------------------------------------------------
Final Gibbs free enthalpy         ...   -287.45985093 Eh

For completeness - the Gibbs free enthalpy minus the electronic energy
G-E(el)                           ...      0.09486891 Eh     59.53 kcal/mol

                             ****ORCA TERMINATED NORMALLY****
TOTAL RUN TIME: 0 days 0 hours 28 minutes 36 seconds 140 msec
