                         Program Version 3.0.3 - RELEASE   -
|  1> ! NORI PBE0 def2-TZVP UseSym TightOPT Freq TightSCF Grid3 FinalGrid5 XYZFile
|  2> % pal
|  3>     nprocs 8
|  4> end
|  5> %method
|  6>     SymThresh 5.0e-2
|  7> end
|  8> % geom
|  9>     MaxIter 10
| 10> end
| 11> % maxcore 2000
| 12> % output
| 13>     printlevel mini
| 14>     print[ P_Basis ] 0
| 15>     print[ P_SCFInfo ] 1
| 16>     print[ P_SCFIterInfo ] 1
| 17>     print[ P_OrbEn ] 0
| 18>     print[ P_Cartesian ] 0
| 19> end
| 20> % elprop
| 21>     Dipole false
| 22> end
| 23> *xyz 1 1
| 24>  C        0.7852577865     0.0570416493    -0.1227023019
| 25>  C        2.2877172208     0.1355913748    -0.3140273659
| 26>  C        2.6912108624     0.0417513943    -1.7718627840
| 27>  N        2.7063395816     1.5311458511     0.1614899036
| 28>  C        3.0616743073    -0.8442486949     0.5774503912
| 29>  C        2.7557500436    -2.2814390075     0.2937028680
| 30>  C        3.6381246479    -3.1398940401    -0.1947806314
| 31>  H        0.2648133268     0.8267033153    -0.6989359666
| 32>  H        0.5023703653     0.1479522858     0.9298766559
| 33>  H        0.4242835150    -0.9071366653    -0.4790959705
| 34>  H        2.1608366980     0.7729284307    -2.3870963575
| 35>  H        2.4414122807    -0.9514407469    -2.1442586650
| 36>  H        3.7687505920     0.1753452637    -1.9057668608
| 37>  H        2.2423929365     2.2571387872    -0.3876590723
| 38>  H        3.7160198836     1.6586065150     0.0665616744
| 39>  H        2.4605482194     1.6705431056     1.1438771346
| 40>  H        2.8204291607    -0.6272337683     1.6279333245
| 41>  H        4.1374603203    -0.6771702059     0.4461778519
| 42>  H        1.7548100075    -2.6256072008     0.5390669606
| 43>  H        4.6564091351    -2.8456100747    -0.4294384131
| 44>  H        3.3777291092    -4.1774775683    -0.3654623758
| 45> *
| 46>
| 47>                          ****END OF INPUT****
 Total Charge           Charge          ....    1
 Multiplicity           Mult            ....    1
 Number of Electrons    NEL             ....   56
FINAL SINGLE POINT ENERGY      -291.314867784284
FINAL SINGLE POINT ENERGY      -291.314871489968
FINAL SINGLE POINT ENERGY      -291.314873172230

CARTESIAN COORDINATES (ANGSTROEM)
---------------------------------
  C      1.805092   -0.001038    0.488721
  C      0.313599   -0.225575    0.649832
  C     -0.091978   -1.652735    0.339866
  N      0.002155    0.001525    2.132818
  C     -0.535395    0.805747   -0.105335
  C     -0.328676    0.779655   -1.587326
  C     -1.264620    0.429065   -2.456482
  H      2.385871   -0.689558    1.108356
  H      2.093995    1.025490    0.730655
  H      2.086243   -0.188027   -0.547194
  H      0.498453   -2.375175    0.909423
  H      0.076786   -1.845197   -0.719480
  H     -1.153899   -1.825693    0.535260
  H      0.521609   -0.654829    2.718896
  H     -0.994427   -0.129067    2.317828
  H      0.254738    0.950193    2.417251
  H     -0.287703    1.807698    0.272475
  H     -1.594935    0.626112    0.110688
  H      0.643589    1.102260   -1.950262
  H     -2.258009    0.126122   -2.140077
  H     -1.076277    0.447021   -3.522975

FINAL SINGLE POINT ENERGY      -291.314873655044
                    ***********************HURRAY********************
 Multiplicity           Mult            ....    1
 Number of Electrons    NEL             ....   56
 Basis Dimension        Dim             ....  301
FINAL SINGLE POINT ENERGY      -291.314873964790

VIBRATIONAL FREQUENCIES
-----------------------

   0:         0.00 cm**-1
   1:         0.00 cm**-1
   2:         0.00 cm**-1
   3:         0.00 cm**-1
   4:         0.00 cm**-1
   5:         0.00 cm**-1
   6:        70.32 cm**-1
   7:        99.62 cm**-1
   8:       204.41 cm**-1
   9:       227.70 cm**-1
  10:       250.02 cm**-1
  11:       269.28 cm**-1
  12:       313.20 cm**-1
  13:       338.45 cm**-1
  14:       374.99 cm**-1
  15:       410.75 cm**-1
  16:       448.34 cm**-1
  17:       458.77 cm**-1
  18:       634.30 cm**-1
  19:       755.21 cm**-1
  20:       846.60 cm**-1
  21:       898.72 cm**-1
  22:       924.74 cm**-1
  23:       940.83 cm**-1
  24:       957.45 cm**-1
  25:       983.52 cm**-1
  26:       999.50 cm**-1
  27:      1026.34 cm**-1
  28:      1034.56 cm**-1
  29:      1050.58 cm**-1
  30:      1126.68 cm**-1
  31:      1166.02 cm**-1
  32:      1232.83 cm**-1
  33:      1308.88 cm**-1
  34:      1325.72 cm**-1
  35:      1348.81 cm**-1
  36:      1352.38 cm**-1
  37:      1413.99 cm**-1
  38:      1423.14 cm**-1
  39:      1451.59 cm**-1
  40:      1463.88 cm**-1
  41:      1466.88 cm**-1
  42:      1481.20 cm**-1
  43:      1484.25 cm**-1
  44:      1498.32 cm**-1
  45:      1500.48 cm**-1
  46:      1649.24 cm**-1
  47:      1650.92 cm**-1
  48:      1726.17 cm**-1
  49:      3011.32 cm**-1
  50:      3051.20 cm**-1
  51:      3054.74 cm**-1
  52:      3070.05 cm**-1
  53:      3125.21 cm**-1
  54:      3127.86 cm**-1
  55:      3157.34 cm**-1
  56:      3158.14 cm**-1
  57:      3161.10 cm**-1
  58:      3172.50 cm**-1
  59:      3252.68 cm**-1
  60:      3416.15 cm**-1
  61:      3508.58 cm**-1
  62:      3511.13 cm**-1

IR SPECTRUM
-----------

 Mode    freq (cm**-1)   T**2         TX         TY         TZ
-------------------------------------------------------------------
   6:        70.32    0.883778  ( -0.930125   0.106654  -0.085273)
   7:        99.62    0.898369  ( -0.352006  -0.799567  -0.367631)
   8:       204.41    0.027568  (  0.161396   0.022560  -0.031780)
   9:       227.70    1.996562  ( -0.621298   0.825401  -0.963983)
  10:       250.02    1.144531  ( -0.794762   0.325194  -0.638070)
  11:       269.28    0.531394  ( -0.168370   0.700901  -0.108552)
  12:       313.20    4.228689  ( -1.851488  -0.656190  -0.608355)
  13:       338.45    3.871429  ( -0.688626   1.831881  -0.203553)
  14:       374.99    3.523062  (  0.085921   1.381530  -1.267696)
  15:       410.75    2.307548  ( -1.491136  -0.274566  -0.093147)
  16:       448.34    2.475798  ( -0.596812   0.715356   1.268022)
  17:       458.77    5.023537  (  0.942433  -1.561281  -1.302980)
  18:       634.30    8.485975  (  0.537492  -2.828850   0.441230)
  19:       755.21    2.195599  ( -0.190378  -1.422720   0.367726)
  20:       846.60    6.744182  (  1.061279  -1.700595  -1.651013)
  21:       898.72    1.074001  (  0.993477  -0.110316   0.273559)
  22:       924.74   13.694881  ( -2.143721   2.339977  -1.903641)
  23:       940.83    4.763042  (  1.825778   1.157107   0.301131)
  24:       957.45    1.803918  (  0.772961   1.091828  -0.119841)
  25:       983.52    2.529690  (  0.570772  -1.451545   0.311332)
  26:       999.50   44.269260  ( -1.980419   6.327619  -0.555370)
  27:      1026.34    0.859734  (  0.044909  -0.610773   0.696185)
  28:      1034.56   14.391176  (  1.597982  -3.342955   0.813807)
  29:      1050.58    3.622035  (  0.349708   0.930401  -1.622989)
  30:      1126.68    4.325078  ( -1.775042  -0.901944  -0.600666)
  31:      1166.02   42.377205  ( -0.334547  -0.110677  -6.500233)
  32:      1232.83    4.702793  (  1.519146   1.497537  -0.390347)
  33:      1308.88   25.305413  (  3.103014  -2.574551   3.008056)
  34:      1325.72    2.555359  ( -1.413938  -0.673311   0.320609)
  35:      1348.81    3.621491  (  0.367180  -0.562344  -1.780572)
  36:      1352.38    1.776406  (  0.699280   0.903563  -0.686285)
  37:      1413.99   25.462374  (  3.603616   3.521927   0.268986)
  38:      1423.14   45.346317  (  3.766257  -3.379219  -4.443254)
  39:      1451.59    6.066486  (  2.059288   0.885346  -1.020776)
  40:      1463.88    0.071827  (  0.044360  -0.260979   0.041823)
  41:      1466.88   13.816233  (  2.597986   0.175192   2.652547)
  42:      1481.20   18.366329  (  0.008408  -0.294316  -4.275469)
  43:      1484.25   90.970321  ( -0.897785   0.571125   9.478297)
  44:      1498.32   52.486435  ( -1.948982   0.925618   6.916006)
  45:      1500.48   10.559887  (  2.018535  -2.469106  -0.623635)
  46:      1649.24   42.579274  (  6.057613   2.201482   1.018858)
  47:      1650.92   46.389652  ( -2.307240   6.173712  -1.718017)
  48:      1726.17    2.274808  ( -1.040455  -0.671229  -0.861228)
  49:      3011.32   19.388690  (  0.509087  -2.289092  -3.726872)
  50:      3051.20    3.482871  ( -1.345297  -1.282663   0.166797)
  51:      3054.74    8.091781  (  0.464111  -0.223677   2.797562)
  52:      3070.05    9.570624  ( -2.664845  -1.479140   0.530444)
  53:      3125.21    3.707155  (  1.099141   1.564195  -0.228775)
  54:      3127.86   11.923539  ( -2.411909   2.213842  -1.097788)
  55:      3157.34    4.031214  ( -1.784819  -0.870967   0.295045)
  56:      3158.14    0.585591  ( -0.332831   0.376967   0.576811)
  57:      3161.10    0.605560  (  0.539539  -0.209397   0.520203)
  58:      3172.50    1.536543  (  1.085437   0.379364  -0.463090)
  59:      3252.68    0.981507  (  0.831182   0.307224  -0.443008)
  60:      3416.15   33.984395  (  0.924647  -0.906699  -5.683953)
  61:      3508.58   62.327571  ( -5.024438  -6.088386   0.118978)
  62:      3511.13   66.126438  (  5.916090  -5.078699   2.309359)

--------------------------
THERMOCHEMISTRY AT 298.15K
--------------------------

Temperature         ... 298.15 K
Pressure            ... 1.00 atm
Total Mass          ... 100.18 AMU

Throughout the following assumptions are being made:
  (1) The electronic state is orbitally nondegenerate
  (2) There are no thermally accessible electronically excited states
  (3) Hindered rotations indicated by low frequency modes) are not
      treated as such but are treated as vibrations and this may
      case some error
  (4) All equations used are the standard statistical mechanics
      equations for an ideal gas
  (5) All vibrations are strinctly harmonic

------------
INNER ENERGY
------------

The inner energy is: U= E(el) + E(ZPE) + E(vib) + E(rot) + E(trans)
    E(el)   - is the total energy from the electronic structure calculation
              = E(kin-el) + E(nuc-el) + E(el-el) + E(nuc-nuc)
    E(ZPE)  - the the zero temperature vibrational energy from the frequency calculation
    E(vib)  - the the finite temperature correction to E(ZPE) due to population
              of excietd vibrational states
    E(rot)  - is the rotational thermal energy
    E(trans)- is the translational thermal energy

Summary of contributions to the inner energy U:
Electronic energy                ...   -291.31487396 Eh
Zero point energy                ...      0.19675978 Eh     123.47 kcal/mol
Thermal vibrational correction   ...      0.00630045 Eh       3.95 kcal/mol
Thermal rotational correction    ...      0.00141627 Eh       0.89 kcal/mol
Thermal translational correction ...      0.00141627 Eh       0.89 kcal/mol
-----------------------------------------------------------------------
Total thermal energy                   -291.10898120 Eh

Summary of corrections to the electronic energy:
(perhaps to be used in another calculation)
Total thermal correction                  0.00913299 Eh       5.73 kcal/mol
Non-thermal (ZPE) correction              0.19675978 Eh     123.47 kcal/mol
-----------------------------------------------------------------------
Total correction                          0.20589277 Eh     129.20 kcal/mol

--------
ENTHALPY
--------

The enthalpy is H = U + kB*T
                kB is Boltzmann's constant
Total free energy                 ...   -291.10898120 Eh
Thermal Enthalpy correction       ...      0.00094421 Eh       0.59 kcal/mol
-----------------------------------------------------------------------
Total Enthalpy                    ...   -291.10803699 Eh

-------
ENTROPY
-------

The entropy contributions are T*S = T*(S(el)+S(vib)+S(rot)+S(trans)
     S(el)   - electronic entropy
     S(vib)  - vibrational entropy
     S(rot)  - rotational entropy
     S(trans)- translational entropy
The entropies will be listed as mutliplied by the temperature to get
units of energy

Electronic entropy                ...      0.00000000 Eh      0.00 kcal/mol
Vibrational entropy               ...      0.01100781 Eh      6.91 kcal/mol
Rotational entropy                ...      0.01219351 Eh      7.65 kcal/mol
Translational entropy             ...      0.01887386 Eh     11.84 kcal/mol
-----------------------------------------------------------------------
Final entropy term                ...      0.04207519 Eh     26.40 kcal/mol

CAUTION: The rotational entropy is not quite correctly treated here
         because it includes a symmetry number that is not yet correctly
         implemented in ORCA!
For a nonlinear molecule the correct rotational entropy is:
    S(rot) = R*(ln(qrot/sn)+1.5)
    R    = 8.31441 J/mol/K = 1.987191683e-3 kcal/mol/K
    qrot = 271846.9398238
    sn is the rotational symmetry number. We have assumed 3 here
       if it is different for your molecule then you should correct
       the printed rotational entropy by manually evaluating the equation
       as given above

For convenience we print out the resulting values for sn=1 - 12:
 sn= 1  qrot/sn=  271846.9398 T*S(rot)=     8.30 kcal/mol T*S(tot)=    27.05 kcal/mol
 sn= 2  qrot/sn=  135923.4699 T*S(rot)=     7.89 kcal/mol T*S(tot)=    26.64 kcal/mol
 sn= 3  qrot/sn=   90615.6466 T*S(rot)=     7.65 kcal/mol T*S(tot)=    26.40 kcal/mol
 sn= 4  qrot/sn=   67961.7350 T*S(rot)=     7.48 kcal/mol T*S(tot)=    26.23 kcal/mol
 sn= 5  qrot/sn=   54369.3880 T*S(rot)=     7.35 kcal/mol T*S(tot)=    26.10 kcal/mol
 sn= 6  qrot/sn=   45307.8233 T*S(rot)=     7.24 kcal/mol T*S(tot)=    25.99 kcal/mol
 sn= 7  qrot/sn=   38835.2771 T*S(rot)=     7.15 kcal/mol T*S(tot)=    25.90 kcal/mol
 sn= 8  qrot/sn=   33980.8675 T*S(rot)=     7.07 kcal/mol T*S(tot)=    25.82 kcal/mol
 sn= 9  qrot/sn=   30205.2155 T*S(rot)=     7.00 kcal/mol T*S(tot)=    25.75 kcal/mol
 sn=10  qrot/sn=   27184.6940 T*S(rot)=     6.94 kcal/mol T*S(tot)=    25.69 kcal/mol
 sn=11  qrot/sn=   24713.3582 T*S(rot)=     6.88 kcal/mol T*S(tot)=    25.63 kcal/mol
 sn=12  qrot/sn=   22653.9117 T*S(rot)=     6.83 kcal/mol T*S(tot)=    25.58 kcal/mol

-------------------
GIBBS FREE ENTHALPY
-------------------

The Gibbs free enthalpy is G = H - T*S

Total enthalpy                    ...   -291.10803699 Eh
Total entropy correction          ...     -0.04207519 Eh    -26.40 kcal/mol
-----------------------------------------------------------------------
Final Gibbs free enthalpy         ...   -291.15011217 Eh

For completeness - the Gibbs free enthalpy minus the electronic energy
G-E(el)                           ...      0.16476179 Eh    103.39 kcal/mol

                             ****ORCA TERMINATED NORMALLY****
TOTAL RUN TIME: 0 days 0 hours 52 minutes 13 seconds 844 msec
