                         Program Version 3.0.3 - RELEASE   -
|  1> ! NORI PBE0 def2-TZVP UseSym TightOPT Freq TightSCF Grid3 FinalGrid5 XYZFile
|  2> % pal
|  3>     nprocs 8
|  4> end
|  5> %method
|  6>     SymThresh 5.0e-2
|  7> end
|  8> % geom
|  9>     MaxIter 10
| 10> end
| 11> % maxcore 2000
| 12> % output
| 13>     printlevel mini
| 14>     print[ P_Basis ] 0
| 15>     print[ P_SCFInfo ] 1
| 16>     print[ P_SCFIterInfo ] 1
| 17>     print[ P_OrbEn ] 0
| 18>     print[ P_Cartesian ] 0
| 19> end
| 20> % elprop
| 21>     Dipole false
| 22> end
| 23> *xyz 1 1
| 24>  C        0.8893600675    -0.0129403927     0.1457026248
| 25>  C        2.3902074883    -0.1054547817    -0.0364287544
| 26>  C        2.7768636695    -0.8126985513    -1.3221394924
| 27>  N        2.9449955673     1.3101166002    -0.1330362781
| 28>  C        3.0711614515    -0.7358827521     1.1928493122
| 29>  C        4.5087929683    -0.5276303273     1.1816285835
| 30>  C        5.6818423902    -0.2747254950     1.1277444902
| 31>  H        0.4062033968     0.4493908280    -0.7180581169
| 32>  H        0.6189789251     0.5460171253     1.0457273050
| 33>  H        0.4789941143    -1.0182892655     0.2490433619
| 34>  H        2.3388327118    -0.3215160028    -2.1949778591
| 35>  H        2.3941891046    -1.8330279747    -1.2977327570
| 36>  H        3.8609317110    -0.8658568492    -1.4458989930
| 37>  H        2.6975521114     1.7469161056    -1.0215871891
| 38>  H        3.9716695087     1.2554411515    -0.0482999549
| 39>  H        2.5992910522     1.9028552403     0.6239115691
| 40>  H        2.8360573401    -1.8038566675     1.1946806541
| 41>  H        2.6438076741    -0.3241081693     2.1139076000
| 42>  H        6.7345387471    -0.0966098220     1.1130338940
| 43> *
| 44>
| 45>                          ****END OF INPUT****
 Total Charge           Charge          ....    1
 Multiplicity           Mult            ....    1
 Number of Electrons    NEL             ....   54
FINAL SINGLE POINT ENERGY      -290.068283041952
FINAL SINGLE POINT ENERGY      -290.068285006020

CARTESIAN COORDINATES (ANGSTROEM)
---------------------------------
  C      2.193317   -0.001518    0.372909
  C      0.713839   -0.254152    0.168341
  C      0.415813   -1.691401   -0.215404
  N      0.002304    0.001760    1.490915
  C      0.102098    0.746118   -0.830660
  C     -1.349962    0.733366   -0.788255
  C     -2.544150    0.701166   -0.662605
  H      2.625128   -0.699034    1.094382
  H      2.392254    1.021227    0.704378
  H      2.715668   -0.147018   -0.573634
  H      0.800313   -2.391458    0.530845
  H      0.909913   -1.919419   -1.160436
  H     -0.654817   -1.860887   -0.349063
  H      0.201650   -0.733479    2.169960
  H     -1.011935    0.035451    1.305499
  H      0.276572    0.897896    1.897698
  H      0.460914    0.483587   -1.829718
  H      0.470121    1.757922   -0.626283
  H     -3.610257    0.692057   -0.605869

FINAL SINGLE POINT ENERGY      -290.068285712065
                    ***********************HURRAY********************
 Multiplicity           Mult            ....    1
 Number of Electrons    NEL             ....   54
 Basis Dimension        Dim             ....  289
FINAL SINGLE POINT ENERGY      -290.068285808051

VIBRATIONAL FREQUENCIES
-----------------------

   0:         0.00 cm**-1
   1:         0.00 cm**-1
   2:         0.00 cm**-1
   3:         0.00 cm**-1
   4:         0.00 cm**-1
   5:         0.00 cm**-1
   6:        98.61 cm**-1
   7:       148.99 cm**-1
   8:       227.08 cm**-1
   9:       258.70 cm**-1
  10:       273.28 cm**-1
  11:       306.70 cm**-1
  12:       325.17 cm**-1
  13:       354.57 cm**-1
  14:       401.70 cm**-1
  15:       411.59 cm**-1
  16:       411.86 cm**-1
  17:       563.80 cm**-1
  18:       714.52 cm**-1
  19:       732.07 cm**-1
  20:       749.20 cm**-1
  21:       870.92 cm**-1
  22:       911.94 cm**-1
  23:       933.04 cm**-1
  24:       955.82 cm**-1
  25:       964.50 cm**-1
  26:       988.66 cm**-1
  27:      1051.86 cm**-1
  28:      1063.27 cm**-1
  29:      1157.84 cm**-1
  30:      1236.94 cm**-1
  31:      1276.02 cm**-1
  32:      1325.37 cm**-1
  33:      1365.37 cm**-1
  34:      1414.78 cm**-1
  35:      1426.67 cm**-1
  36:      1458.27 cm**-1
  37:      1467.96 cm**-1
  38:      1481.11 cm**-1
  39:      1484.31 cm**-1
  40:      1494.70 cm**-1
  41:      1499.56 cm**-1
  42:      1635.37 cm**-1
  43:      1655.15 cm**-1
  44:      2235.18 cm**-1
  45:      3053.46 cm**-1
  46:      3055.40 cm**-1
  47:      3059.52 cm**-1
  48:      3106.25 cm**-1
  49:      3132.18 cm**-1
  50:      3136.58 cm**-1
  51:      3150.21 cm**-1
  52:      3155.73 cm**-1
  53:      3307.49 cm**-1
  54:      3452.53 cm**-1
  55:      3467.13 cm**-1
  56:      3523.19 cm**-1

IR SPECTRUM
-----------

 Mode    freq (cm**-1)   T**2         TX         TY         TZ
-------------------------------------------------------------------
   6:        98.61    2.882892  ( -1.214341  -0.168767  -1.174643)
   7:       148.99    3.679648  (  1.236095  -0.694912   1.291827)
   8:       227.08    0.302431  (  0.392091   0.257238   0.287270)
   9:       258.70    1.031809  (  0.890637   0.256826   0.415469)
  10:       273.28    0.129843  ( -0.027879   0.167505  -0.317817)
  11:       306.70    5.436685  ( -0.583212  -2.245254   0.235335)
  12:       325.17    6.631958  (  1.514352  -0.291824   2.062410)
  13:       354.57   11.000903  ( -0.481291   2.807577   1.699051)
  14:       401.70   13.586452  (  2.740992  -1.738023   1.747195)
  15:       411.59   10.432732  ( -2.067738  -0.098015  -2.479432)
  16:       411.86   14.246397  (  0.626657  -1.389025   3.453159)
  17:       563.80    4.377172  (  0.091306  -1.090871   1.782929)
  18:       714.52   43.380524  (  0.145781  -5.617740  -3.435152)
  19:       732.07    0.872883  ( -0.906536   0.043020  -0.221864)
  20:       749.20   39.635716  (  0.983321   3.036689  -5.426538)
  21:       870.92    2.538330  ( -0.968717   1.129003   0.570324)
  22:       911.94    0.842044  ( -0.282924   0.706889  -0.512158)
  23:       933.04   11.457188  (  1.663886  -2.064646   2.103784)
  24:       955.82    1.077198  ( -0.779258   0.116134  -0.675623)
  25:       964.50   14.994481  ( -3.432606  -0.618755  -1.681915)
  26:       988.66    4.696437  (  1.363702  -1.590473   0.554211)
  27:      1051.86    4.817974  (  0.787175  -2.048435  -0.047366)
  28:      1063.27   10.267378  (  2.991740  -0.477393   1.043534)
  29:      1157.84   11.536754  ( -0.757134   0.771228   3.220048)
  30:      1236.94   16.968981  (  3.376743   0.334449  -2.335536)
  31:      1276.02   27.509679  ( -4.678635   0.517638  -2.313461)
  32:      1325.37   18.909903  (  1.851895  -3.792117   1.048922)
  33:      1365.37    7.217240  (  1.710603  -0.932063   1.849955)
  34:      1414.78   24.109934  ( -3.160552  -3.633001  -0.960284)
  35:      1426.67   39.752504  ( -3.458370   2.873077   4.420137)
  36:      1458.27   13.437249  ( -0.937610  -1.263400   3.310884)
  37:      1467.96    1.047319  ( -0.110163   0.156410   1.005345)
  38:      1481.11   93.329748  ( -2.417993  -1.363761   9.253281)
  39:      1484.31   53.359857  ( -0.511382   1.096006   7.203965)
  40:      1494.70   18.748073  ( -1.506705   0.375208   4.041922)
  41:      1499.56    4.079252  ( -0.766818   1.616071  -0.937847)
  42:      1635.37   32.304328  (  1.017066   5.587250   0.229222)
  43:      1655.15   41.044075  (  4.103693  -3.185175   3.749458)
  44:      2235.18    2.689568  ( -1.355645   0.235656  -0.892335)
  45:      3053.46    0.774907  ( -0.826906   0.103147   0.283716)
  46:      3055.40    3.905072  ( -1.156320  -1.406876  -0.767265)
  47:      3059.52    3.726187  ( -0.405014   0.308223  -1.862028)
  48:      3106.25    1.219361  (  0.203166  -0.293404   1.044988)
  49:      3132.18    5.002683  (  0.024126  -2.233742   0.111794)
  50:      3136.58    4.982100  (  1.502285  -1.198031   1.135765)
  51:      3150.21    1.451862  ( -0.928610  -0.348212  -0.684321)
  52:      3155.73    0.766442  ( -0.353986  -0.595650   0.535104)
  53:      3307.49  117.298038  ( -9.680991   2.647435  -4.070323)
  54:      3452.53  108.902384  (-10.427454   0.385279   0.148854)
  55:      3467.13   90.763963  (  5.033362   0.971198   8.030318)
  56:      3523.19   72.763957  (  0.059746  -8.104243   2.661134)

--------------------------
THERMOCHEMISTRY AT 298.15K
--------------------------

Temperature         ... 298.15 K
Pressure            ... 1.00 atm
Total Mass          ... 98.17 AMU

Throughout the following assumptions are being made:
  (1) The electronic state is orbitally nondegenerate
  (2) There are no thermally accessible electronically excited states
  (3) Hindered rotations indicated by low frequency modes) are not
      treated as such but are treated as vibrations and this may
      case some error
  (4) All equations used are the standard statistical mechanics
      equations for an ideal gas
  (5) All vibrations are strinctly harmonic

------------
INNER ENERGY
------------

The inner energy is: U= E(el) + E(ZPE) + E(vib) + E(rot) + E(trans)
    E(el)   - is the total energy from the electronic structure calculation
              = E(kin-el) + E(nuc-el) + E(el-el) + E(nuc-nuc)
    E(ZPE)  - the the zero temperature vibrational energy from the frequency calculation
    E(vib)  - the the finite temperature correction to E(ZPE) due to population
              of excietd vibrational states
    E(rot)  - is the rotational thermal energy
    E(trans)- is the translational thermal energy

Summary of contributions to the inner energy U:
Electronic energy                ...   -290.06828581 Eh
Zero point energy                ...      0.17298607 Eh     108.55 kcal/mol
Thermal vibrational correction   ...      0.00583498 Eh       3.66 kcal/mol
Thermal rotational correction    ...      0.00141627 Eh       0.89 kcal/mol
Thermal translational correction ...      0.00141627 Eh       0.89 kcal/mol
-----------------------------------------------------------------------
Total thermal energy                   -289.88663221 Eh

Summary of corrections to the electronic energy:
(perhaps to be used in another calculation)
Total thermal correction                  0.00866753 Eh       5.44 kcal/mol
Non-thermal (ZPE) correction              0.17298607 Eh     108.55 kcal/mol
-----------------------------------------------------------------------
Total correction                          0.18165360 Eh     113.99 kcal/mol

--------
ENTHALPY
--------

The enthalpy is H = U + kB*T
                kB is Boltzmann's constant
Total free energy                 ...   -289.88663221 Eh
Thermal Enthalpy correction       ...      0.00094421 Eh       0.59 kcal/mol
-----------------------------------------------------------------------
Total Enthalpy                    ...   -289.88568800 Eh

-------
ENTROPY
-------

The entropy contributions are T*S = T*(S(el)+S(vib)+S(rot)+S(trans)
     S(el)   - electronic entropy
     S(vib)  - vibrational entropy
     S(rot)  - rotational entropy
     S(trans)- translational entropy
The entropies will be listed as mutliplied by the temperature to get
units of energy

Electronic entropy                ...      0.00000000 Eh      0.00 kcal/mol
Vibrational entropy               ...      0.00969865 Eh      6.09 kcal/mol
Rotational entropy                ...      0.01207615 Eh      7.58 kcal/mol
Translational entropy             ...      0.01884507 Eh     11.83 kcal/mol
-----------------------------------------------------------------------
Final entropy term                ...      0.04061987 Eh     25.49 kcal/mol

CAUTION: The rotational entropy is not quite correctly treated here
         because it includes a symmetry number that is not yet correctly
         implemented in ORCA!
For a nonlinear molecule the correct rotational entropy is:
    S(rot) = R*(ln(qrot/sn)+1.5)
    R    = 8.31441 J/mol/K = 1.987191683e-3 kcal/mol/K
    qrot = 240071.4790616
    sn is the rotational symmetry number. We have assumed 3 here
       if it is different for your molecule then you should correct
       the printed rotational entropy by manually evaluating the equation
       as given above

For convenience we print out the resulting values for sn=1 - 12:
 sn= 1  qrot/sn=  240071.4791 T*S(rot)=     8.23 kcal/mol T*S(tot)=    26.14 kcal/mol
 sn= 2  qrot/sn=  120035.7395 T*S(rot)=     7.82 kcal/mol T*S(tot)=    25.73 kcal/mol
 sn= 3  qrot/sn=   80023.8264 T*S(rot)=     7.58 kcal/mol T*S(tot)=    25.49 kcal/mol
 sn= 4  qrot/sn=   60017.8698 T*S(rot)=     7.41 kcal/mol T*S(tot)=    25.32 kcal/mol
 sn= 5  qrot/sn=   48014.2958 T*S(rot)=     7.28 kcal/mol T*S(tot)=    25.19 kcal/mol
 sn= 6  qrot/sn=   40011.9132 T*S(rot)=     7.17 kcal/mol T*S(tot)=    25.08 kcal/mol
 sn= 7  qrot/sn=   34295.9256 T*S(rot)=     7.08 kcal/mol T*S(tot)=    24.99 kcal/mol
 sn= 8  qrot/sn=   30008.9349 T*S(rot)=     7.00 kcal/mol T*S(tot)=    24.91 kcal/mol
 sn= 9  qrot/sn=   26674.6088 T*S(rot)=     6.93 kcal/mol T*S(tot)=    24.84 kcal/mol
 sn=10  qrot/sn=   24007.1479 T*S(rot)=     6.86 kcal/mol T*S(tot)=    24.78 kcal/mol
 sn=11  qrot/sn=   21824.6799 T*S(rot)=     6.81 kcal/mol T*S(tot)=    24.72 kcal/mol
 sn=12  qrot/sn=   20005.9566 T*S(rot)=     6.76 kcal/mol T*S(tot)=    24.67 kcal/mol

-------------------
GIBBS FREE ENTHALPY
-------------------

The Gibbs free enthalpy is G = H - T*S

Total enthalpy                    ...   -289.88568800 Eh
Total entropy correction          ...     -0.04061987 Eh    -25.49 kcal/mol
-----------------------------------------------------------------------
Final Gibbs free enthalpy         ...   -289.92630787 Eh

For completeness - the Gibbs free enthalpy minus the electronic energy
G-E(el)                           ...      0.14197794 Eh     89.09 kcal/mol

                             ****ORCA TERMINATED NORMALLY****
TOTAL RUN TIME: 0 days 0 hours 48 minutes 24 seconds 713 msec
