                         Program Version 3.0.3 - RELEASE   -
|  1> ! NORI PBE0 def2-TZVP UseSym TightOPT Freq TightSCF Grid3 FinalGrid5 XYZFile
|  2> % pal
|  3>     nprocs 8
|  4> end
|  5> %method
|  6>     SymThresh 5.0e-2
|  7> end
|  8> % geom
|  9>     MaxIter 10
| 10> end
| 11> % maxcore 2000
| 12> % output
| 13>     printlevel mini
| 14>     print[ P_Basis ] 0
| 15>     print[ P_SCFInfo ] 1
| 16>     print[ P_SCFIterInfo ] 1
| 17>     print[ P_OrbEn ] 0
| 18>     print[ P_Cartesian ] 0
| 19> end
| 20> % elprop
| 21>     Dipole false
| 22> end
| 23> *xyz 1 1
| 24>  C        1.9324640111     1.0826954368     0.1602116207
| 25>  C        3.3972019512     0.9107853396     0.5081368913
| 26>  C        3.6216388400     0.5369387608     1.9558530117
| 27>  N        3.9639335371    -0.1562247241    -0.4034034547
| 28>  C        5.4460385594    -0.4613027925    -0.3545156041
| 29>  C        5.7018705624    -1.6414739108    -1.2693079683
| 30>  C        6.2462998091     0.7652288192    -0.7309126377
| 31>  H        1.7843927374     1.3375655841    -0.8924123395
| 32>  H        1.5149813032     1.8975382706     0.7521136722
| 33>  H        1.3562173972     0.1816842106     0.3896825477
| 34>  H        3.9446917948     1.8211070182     0.2580521810
| 35>  H        3.1459542574    -0.4176278094     2.2003863436
| 36>  H        3.1632993422     1.2974277863     2.5886691158
| 37>  H        4.6769374818     0.4862793878     2.2249271334
| 38>  H        3.4575130965    -1.0252340004    -0.2174243656
| 39>  H        3.7305216697     0.0961586734    -1.3667183821
| 40>  H        5.6460201218    -0.7455888023     0.6800324833
| 41>  H        5.4967804014    -1.3912920948    -2.3143128239
| 42>  H        5.1070666985    -2.5155153705    -0.9921330656
| 43>  H        6.7512559775    -1.9289722370    -1.2017446552
| 44>  H        5.9945785982     1.1135456929    -1.7370705678
| 45>  H        7.3051757303     0.5035349624    -0.7352058402
| 46>  H        6.1201861217     1.5898717990    -0.0286932958
| 47> *
| 48>
| 49>                          ****END OF INPUT****
 Total Charge           Charge          ....    1
 Multiplicity           Mult            ....    1
 Number of Electrons    NEL             ....   58
FINAL SINGLE POINT ENERGY      -292.552101704732
FINAL SINGLE POINT ENERGY      -292.552103782403
FINAL SINGLE POINT ENERGY      -292.552106922984

CARTESIAN COORDINATES (ANGSTROEM)
---------------------------------
  C      2.431982   -0.005651    0.849163
  C      1.305626   -0.061794   -0.162966
  C      1.346374   -1.299571   -1.031005
  N     -0.000000   -0.000000    0.600970
  C     -1.305626    0.061793   -0.162966
  C     -2.431982    0.005652    0.849163
  C     -1.346373    1.299570   -1.031005
  H      2.380261    0.889139    1.475181
  H      3.387130    0.020870    0.324354
  H      2.436544   -0.889050    1.494018
  H      1.319339    0.838178   -0.780268
  H      1.246060   -2.210997   -0.434112
  H      2.314413   -1.344153   -1.530909
  H      0.581520   -1.298451   -1.808275
  H     -0.036022   -0.813465    1.220257
  H      0.036022    0.813464    1.220258
  H     -1.319339   -0.838178   -0.780268
  H     -2.436543    0.889049    1.494019
  H     -2.380262   -0.889139    1.475180
  H     -3.387131   -0.020868    0.324355
  H     -1.246060    2.210997   -0.434112
  H     -2.314413    1.344153   -1.530910
  H     -0.581519    1.298450   -1.808274

FINAL SINGLE POINT ENERGY      -292.552107559750
                    ***********************HURRAY********************
 Multiplicity           Mult            ....    1
 Number of Electrons    NEL             ....   58
 Basis Dimension        Dim             ....  313
FINAL SINGLE POINT ENERGY      -292.552108272345

VIBRATIONAL FREQUENCIES
-----------------------

   0:         0.00 cm**-1
   1:         0.00 cm**-1
   2:         0.00 cm**-1
   3:         0.00 cm**-1
   4:         0.00 cm**-1
   5:         0.00 cm**-1
   6:        42.42 cm**-1
   7:       104.67 cm**-1
   8:       176.39 cm**-1
   9:       227.28 cm**-1
  10:       229.16 cm**-1
  11:       246.10 cm**-1
  12:       263.61 cm**-1
  13:       308.21 cm**-1
  14:       353.37 cm**-1
  15:       393.22 cm**-1
  16:       423.37 cm**-1
  17:       461.72 cm**-1
  18:       465.31 cm**-1
  19:       803.02 cm**-1
  20:       828.41 cm**-1
  21:       872.91 cm**-1
  22:       923.27 cm**-1
  23:       939.61 cm**-1
  24:       943.65 cm**-1
  25:       951.02 cm**-1
  26:       963.86 cm**-1
  27:       974.89 cm**-1
  28:      1081.26 cm**-1
  29:      1111.51 cm**-1
  30:      1161.14 cm**-1
  31:      1184.23 cm**-1
  32:      1208.53 cm**-1
  33:      1218.33 cm**-1
  34:      1298.57 cm**-1
  35:      1327.33 cm**-1
  36:      1365.50 cm**-1
  37:      1383.89 cm**-1
  38:      1411.36 cm**-1
  39:      1415.33 cm**-1
  40:      1417.79 cm**-1
  41:      1423.45 cm**-1
  42:      1431.30 cm**-1
  43:      1440.07 cm**-1
  44:      1466.48 cm**-1
  45:      1469.25 cm**-1
  46:      1482.88 cm**-1
  47:      1485.68 cm**-1
  48:      1493.52 cm**-1
  49:      1498.36 cm**-1
  50:      1500.79 cm**-1
  51:      1506.75 cm**-1
  52:      1635.28 cm**-1
  53:      3051.47 cm**-1
  54:      3051.64 cm**-1
  55:      3057.99 cm**-1
  56:      3058.16 cm**-1
  57:      3106.00 cm**-1
  58:      3108.03 cm**-1
  59:      3128.05 cm**-1
  60:      3129.31 cm**-1
  61:      3139.84 cm**-1
  62:      3142.53 cm**-1
  63:      3153.21 cm**-1
  64:      3154.23 cm**-1
  65:      3157.03 cm**-1
  66:      3157.97 cm**-1
  67:      3422.58 cm**-1
  68:      3477.40 cm**-1

IR SPECTRUM
-----------

 Mode    freq (cm**-1)   T**2         TX         TY         TZ
-------------------------------------------------------------------
   6:        42.42    0.303956  ( -0.000040  -0.000193   0.551322)
   7:       104.67    3.503573  ( -0.721518  -1.727132  -0.000022)
   8:       176.39    0.674686  (  0.000104   0.000069   0.821393)
   9:       227.28    0.093125  ( -0.203954  -0.226997   0.000005)
  10:       229.16    0.084902  ( -0.000241  -0.000312   0.291380)
  11:       246.10    0.002937  ( -0.000147   0.000353   0.054196)
  12:       263.61    0.835998  ( -0.000256   0.914329   0.000005)
  13:       308.21    0.254389  (  0.000076   0.000064  -0.504370)
  14:       353.37    3.327981  ( -1.350247  -1.226708   0.000030)
  15:       393.22    1.773062  (  1.326104   0.120455   0.000063)
  16:       423.37    0.068484  (  0.000079  -0.000086   0.261694)
  17:       461.72    0.410875  ( -0.000888   0.000839   0.640994)
  18:       465.31    9.631003  ( -2.393381   1.975533  -0.000262)
  19:       803.02    0.077738  (  0.000001  -0.000041  -0.278816)
  20:       828.41   10.267406  (  1.914542  -2.569423   0.000016)
  21:       872.91    0.448437  (  0.173148   0.646882  -0.000006)
  22:       923.27    0.818011  (  0.000375   0.000132  -0.904439)
  23:       939.61    2.888953  (  1.457356   0.874680  -0.000597)
  24:       943.65    1.349825  ( -0.001543  -0.000212  -1.161818)
  25:       951.02    9.753715  ( -2.993079   0.891734   0.000294)
  26:       963.86    0.068728  ( -0.000596  -0.000035  -0.262160)
  27:       974.89    1.466238  (  1.203078  -0.137264  -0.000057)
  28:      1081.26    1.473619  ( -0.000038  -0.000238  -1.213927)
  29:      1111.51   46.810130  ( -6.816893   0.583181  -0.000001)
  30:      1161.14   26.312316  ( -5.126181  -0.185955  -0.000258)
  31:      1184.23    3.140767  (  0.000165  -0.000329  -1.772221)
  32:      1208.53    4.683676  (  0.000218  -0.000394  -2.164180)
  33:      1218.33    4.192430  (  0.749807   1.905313  -0.000284)
  34:      1298.57    0.462291  ( -0.000109  -0.000100  -0.679920)
  35:      1327.33   20.841093  ( -4.563830  -0.112030  -0.000151)
  36:      1365.50    0.162214  ( -0.000120   0.000151   0.402758)
  37:      1383.89   11.968342  ( -2.975885   1.764214  -0.000264)
  38:      1411.36   97.932800  ( -9.300685   3.380838   0.000244)
  39:      1415.33   20.163729  (  3.282929   3.063675   0.001056)
  40:      1417.79   10.315042  ( -0.000278  -0.001088   3.211704)
  41:      1423.45   12.949343  (  0.000165   0.000256  -3.598519)
  42:      1431.30    0.510940  (  0.001048   0.000278   0.714800)
  43:      1440.07   18.226163  (  1.898565   3.823822  -0.000320)
  44:      1466.48    1.232732  ( -0.296777  -1.069886   0.000099)
  45:      1469.25    0.585581  ( -0.000246   0.000247   0.765232)
  46:      1482.88    3.592422  (  0.000005  -0.000999   1.895368)
  47:      1485.68    6.218017  ( -0.405137  -2.460464  -0.000237)
  48:      1493.52    9.644954  ( -3.035420   0.656643  -0.000453)
  49:      1498.36   23.541277  ( -1.873351  -4.475693   0.001257)
  50:      1500.79    6.272162  (  0.000550   0.002517   2.504427)
  51:      1506.75   14.224785  (  0.000331   0.000385  -3.771576)
  52:      1635.28   53.240089  (  0.000029  -0.000091  -7.296581)
  53:      3051.47    0.207232  ( -0.224322   0.396072   0.006211)
  54:      3051.64    7.352933  (  0.000463  -0.001131   2.711629)
  55:      3057.99    5.919415  ( -1.906769  -1.511171  -0.003028)
  56:      3058.16    0.648905  ( -0.006774  -0.005456   0.805499)
  57:      3106.00    0.002310  ( -0.000113  -0.000085  -0.048065)
  58:      3108.03    0.028890  (  0.166520   0.034077   0.000091)
  59:      3128.05    1.081667  ( -0.000268   0.000770   1.040032)
  60:      3129.31   13.257479  ( -0.015490   3.641049  -0.000074)
  61:      3139.84    9.439931  ( -1.378746   2.745722  -0.000119)
  62:      3142.53    3.205939  ( -0.000256  -0.000055  -1.790514)
  63:      3153.21    1.255072  ( -1.120248  -0.010768  -0.000681)
  64:      3154.23    5.899149  (  0.000021   0.000075  -2.428816)
  65:      3157.03    0.428120  ( -0.000924  -0.000451  -0.654308)
  66:      3157.97    4.011590  (  1.965715   0.384130  -0.000655)
  67:      3422.58   21.070480  (  0.000010  -0.000062  -4.590259)
  68:      3477.40   35.933277  (  0.393654   5.981498  -0.000117)

--------------------------
THERMOCHEMISTRY AT 298.15K
--------------------------

Temperature         ... 298.15 K
Pressure            ... 1.00 atm
Total Mass          ... 102.20 AMU

Throughout the following assumptions are being made:
  (1) The electronic state is orbitally nondegenerate
  (2) There are no thermally accessible electronically excited states
  (3) Hindered rotations indicated by low frequency modes) are not
      treated as such but are treated as vibrations and this may
      case some error
  (4) All equations used are the standard statistical mechanics
      equations for an ideal gas
  (5) All vibrations are strinctly harmonic

------------
INNER ENERGY
------------

The inner energy is: U= E(el) + E(ZPE) + E(vib) + E(rot) + E(trans)
    E(el)   - is the total energy from the electronic structure calculation
              = E(kin-el) + E(nuc-el) + E(el-el) + E(nuc-nuc)
    E(ZPE)  - the the zero temperature vibrational energy from the frequency calculation
    E(vib)  - the the finite temperature correction to E(ZPE) due to population
              of excietd vibrational states
    E(rot)  - is the rotational thermal energy
    E(trans)- is the translational thermal energy

Summary of contributions to the inner energy U:
Electronic energy                ...   -292.55210827 Eh
Zero point energy                ...      0.22054822 Eh     138.40 kcal/mol
Thermal vibrational correction   ...      0.00676621 Eh       4.25 kcal/mol
Thermal rotational correction    ...      0.00141627 Eh       0.89 kcal/mol
Thermal translational correction ...      0.00141627 Eh       0.89 kcal/mol
-----------------------------------------------------------------------
Total thermal energy                   -292.32196130 Eh

Summary of corrections to the electronic energy:
(perhaps to be used in another calculation)
Total thermal correction                  0.00959876 Eh       6.02 kcal/mol
Non-thermal (ZPE) correction              0.22054822 Eh     138.40 kcal/mol
-----------------------------------------------------------------------
Total correction                          0.23014698 Eh     144.42 kcal/mol

--------
ENTHALPY
--------

The enthalpy is H = U + kB*T
                kB is Boltzmann's constant
Total free energy                 ...   -292.32196130 Eh
Thermal Enthalpy correction       ...      0.00094421 Eh       0.59 kcal/mol
-----------------------------------------------------------------------
Total Enthalpy                    ...   -292.32101709 Eh

-------
ENTROPY
-------

The entropy contributions are T*S = T*(S(el)+S(vib)+S(rot)+S(trans)
     S(el)   - electronic entropy
     S(vib)  - vibrational entropy
     S(rot)  - rotational entropy
     S(trans)- translational entropy
The entropies will be listed as mutliplied by the temperature to get
units of energy

Electronic entropy                ...      0.00000000 Eh      0.00 kcal/mol
Vibrational entropy               ...      0.01225315 Eh      7.69 kcal/mol
Rotational entropy                ...      0.01232230 Eh      7.73 kcal/mol
Translational entropy             ...      0.01890208 Eh     11.86 kcal/mol
-----------------------------------------------------------------------
Final entropy term                ...      0.04347752 Eh     27.28 kcal/mol

CAUTION: The rotational entropy is not quite correctly treated here
         because it includes a symmetry number that is not yet correctly
         implemented in ORCA!
For a nonlinear molecule the correct rotational entropy is:
    S(rot) = R*(ln(qrot/sn)+1.5)
    R    = 8.31441 J/mol/K = 1.987191683e-3 kcal/mol/K
    qrot = 311573.2691135
    sn is the rotational symmetry number. We have assumed 3 here
       if it is different for your molecule then you should correct
       the printed rotational entropy by manually evaluating the equation
       as given above

For convenience we print out the resulting values for sn=1 - 12:
 sn= 1  qrot/sn=  311573.2691 T*S(rot)=     8.38 kcal/mol T*S(tot)=    27.93 kcal/mol
 sn= 2  qrot/sn=  155786.6346 T*S(rot)=     7.97 kcal/mol T*S(tot)=    27.52 kcal/mol
 sn= 3  qrot/sn=  103857.7564 T*S(rot)=     7.73 kcal/mol T*S(tot)=    27.28 kcal/mol
 sn= 4  qrot/sn=   77893.3173 T*S(rot)=     7.56 kcal/mol T*S(tot)=    27.11 kcal/mol
 sn= 5  qrot/sn=   62314.6538 T*S(rot)=     7.43 kcal/mol T*S(tot)=    26.98 kcal/mol
 sn= 6  qrot/sn=   51928.8782 T*S(rot)=     7.32 kcal/mol T*S(tot)=    26.87 kcal/mol
 sn= 7  qrot/sn=   44510.4670 T*S(rot)=     7.23 kcal/mol T*S(tot)=    26.78 kcal/mol
 sn= 8  qrot/sn=   38946.6586 T*S(rot)=     7.15 kcal/mol T*S(tot)=    26.70 kcal/mol
 sn= 9  qrot/sn=   34619.2521 T*S(rot)=     7.08 kcal/mol T*S(tot)=    26.63 kcal/mol
 sn=10  qrot/sn=   31157.3269 T*S(rot)=     7.02 kcal/mol T*S(tot)=    26.57 kcal/mol
 sn=11  qrot/sn=   28324.8426 T*S(rot)=     6.96 kcal/mol T*S(tot)=    26.51 kcal/mol
 sn=12  qrot/sn=   25964.4391 T*S(rot)=     6.91 kcal/mol T*S(tot)=    26.46 kcal/mol

-------------------
GIBBS FREE ENTHALPY
-------------------

The Gibbs free enthalpy is G = H - T*S

Total enthalpy                    ...   -292.32101709 Eh
Total entropy correction          ...     -0.04347752 Eh    -27.28 kcal/mol
-----------------------------------------------------------------------
Final Gibbs free enthalpy         ...   -292.36449461 Eh

For completeness - the Gibbs free enthalpy minus the electronic energy
G-E(el)                           ...      0.18761366 Eh    117.73 kcal/mol

                             ****ORCA TERMINATED NORMALLY****
TOTAL RUN TIME: 0 days 1 hours 7 minutes 16 seconds 697 msec
