                         Program Version 3.0.3 - RELEASE   -
|  1> ! NORI PBE0 def2-TZVP UseSym TightOPT Freq TightSCF Grid3 FinalGrid5 XYZFile
|  2> % pal
|  3>     nprocs 8
|  4> end
|  5> %method
|  6>     SymThresh 5.0e-2
|  7> end
|  8> % geom
|  9>     MaxIter 10
| 10> end
| 11> % maxcore 2000
| 12> % output
| 13>     printlevel mini
| 14>     print[ P_Basis ] 0
| 15>     print[ P_SCFInfo ] 1
| 16>     print[ P_SCFIterInfo ] 1
| 17>     print[ P_OrbEn ] 0
| 18>     print[ P_Cartesian ] 0
| 19> end
| 20> % elprop
| 21>     Dipole false
| 22> end
| 23> *xyz 1 1
| 24>  C        0.8143593099    -0.6984026152    -1.1510756670
| 25>  C        2.2018069244    -0.1228637588    -0.9596267129
| 26>  C        2.5661563666     0.9125659985    -2.0007515621
| 27>  N        2.2696346978     0.4868025513     0.4258147808
| 28>  C        3.6358594707     0.8456718918     0.9479187512
| 29>  C        3.5389939715     1.3768673036     2.3369203855
| 30>  C        4.0028605176     0.7214830713     3.3912638397
| 31>  H        0.7607703292    -1.1932180944    -2.1211082305
| 32>  H        0.0501925016     0.0840141973    -1.1400862439
| 33>  H        0.5689550410    -1.4440248774    -0.3905251789
| 34>  H        2.9438300129    -0.9258451685    -0.9434169561
| 35>  H        1.8652797508     1.7528493825    -1.9896183760
| 36>  H        2.5052120904     0.4527942363    -2.9878502197
| 37>  H        3.5812628900     1.2941766686    -1.8870076668
| 38>  H        1.8463607757    -0.1635741613     1.0918274774
| 39>  H        1.6772356928     1.3205594048     0.4430932417
| 40>  H        4.0547846547     1.5779785909     0.2565348265
| 41>  H        4.2343514437    -0.0648404722     0.9037510124
| 42>  H        3.0891184346     2.3593423274     2.4576703035
| 43>  H        4.4849491678    -0.2469105646     3.2990401763
| 44>  H        3.9359059561     1.1410340881     4.3877320189
| 45> *
| 46>
| 47>                          ****END OF INPUT****
 Total Charge           Charge          ....    1
 Multiplicity           Mult            ....    1
 Number of Electrons    NEL             ....   56
FINAL SINGLE POINT ENERGY      -291.312874486550
FINAL SINGLE POINT ENERGY      -291.312876464733
FINAL SINGLE POINT ENERGY      -291.312878933572
FINAL SINGLE POINT ENERGY      -291.312880861758
FINAL SINGLE POINT ENERGY      -291.312882599950

CARTESIAN COORDINATES (ANGSTROEM)
---------------------------------
  C      2.080748   -0.013039    1.718107
  C      1.489429   -0.264128    0.346784
  C      1.741892   -1.665442   -0.163234
  N      0.000130    0.002703    0.424537
  C     -0.753740    0.070755   -0.877459
  C     -2.180330    0.424398   -0.632332
  C     -2.710792    1.578710   -1.009876
  H      3.162356   -0.142093    1.672877
  H      1.696691   -0.722434    2.456559
  H      1.889041    1.003790    2.070378
  H      1.864597    0.475212   -0.365996
  H      1.313427   -2.415942    0.507762
  H      2.818237   -1.837375   -0.195587
  H      1.360179   -1.828743   -1.171391
  H     -0.148526    0.888552    0.913098
  H     -0.426395   -0.712447    1.018942
  H     -0.648057   -0.904186   -1.353788
  H     -0.250874    0.820267   -1.489668
  H     -2.797353   -0.327775   -0.145923
  H     -2.128754    2.336851   -1.524921
  H     -3.756747    1.800042   -0.835902

FINAL SINGLE POINT ENERGY      -291.312883497121
                    ***********************HURRAY********************
 Multiplicity           Mult            ....    1
 Number of Electrons    NEL             ....   56
 Basis Dimension        Dim             ....  301
FINAL SINGLE POINT ENERGY      -291.312883946092

VIBRATIONAL FREQUENCIES
-----------------------

   0:         0.00 cm**-1
   1:         0.00 cm**-1
   2:         0.00 cm**-1
   3:         0.00 cm**-1
   4:         0.00 cm**-1
   5:         0.00 cm**-1
   6:        41.06 cm**-1
   7:        72.43 cm**-1
   8:       117.95 cm**-1
   9:       177.29 cm**-1
  10:       223.42 cm**-1
  11:       255.67 cm**-1
  12:       304.90 cm**-1
  13:       366.61 cm**-1
  14:       405.51 cm**-1
  15:       433.27 cm**-1
  16:       469.37 cm**-1
  17:       656.33 cm**-1
  18:       801.58 cm**-1
  19:       839.77 cm**-1
  20:       922.02 cm**-1
  21:       939.45 cm**-1
  22:       944.85 cm**-1
  23:       953.96 cm**-1
  24:       988.92 cm**-1
  25:      1001.02 cm**-1
  26:      1020.00 cm**-1
  27:      1030.18 cm**-1
  28:      1086.19 cm**-1
  29:      1167.81 cm**-1
  30:      1175.36 cm**-1
  31:      1210.94 cm**-1
  32:      1254.88 cm**-1
  33:      1312.22 cm**-1
  34:      1330.85 cm**-1
  35:      1363.04 cm**-1
  36:      1380.45 cm**-1
  37:      1410.57 cm**-1
  38:      1412.17 cm**-1
  39:      1418.81 cm**-1
  40:      1435.46 cm**-1
  41:      1459.08 cm**-1
  42:      1466.88 cm**-1
  43:      1484.34 cm**-1
  44:      1489.32 cm**-1
  45:      1498.38 cm**-1
  46:      1501.81 cm**-1
  47:      1644.21 cm**-1
  48:      1724.79 cm**-1
  49:      3052.85 cm**-1
  50:      3058.11 cm**-1
  51:      3089.05 cm**-1
  52:      3098.96 cm**-1
  53:      3128.86 cm**-1
  54:      3140.80 cm**-1
  55:      3152.72 cm**-1
  56:      3154.93 cm**-1
  57:      3158.66 cm**-1
  58:      3160.96 cm**-1
  59:      3170.66 cm**-1
  60:      3256.90 cm**-1
  61:      3427.25 cm**-1
  62:      3481.05 cm**-1

IR SPECTRUM
-----------

 Mode    freq (cm**-1)   T**2         TX         TY         TZ
-------------------------------------------------------------------
   6:        41.06    0.212532  (  0.109418   0.177089  -0.411338)
   7:        72.43    1.943863  ( -0.816081  -1.121339  -0.143085)
   8:       117.95    4.258573  (  0.252253   1.996731  -0.456078)
   9:       177.29    1.615668  (  0.385994  -0.257563  -1.183359)
  10:       223.42    0.299325  ( -0.014501  -0.479166  -0.263657)
  11:       255.67    1.053672  (  0.060347   0.964549  -0.345942)
  12:       304.90    0.340424  (  0.017784  -0.582711  -0.023572)
  13:       366.61    2.783908  (  1.587369   0.268497   0.438267)
  14:       405.51    0.342995  ( -0.499641  -0.228424  -0.202919)
  15:       433.27    2.372651  ( -0.761509   1.121124   0.732008)
  16:       469.37    5.118710  ( -1.452555   1.524631  -0.827221)
  17:       656.33   22.848341  ( -2.449638  -0.859286  -4.013632)
  18:       801.58   10.532176  ( -0.482229   3.197860  -0.270778)
  19:       839.77    0.209507  (  0.067490  -0.367104  -0.264928)
  20:       922.02    1.311766  (  0.403195   0.305394   1.027587)
  21:       939.45    1.566418  (  0.225072   0.762124   0.966916)
  22:       944.85    7.629530  ( -2.347819   0.350982  -1.412122)
  23:       953.96    4.083606  ( -1.516859   0.640729  -1.171415)
  24:       988.92   17.756126  ( -3.891224   0.989372  -1.278924)
  25:      1001.02   28.136271  (  3.708917  -0.313254   3.779163)
  26:      1020.00   56.725583  ( -2.236915  -2.839437  -6.607526)
  27:      1030.18    2.142233  ( -1.135755   0.909537   0.158223)
  28:      1086.19   13.996692  (  3.595930  -0.554983   0.870618)
  29:      1167.81   23.420757  (  4.401741  -1.904980  -0.645358)
  30:      1175.36    6.787507  ( -2.401864  -0.079202  -1.006123)
  31:      1210.94    0.565038  ( -0.562678  -0.264359   0.422547)
  32:      1254.88    6.160874  ( -2.007346  -1.289714  -0.684159)
  33:      1312.22   13.004454  (  3.376956   0.465385   1.176453)
  34:      1330.85   10.159777  (  1.982492  -1.906335   1.611021)
  35:      1363.04    5.449805  ( -1.370666   1.824646  -0.491677)
  36:      1380.45    3.449348  (  0.936851  -1.406175   0.770928)
  37:      1410.57  123.963850  (  9.239703  -3.883012   4.849119)
  38:      1412.17    1.329397  ( -0.092425   0.066262  -1.147373)
  39:      1418.81   21.312243  (  0.432194   3.267396   3.232581)
  40:      1435.46    8.195090  ( -1.491241  -2.371497  -0.589314)
  41:      1459.08   15.380481  ( -2.170347   3.184319  -0.728140)
  42:      1466.88    1.406889  (  0.307115   0.865912  -0.750177)
  43:      1484.34    4.118129  (  0.650213  -1.580241  -1.094619)
  44:      1489.32    4.226063  ( -0.528523  -1.010658   1.710350)
  45:      1498.38   10.972177  (  3.061252  -0.307551  -1.227323)
  46:      1501.81   22.100883  ( -2.923904  -2.339968   2.841869)
  47:      1644.21   46.253105  ( -3.503257   1.258948   5.691691)
  48:      1724.79    0.802929  ( -0.736440  -0.252162  -0.443847)
  49:      3052.85    3.336161  (  0.954365  -0.730908  -1.375180)
  50:      3058.11    3.583894  (  1.716209   0.779886  -0.174065)
  51:      3089.05    1.153550  ( -0.099329  -0.807999   0.700586)
  52:      3098.96    1.851998  ( -1.258635   0.350868   0.380430)
  53:      3128.86    6.822470  ( -0.119373  -2.609011   0.035823)
  54:      3140.80    5.813314  (  0.047751   1.410407  -1.954939)
  55:      3152.72    1.655817  ( -0.440878  -0.240627  -1.184712)
  56:      3154.93    1.682056  ( -0.650225   0.069862   1.119992)
  57:      3158.66    2.089190  ( -0.404318   0.065219  -1.386168)
  58:      3160.96    1.770886  ( -1.288801  -0.311817  -0.112457)
  59:      3170.66    0.546158  (  0.424539   0.592667  -0.121124)
  60:      3256.90    0.220873  ( -0.208689   0.388300  -0.162925)
  61:      3427.25   25.688554  (  2.196830  -0.371085  -4.552449)
  62:      3481.05   47.177971  (  0.890665   6.809020  -0.148112)

--------------------------
THERMOCHEMISTRY AT 298.15K
--------------------------

Temperature         ... 298.15 K
Pressure            ... 1.00 atm
Total Mass          ... 100.18 AMU

Throughout the following assumptions are being made:
  (1) The electronic state is orbitally nondegenerate
  (2) There are no thermally accessible electronically excited states
  (3) Hindered rotations indicated by low frequency modes) are not
      treated as such but are treated as vibrations and this may
      case some error
  (4) All equations used are the standard statistical mechanics
      equations for an ideal gas
  (5) All vibrations are strinctly harmonic

------------
INNER ENERGY
------------

The inner energy is: U= E(el) + E(ZPE) + E(vib) + E(rot) + E(trans)
    E(el)   - is the total energy from the electronic structure calculation
              = E(kin-el) + E(nuc-el) + E(el-el) + E(nuc-nuc)
    E(ZPE)  - the the zero temperature vibrational energy from the frequency calculation
    E(vib)  - the the finite temperature correction to E(ZPE) due to population
              of excietd vibrational states
    E(rot)  - is the rotational thermal energy
    E(trans)- is the translational thermal energy

Summary of contributions to the inner energy U:
Electronic energy                ...   -291.31288395 Eh
Zero point energy                ...      0.19757383 Eh     123.98 kcal/mol
Thermal vibrational correction   ...      0.00633106 Eh       3.97 kcal/mol
Thermal rotational correction    ...      0.00141627 Eh       0.89 kcal/mol
Thermal translational correction ...      0.00141627 Eh       0.89 kcal/mol
-----------------------------------------------------------------------
Total thermal energy                   -291.10614651 Eh

Summary of corrections to the electronic energy:
(perhaps to be used in another calculation)
Total thermal correction                  0.00916361 Eh       5.75 kcal/mol
Non-thermal (ZPE) correction              0.19757383 Eh     123.98 kcal/mol
-----------------------------------------------------------------------
Total correction                          0.20673743 Eh     129.73 kcal/mol

--------
ENTHALPY
--------

The enthalpy is H = U + kB*T
                kB is Boltzmann's constant
Total free energy                 ...   -291.10614651 Eh
Thermal Enthalpy correction       ...      0.00094421 Eh       0.59 kcal/mol
-----------------------------------------------------------------------
Total Enthalpy                    ...   -291.10520230 Eh

-------
ENTROPY
-------

The entropy contributions are T*S = T*(S(el)+S(vib)+S(rot)+S(trans)
     S(el)   - electronic entropy
     S(vib)  - vibrational entropy
     S(rot)  - rotational entropy
     S(trans)- translational entropy
The entropies will be listed as mutliplied by the temperature to get
units of energy

Electronic entropy                ...      0.00000000 Eh      0.00 kcal/mol
Vibrational entropy               ...      0.01210531 Eh      7.60 kcal/mol
Rotational entropy                ...      0.01237058 Eh      7.76 kcal/mol
Translational entropy             ...      0.01887386 Eh     11.84 kcal/mol
-----------------------------------------------------------------------
Final entropy term                ...      0.04334975 Eh     27.20 kcal/mol

CAUTION: The rotational entropy is not quite correctly treated here
         because it includes a symmetry number that is not yet correctly
         implemented in ORCA!
For a nonlinear molecule the correct rotational entropy is:
    S(rot) = R*(ln(qrot/sn)+1.5)
    R    = 8.31441 J/mol/K = 1.987191683e-3 kcal/mol/K
    qrot = 327922.4060380
    sn is the rotational symmetry number. We have assumed 3 here
       if it is different for your molecule then you should correct
       the printed rotational entropy by manually evaluating the equation
       as given above

For convenience we print out the resulting values for sn=1 - 12:
 sn= 1  qrot/sn=  327922.4060 T*S(rot)=     8.41 kcal/mol T*S(tot)=    27.85 kcal/mol
 sn= 2  qrot/sn=  163961.2030 T*S(rot)=     8.00 kcal/mol T*S(tot)=    27.44 kcal/mol
 sn= 3  qrot/sn=  109307.4687 T*S(rot)=     7.76 kcal/mol T*S(tot)=    27.20 kcal/mol
 sn= 4  qrot/sn=   81980.6015 T*S(rot)=     7.59 kcal/mol T*S(tot)=    27.03 kcal/mol
 sn= 5  qrot/sn=   65584.4812 T*S(rot)=     7.46 kcal/mol T*S(tot)=    26.90 kcal/mol
 sn= 6  qrot/sn=   54653.7343 T*S(rot)=     7.35 kcal/mol T*S(tot)=    26.79 kcal/mol
 sn= 7  qrot/sn=   46846.0580 T*S(rot)=     7.26 kcal/mol T*S(tot)=    26.70 kcal/mol
 sn= 8  qrot/sn=   40990.3008 T*S(rot)=     7.18 kcal/mol T*S(tot)=    26.62 kcal/mol
 sn= 9  qrot/sn=   36435.8229 T*S(rot)=     7.11 kcal/mol T*S(tot)=    26.55 kcal/mol
 sn=10  qrot/sn=   32792.2406 T*S(rot)=     7.05 kcal/mol T*S(tot)=    26.49 kcal/mol
 sn=11  qrot/sn=   29811.1278 T*S(rot)=     6.99 kcal/mol T*S(tot)=    26.43 kcal/mol
 sn=12  qrot/sn=   27326.8672 T*S(rot)=     6.94 kcal/mol T*S(tot)=    26.38 kcal/mol

-------------------
GIBBS FREE ENTHALPY
-------------------

The Gibbs free enthalpy is G = H - T*S

Total enthalpy                    ...   -291.10520230 Eh
Total entropy correction          ...     -0.04334975 Eh    -27.20 kcal/mol
-----------------------------------------------------------------------
Final Gibbs free enthalpy         ...   -291.14855205 Eh

For completeness - the Gibbs free enthalpy minus the electronic energy
G-E(el)                           ...      0.16433189 Eh    103.12 kcal/mol

                             ****ORCA TERMINATED NORMALLY****
TOTAL RUN TIME: 0 days 0 hours 48 minutes 44 seconds 902 msec
