                         Program Version 3.0.3 - RELEASE   -
|  1> ! NORI PBE0 def2-TZVP UseSym TightOPT Freq TightSCF Grid3 FinalGrid5 XYZFile
|  2> % pal
|  3>     nprocs 8
|  4> end
|  5> %method
|  6>     SymThresh 5.0e-2
|  7> end
|  8> % geom
|  9>     MaxIter 10
| 10> end
| 11> % maxcore 2000
| 12> % output
| 13>     printlevel mini
| 14>     print[ P_Basis ] 0
| 15>     print[ P_SCFInfo ] 1
| 16>     print[ P_SCFIterInfo ] 1
| 17>     print[ P_OrbEn ] 0
| 18>     print[ P_Cartesian ] 0
| 19> end
| 20> % elprop
| 21>     Dipole false
| 22> end
| 23> *xyz 1 1
| 24>  C        0.7869481293     0.0434071733     0.2068539357
| 25>  C        2.2861148529    -0.1671489147     0.1961685716
| 26>  C        2.6925916188    -1.5774736284     0.5630530033
| 27>  N        2.7924258583     0.1796956555    -1.1904435036
| 28>  C        4.2831040458     0.2592176327    -1.3646759954
| 29>  C        4.5979374354     0.6986297774    -2.7044673175
| 30>  C        4.8399075689     1.0668066639    -3.8185204416
| 31>  H        0.5100923433     1.0645847244    -0.0673107690
| 32>  H        0.4088740648    -0.1352039196     1.2138029607
| 33>  H        0.2783559268    -0.6550284582    -0.4630409611
| 34>  H        2.7727780363     0.5566132413     0.8553040410
| 35>  H        2.2785280250    -2.3070797013    -0.1389190109
| 36>  H        2.2875493714    -1.8104950283     1.5482514491
| 37>  H        3.7733058894    -1.7120192795     0.6220233460
| 38>  H        2.4239170546    -0.4996929186    -1.8614217043
| 39>  H        2.3968597384     1.0807607059    -1.4688673167
| 40>  H        4.6578229507     0.9548961223    -0.6101750513
| 41>  H        4.6955480827    -0.7291134362    -1.1593342055
| 42>  H        5.0718290071     1.3920935880    -4.8087610307
| 43> *
| 44>
| 45>                          ****END OF INPUT****
 Total Charge           Charge          ....    1
 Multiplicity           Mult            ....    1
 Number of Electrons    NEL             ....   54
FINAL SINGLE POINT ENERGY      -290.054118311546
FINAL SINGLE POINT ENERGY      -290.054119649518

CARTESIAN COORDINATES (ANGSTROEM)
---------------------------------
  C      2.094328    0.000014    1.630571
  C      1.501423    0.179398    0.248683
  C      2.065643   -0.781775   -0.773842
  N      0.000537   -0.001188    0.362426
  C     -0.815697    0.354732   -0.848806
  C     -2.222833    0.231758   -0.545878
  C     -3.385062    0.126963   -0.275585
  H      1.669643    0.697906    2.356730
  H      3.166922    0.190382    1.586977
  H      1.957227   -1.021307    1.996893
  H      1.629603    1.213118   -0.084611
  H      1.873322   -1.821374   -0.492772
  H      3.147656   -0.651820   -0.813604
  H      1.686018   -0.608136   -1.781204
  H     -0.201459   -0.972147    0.615646
  H     -0.340599    0.561849    1.145193
  H     -0.547686    1.376808   -1.127187
  H     -0.518932   -0.313535   -1.657970
  H     -4.424953    0.036369   -0.050234

FINAL SINGLE POINT ENERGY      -290.054120123952
                    ***********************HURRAY********************
 Multiplicity           Mult            ....    1
 Number of Electrons    NEL             ....   54
 Basis Dimension        Dim             ....  289
FINAL SINGLE POINT ENERGY      -290.054120335760

VIBRATIONAL FREQUENCIES
-----------------------

   0:         0.00 cm**-1
   1:         0.00 cm**-1
   2:         0.00 cm**-1
   3:         0.00 cm**-1
   4:         0.00 cm**-1
   5:         0.00 cm**-1
   6:        47.43 cm**-1
   7:        95.41 cm**-1
   8:       119.07 cm**-1
   9:       218.93 cm**-1
  10:       250.95 cm**-1
  11:       256.97 cm**-1
  12:       326.39 cm**-1
  13:       343.79 cm**-1
  14:       412.91 cm**-1
  15:       435.33 cm**-1
  16:       526.48 cm**-1
  17:       728.23 cm**-1
  18:       773.99 cm**-1
  19:       807.53 cm**-1
  20:       834.57 cm**-1
  21:       929.36 cm**-1
  22:       941.86 cm**-1
  23:       952.33 cm**-1
  24:       984.74 cm**-1
  25:      1001.81 cm**-1
  26:      1013.78 cm**-1
  27:      1140.53 cm**-1
  28:      1169.50 cm**-1
  29:      1186.00 cm**-1
  30:      1247.48 cm**-1
  31:      1318.01 cm**-1
  32:      1359.21 cm**-1
  33:      1383.15 cm**-1
  34:      1410.20 cm**-1
  35:      1416.72 cm**-1
  36:      1418.93 cm**-1
  37:      1437.86 cm**-1
  38:      1465.59 cm**-1
  39:      1479.00 cm**-1
  40:      1485.02 cm**-1
  41:      1497.24 cm**-1
  42:      1501.68 cm**-1
  43:      1644.69 cm**-1
  44:      2259.12 cm**-1
  45:      3053.28 cm**-1
  46:      3059.01 cm**-1
  47:      3086.80 cm**-1
  48:      3088.83 cm**-1
  49:      3129.60 cm**-1
  50:      3140.53 cm**-1
  51:      3145.24 cm**-1
  52:      3154.38 cm**-1
  53:      3157.99 cm**-1
  54:      3426.32 cm**-1
  55:      3454.41 cm**-1
  56:      3478.36 cm**-1

IR SPECTRUM
-----------

 Mode    freq (cm**-1)   T**2         TX         TY         TZ
-------------------------------------------------------------------
   6:        47.43    0.271462  (  0.123332   0.505581  -0.025280)
   7:        95.41    4.776309  (  0.191238   2.000949   0.857871)
   8:       119.07    0.348016  (  0.159552  -0.487126   0.292004)
   9:       218.93    0.454311  ( -0.194745  -0.570139   0.302204)
  10:       250.95    2.205150  ( -0.435304  -0.585553   1.293363)
  11:       256.97    1.867305  (  0.165354   1.111983  -0.776826)
  12:       326.39   16.445450  (  0.076900  -3.882317  -1.169254)
  13:       343.79    2.487058  ( -0.997362  -0.975849   0.734879)
  14:       412.91    7.880742  ( -0.350396  -1.132447  -2.544706)
  15:       435.33    0.557625  ( -0.034243   0.740887   0.086829)
  16:       526.48   33.069364  (  4.017327  -1.852149   3.674234)
  17:       728.23   41.141621  ( -0.114268   6.086847   2.019617)
  18:       773.99   30.144746  (  0.614380  -1.618291   5.210414)
  19:       807.53    7.612262  ( -0.964871   2.357832   1.059206)
  20:       834.57    0.015489  (  0.030046   0.119514  -0.017386)
  21:       929.36    1.919165  ( -0.050570   0.236023  -1.364148)
  22:       941.86    3.320710  (  1.123660   0.460099   1.358826)
  23:       952.33    5.429565  (  2.099894  -0.498819   0.878175)
  24:       984.74   16.154298  (  3.599814  -0.700927   1.644487)
  25:      1001.81    3.132213  ( -0.440466   0.284807   1.690292)
  26:      1013.78   26.390145  ( -4.866294   0.582676  -1.539422)
  27:      1140.53   17.337555  (  3.929207   1.342608   0.310310)
  28:      1169.50   18.259818  (  4.078815  -0.462260  -1.187183)
  29:      1186.00    4.090519  ( -1.862748   0.212751  -0.758567)
  30:      1247.48    8.466419  (  2.216932   1.606805   0.984788)
  31:      1318.01   11.103145  (  2.691195  -0.023337   1.964705)
  32:      1359.21    5.807224  ( -1.913402   1.379591   0.492795)
  33:      1383.15    2.596744  ( -0.087720  -1.445180   0.707462)
  34:      1410.20   51.685783  ( -6.552420   1.750060  -2.385133)
  35:      1416.72   84.252373  ( -9.069989   1.346576  -0.417609)
  36:      1418.93   24.955158  (  1.552990   1.185211   4.597679)
  37:      1437.86   16.825233  ( -2.861084  -2.463591  -1.603169)
  38:      1465.59    1.406023  (  0.620885   0.675391  -0.751247)
  39:      1479.00    7.172112  (  1.300901   0.208307  -2.331604)
  40:      1485.02    2.423206  (  0.755961  -1.162625  -0.707128)
  41:      1497.24   10.241416  (  2.949445   0.780568  -0.965868)
  42:      1501.68   22.825623  ( -1.940232  -4.097172   1.508081)
  43:      1644.69   46.053847  ( -3.131299  -2.253038   5.583245)
  44:      2259.12   28.069705  (  5.293057   0.132072  -0.189241)
  45:      3053.28    2.993838  ( -1.101760  -0.158951   1.324650)
  46:      3059.01    3.829154  (  1.627268   1.027409   0.354380)
  47:      3086.80    2.049294  ( -0.736425   1.146097  -0.439810)
  48:      3088.83    1.154679  (  1.048352   0.184318   0.147189)
  49:      3129.60    6.327318  ( -0.534730   2.243748   1.003481)
  50:      3140.53    3.774587  (  0.591985  -1.222981   1.388690)
  51:      3145.24    2.646366  ( -0.182710   1.612661   0.110937)
  52:      3154.38    3.060396  ( -0.297192   0.555897  -1.631886)
  53:      3157.99    1.612394  ( -0.926478   0.110388  -0.861305)
  54:      3426.32   29.422338  ( -1.762550  -2.151995   4.656680)
  55:      3454.41  100.538417  ( -9.825642  -0.760619   1.848413)
  56:      3478.36   57.313463  ( -0.904465   6.910321   2.956834)

--------------------------
THERMOCHEMISTRY AT 298.15K
--------------------------

Temperature         ... 298.15 K
Pressure            ... 1.00 atm
Total Mass          ... 98.17 AMU

Throughout the following assumptions are being made:
  (1) The electronic state is orbitally nondegenerate
  (2) There are no thermally accessible electronically excited states
  (3) Hindered rotations indicated by low frequency modes) are not
      treated as such but are treated as vibrations and this may
      case some error
  (4) All equations used are the standard statistical mechanics
      equations for an ideal gas
  (5) All vibrations are strinctly harmonic

------------
INNER ENERGY
------------

The inner energy is: U= E(el) + E(ZPE) + E(vib) + E(rot) + E(trans)
    E(el)   - is the total energy from the electronic structure calculation
              = E(kin-el) + E(nuc-el) + E(el-el) + E(nuc-nuc)
    E(ZPE)  - the the zero temperature vibrational energy from the frequency calculation
    E(vib)  - the the finite temperature correction to E(ZPE) due to population
              of excietd vibrational states
    E(rot)  - is the rotational thermal energy
    E(trans)- is the translational thermal energy

Summary of contributions to the inner energy U:
Electronic energy                ...   -290.05412034 Eh
Zero point energy                ...      0.17358852 Eh     108.93 kcal/mol
Thermal vibrational correction   ...      0.00604926 Eh       3.80 kcal/mol
Thermal rotational correction    ...      0.00141627 Eh       0.89 kcal/mol
Thermal translational correction ...      0.00141627 Eh       0.89 kcal/mol
-----------------------------------------------------------------------
Total thermal energy                   -289.87165001 Eh

Summary of corrections to the electronic energy:
(perhaps to be used in another calculation)
Total thermal correction                  0.00888181 Eh       5.57 kcal/mol
Non-thermal (ZPE) correction              0.17358852 Eh     108.93 kcal/mol
-----------------------------------------------------------------------
Total correction                          0.18247033 Eh     114.50 kcal/mol

--------
ENTHALPY
--------

The enthalpy is H = U + kB*T
                kB is Boltzmann's constant
Total free energy                 ...   -289.87165001 Eh
Thermal Enthalpy correction       ...      0.00094421 Eh       0.59 kcal/mol
-----------------------------------------------------------------------
Total Enthalpy                    ...   -289.87070580 Eh

-------
ENTROPY
-------

The entropy contributions are T*S = T*(S(el)+S(vib)+S(rot)+S(trans)
     S(el)   - electronic entropy
     S(vib)  - vibrational entropy
     S(rot)  - rotational entropy
     S(trans)- translational entropy
The entropies will be listed as mutliplied by the temperature to get
units of energy

Electronic entropy                ...      0.00000000 Eh      0.00 kcal/mol
Vibrational entropy               ...      0.01125328 Eh      7.06 kcal/mol
Rotational entropy                ...      0.01230925 Eh      7.72 kcal/mol
Translational entropy             ...      0.01884507 Eh     11.83 kcal/mol
-----------------------------------------------------------------------
Final entropy term                ...      0.04240760 Eh     26.61 kcal/mol

CAUTION: The rotational entropy is not quite correctly treated here
         because it includes a symmetry number that is not yet correctly
         implemented in ORCA!
For a nonlinear molecule the correct rotational entropy is:
    S(rot) = R*(ln(qrot/sn)+1.5)
    R    = 8.31441 J/mol/K = 1.987191683e-3 kcal/mol/K
    qrot = 307298.3705770
    sn is the rotational symmetry number. We have assumed 3 here
       if it is different for your molecule then you should correct
       the printed rotational entropy by manually evaluating the equation
       as given above

For convenience we print out the resulting values for sn=1 - 12:
 sn= 1  qrot/sn=  307298.3706 T*S(rot)=     8.38 kcal/mol T*S(tot)=    27.26 kcal/mol
 sn= 2  qrot/sn=  153649.1853 T*S(rot)=     7.96 kcal/mol T*S(tot)=    26.85 kcal/mol
 sn= 3  qrot/sn=  102432.7902 T*S(rot)=     7.72 kcal/mol T*S(tot)=    26.61 kcal/mol
 sn= 4  qrot/sn=   76824.5926 T*S(rot)=     7.55 kcal/mol T*S(tot)=    26.44 kcal/mol
 sn= 5  qrot/sn=   61459.6741 T*S(rot)=     7.42 kcal/mol T*S(tot)=    26.31 kcal/mol
 sn= 6  qrot/sn=   51216.3951 T*S(rot)=     7.31 kcal/mol T*S(tot)=    26.20 kcal/mol
 sn= 7  qrot/sn=   43899.7672 T*S(rot)=     7.22 kcal/mol T*S(tot)=    26.11 kcal/mol
 sn= 8  qrot/sn=   38412.2963 T*S(rot)=     7.14 kcal/mol T*S(tot)=    26.03 kcal/mol
 sn= 9  qrot/sn=   34144.2634 T*S(rot)=     7.07 kcal/mol T*S(tot)=    25.96 kcal/mol
 sn=10  qrot/sn=   30729.8371 T*S(rot)=     7.01 kcal/mol T*S(tot)=    25.90 kcal/mol
 sn=11  qrot/sn=   27936.2155 T*S(rot)=     6.95 kcal/mol T*S(tot)=    25.84 kcal/mol
 sn=12  qrot/sn=   25608.1975 T*S(rot)=     6.90 kcal/mol T*S(tot)=    25.79 kcal/mol

-------------------
GIBBS FREE ENTHALPY
-------------------

The Gibbs free enthalpy is G = H - T*S

Total enthalpy                    ...   -289.87070580 Eh
Total entropy correction          ...     -0.04240760 Eh    -26.61 kcal/mol
-----------------------------------------------------------------------
Final Gibbs free enthalpy         ...   -289.91311340 Eh

For completeness - the Gibbs free enthalpy minus the electronic energy
G-E(el)                           ...      0.14100694 Eh     88.48 kcal/mol

                             ****ORCA TERMINATED NORMALLY****
TOTAL RUN TIME: 0 days 0 hours 43 minutes 50 seconds 162 msec
