                         Program Version 3.0.3 - RELEASE   -
|  1> ! NORI PBE0 def2-TZVP UseSym TightOPT Freq TightSCF Grid3 FinalGrid5 XYZFile
|  2> % pal
|  3>     nprocs 8
|  4> end
|  5> %method
|  6>     SymThresh 5.0e-2
|  7> end
|  8> % geom
|  9>     MaxIter 10
| 10> end
| 11> % maxcore 2000
| 12> % output
| 13>     printlevel mini
| 14>     print[ P_Basis ] 0
| 15>     print[ P_SCFInfo ] 1
| 16>     print[ P_SCFIterInfo ] 1
| 17>     print[ P_OrbEn ] 0
| 18>     print[ P_Cartesian ] 0
| 19> end
| 20> % elprop
| 21>     Dipole false
| 22> end
| 23> *xyz 1 1
| 24>  C        1.0982881566    -0.1538078647    -0.2666341300
| 25>  C        2.5475733638    -0.1917215942     0.1088358594
| 26>  C        2.9175485197    -1.1550812797     1.1865675542
| 27>  N        2.6325236398    -0.5372644902     2.5508016200
| 28>  C        3.4720256548     0.5781598115    -0.4915819353
| 29>  C        4.8964850755     0.6275585518    -0.2499375093
| 30>  C        5.7010352932     1.4692963506    -0.9004956264
| 31>  H        0.9062075002     0.6119553773    -1.0173114897
| 32>  H        0.4400681053     0.0624544088     0.5848328963
| 33>  H        0.7723317383    -1.1165808639    -0.6739844795
| 34>  H        3.9717308265    -1.4231436627     1.1957710122
| 35>  H        2.3219065984    -2.0685443242     1.1481799750
| 36>  H        3.1976060286     0.3051796143     2.6737941196
| 37>  H        2.8318211749    -1.1798893611     3.3207285774
| 38>  H        1.6520553446    -0.2572523327     2.6158623545
| 39>  H        3.1160711662     1.2526124168    -1.2674796337
| 40>  H        5.3395451801    -0.0472048605     0.4781989744
| 41>  H        5.3155548656     2.1597986678    -1.6434997402
| 42>  H        6.7676317679     1.4920354351    -0.7142883991
| 43> *
| 44>
| 45>                          ****END OF INPUT****
 Total Charge           Charge          ....    1
 Multiplicity           Mult            ....    1
 Number of Electrons    NEL             ....   54
FINAL SINGLE POINT ENERGY      -290.086610108233
FINAL SINGLE POINT ENERGY      -290.086612167831
FINAL SINGLE POINT ENERGY      -290.086613182820

CARTESIAN COORDINATES (ANGSTROEM)
---------------------------------
  C      2.272338   -0.001112    0.071468
  C      0.787032    0.184552    0.033221
  C      0.194257    0.936205    1.177374
  N      0.006629   -0.000125    2.365450
  C      0.023714   -0.280319   -0.971354
  C     -1.404938   -0.149210   -1.151031
  C     -2.044366   -0.690290   -2.189175
  H      2.615231   -0.607485   -0.765915
  H      2.619420   -0.497726    0.986908
  H      2.790428    0.962508    0.024875
  H     -0.788195    1.354481    0.969372
  H      0.848766    1.733698    1.534014
  H     -0.632924   -0.756446    2.113229
  H     -0.364098    0.480678    3.188047
  H      0.897509   -0.429398    2.622470
  H      0.536189   -0.820295   -1.764520
  H     -1.986171    0.417664   -0.427850
  H     -1.513831   -1.259372   -2.945292
  H     -3.113574   -0.578262   -2.317738

FINAL SINGLE POINT ENERGY      -290.086613541278
                    ***********************HURRAY********************
 Multiplicity           Mult            ....    1
 Number of Electrons    NEL             ....   54
 Basis Dimension        Dim             ....  289
FINAL SINGLE POINT ENERGY      -290.086613974000

VIBRATIONAL FREQUENCIES
-----------------------

   0:         0.00 cm**-1
   1:         0.00 cm**-1
   2:         0.00 cm**-1
   3:         0.00 cm**-1
   4:         0.00 cm**-1
   5:         0.00 cm**-1
   6:        31.36 cm**-1
   7:       121.51 cm**-1
   8:       152.24 cm**-1
   9:       194.81 cm**-1
  10:       214.23 cm**-1
  11:       232.12 cm**-1
  12:       249.46 cm**-1
  13:       359.28 cm**-1
  14:       427.15 cm**-1
  15:       523.40 cm**-1
  16:       559.12 cm**-1
  17:       682.23 cm**-1
  18:       792.04 cm**-1
  19:       844.54 cm**-1
  20:       885.04 cm**-1
  21:       940.81 cm**-1
  22:       961.58 cm**-1
  23:      1001.94 cm**-1
  24:      1005.84 cm**-1
  25:      1013.24 cm**-1
  26:      1056.00 cm**-1
  27:      1082.14 cm**-1
  28:      1109.49 cm**-1
  29:      1183.37 cm**-1
  30:      1251.92 cm**-1
  31:      1326.67 cm**-1
  32:      1338.64 cm**-1
  33:      1353.74 cm**-1
  34:      1399.44 cm**-1
  35:      1420.33 cm**-1
  36:      1452.88 cm**-1
  37:      1468.88 cm**-1
  38:      1477.76 cm**-1
  39:      1490.81 cm**-1
  40:      1494.28 cm**-1
  41:      1649.52 cm**-1
  42:      1660.87 cm**-1
  43:      1674.78 cm**-1
  44:      1723.60 cm**-1
  45:      3020.14 cm**-1
  46:      3078.57 cm**-1
  47:      3101.36 cm**-1
  48:      3154.40 cm**-1
  49:      3155.44 cm**-1
  50:      3166.89 cm**-1
  51:      3168.42 cm**-1
  52:      3175.59 cm**-1
  53:      3262.53 cm**-1
  54:      3418.04 cm**-1
  55:      3507.71 cm**-1
  56:      3509.25 cm**-1

IR SPECTRUM
-----------

 Mode    freq (cm**-1)   T**2         TX         TY         TZ
-------------------------------------------------------------------
   7:       121.51    3.349631  ( -0.708024   1.657764  -0.316465)
   8:       152.24    0.944225  (  0.882934  -0.240557  -0.326779)
   9:       194.81    0.477366  (  0.512787   0.078326  -0.456378)
  10:       214.23    4.348025  (  1.336987  -0.506841  -1.517762)
  11:       232.12    1.344584  ( -0.064605  -1.096474  -0.371692)
  12:       249.46    9.960157  ( -1.045648   0.878336   2.845224)
  13:       359.28    1.879147  ( -0.562820  -0.365709  -1.195256)
  14:       427.15    3.058826  ( -0.129535   0.361475  -1.706277)
  15:       523.40    1.800997  ( -0.893240  -0.974690  -0.230430)
  16:       559.12    5.649903  (  0.668082   0.518151  -2.221506)
  17:       682.23   13.230509  (  0.863807   2.983198  -1.893377)
  18:       792.04    8.057489  ( -1.455474  -0.086261   2.435496)
  19:       844.54   16.405575  (  2.360053   0.199468   3.285717)
  20:       885.04   26.953104  ( -0.535027   0.063513   5.163605)
  21:       940.81    2.129309  (  0.012377   0.692423   1.284409)
  22:       961.58    2.841416  ( -0.712454   0.171007  -1.518085)
  23:      1001.94   49.026296  ( -0.345239   4.985748  -4.904021)
  24:      1005.84   16.050372  (  3.010470   2.643290  -0.021479)
  25:      1013.24    4.281696  ( -1.430694  -0.887311   1.203116)
  26:      1056.00   25.447171  (  1.023956   4.747955   1.362208)
  27:      1082.14    7.890992  ( -0.104742  -1.658991  -2.264458)
  28:      1109.49   13.836066  ( -0.971734   3.316364   1.376057)
  29:      1183.37   14.992673  ( -1.511105  -1.254869  -3.336846)
  30:      1251.92    0.410462  ( -0.144849   0.325805   0.532290)
  31:      1326.67    5.167750  (  2.171050  -0.242253  -0.628971)
  32:      1338.64   12.048404  ( -2.190616  -0.953808  -2.517907)
  33:      1353.74    2.482613  ( -0.878113  -0.569981  -1.177562)
  34:      1399.44   48.715629  (  2.667282   1.111291   6.353445)
  35:      1420.33    6.121811  ( -1.436955   0.419747   1.969971)
  36:      1452.88   20.420122  (  1.414140   2.571723   3.436069)
  37:      1468.88    3.294640  ( -0.502647   0.652854   1.617333)
  38:      1477.76   16.374961  (  1.553158  -0.387287  -3.716540)
  39:      1490.81  164.519662  (  0.912553   8.003862  -9.981237)
  40:      1494.28   13.971203  (  1.725924  -2.121699  -2.547701)
  41:      1649.52   41.141236  ( -6.309570  -0.229642  -1.130411)
  42:      1660.87   32.401381  (  0.618796  -4.172875  -3.821725)
  43:      1674.78    2.696200  (  0.426168   0.430821   1.526098)
  44:      1723.60   29.885105  ( -3.030466  -1.018804  -4.434346)
  45:      3020.14   22.648860  (  2.732555  -0.981054   3.770880)
  46:      3078.57    7.716383  (  0.446203   2.011271  -1.863350)
  47:      3101.36    5.175752  (  0.392870   1.419868   1.733604)
  48:      3154.40    5.370150  (  0.663860  -1.125896  -1.913583)
  49:      3155.44    1.949613  ( -0.807941   0.666662   0.923259)
  50:      3166.89    0.933762  ( -0.914921   0.258765   0.172400)
  51:      3168.42    3.509131  (  1.445624  -0.713217  -0.954266)
  52:      3175.59    3.844386  (  1.329201  -0.899298  -1.126443)
  53:      3262.53    0.691245  (  0.176632  -0.416519  -0.697537)
  54:      3418.04   33.423569  ( -0.514453  -2.335230   5.263612)
  55:      3507.71   78.121935  ( -1.711531   7.254018   4.750981)
  56:      3509.25   85.335625  (  9.108394   0.341561   1.502040)

--------------------------
THERMOCHEMISTRY AT 298.15K
--------------------------

Temperature         ... 298.15 K
Pressure            ... 1.00 atm
Total Mass          ... 98.17 AMU

Throughout the following assumptions are being made:
  (1) The electronic state is orbitally nondegenerate
  (2) There are no thermally accessible electronically excited states
  (3) Hindered rotations indicated by low frequency modes) are not
      treated as such but are treated as vibrations and this may
      case some error
  (4) All equations used are the standard statistical mechanics
      equations for an ideal gas
  (5) All vibrations are strinctly harmonic

------------
INNER ENERGY
------------

The inner energy is: U= E(el) + E(ZPE) + E(vib) + E(rot) + E(trans)
    E(el)   - is the total energy from the electronic structure calculation
              = E(kin-el) + E(nuc-el) + E(el-el) + E(nuc-nuc)
    E(ZPE)  - the the zero temperature vibrational energy from the frequency calculation
    E(vib)  - the the finite temperature correction to E(ZPE) due to population
              of excietd vibrational states
    E(rot)  - is the rotational thermal energy
    E(trans)- is the translational thermal energy

Summary of contributions to the inner energy U:
Electronic energy                ...   -290.08661397 Eh
Zero point energy                ...      0.17426626 Eh     109.35 kcal/mol
Thermal vibrational correction   ...      0.00517950 Eh       3.25 kcal/mol
Thermal rotational correction    ...      0.00141627 Eh       0.89 kcal/mol
Thermal translational correction ...      0.00141627 Eh       0.89 kcal/mol
-----------------------------------------------------------------------
Total thermal energy                   -289.90433567 Eh

Summary of corrections to the electronic energy:
(perhaps to be used in another calculation)
Total thermal correction                  0.00801204 Eh       5.03 kcal/mol
Non-thermal (ZPE) correction              0.17426626 Eh     109.35 kcal/mol
-----------------------------------------------------------------------
Total correction                          0.18227830 Eh     114.38 kcal/mol

--------
ENTHALPY
--------

The enthalpy is H = U + kB*T
                kB is Boltzmann's constant
Total free energy                 ...   -289.90433567 Eh
Thermal Enthalpy correction       ...      0.00094421 Eh       0.59 kcal/mol
-----------------------------------------------------------------------
Total Enthalpy                    ...   -289.90339146 Eh

-------
ENTROPY
-------

The entropy contributions are T*S = T*(S(el)+S(vib)+S(rot)+S(trans)
     S(el)   - electronic entropy
     S(vib)  - vibrational entropy
     S(rot)  - rotational entropy
     S(trans)- translational entropy
The entropies will be listed as mutliplied by the temperature to get
units of energy

Electronic entropy                ...      0.00000000 Eh      0.00 kcal/mol
Vibrational entropy               ...      0.00877218 Eh      5.50 kcal/mol
Rotational entropy                ...      0.01234983 Eh      7.75 kcal/mol
Translational entropy             ...      0.01884507 Eh     11.83 kcal/mol
-----------------------------------------------------------------------
Final entropy term                ...      0.03996708 Eh     25.08 kcal/mol

CAUTION: The rotational entropy is not quite correctly treated here
         because it includes a symmetry number that is not yet correctly
         implemented in ORCA!
For a nonlinear molecule the correct rotational entropy is:
    S(rot) = R*(ln(qrot/sn)+1.5)
    R    = 8.31441 J/mol/K = 1.987191683e-3 kcal/mol/K
    qrot = 320793.6283044
    sn is the rotational symmetry number. We have assumed 3 here
       if it is different for your molecule then you should correct
       the printed rotational entropy by manually evaluating the equation
       as given above

For convenience we print out the resulting values for sn=1 - 12:
 sn= 1  qrot/sn=  320793.6283 T*S(rot)=     8.40 kcal/mol T*S(tot)=    25.73 kcal/mol
 sn= 2  qrot/sn=  160396.8142 T*S(rot)=     7.99 kcal/mol T*S(tot)=    25.32 kcal/mol
 sn= 3  qrot/sn=  106931.2094 T*S(rot)=     7.75 kcal/mol T*S(tot)=    25.08 kcal/mol
 sn= 4  qrot/sn=   80198.4071 T*S(rot)=     7.58 kcal/mol T*S(tot)=    24.91 kcal/mol
 sn= 5  qrot/sn=   64158.7257 T*S(rot)=     7.45 kcal/mol T*S(tot)=    24.78 kcal/mol
 sn= 6  qrot/sn=   53465.6047 T*S(rot)=     7.34 kcal/mol T*S(tot)=    24.67 kcal/mol
 sn= 7  qrot/sn=   45827.6612 T*S(rot)=     7.25 kcal/mol T*S(tot)=    24.58 kcal/mol
 sn= 8  qrot/sn=   40099.2035 T*S(rot)=     7.17 kcal/mol T*S(tot)=    24.50 kcal/mol
 sn= 9  qrot/sn=   35643.7365 T*S(rot)=     7.10 kcal/mol T*S(tot)=    24.43 kcal/mol
 sn=10  qrot/sn=   32079.3628 T*S(rot)=     7.04 kcal/mol T*S(tot)=    24.37 kcal/mol
 sn=11  qrot/sn=   29163.0571 T*S(rot)=     6.98 kcal/mol T*S(tot)=    24.31 kcal/mol
 sn=12  qrot/sn=   26732.8024 T*S(rot)=     6.93 kcal/mol T*S(tot)=    24.26 kcal/mol

-------------------
GIBBS FREE ENTHALPY
-------------------

The Gibbs free enthalpy is G = H - T*S

Total enthalpy                    ...   -289.90339146 Eh
Total entropy correction          ...     -0.03996708 Eh    -25.08 kcal/mol
-----------------------------------------------------------------------
Final Gibbs free enthalpy         ...   -289.94335854 Eh

For completeness - the Gibbs free enthalpy minus the electronic energy
G-E(el)                           ...      0.14325543 Eh     89.89 kcal/mol

                             ****ORCA TERMINATED NORMALLY****
TOTAL RUN TIME: 0 days 0 hours 45 minutes 45 seconds 650 msec
