                         Program Version 3.0.3 - RELEASE   -
|  1> ! NORI PBE0 def2-TZVP UseSym TightOPT Freq TightSCF Grid3 FinalGrid5 XYZFile
|  2> % pal
|  3>     nprocs 8
|  4> end
|  5> %method
|  6>     SymThresh 5.0e-2
|  7> end
|  8> % geom
|  9>     MaxIter 10
| 10> end
| 11> % maxcore 2000
| 12> % output
| 13>     printlevel mini
| 14>     print[ P_Basis ] 0
| 15>     print[ P_SCFInfo ] 1
| 16>     print[ P_SCFIterInfo ] 1
| 17>     print[ P_OrbEn ] 0
| 18>     print[ P_Cartesian ] 0
| 19> end
| 20> % elprop
| 21>     Dipole false
| 22> end
| 23> *xyz 1 1
| 24>  C        1.0415766841    -0.1441509418     0.0723158422
| 25>  C        2.5265216148     0.1031791857     0.3325024047
| 26>  C        2.9253183599     1.5462978894     0.0521844055
| 27>  N        2.5784003412     1.9422985315    -1.3622502188
| 28>  C        2.9453293378    -0.2345425653     1.7518710836
| 29>  C        2.1377235585     0.3343360699     2.8778113793
| 30>  C        3.9936554439    -1.0243880506     1.9549693256
| 31>  H        0.7794880792    -0.0849258530    -0.9901334725
| 32>  H        0.4057285261     0.5532016767     0.6241674141
| 33>  H        0.7721733555    -1.1527676896     0.3872818238
| 34>  H        3.1148959081    -0.5405650829    -0.3326431948
| 35>  H        2.3981295531     2.2487257424     0.6989007906
| 36>  H        3.9993589122     1.6955221544     0.1638338587
| 37>  H        1.5750965333     1.8327798260    -1.5265777807
| 38>  H        3.0653794913     1.3474328066    -2.0359384717
| 39>  H        2.8307793601     2.9124197430    -1.5592408718
| 40>  H        2.0647337705     1.4267824074     2.8359550226
| 41>  H        2.5843427331     0.0747662421     3.8368968329
| 42>  H        1.1148423002    -0.0520520753     2.8732256588
| 43>  H        4.5588082642    -1.4528194748     1.1338435628
| 44>  H        4.3181878730    -1.2833105416     2.9560846050
| 45> *
| 46>
| 47>                          ****END OF INPUT****
 Total Charge           Charge          ....    1
 Multiplicity           Mult            ....    1
 Number of Electrons    NEL             ....   56
FINAL SINGLE POINT ENERGY      -291.308371466528
FINAL SINGLE POINT ENERGY      -291.308372888599

CARTESIAN COORDINATES (ANGSTROEM)
---------------------------------
  C      1.745135    0.002239    0.207376
  C      0.276809   -0.414333    0.149571
  C     -0.556948    0.270162    1.224726
  N     -0.000778   -0.000835    2.601353
  C     -0.367475   -0.133452   -1.195555
  C     -0.207396    1.236854   -1.778828
  C     -1.037059   -1.098579   -1.815999
  H      2.257478   -0.368191    1.102406
  H      1.865163    1.088100    0.163908
  H      2.285717   -0.421845   -0.639401
  H      0.208436   -1.496687    0.314574
  H     -0.561492    1.355041    1.110848
  H     -1.585009   -0.091891    1.226779
  H      0.964372    0.329842    2.666952
  H      0.005383   -1.003668    2.799526
  H     -0.546822    0.460882    3.330682
  H     -0.553541    2.026665   -1.103987
  H     -0.775352    1.327018   -2.703854
  H      0.839447    1.454471   -2.010327
  H     -1.126878   -2.096070   -1.398710
  H     -1.510006   -0.928417   -2.776134

FINAL SINGLE POINT ENERGY      -291.308373593225
                    ***********************HURRAY********************
 Multiplicity           Mult            ....    1
 Number of Electrons    NEL             ....   56
 Basis Dimension        Dim             ....  301
FINAL SINGLE POINT ENERGY      -291.308373903133

VIBRATIONAL FREQUENCIES
-----------------------

   0:         0.00 cm**-1
   1:         0.00 cm**-1
   2:         0.00 cm**-1
   3:         0.00 cm**-1
   4:         0.00 cm**-1
   5:         0.00 cm**-1
   6:        56.48 cm**-1
   7:        91.80 cm**-1
   8:       167.10 cm**-1
   9:       186.63 cm**-1
  10:       201.39 cm**-1
  11:       253.43 cm**-1
  12:       274.47 cm**-1
  13:       303.37 cm**-1
  14:       354.90 cm**-1
  15:       480.15 cm**-1
  16:       512.14 cm**-1
  17:       543.47 cm**-1
  18:       737.28 cm**-1
  19:       769.03 cm**-1
  20:       840.07 cm**-1
  21:       873.66 cm**-1
  22:       936.54 cm**-1
  23:       965.35 cm**-1
  24:       971.57 cm**-1
  25:       977.74 cm**-1
  26:      1005.84 cm**-1
  27:      1018.81 cm**-1
  28:      1065.01 cm**-1
  29:      1096.45 cm**-1
  30:      1160.20 cm**-1
  31:      1184.57 cm**-1
  32:      1303.63 cm**-1
  33:      1315.39 cm**-1
  34:      1333.97 cm**-1
  35:      1365.30 cm**-1
  36:      1397.27 cm**-1
  37:      1410.36 cm**-1
  38:      1417.30 cm**-1
  39:      1449.39 cm**-1
  40:      1471.45 cm**-1
  41:      1478.67 cm**-1
  42:      1486.49 cm**-1
  43:      1493.70 cm**-1
  44:      1497.04 cm**-1
  45:      1508.03 cm**-1
  46:      1652.87 cm**-1
  47:      1664.07 cm**-1
  48:      1729.75 cm**-1
  49:      3036.95 cm**-1
  50:      3038.40 cm**-1
  51:      3043.84 cm**-1
  52:      3097.45 cm**-1
  53:      3102.64 cm**-1
  54:      3107.99 cm**-1
  55:      3146.76 cm**-1
  56:      3154.69 cm**-1
  57:      3158.42 cm**-1
  58:      3165.07 cm**-1
  59:      3247.03 cm**-1
  60:      3422.33 cm**-1
  61:      3501.23 cm**-1
  62:      3513.22 cm**-1

IR SPECTRUM
-----------

 Mode    freq (cm**-1)   T**2         TX         TY         TZ
-------------------------------------------------------------------
   6:        56.48    0.491772  (  0.086354   0.662990   0.211566)
   7:        91.80    6.965439  (  1.528210   2.065298  -0.603785)
   8:       167.10    0.870659  ( -0.780407   0.481444  -0.172729)
   9:       186.63    6.546105  ( -2.359304   0.985563   0.091947)
  10:       201.39    0.626646  ( -0.107539  -0.204001   0.757275)
  11:       253.43    0.701676  ( -0.261635   0.010425   0.795685)
  12:       274.47    4.439312  ( -0.866077   0.512712   1.851040)
  13:       303.37    8.135479  (  0.991727  -0.088503  -2.672849)
  14:       354.90    6.635160  (  0.373207  -0.212644  -2.539815)
  15:       480.15    1.016770  ( -0.262860   0.971274   0.065589)
  16:       512.14    1.965429  (  0.195629  -0.452273   1.312481)
  17:       543.47   13.811921  (  2.782335  -1.092369  -2.208453)
  18:       737.28    0.221735  ( -0.158601   0.390619  -0.209756)
  19:       769.03    7.973609  (  1.377370   0.186176  -2.458007)
  20:       840.07    8.400943  (  2.195514   1.878737   0.225847)
  21:       873.66    7.030471  ( -1.249009   0.601832   2.260143)
  22:       936.54   19.860810  (  0.362635  -1.501485  -4.180293)
  23:       965.35    5.090245  (  1.527046  -0.098083   1.657937)
  24:       971.57   34.529663  (  4.968676  -0.883017  -3.010350)
  25:       977.74    7.899365  ( -1.191361   2.537487  -0.202942)
  26:      1005.84    2.115936  (  1.340425  -0.546150   0.144625)
  27:      1018.81   14.319537  (  3.186359  -0.933315  -1.815372)
  28:      1065.01    1.826609  ( -0.200428  -0.641410  -1.172617)
  29:      1096.45   15.368063  ( -0.013146  -2.093938  -3.314109)
  30:      1160.20    5.063547  (  0.930885  -0.738495  -1.910922)
  31:      1184.57    1.938063  (  1.136869   0.504805  -0.625111)
  32:      1303.63    1.360099  (  0.021019   0.684252  -0.944170)
  33:      1315.39    1.706621  ( -0.957781   0.888392  -0.006093)
  34:      1333.97    2.642319  ( -0.574637  -1.515172  -0.127922)
  35:      1365.30    3.646274  ( -1.206160  -0.748174   1.277376)
  36:      1397.27    3.291599  (  1.609401   0.754812   0.362887)
  37:      1410.36    6.999414  ( -1.918830   1.585562  -0.896381)
  38:      1417.30   14.856350  ( -1.634823  -2.243080   2.674377)
  39:      1449.39    0.925519  ( -0.141878   0.941992  -0.134316)
  40:      1471.45   32.595727  ( -1.369570   1.251384   5.399448)
  41:      1478.67   28.956582  (  3.298689   0.818275   4.172009)
  42:      1486.49   12.172606  (  1.171745  -0.916246   3.155965)
  43:      1493.70    6.401305  ( -1.358730  -0.068175   2.133192)
  44:      1497.04   68.954287  ( -1.149140  -1.108875  -8.148875)
  45:      1508.03   77.287048  ( -4.395276   4.434837  -6.188766)
  46:      1652.87   45.929109  (  2.986192   6.055323   0.587223)
  47:      1664.07   38.046646  (  4.742226  -1.487715  -3.653032)
  48:      1729.75   11.364943  ( -1.666144  -2.835711  -0.740035)
  49:      3036.95   17.956828  ( -2.406827  -1.544416  -3.127106)
  50:      3038.40   16.485713  ( -0.464845   2.570350  -3.108526)
  51:      3043.84   13.269611  ( -0.809910  -2.798248  -2.187114)
  52:      3097.45    6.049436  ( -1.920958   1.259775   0.878817)
  53:      3102.64    6.349908  (  1.449935  -1.578534  -1.325076)
  54:      3107.99   18.937201  (  0.680319  -2.648164   3.385498)
  55:      3146.76    1.317680  ( -0.010028   1.063887   0.430957)
  56:      3154.69    4.652545  ( -1.012651  -0.060252  -1.903537)
  57:      3158.42    1.385562  (  0.305282   1.130848  -0.116395)
  58:      3165.07    1.071715  ( -0.427290  -0.942853  -0.012877)
  59:      3247.03    3.110198  (  0.200271  -1.303642   1.170730)
  60:      3422.33   37.243252  (  2.242959  -0.750527   5.625753)
  61:      3501.23   90.349076  ( -6.362066  -6.536505   2.673443)
  62:      3513.22  105.102670  ( -6.316191   6.266720   5.092801)

--------------------------
THERMOCHEMISTRY AT 298.15K
--------------------------

Temperature         ... 298.15 K
Pressure            ... 1.00 atm
Total Mass          ... 100.18 AMU

Throughout the following assumptions are being made:
  (1) The electronic state is orbitally nondegenerate
  (2) There are no thermally accessible electronically excited states
  (3) Hindered rotations indicated by low frequency modes) are not
      treated as such but are treated as vibrations and this may
      case some error
  (4) All equations used are the standard statistical mechanics
      equations for an ideal gas
  (5) All vibrations are strinctly harmonic

------------
INNER ENERGY
------------

The inner energy is: U= E(el) + E(ZPE) + E(vib) + E(rot) + E(trans)
    E(el)   - is the total energy from the electronic structure calculation
              = E(kin-el) + E(nuc-el) + E(el-el) + E(nuc-nuc)
    E(ZPE)  - the the zero temperature vibrational energy from the frequency calculation
    E(vib)  - the the finite temperature correction to E(ZPE) due to population
              of excietd vibrational states
    E(rot)  - is the rotational thermal energy
    E(trans)- is the translational thermal energy

Summary of contributions to the inner energy U:
Electronic energy                ...   -291.30837390 Eh
Zero point energy                ...      0.19760404 Eh     124.00 kcal/mol
Thermal vibrational correction   ...      0.00643265 Eh       4.04 kcal/mol
Thermal rotational correction    ...      0.00141627 Eh       0.89 kcal/mol
Thermal translational correction ...      0.00141627 Eh       0.89 kcal/mol
-----------------------------------------------------------------------
Total thermal energy                   -291.10150467 Eh

Summary of corrections to the electronic energy:
(perhaps to be used in another calculation)
Total thermal correction                  0.00926519 Eh       5.81 kcal/mol
Non-thermal (ZPE) correction              0.19760404 Eh     124.00 kcal/mol
-----------------------------------------------------------------------
Total correction                          0.20686923 Eh     129.81 kcal/mol

--------
ENTHALPY
--------

The enthalpy is H = U + kB*T
                kB is Boltzmann's constant
Total free energy                 ...   -291.10150467 Eh
Thermal Enthalpy correction       ...      0.00094421 Eh       0.59 kcal/mol
-----------------------------------------------------------------------
Total Enthalpy                    ...   -291.10056046 Eh

-------
ENTROPY
-------

The entropy contributions are T*S = T*(S(el)+S(vib)+S(rot)+S(trans)
     S(el)   - electronic entropy
     S(vib)  - vibrational entropy
     S(rot)  - rotational entropy
     S(trans)- translational entropy
The entropies will be listed as mutliplied by the temperature to get
units of energy

Electronic entropy                ...      0.00000000 Eh      0.00 kcal/mol
Vibrational entropy               ...      0.01172976 Eh      7.36 kcal/mol
Rotational entropy                ...      0.01225056 Eh      7.69 kcal/mol
Translational entropy             ...      0.01887386 Eh     11.84 kcal/mol
-----------------------------------------------------------------------
Final entropy term                ...      0.04285418 Eh     26.89 kcal/mol

CAUTION: The rotational entropy is not quite correctly treated here
         because it includes a symmetry number that is not yet correctly
         implemented in ORCA!
For a nonlinear molecule the correct rotational entropy is:
    S(rot) = R*(ln(qrot/sn)+1.5)
    R    = 8.31441 J/mol/K = 1.987191683e-3 kcal/mol/K
    qrot = 288779.2371138
    sn is the rotational symmetry number. We have assumed 3 here
       if it is different for your molecule then you should correct
       the printed rotational entropy by manually evaluating the equation
       as given above

For convenience we print out the resulting values for sn=1 - 12:
 sn= 1  qrot/sn=  288779.2371 T*S(rot)=     8.34 kcal/mol T*S(tot)=    27.54 kcal/mol
 sn= 2  qrot/sn=  144389.6186 T*S(rot)=     7.93 kcal/mol T*S(tot)=    27.13 kcal/mol
 sn= 3  qrot/sn=   96259.7457 T*S(rot)=     7.69 kcal/mol T*S(tot)=    26.89 kcal/mol
 sn= 4  qrot/sn=   72194.8093 T*S(rot)=     7.52 kcal/mol T*S(tot)=    26.72 kcal/mol
 sn= 5  qrot/sn=   57755.8474 T*S(rot)=     7.38 kcal/mol T*S(tot)=    26.59 kcal/mol
 sn= 6  qrot/sn=   48129.8729 T*S(rot)=     7.28 kcal/mol T*S(tot)=    26.48 kcal/mol
 sn= 7  qrot/sn=   41254.1767 T*S(rot)=     7.19 kcal/mol T*S(tot)=    26.39 kcal/mol
 sn= 8  qrot/sn=   36097.4046 T*S(rot)=     7.11 kcal/mol T*S(tot)=    26.31 kcal/mol
 sn= 9  qrot/sn=   32086.5819 T*S(rot)=     7.04 kcal/mol T*S(tot)=    26.24 kcal/mol
 sn=10  qrot/sn=   28877.9237 T*S(rot)=     6.97 kcal/mol T*S(tot)=    26.18 kcal/mol
 sn=11  qrot/sn=   26252.6579 T*S(rot)=     6.92 kcal/mol T*S(tot)=    26.12 kcal/mol
 sn=12  qrot/sn=   24064.9364 T*S(rot)=     6.87 kcal/mol T*S(tot)=    26.07 kcal/mol

-------------------
GIBBS FREE ENTHALPY
-------------------

The Gibbs free enthalpy is G = H - T*S

Total enthalpy                    ...   -291.10056046 Eh
Total entropy correction          ...     -0.04285418 Eh    -26.89 kcal/mol
-----------------------------------------------------------------------
Final Gibbs free enthalpy         ...   -291.14341465 Eh

For completeness - the Gibbs free enthalpy minus the electronic energy
G-E(el)                           ...      0.16495926 Eh    103.51 kcal/mol

                             ****ORCA TERMINATED NORMALLY****
TOTAL RUN TIME: 0 days 0 hours 50 minutes 57 seconds 414 msec
