                         Program Version 3.0.3 - RELEASE   -
|  1> ! NORI PBE0 def2-TZVP UseSym TightOPT Freq TightSCF Grid3 FinalGrid5 XYZFile
|  2> % pal
|  3>     nprocs 8
|  4> end
|  5> %method
|  6>     SymThresh 5.0e-2
|  7> end
|  8> % geom
|  9>     MaxIter 10
| 10> end
| 11> % maxcore 2000
| 12> % output
| 13>     printlevel mini
| 14>     print[ P_Basis ] 0
| 15>     print[ P_SCFInfo ] 1
| 16>     print[ P_SCFIterInfo ] 1
| 17>     print[ P_OrbEn ] 0
| 18>     print[ P_Cartesian ] 0
| 19> end
| 20> % elprop
| 21>     Dipole false
| 22> end
| 23> *xyz 1 1
| 24>  C        0.9974012837     0.2405617774    -0.2304219188
| 25>  C        2.4284238862     0.2907884708     0.2869187883
| 26>  C        2.6758573388     1.4932288202     1.1785318641
| 27>  N        2.5149923371     2.7822497740     0.4147414683
| 28>  C        2.7862219399    -0.9774674746     1.0775143275
| 29>  C        4.2293928441    -1.0546086060     1.4601130356
| 30>  C        4.6822863501    -1.0843896033     2.7060047431
| 31>  H        0.8511727978    -0.6445090607    -0.8512569629
| 32>  H        0.7275198590     1.0946952614    -0.8624888370
| 33>  H        0.2807302652     0.1852967434     0.5938682992
| 34>  H        3.1198119749     0.3518569888    -0.5656808629
| 35>  H        3.6873729827     1.4909425931     1.5863749979
| 36>  H        1.9626114952     1.5365093950     2.0044655259
| 37>  H        3.1891072617     2.8367820778    -0.3516607272
| 38>  H        2.6535308953     3.5985198175     1.0128529995
| 39>  H        1.5800911955     2.8427661844     0.0057828810
| 40>  H        2.5270484019    -1.8346939139     0.4474829754
| 41>  H        2.1521159623    -1.0440190149     1.9683225511
| 42>  H        4.9401745858    -1.1079113334     0.6364820297
| 43>  H        4.0094881884    -1.0643335073     3.5584768827
| 44>  H        5.7410281545    -1.1627453897     2.9225259395
| 45> *
| 46>
| 47>                          ****END OF INPUT****
 Total Charge           Charge          ....    1
 Multiplicity           Mult            ....    1
 Number of Electrons    NEL             ....   56
FINAL SINGLE POINT ENERGY      -291.307498501158
FINAL SINGLE POINT ENERGY      -291.307499719674

CARTESIAN COORDINATES (ANGSTROEM)
---------------------------------
  C      2.169998   -0.002040    0.423217
  C      0.705894   -0.331525    0.165651
  C     -0.224290    0.411828    1.105763
  N      0.002977    0.001735    2.537949
  C      0.300410    0.001847   -1.278735
  C     -1.074703   -0.463860   -1.635526
  C     -2.073746    0.330294   -1.995113
  H      2.807048   -0.537646   -0.281612
  H      2.518249   -0.295523    1.420357
  H      2.363391    1.066661    0.294546
  H      0.546345   -1.409934    0.310715
  H     -1.272123    0.208382    0.880730
  H     -0.057976    1.490369    1.066272
  H     -0.181514   -0.995831    2.662865
  H     -0.601128    0.515641    3.181610
  H      0.973961    0.170346    2.810096
  H      1.032418   -0.476136   -1.937863
  H      0.391111    1.081044   -1.444472
  H     -1.237198   -1.540527   -1.607849
  H     -1.949873    1.407106   -2.064870
  H     -3.044941   -0.067700   -2.264010

FINAL SINGLE POINT ENERGY      -291.307500282837
                    ***********************HURRAY********************
 Multiplicity           Mult            ....    1
 Number of Electrons    NEL             ....   56
 Basis Dimension        Dim             ....  301
FINAL SINGLE POINT ENERGY      -291.307500512479

VIBRATIONAL FREQUENCIES
-----------------------

   0:         0.00 cm**-1
   1:         0.00 cm**-1
   2:         0.00 cm**-1
   3:         0.00 cm**-1
   4:         0.00 cm**-1
   5:         0.00 cm**-1
   6:        66.91 cm**-1
   7:        93.90 cm**-1
   8:       106.74 cm**-1
   9:       194.16 cm**-1
  10:       204.92 cm**-1
  11:       242.52 cm**-1
  12:       262.49 cm**-1
  13:       357.71 cm**-1
  14:       404.47 cm**-1
  15:       442.47 cm**-1
  16:       464.27 cm**-1
  17:       660.04 cm**-1
  18:       807.13 cm**-1
  19:       843.01 cm**-1
  20:       887.15 cm**-1
  21:       934.62 cm**-1
  22:       949.84 cm**-1
  23:       979.22 cm**-1
  24:       980.96 cm**-1
  25:       989.51 cm**-1
  26:      1026.32 cm**-1
  27:      1038.24 cm**-1
  28:      1064.17 cm**-1
  29:      1154.30 cm**-1
  30:      1176.26 cm**-1
  31:      1199.50 cm**-1
  32:      1261.82 cm**-1
  33:      1298.42 cm**-1
  34:      1329.47 cm**-1
  35:      1339.84 cm**-1
  36:      1356.53 cm**-1
  37:      1374.43 cm**-1
  38:      1409.53 cm**-1
  39:      1420.13 cm**-1
  40:      1453.45 cm**-1
  41:      1471.82 cm**-1
  42:      1482.44 cm**-1
  43:      1490.03 cm**-1
  44:      1496.25 cm**-1
  45:      1507.76 cm**-1
  46:      1654.20 cm**-1
  47:      1664.33 cm**-1
  48:      1724.44 cm**-1
  49:      3011.66 cm**-1
  50:      3033.34 cm**-1
  51:      3046.49 cm**-1
  52:      3089.49 cm**-1
  53:      3092.21 cm**-1
  54:      3102.72 cm**-1
  55:      3143.54 cm**-1
  56:      3144.33 cm**-1
  57:      3152.35 cm**-1
  58:      3153.34 cm**-1
  59:      3245.89 cm**-1
  60:      3422.54 cm**-1
  61:      3500.58 cm**-1
  62:      3512.93 cm**-1

IR SPECTRUM
-----------

 Mode    freq (cm**-1)   T**2         TX         TY         TZ
-------------------------------------------------------------------
   6:        66.91    4.360138  ( -1.888050  -0.614047  -0.646800)
   7:        93.90    1.686422  ( -0.635998   0.716849  -0.876389)
   8:       106.74    4.864075  (  1.693857   1.221190   0.709660)
   9:       194.16    1.240781  ( -1.092292   0.172822  -0.133459)
  10:       204.92    1.464368  ( -0.023114   0.139841  -1.201781)
  11:       242.52    3.535992  (  1.537995  -1.006901  -0.395869)
  12:       262.49   10.447582  (  1.861229  -0.643328  -2.563111)
  13:       357.71    0.692176  (  0.298560   0.187231  -0.753646)
  14:       404.47    8.416984  (  0.341363   0.006574  -2.881044)
  15:       442.47    2.145204  ( -0.241930  -0.614224  -1.307441)
  16:       464.27    8.062570  ( -1.252195   0.449481   2.508494)
  17:       660.04    7.519213  ( -0.270914   0.638973   2.652835)
  18:       807.13   12.986802  ( -2.639380  -0.471453   2.407946)
  19:       843.01    7.165742  ( -1.986334  -1.106583  -1.412690)
  20:       887.15    1.123944  ( -0.491745  -0.620039  -0.705466)
  21:       934.62    5.827499  ( -1.997698   1.084904  -0.812209)
  22:       949.84   10.632079  (  0.494199  -0.409128  -3.196946)
  23:       979.22    7.880762  ( -0.932531   1.069731  -2.422153)
  24:       980.96    6.873062  (  0.167904   2.377186   1.092637)
  25:       989.51   46.138780  ( -2.184091   0.630025   6.400906)
  26:      1026.32   20.977187  ( -2.466875   2.094959   3.240812)
  27:      1038.24   10.605345  ( -0.299937   0.012998  -3.242717)
  28:      1064.17    4.578852  (  0.938511   0.595418   1.828531)
  29:      1154.30    3.958279  (  0.502987   0.064981  -1.923814)
  30:      1176.26    4.013187  ( -1.180797   0.623187   1.493501)
  31:      1199.50    0.416190  ( -0.073619   0.570406  -0.292247)
  32:      1261.82    1.599172  (  0.009800  -0.954982  -0.828906)
  33:      1298.42    0.606454  (  0.151504   0.745404  -0.166950)
  34:      1329.47    3.228768  (  1.054765  -0.785843   1.224209)
  35:      1339.84    8.147891  (  1.954678   1.319597   1.608038)
  36:      1356.53    1.034680  (  0.909285  -0.247418  -0.382969)
  37:      1374.43    1.426359  (  1.093762   0.476711   0.052816)
  38:      1409.53    3.162874  (  1.755850   0.162300   0.231352)
  39:      1420.13    6.890492  (  2.225407   1.048724  -0.915552)
  40:      1453.45    4.847746  ( -1.882090   1.124191   0.204152)
  41:      1471.82    6.873328  (  0.084140  -2.604654  -0.286402)
  42:      1482.44   52.808694  ( -0.656930  -0.768320   7.196306)
  43:      1490.03    5.479992  ( -1.724074  -0.541681  -1.488000)
  44:      1496.25   33.310007  ( -1.069396   0.796598   5.615321)
  45:      1507.76  106.740036  (  2.073914  -4.921475   8.844094)
  46:      1654.20   46.480398  ( -4.373043  -5.115541  -1.090014)
  47:      1664.33   36.762515  (  4.292258  -3.145078  -2.906463)
  48:      1724.44    5.035461  (  1.958984  -1.092383   0.067395)
  49:      3011.66    9.359741  (  0.969361   2.746526  -0.936310)
  50:      3033.34   28.755018  (  2.189691   0.021038   4.894878)
  51:      3046.49   10.620482  ( -2.486401  -2.014688   0.615892)
  52:      3089.49    1.068598  (  0.083178   0.087846   1.026627)
  53:      3092.21    6.778111  (  0.609474  -2.239522  -1.179488)
  54:      3102.72   20.024671  (  0.182745  -2.735996   3.536326)
  55:      3143.54    2.160083  (  0.363348  -1.146035  -0.845378)
  56:      3144.33    9.750603  ( -0.362423  -3.100646  -0.072437)
  57:      3152.35    2.352666  ( -0.186178  -0.827983   1.277672)
  58:      3153.34    0.282796  (  0.156748  -0.503555   0.068248)
  59:      3245.89    2.453076  (  0.796041   1.325779   0.248403)
  60:      3422.54   33.866559  ( -1.220588   1.283408  -5.543427)
  61:      3500.58   92.722202  (  8.087324   5.010074  -1.488806)
  62:      3512.93   99.625686  (  5.256189  -7.411524  -4.131281)

--------------------------
THERMOCHEMISTRY AT 298.15K
--------------------------

Temperature         ... 298.15 K
Pressure            ... 1.00 atm
Total Mass          ... 100.18 AMU

Throughout the following assumptions are being made:
  (1) The electronic state is orbitally nondegenerate
  (2) There are no thermally accessible electronically excited states
  (3) Hindered rotations indicated by low frequency modes) are not
      treated as such but are treated as vibrations and this may
      case some error
  (4) All equations used are the standard statistical mechanics
      equations for an ideal gas
  (5) All vibrations are strinctly harmonic

------------
INNER ENERGY
------------

The inner energy is: U= E(el) + E(ZPE) + E(vib) + E(rot) + E(trans)
    E(el)   - is the total energy from the electronic structure calculation
              = E(kin-el) + E(nuc-el) + E(el-el) + E(nuc-nuc)
    E(ZPE)  - the the zero temperature vibrational energy from the frequency calculation
    E(vib)  - the the finite temperature correction to E(ZPE) due to population
              of excietd vibrational states
    E(rot)  - is the rotational thermal energy
    E(trans)- is the translational thermal energy

Summary of contributions to the inner energy U:
Electronic energy                ...   -291.30750051 Eh
Zero point energy                ...      0.19801182 Eh     124.25 kcal/mol
Thermal vibrational correction   ...      0.00634000 Eh       3.98 kcal/mol
Thermal rotational correction    ...      0.00141627 Eh       0.89 kcal/mol
Thermal translational correction ...      0.00141627 Eh       0.89 kcal/mol
-----------------------------------------------------------------------
Total thermal energy                   -291.10031615 Eh

Summary of corrections to the electronic energy:
(perhaps to be used in another calculation)
Total thermal correction                  0.00917254 Eh       5.76 kcal/mol
Non-thermal (ZPE) correction              0.19801182 Eh     124.25 kcal/mol
-----------------------------------------------------------------------
Total correction                          0.20718436 Eh     130.01 kcal/mol

--------
ENTHALPY
--------

The enthalpy is H = U + kB*T
                kB is Boltzmann's constant
Total free energy                 ...   -291.10031615 Eh
Thermal Enthalpy correction       ...      0.00094421 Eh       0.59 kcal/mol
-----------------------------------------------------------------------
Total Enthalpy                    ...   -291.09937194 Eh

-------
ENTROPY
-------

The entropy contributions are T*S = T*(S(el)+S(vib)+S(rot)+S(trans)
     S(el)   - electronic entropy
     S(vib)  - vibrational entropy
     S(rot)  - rotational entropy
     S(trans)- translational entropy
The entropies will be listed as mutliplied by the temperature to get
units of energy

Electronic entropy                ...      0.00000000 Eh      0.00 kcal/mol
Vibrational entropy               ...      0.01167347 Eh      7.33 kcal/mol
Rotational entropy                ...      0.01237557 Eh      7.77 kcal/mol
Translational entropy             ...      0.01887386 Eh     11.84 kcal/mol
-----------------------------------------------------------------------
Final entropy term                ...      0.04292290 Eh     26.93 kcal/mol

CAUTION: The rotational entropy is not quite correctly treated here
         because it includes a symmetry number that is not yet correctly
         implemented in ORCA!
For a nonlinear molecule the correct rotational entropy is:
    S(rot) = R*(ln(qrot/sn)+1.5)
    R    = 8.31441 J/mol/K = 1.987191683e-3 kcal/mol/K
    qrot = 329660.1254677
    sn is the rotational symmetry number. We have assumed 3 here
       if it is different for your molecule then you should correct
       the printed rotational entropy by manually evaluating the equation
       as given above

For convenience we print out the resulting values for sn=1 - 12:
 sn= 1  qrot/sn=  329660.1255 T*S(rot)=     8.42 kcal/mol T*S(tot)=    27.59 kcal/mol
 sn= 2  qrot/sn=  164830.0627 T*S(rot)=     8.01 kcal/mol T*S(tot)=    27.17 kcal/mol
 sn= 3  qrot/sn=  109886.7085 T*S(rot)=     7.77 kcal/mol T*S(tot)=    26.93 kcal/mol
 sn= 4  qrot/sn=   82415.0314 T*S(rot)=     7.60 kcal/mol T*S(tot)=    26.76 kcal/mol
 sn= 5  qrot/sn=   65932.0251 T*S(rot)=     7.46 kcal/mol T*S(tot)=    26.63 kcal/mol
 sn= 6  qrot/sn=   54943.3542 T*S(rot)=     7.36 kcal/mol T*S(tot)=    26.52 kcal/mol
 sn= 7  qrot/sn=   47094.3036 T*S(rot)=     7.26 kcal/mol T*S(tot)=    26.43 kcal/mol
 sn= 8  qrot/sn=   41207.5157 T*S(rot)=     7.18 kcal/mol T*S(tot)=    26.35 kcal/mol
 sn= 9  qrot/sn=   36628.9028 T*S(rot)=     7.11 kcal/mol T*S(tot)=    26.28 kcal/mol
 sn=10  qrot/sn=   32966.0125 T*S(rot)=     7.05 kcal/mol T*S(tot)=    26.22 kcal/mol
 sn=11  qrot/sn=   29969.1023 T*S(rot)=     7.00 kcal/mol T*S(tot)=    26.16 kcal/mol
 sn=12  qrot/sn=   27471.6771 T*S(rot)=     6.94 kcal/mol T*S(tot)=    26.11 kcal/mol

-------------------
GIBBS FREE ENTHALPY
-------------------

The Gibbs free enthalpy is G = H - T*S

Total enthalpy                    ...   -291.09937194 Eh
Total entropy correction          ...     -0.04292290 Eh    -26.93 kcal/mol
-----------------------------------------------------------------------
Final Gibbs free enthalpy         ...   -291.14229484 Eh

For completeness - the Gibbs free enthalpy minus the electronic energy
G-E(el)                           ...      0.16520567 Eh    103.67 kcal/mol

                             ****ORCA TERMINATED NORMALLY****
TOTAL RUN TIME: 0 days 0 hours 46 minutes 57 seconds 927 msec
