                         Program Version 3.0.3 - RELEASE   -
|  1> ! NORI PBE0 def2-TZVP UseSym TightOPT Freq TightSCF Grid3 FinalGrid5 XYZFile
|  2> % pal
|  3>     nprocs 8
|  4> end
|  5> %method
|  6>     SymThresh 5.0e-2
|  7> end
|  8> % geom
|  9>     MaxIter 10
| 10> end
| 11> % maxcore 2000
| 12> % output
| 13>     printlevel mini
| 14>     print[ P_Basis ] 0
| 15>     print[ P_SCFInfo ] 1
| 16>     print[ P_SCFIterInfo ] 1
| 17>     print[ P_OrbEn ] 0
| 18>     print[ P_Cartesian ] 0
| 19> end
| 20> % elprop
| 21>     Dipole false
| 22> end
| 23> *xyz 1 1
| 24>  C        1.0459308140     0.0797705650    -0.1417405359
| 25>  C        2.5335444415    -0.0068692349     0.1677112108
| 26>  C        2.8395016347     0.2105004339     1.6382961319
| 27>  N        2.4761355344     1.6075886818     2.0663743201
| 28>  C        3.1022881045    -1.3729290210    -0.2518822740
| 29>  C        4.5281433292    -1.4970282513    -0.0031798808
| 30>  C        5.7060333600    -1.5740761795     0.2129200955
| 31>  H        0.8668712987    -0.1156347377    -1.2000088943
| 32>  H        0.6186152240     1.0695785912     0.0531797572
| 33>  H        0.4772168711    -0.6572934789     0.4316973056
| 34>  H        3.0755099848     0.7545572529    -0.4085779368
| 35>  H        3.9032694714     0.0836270566     1.8440262633
| 36>  H        2.2687154161    -0.4663948096     2.2769051183
| 37>  H        3.0071638544     2.2987380446     1.5323192738
| 38>  H        2.6700211392     1.7617693918     3.0575617442
| 39>  H        1.4833776398     1.7906707858     1.9052291133
| 40>  H        2.5627719941    -2.1725446211     0.2693837809
| 41>  H        2.9016579396    -1.5139769119    -1.3178508618
| 42>  H        6.7540019483    -1.6748235580     0.3824762685
| 43> *
| 44>
| 45>                          ****END OF INPUT****
 Total Charge           Charge          ....    1
 Multiplicity           Mult            ....    1
 Number of Electrons    NEL             ....   54
FINAL SINGLE POINT ENERGY      -290.055592491259
FINAL SINGLE POINT ENERGY      -290.055593701211

CARTESIAN COORDINATES (ANGSTROEM)
---------------------------------
  C      2.167187   -0.002093    0.330663
  C      0.687054   -0.254539    0.083129
  C     -0.204802    0.491997    1.057652
  N     -0.001652   -0.000588    2.465921
  C      0.290615    0.149260   -1.346939
  C     -1.107849   -0.108756   -1.642781
  C     -2.266635   -0.331312   -1.861033
  H      2.771126   -0.529639   -0.408814
  H      2.511007   -0.362318    1.306349
  H      2.407205    1.062231    0.254472
  H      0.474147   -1.327454    0.181203
  H     -1.259668    0.345069    0.820811
  H      0.012805    1.562110    1.070666
  H     -0.229879   -0.994763    2.537569
  H     -0.589658    0.504249    3.131501
  H      0.972543    0.113071    2.754387
  H      0.515810    1.210343   -1.507267
  H      0.922344   -0.405504   -2.046732
  H     -3.289220   -0.524479   -2.092990

FINAL SINGLE POINT ENERGY      -290.055594631205
                    ***********************HURRAY********************
 Multiplicity           Mult            ....    1
 Number of Electrons    NEL             ....   54
 Basis Dimension        Dim             ....  289
FINAL SINGLE POINT ENERGY      -290.055594821804

VIBRATIONAL FREQUENCIES
-----------------------

   0:         0.00 cm**-1
   1:         0.00 cm**-1
   2:         0.00 cm**-1
   3:         0.00 cm**-1
   4:         0.00 cm**-1
   5:         0.00 cm**-1
   6:        75.00 cm**-1
   7:        93.98 cm**-1
   8:       148.43 cm**-1
   9:       201.04 cm**-1
  10:       231.20 cm**-1
  11:       245.89 cm**-1
  12:       324.17 cm**-1
  13:       352.81 cm**-1
  14:       401.76 cm**-1
  15:       428.80 cm**-1
  16:       557.99 cm**-1
  17:       704.94 cm**-1
  18:       726.88 cm**-1
  19:       796.07 cm**-1
  20:       842.02 cm**-1
  21:       891.35 cm**-1
  22:       933.16 cm**-1
  23:       960.23 cm**-1
  24:       985.87 cm**-1
  25:      1002.36 cm**-1
  26:      1030.45 cm**-1
  27:      1134.20 cm**-1
  28:      1159.17 cm**-1
  29:      1182.55 cm**-1
  30:      1257.26 cm**-1
  31:      1303.31 cm**-1
  32:      1343.71 cm**-1
  33:      1360.66 cm**-1
  34:      1378.16 cm**-1
  35:      1413.12 cm**-1
  36:      1422.95 cm**-1
  37:      1463.53 cm**-1
  38:      1481.76 cm**-1
  39:      1490.59 cm**-1
  40:      1497.41 cm**-1
  41:      1508.71 cm**-1
  42:      1655.24 cm**-1
  43:      1664.04 cm**-1
  44:      2242.81 cm**-1
  45:      3027.67 cm**-1
  46:      3039.19 cm**-1
  47:      3048.34 cm**-1
  48:      3089.14 cm**-1
  49:      3095.89 cm**-1
  50:      3106.98 cm**-1
  51:      3142.66 cm**-1
  52:      3152.10 cm**-1
  53:      3421.72 cm**-1
  54:      3465.69 cm**-1
  55:      3499.86 cm**-1
  56:      3510.92 cm**-1

IR SPECTRUM
-----------

 Mode    freq (cm**-1)   T**2         TX         TY         TZ
-------------------------------------------------------------------
   6:        75.00    5.617155  ( -2.030996  -1.086003  -0.559292)
   7:        93.98    4.387476  ( -1.641056  -0.628040  -1.140165)
   8:       148.43    0.780785  ( -0.415247   0.319577  -0.711495)
   9:       201.04    1.219550  ( -0.824310   0.047863   0.733329)
  10:       231.20    0.054739  (  0.069959   0.223077   0.009042)
  11:       245.89    9.191822  ( -2.408517   1.244898   1.356871)
  12:       324.17   12.789273  ( -0.461762  -0.694687   3.477565)
  13:       352.81   14.400283  (  0.614468  -3.181546  -1.974962)
  14:       401.76    9.009128  (  0.103994   0.039444  -2.999459)
  15:       428.80    4.304998  (  0.540453   0.336955  -1.974682)
  16:       557.99    4.128559  (  0.957131  -1.076725   1.432872)
  17:       704.94   44.611277  ( -1.720809   6.188389   1.831376)
  18:       726.88   39.809870  (  1.579273   2.016266  -5.766319)
  19:       796.07    8.737254  ( -2.250554  -0.526186   1.842658)
  20:       842.02    7.841090  ( -2.327714  -1.360986  -0.755351)
  21:       891.35    2.427297  ( -0.713026   0.265414  -1.359576)
  22:       933.16    2.148031  ( -1.207265   0.623448   0.549414)
  23:       960.23   15.745603  ( -0.492589   0.639481   3.885103)
  24:       985.87    5.431363  (  0.297049   2.204740   0.694440)
  25:      1002.36    6.071131  (  1.602456  -1.394903   1.248003)
  26:      1030.45   13.533815  ( -2.164285   1.505885   2.565540)
  27:      1134.20    3.913280  (  0.163553  -1.763278  -0.881692)
  28:      1159.17    3.822385  (  0.658485  -0.386091  -1.799921)
  29:      1182.55    2.245351  ( -0.538632   0.678477   1.222660)
  30:      1257.26    2.293163  (  0.326214   1.284430   0.732793)
  31:      1303.31    0.361207  ( -0.495131   0.021898   0.339961)
  32:      1343.71   14.013137  (  2.703126   1.795034   1.866575)
  33:      1360.66    3.329381  ( -1.782985  -0.292259   0.254817)
  34:      1378.16    0.215569  (  0.074017   0.308633   0.338875)
  35:      1413.12    2.915824  ( -1.704258   0.106009   0.009568)
  36:      1422.95    7.461625  ( -2.437118  -1.075695   0.604122)
  37:      1463.53    4.976175  ( -0.930426  -1.341293   1.520334)
  38:      1481.76   38.867984  (  1.029949  -0.027337  -6.148694)
  39:      1490.59    6.086128  ( -1.792333   0.060980  -1.694093)
  40:      1497.41   35.770963  ( -1.550451   1.162123   5.658315)
  41:      1508.71  119.771290  (  1.916792  -5.485754   9.273818)
  42:      1655.24   46.449724  (  4.569897   4.866349   1.372740)
  43:      1664.04   36.453607  (  4.115650  -3.216728  -3.027820)
  44:      2242.81    0.302309  (  0.038143   0.020322   0.548125)
  45:      3027.67    4.053960  (  0.396592   1.729498  -0.951584)
  46:      3039.19   19.858368  (  1.894598   0.127283   4.031459)
  47:      3048.34    8.714491  (  2.237324   1.924306   0.076919)
  48:      3089.14    3.914101  (  0.131224   1.198767   1.568387)
  49:      3095.89    0.399134  ( -0.189818   0.551402   0.243019)
  50:      3106.98   18.717224  ( -0.188544   2.628888  -3.430834)
  51:      3142.66    2.669823  ( -0.171157   1.375329   0.865446)
  52:      3152.10    2.000996  ( -0.086205   0.556857  -1.297488)
  53:      3421.72   35.961610  (  0.971295  -1.702164   5.667525)
  54:      3465.69   91.556320  (  9.048166   1.674485   2.623568)
  55:      3499.86   89.694714  (  7.631024   5.600281  -0.314696)
  56:      3510.92  106.660815  ( -6.014843   6.949554   4.710220)

--------------------------
THERMOCHEMISTRY AT 298.15K
--------------------------

Temperature         ... 298.15 K
Pressure            ... 1.00 atm
Total Mass          ... 98.17 AMU

Throughout the following assumptions are being made:
  (1) The electronic state is orbitally nondegenerate
  (2) There are no thermally accessible electronically excited states
  (3) Hindered rotations indicated by low frequency modes) are not
      treated as such but are treated as vibrations and this may
      case some error
  (4) All equations used are the standard statistical mechanics
      equations for an ideal gas
  (5) All vibrations are strinctly harmonic

------------
INNER ENERGY
------------

The inner energy is: U= E(el) + E(ZPE) + E(vib) + E(rot) + E(trans)
    E(el)   - is the total energy from the electronic structure calculation
              = E(kin-el) + E(nuc-el) + E(el-el) + E(nuc-nuc)
    E(ZPE)  - the the zero temperature vibrational energy from the frequency calculation
    E(vib)  - the the finite temperature correction to E(ZPE) due to population
              of excietd vibrational states
    E(rot)  - is the rotational thermal energy
    E(trans)- is the translational thermal energy

Summary of contributions to the inner energy U:
Electronic energy                ...   -290.05559482 Eh
Zero point energy                ...      0.17426555 Eh     109.35 kcal/mol
Thermal vibrational correction   ...      0.00603377 Eh       3.79 kcal/mol
Thermal rotational correction    ...      0.00141627 Eh       0.89 kcal/mol
Thermal translational correction ...      0.00141627 Eh       0.89 kcal/mol
-----------------------------------------------------------------------
Total thermal energy                   -289.87246296 Eh

Summary of corrections to the electronic energy:
(perhaps to be used in another calculation)
Total thermal correction                  0.00886631 Eh       5.56 kcal/mol
Non-thermal (ZPE) correction              0.17426555 Eh     109.35 kcal/mol
-----------------------------------------------------------------------
Total correction                          0.18313187 Eh     114.92 kcal/mol

--------
ENTHALPY
--------

The enthalpy is H = U + kB*T
                kB is Boltzmann's constant
Total free energy                 ...   -289.87246296 Eh
Thermal Enthalpy correction       ...      0.00094421 Eh       0.59 kcal/mol
-----------------------------------------------------------------------
Total Enthalpy                    ...   -289.87151875 Eh

-------
ENTROPY
-------

The entropy contributions are T*S = T*(S(el)+S(vib)+S(rot)+S(trans)
     S(el)   - electronic entropy
     S(vib)  - vibrational entropy
     S(rot)  - rotational entropy
     S(trans)- translational entropy
The entropies will be listed as mutliplied by the temperature to get
units of energy

Electronic entropy                ...      0.00000000 Eh      0.00 kcal/mol
Vibrational entropy               ...      0.01084258 Eh      6.80 kcal/mol
Rotational entropy                ...      0.01232148 Eh      7.73 kcal/mol
Translational entropy             ...      0.01884507 Eh     11.83 kcal/mol
-----------------------------------------------------------------------
Final entropy term                ...      0.04200913 Eh     26.36 kcal/mol

CAUTION: The rotational entropy is not quite correctly treated here
         because it includes a symmetry number that is not yet correctly
         implemented in ORCA!
For a nonlinear molecule the correct rotational entropy is:
    S(rot) = R*(ln(qrot/sn)+1.5)
    R    = 8.31441 J/mol/K = 1.987191683e-3 kcal/mol/K
    qrot = 311304.7780391
    sn is the rotational symmetry number. We have assumed 3 here
       if it is different for your molecule then you should correct
       the printed rotational entropy by manually evaluating the equation
       as given above

For convenience we print out the resulting values for sn=1 - 12:
 sn= 1  qrot/sn=  311304.7780 T*S(rot)=     8.38 kcal/mol T*S(tot)=    27.01 kcal/mol
 sn= 2  qrot/sn=  155652.3890 T*S(rot)=     7.97 kcal/mol T*S(tot)=    26.60 kcal/mol
 sn= 3  qrot/sn=  103768.2593 T*S(rot)=     7.73 kcal/mol T*S(tot)=    26.36 kcal/mol
 sn= 4  qrot/sn=   77826.1945 T*S(rot)=     7.56 kcal/mol T*S(tot)=    26.19 kcal/mol
 sn= 5  qrot/sn=   62260.9556 T*S(rot)=     7.43 kcal/mol T*S(tot)=    26.06 kcal/mol
 sn= 6  qrot/sn=   51884.1297 T*S(rot)=     7.32 kcal/mol T*S(tot)=    25.95 kcal/mol
 sn= 7  qrot/sn=   44472.1111 T*S(rot)=     7.23 kcal/mol T*S(tot)=    25.86 kcal/mol
 sn= 8  qrot/sn=   38913.0973 T*S(rot)=     7.15 kcal/mol T*S(tot)=    25.78 kcal/mol
 sn= 9  qrot/sn=   34589.4198 T*S(rot)=     7.08 kcal/mol T*S(tot)=    25.71 kcal/mol
 sn=10  qrot/sn=   31130.4778 T*S(rot)=     7.02 kcal/mol T*S(tot)=    25.65 kcal/mol
 sn=11  qrot/sn=   28300.4344 T*S(rot)=     6.96 kcal/mol T*S(tot)=    25.59 kcal/mol
 sn=12  qrot/sn=   25942.0648 T*S(rot)=     6.91 kcal/mol T*S(tot)=    25.54 kcal/mol

-------------------
GIBBS FREE ENTHALPY
-------------------

The Gibbs free enthalpy is G = H - T*S

Total enthalpy                    ...   -289.87151875 Eh
Total entropy correction          ...     -0.04200913 Eh    -26.36 kcal/mol
-----------------------------------------------------------------------
Final Gibbs free enthalpy         ...   -289.91352787 Eh

For completeness - the Gibbs free enthalpy minus the electronic energy
G-E(el)                           ...      0.14206695 Eh     89.15 kcal/mol

                             ****ORCA TERMINATED NORMALLY****
TOTAL RUN TIME: 0 days 0 hours 44 minutes 5 seconds 119 msec
