                         Program Version 3.0.3 - RELEASE   -
|  1> ! NORI PBE0 def2-TZVP UseSym TightOPT Freq TightSCF Grid3 FinalGrid5 XYZFile
|  2> % pal
|  3>     nprocs 8
|  4> end
|  5> %method
|  6>     SymThresh 5.0e-2
|  7> end
|  8> % geom
|  9>     MaxIter 10
| 10> end
| 11> % maxcore 2000
| 12> % output
| 13>     printlevel mini
| 14>     print[ P_Basis ] 0
| 15>     print[ P_SCFInfo ] 1
| 16>     print[ P_SCFIterInfo ] 1
| 17>     print[ P_OrbEn ] 0
| 18>     print[ P_Cartesian ] 0
| 19> end
| 20> % elprop
| 21>     Dipole false
| 22> end
| 23> *xyz 1 1
| 24>  C        2.9181723217     0.7701639700     1.0167611926
| 25>  C        2.3628879115     0.3555028857    -0.3359473863
| 26>  C        3.1419605221    -0.8043360523    -0.9363071102
| 27>  N        2.4090887524    -1.2452490978    -2.2106990750
| 28>  C        4.5522533805    -0.4984554914    -1.3010287349
| 29>  C        5.5798965846    -1.2727971289    -0.9590833900
| 30>  C        7.0033336828    -0.9955481629    -1.2654269759
| 31>  H        2.3363526747     1.5979798064     1.4221489009
| 32>  H        3.9568203611     1.0942001904     0.9385423285
| 33>  H        2.8718013086    -0.0530077526     1.7336306367
| 34>  H        1.3095422480     0.0709872638    -0.2253634766
| 35>  H        2.3944339338     1.2059020645    -1.0282818176
| 36>  H        3.0979678766    -1.6784845550    -0.2812168404
| 37>  H        2.3996093833    -0.4817877039    -2.8906504747
| 38>  H        1.4396828080    -1.5064411435    -2.0191043359
| 39>  H        2.8888101748    -2.0371803032    -2.6417866452
| 40>  H        4.7241100747     0.4324190475    -1.8405947624
| 41>  H        5.3788810371    -2.1804114092    -0.3891541363
| 42>  H        7.1309612483    -0.0776349531    -1.8395668666
| 43>  H        7.4432273506    -1.8267388582    -1.8247179849
| 44>  H        7.5790163648    -0.9131626160    -0.3389130458
| 45> *
| 46>
| 47>                          ****END OF INPUT****
 Total Charge           Charge          ....    1
 Multiplicity           Mult            ....    1
 Number of Electrons    NEL             ....   56
FINAL SINGLE POINT ENERGY      -291.320113891169

CARTESIAN COORDINATES (ANGSTROEM)
---------------------------------
  C      2.366516    0.000233   -0.858493
  C      1.798311    0.335174    0.510577
  C      0.412586   -0.258321    0.708458
  N      0.000566    0.000257    2.164024
  C     -0.647185    0.301031   -0.174473
  C     -1.498113   -0.455723   -0.864286
  C     -2.544808    0.049313   -1.784318
  H      3.360402    0.434133   -0.967720
  H      1.736936    0.393411   -1.658028
  H      2.456845   -1.079511   -0.996727
  H      2.473195   -0.042893    1.287751
  H      1.743217    1.423510    0.635157
  H      0.443928   -1.347793    0.624049
  H     -0.055483    1.005900    2.338308
  H      0.673149   -0.395291    2.824251
  H     -0.921774   -0.397361    2.349467
  H     -0.676812    1.385938   -0.271893
  H     -1.420142   -1.539357   -0.773191
  H     -2.569211    1.138417   -1.824160
  H     -3.530069   -0.315689   -1.479915
  H     -2.376023   -0.335217   -2.794558

FINAL SINGLE POINT ENERGY      -291.320114855174
                    ***********************HURRAY********************
 Multiplicity           Mult            ....    1
 Number of Electrons    NEL             ....   56
 Basis Dimension        Dim             ....  301
FINAL SINGLE POINT ENERGY      -291.320115094178

VIBRATIONAL FREQUENCIES
-----------------------

   0:         0.00 cm**-1
   1:         0.00 cm**-1
   2:         0.00 cm**-1
   3:         0.00 cm**-1
   4:         0.00 cm**-1
   5:         0.00 cm**-1
   6:        73.76 cm**-1
   7:       105.35 cm**-1
   8:       161.40 cm**-1
   9:       186.13 cm**-1
  10:       207.11 cm**-1
  11:       218.12 cm**-1
  12:       231.56 cm**-1
  13:       250.07 cm**-1
  14:       366.67 cm**-1
  15:       442.95 cm**-1
  16:       471.93 cm**-1
  17:       481.29 cm**-1
  18:       787.96 cm**-1
  19:       804.56 cm**-1
  20:       833.68 cm**-1
  21:       902.57 cm**-1
  22:       921.04 cm**-1
  23:       984.29 cm**-1
  24:       998.68 cm**-1
  25:      1011.02 cm**-1
  26:      1038.24 cm**-1
  27:      1073.88 cm**-1
  28:      1097.28 cm**-1
  29:      1112.36 cm**-1
  30:      1201.02 cm**-1
  31:      1204.87 cm**-1
  32:      1267.90 cm**-1
  33:      1324.64 cm**-1
  34:      1334.68 cm**-1
  35:      1348.45 cm**-1
  36:      1382.22 cm**-1
  37:      1397.68 cm**-1
  38:      1407.88 cm**-1
  39:      1420.31 cm**-1
  40:      1463.03 cm**-1
  41:      1472.76 cm**-1
  42:      1474.42 cm**-1
  43:      1481.71 cm**-1
  44:      1490.71 cm**-1
  45:      1498.90 cm**-1
  46:      1645.15 cm**-1
  47:      1654.51 cm**-1
  48:      1738.18 cm**-1
  49:      3029.97 cm**-1
  50:      3051.44 cm**-1
  51:      3065.68 cm**-1
  52:      3069.60 cm**-1
  53:      3098.84 cm**-1
  54:      3110.68 cm**-1
  55:      3133.31 cm**-1
  56:      3141.78 cm**-1
  57:      3143.82 cm**-1
  58:      3156.22 cm**-1
  59:      3156.45 cm**-1
  60:      3415.85 cm**-1
  61:      3508.14 cm**-1
  62:      3516.39 cm**-1

IR SPECTRUM
-----------

 Mode    freq (cm**-1)   T**2         TX         TY         TZ
-------------------------------------------------------------------
   6:        73.76    3.439108  ( -1.520835  -0.400036  -0.982925)
   7:       105.35    0.763160  ( -0.512329   0.704213   0.069013)
   8:       161.40    1.190381  ( -0.547779   0.822969  -0.461564)
   9:       186.13    2.665530  ( -0.511827   1.546925  -0.102888)
  10:       207.11    1.339459  (  0.787571   0.809650  -0.252305)
  11:       218.12    2.710908  (  0.998820  -0.648388  -1.137040)
  12:       231.56    5.636226  ( -2.249154  -0.724309  -0.230016)
  13:       250.07    0.041344  (  0.125569   0.130876  -0.091910)
  14:       366.67    2.572953  (  1.177925  -0.216243   1.067092)
  15:       442.95    1.241634  (  0.880090  -0.413203  -0.544369)
  16:       471.93    1.626618  ( -0.820296  -0.345847   0.913302)
  17:       481.29    8.273002  ( -0.560239  -0.710705   2.730207)
  18:       787.96    4.205507  ( -1.189797   1.317308  -1.026932)
  19:       804.56    1.358814  (  0.364182  -0.288913  -1.068978)
  20:       833.68   17.659746  ( -0.306713   0.797355  -4.114596)
  21:       902.57   15.956785  (  1.323582  -0.483439   3.737807)
  22:       921.04   24.329644  ( -2.137912  -1.708384  -4.103706)
  23:       984.29   11.961738  (  2.045681   2.427344   1.372927)
  24:       998.68   16.475735  ( -0.677295   0.566258   3.961863)
  25:      1011.02   45.171260  ( -5.667212  -0.668998   3.550550)
  26:      1038.24    6.959357  ( -2.536757   0.524930  -0.498667)
  27:      1073.88    2.749629  (  1.263940   0.109694  -1.067732)
  28:      1097.28   12.580633  (  2.701872  -0.999445  -2.069210)
  29:      1112.36    0.804745  ( -0.009594   0.623810  -0.644604)
  30:      1201.02    2.084836  ( -1.426751   0.102810   0.196594)
  31:      1204.87   21.084940  (  3.748374  -0.788744   2.532294)
  32:      1267.90    2.725743  ( -1.534323   0.396628  -0.462907)
  33:      1324.64    6.326589  ( -1.589646  -1.336626  -1.418818)
  34:      1334.68    2.382145  ( -0.273351  -1.518636  -0.034185)
  35:      1348.45    1.408075  (  1.037434   0.560702  -0.131984)
  36:      1382.22    9.410829  ( -0.407523  -0.948834   2.888679)
  37:      1397.68   19.485751  ( -2.053848  -0.020792  -3.907304)
  38:      1407.88    5.390402  (  1.787347  -0.949456   1.137684)
  39:      1420.31    3.283515  (  1.382714  -0.074816  -1.168769)
  40:      1463.03   12.702820  ( -2.271826   0.194720   2.739290)
  41:      1472.76  117.898381  ( -1.026897   2.927801  10.405376)
  42:      1474.42   18.165285  (  2.268305   3.604496   0.166393)
  43:      1481.71   59.803552  (  4.112392   0.028199  -6.549121)
  44:      1490.71   11.407532  ( -0.680697   2.925103  -1.545301)
  45:      1498.90   16.133420  ( -1.465834  -1.843358  -3.253733)
  46:      1645.15   50.579957  (  1.113986   6.845018  -1.576299)
  47:      1654.51   38.796428  (  5.846152  -0.817105   1.987782)
  48:      1738.18   47.435931  ( -4.893203  -0.278740  -4.838885)
  49:      3029.97   18.440229  (  0.692486   1.580702   3.932184)
  50:      3051.44    0.566803  ( -0.510083   0.511039  -0.213209)
  51:      3065.68    6.862394  (  0.010578   0.848286   2.478446)
  52:      3069.60    6.678785  ( -1.628861   1.860725  -0.750532)
  53:      3098.84    4.552516  (  0.563825  -1.969655   0.595883)
  54:      3110.68    0.933875  ( -0.785539  -0.010041   0.562763)
  55:      3133.31    1.413295  ( -0.769669   0.583240  -0.693351)
  56:      3141.78    7.700079  ( -0.794735   2.451397  -1.029138)
  57:      3143.82    5.050699  ( -0.713049   2.067368  -0.517930)
  58:      3156.22   11.641946  ( -2.264638   2.140382  -1.390010)
  59:      3156.45    6.872260  ( -1.061996  -2.395510  -0.077185)
  60:      3415.85   35.198295  (  1.093581  -0.736499  -5.784457)
  61:      3508.14   71.130021  (  1.989212  -8.049711   1.541174)
  62:      3516.39   69.004322  ( -7.776952  -2.729453  -1.036062)

--------------------------
THERMOCHEMISTRY AT 298.15K
--------------------------

Temperature         ... 298.15 K
Pressure            ... 1.00 atm
Total Mass          ... 100.18 AMU

Throughout the following assumptions are being made:
  (1) The electronic state is orbitally nondegenerate
  (2) There are no thermally accessible electronically excited states
  (3) Hindered rotations indicated by low frequency modes) are not
      treated as such but are treated as vibrations and this may
      case some error
  (4) All equations used are the standard statistical mechanics
      equations for an ideal gas
  (5) All vibrations are strinctly harmonic

------------
INNER ENERGY
------------

The inner energy is: U= E(el) + E(ZPE) + E(vib) + E(rot) + E(trans)
    E(el)   - is the total energy from the electronic structure calculation
              = E(kin-el) + E(nuc-el) + E(el-el) + E(nuc-nuc)
    E(ZPE)  - the the zero temperature vibrational energy from the frequency calculation
    E(vib)  - the the finite temperature correction to E(ZPE) due to population
              of excietd vibrational states
    E(rot)  - is the rotational thermal energy
    E(trans)- is the translational thermal energy

Summary of contributions to the inner energy U:
Electronic energy                ...   -291.32011509 Eh
Zero point energy                ...      0.19721890 Eh     123.76 kcal/mol
Thermal vibrational correction   ...      0.00659136 Eh       4.14 kcal/mol
Thermal rotational correction    ...      0.00141627 Eh       0.89 kcal/mol
Thermal translational correction ...      0.00141627 Eh       0.89 kcal/mol
-----------------------------------------------------------------------
Total thermal energy                   -291.11347229 Eh

Summary of corrections to the electronic energy:
(perhaps to be used in another calculation)
Total thermal correction                  0.00942390 Eh       5.91 kcal/mol
Non-thermal (ZPE) correction              0.19721890 Eh     123.76 kcal/mol
-----------------------------------------------------------------------
Total correction                          0.20664280 Eh     129.67 kcal/mol

--------
ENTHALPY
--------

The enthalpy is H = U + kB*T
                kB is Boltzmann's constant
Total free energy                 ...   -291.11347229 Eh
Thermal Enthalpy correction       ...      0.00094421 Eh       0.59 kcal/mol
-----------------------------------------------------------------------
Total Enthalpy                    ...   -291.11252808 Eh

-------
ENTROPY
-------

The entropy contributions are T*S = T*(S(el)+S(vib)+S(rot)+S(trans)
     S(el)   - electronic entropy
     S(vib)  - vibrational entropy
     S(rot)  - rotational entropy
     S(trans)- translational entropy
The entropies will be listed as mutliplied by the temperature to get
units of energy

Electronic entropy                ...      0.00000000 Eh      0.00 kcal/mol
Vibrational entropy               ...      0.01186226 Eh      7.44 kcal/mol
Rotational entropy                ...      0.01246520 Eh      7.82 kcal/mol
Translational entropy             ...      0.01887386 Eh     11.84 kcal/mol
-----------------------------------------------------------------------
Final entropy term                ...      0.04320132 Eh     27.11 kcal/mol

CAUTION: The rotational entropy is not quite correctly treated here
         because it includes a symmetry number that is not yet correctly
         implemented in ORCA!
For a nonlinear molecule the correct rotational entropy is:
    S(rot) = R*(ln(qrot/sn)+1.5)
    R    = 8.31441 J/mol/K = 1.987191683e-3 kcal/mol/K
    qrot = 362487.9133452
    sn is the rotational symmetry number. We have assumed 3 here
       if it is different for your molecule then you should correct
       the printed rotational entropy by manually evaluating the equation
       as given above

For convenience we print out the resulting values for sn=1 - 12:
 sn= 1  qrot/sn=  362487.9133 T*S(rot)=     8.47 kcal/mol T*S(tot)=    27.76 kcal/mol
 sn= 2  qrot/sn=  181243.9567 T*S(rot)=     8.06 kcal/mol T*S(tot)=    27.35 kcal/mol
 sn= 3  qrot/sn=  120829.3044 T*S(rot)=     7.82 kcal/mol T*S(tot)=    27.11 kcal/mol
 sn= 4  qrot/sn=   90621.9783 T*S(rot)=     7.65 kcal/mol T*S(tot)=    26.94 kcal/mol
 sn= 5  qrot/sn=   72497.5827 T*S(rot)=     7.52 kcal/mol T*S(tot)=    26.81 kcal/mol
 sn= 6  qrot/sn=   60414.6522 T*S(rot)=     7.41 kcal/mol T*S(tot)=    26.70 kcal/mol
 sn= 7  qrot/sn=   51783.9876 T*S(rot)=     7.32 kcal/mol T*S(tot)=    26.61 kcal/mol
 sn= 8  qrot/sn=   45310.9892 T*S(rot)=     7.24 kcal/mol T*S(tot)=    26.53 kcal/mol
 sn= 9  qrot/sn=   40276.4348 T*S(rot)=     7.17 kcal/mol T*S(tot)=    26.46 kcal/mol
 sn=10  qrot/sn=   36248.7913 T*S(rot)=     7.11 kcal/mol T*S(tot)=    26.40 kcal/mol
 sn=11  qrot/sn=   32953.4467 T*S(rot)=     7.05 kcal/mol T*S(tot)=    26.34 kcal/mol
 sn=12  qrot/sn=   30207.3261 T*S(rot)=     7.00 kcal/mol T*S(tot)=    26.29 kcal/mol

-------------------
GIBBS FREE ENTHALPY
-------------------

The Gibbs free enthalpy is G = H - T*S

Total enthalpy                    ...   -291.11252808 Eh
Total entropy correction          ...     -0.04320132 Eh    -27.11 kcal/mol
-----------------------------------------------------------------------
Final Gibbs free enthalpy         ...   -291.15572940 Eh

For completeness - the Gibbs free enthalpy minus the electronic energy
G-E(el)                           ...      0.16438569 Eh    103.15 kcal/mol

                             ****ORCA TERMINATED NORMALLY****
TOTAL RUN TIME: 0 days 0 hours 45 minutes 23 seconds 66 msec
