                         Program Version 3.0.3 - RELEASE   -
|  1> ! NORI PBE0 def2-TZVP UseSym TightOPT Freq TightSCF Grid3 FinalGrid5 XYZFile
|  2> % pal
|  3>     nprocs 8
|  4> end
|  5> %method
|  6>     SymThresh 5.0e-2
|  7> end
|  8> % geom
|  9>     MaxIter 10
| 10> end
| 11> % maxcore 2000
| 12> % output
| 13>     printlevel mini
| 14>     print[ P_Basis ] 0
| 15>     print[ P_SCFInfo ] 1
| 16>     print[ P_SCFIterInfo ] 1
| 17>     print[ P_OrbEn ] 0
| 18>     print[ P_Cartesian ] 0
| 19> end
| 20> % elprop
| 21>     Dipole false
| 22> end
| 23> *xyz 1 1
| 24>  C        1.1315536769     0.1930569730     0.3369773648
| 25>  C        2.6449069630     0.3471466237     0.3740214024
| 26>  C        3.2586913332     0.7991249500    -0.9386901953
| 27>  N        2.7088697536     2.1715445264    -1.2841285728
| 28>  C        4.7865002104     0.8464255876    -0.9908279816
| 29>  C        5.2898921468     1.1907371052    -2.3888557948
| 30>  C        5.4120647272     1.7491009622     0.0657746973
| 31>  H        0.7723836347    -0.2395874577     1.2710739241
| 32>  H        0.8124753710    -0.4676100272    -0.4731860483
| 33>  H        0.6018479146     1.1469326228     0.2330237183
| 34>  H        2.9392908650     1.0267338185     1.1800230356
| 35>  H        3.1056129183    -0.6154916470     0.6111553810
| 36>  H        2.8965843289     0.1578661973    -1.7482014450
| 37>  H        3.0210313795     2.8605226018    -0.5963789837
| 38>  H        1.6877151963     2.1628727872    -1.2841999245
| 39>  H        3.0360721321     2.4739682525    -2.2030478784
| 40>  H        5.0890008800    -0.1841869682    -0.7752024696
| 41>  H        5.1291891916     2.2445557295    -2.6474952893
| 42>  H        4.8263496990     0.5681243946    -3.1583455226
| 43>  H        6.3676396557     1.0343672259    -2.4519267584
| 44>  H        5.1713699670     2.8087621064    -0.0858430474
| 45>  H        6.4998158649     1.6828396201     0.0082315811
| 46>  H        5.1270421902     1.4727640153     1.0817088071
| 47> *
| 48>
| 49>                          ****END OF INPUT****
 Total Charge           Charge          ....    1
 Multiplicity           Mult            ....    1
 Number of Electrons    NEL             ....   58
FINAL SINGLE POINT ENERGY      -292.545782551299
FINAL SINGLE POINT ENERGY      -292.545785145967

CARTESIAN COORDINATES (ANGSTROEM)
---------------------------------
  C      2.779883   -0.003865    0.372362
  C      1.514829    0.338117   -0.401132
  C      0.274637   -0.395348    0.075680
  N      0.000405    0.005165    1.514160
  C     -0.995218   -0.189194   -0.751347
  C     -2.136252   -1.071985   -0.255828
  C     -1.428586    1.267993   -0.864398
  H      3.646400    0.467014   -0.092414
  H      2.963738   -1.081075    0.389418
  H      2.766487    0.359676    1.406222
  H      1.340977    1.419049   -0.389325
  H      1.644620    0.067819   -1.452472
  H      0.487336   -1.467366    0.134622
  H     -0.242040    0.996964    1.563662
  H      0.824356   -0.149987    2.096786
  H     -0.780417   -0.528990    1.899011
  H     -0.716982   -0.537466   -1.752038
  H     -2.555166   -0.723459    0.696250
  H     -1.830274   -2.115394   -0.141363
  H     -2.964468   -1.052785   -0.965014
  H     -1.740627    1.692381    0.097821
  H     -2.300562    1.341727   -1.515494
  H     -0.654850    1.908703   -1.288993

FINAL SINGLE POINT ENERGY      -292.545785925718
                    ***********************HURRAY********************
 Multiplicity           Mult            ....    1
 Number of Electrons    NEL             ....   58
 Basis Dimension        Dim             ....  313
FINAL SINGLE POINT ENERGY      -292.545786051812

VIBRATIONAL FREQUENCIES
-----------------------

   0:         0.00 cm**-1
   1:         0.00 cm**-1
   2:         0.00 cm**-1
   3:         0.00 cm**-1
   4:         0.00 cm**-1
   5:         0.00 cm**-1
   6:        59.17 cm**-1
   7:        89.45 cm**-1
   8:       186.87 cm**-1
   9:       189.20 cm**-1
  10:       226.47 cm**-1
  11:       229.54 cm**-1
  12:       245.14 cm**-1
  13:       278.03 cm**-1
  14:       311.72 cm**-1
  15:       340.78 cm**-1
  16:       432.94 cm**-1
  17:       460.49 cm**-1
  18:       566.72 cm**-1
  19:       744.93 cm**-1
  20:       791.44 cm**-1
  21:       862.36 cm**-1
  22:       918.57 cm**-1
  23:       928.25 cm**-1
  24:       941.32 cm**-1
  25:       969.08 cm**-1
  26:       980.28 cm**-1
  27:      1044.74 cm**-1
  28:      1056.31 cm**-1
  29:      1073.00 cm**-1
  30:      1150.77 cm**-1
  31:      1164.56 cm**-1
  32:      1205.13 cm**-1
  33:      1217.16 cm**-1
  34:      1292.56 cm**-1
  35:      1308.90 cm**-1
  36:      1352.03 cm**-1
  37:      1362.28 cm**-1
  38:      1397.24 cm**-1
  39:      1406.02 cm**-1
  40:      1412.89 cm**-1
  41:      1421.33 cm**-1
  42:      1429.08 cm**-1
  43:      1464.60 cm**-1
  44:      1468.86 cm**-1
  45:      1474.61 cm**-1
  46:      1489.81 cm**-1
  47:      1493.50 cm**-1
  48:      1498.68 cm**-1
  49:      1505.17 cm**-1
  50:      1510.42 cm**-1
  51:      1645.14 cm**-1
  52:      1655.77 cm**-1
  53:      3027.99 cm**-1
  54:      3032.34 cm**-1
  55:      3037.01 cm**-1
  56:      3058.39 cm**-1
  57:      3064.81 cm**-1
  58:      3079.99 cm**-1
  59:      3099.04 cm**-1
  60:      3104.66 cm**-1
  61:      3118.64 cm**-1
  62:      3120.42 cm**-1
  63:      3143.66 cm**-1
  64:      3147.99 cm**-1
  65:      3151.13 cm**-1
  66:      3422.52 cm**-1
  67:      3505.38 cm**-1
  68:      3514.45 cm**-1

IR SPECTRUM
-----------

 Mode    freq (cm**-1)   T**2         TX         TY         TZ
-------------------------------------------------------------------
   6:        59.17    3.824010  (  0.469474   1.866056  -0.348479)
   7:        89.45    3.573690  ( -0.908504   1.521051   0.659327)
   8:       186.87    0.298420  (  0.019126  -0.403451  -0.367805)
   9:       189.20    2.768785  (  0.909854  -0.120919  -1.387923)
  10:       226.47    5.444932  (  0.241931  -0.670418   2.221923)
  11:       229.54    1.580768  (  0.893029  -0.717562   0.518046)
  12:       245.14    1.159883  ( -1.038737  -0.100755  -0.266000)
  13:       278.03   21.825071  (  4.269257   0.114039   1.893544)
  14:       311.72    5.451520  (  1.963267   0.999854  -0.772911)
  15:       340.78    0.742007  ( -0.252628  -0.530157   0.630175)
  16:       432.94    1.681932  ( -0.816670  -0.434730   0.908841)
  17:       460.49    2.046821  (  0.586648   1.176665  -0.564026)
  18:       566.72    5.947089  (  1.546267  -0.491238   1.820668)
  19:       744.93    2.659731  (  1.226718  -0.978357  -0.444647)
  20:       791.44    1.461143  ( -0.532844  -0.102137  -1.080180)
  21:       862.36    6.865101  ( -1.919876  -0.128794   1.778367)
  22:       918.57   10.452884  (  1.105991   0.372089   3.015165)
  23:       928.25    1.577133  (  0.521559   1.063344  -0.417622)
  24:       941.32    4.409929  ( -2.036497   0.214550   0.465378)
  25:       969.08    1.769560  ( -0.811020  -1.028242   0.233505)
  26:       980.28    9.880819  ( -1.886976  -2.418492   0.686320)
  27:      1044.74   15.829726  (  3.776534  -0.182058   1.238697)
  28:      1056.31    1.113215  (  0.711454   0.445126   0.639461)
  29:      1073.00    5.662813  (  2.174486   0.501680   0.826282)
  30:      1150.77   32.946351  ( -5.677704  -0.374783  -0.754697)
  31:      1164.56    4.035245  (  0.442817  -1.792325  -0.791662)
  32:      1205.13    1.540945  (  1.190812   0.323607   0.134873)
  33:      1217.16    3.235943  ( -1.544226  -0.827306  -0.408500)
  34:      1292.56    0.137672  (  0.344633   0.055259  -0.125882)
  35:      1308.90    1.519300  ( -0.945894  -0.711719   0.343571)
  36:      1352.03    0.517339  ( -0.668400   0.071418  -0.255890)
  37:      1362.28    0.759227  ( -0.121620  -0.312987   0.804037)
  38:      1397.24    2.823133  (  0.370342  -1.255961   1.052873)
  39:      1406.02    5.847667  (  0.553694   2.350290  -0.131256)
  40:      1412.89    9.141888  (  0.690948   2.305063  -1.830618)
  41:      1421.33    4.903039  (  1.839170  -0.736872  -0.988691)
  42:      1429.08   17.504016  ( -2.468090   1.738920  -2.896326)
  43:      1464.60  153.799672  (  1.355368  -1.454609 -12.241191)
  44:      1468.86    2.190539  (  0.170758   0.185040  -1.458472)
  45:      1474.61    5.188926  (  0.843449  -1.013895   1.857293)
  46:      1489.81    6.103871  ( -2.352952  -0.625502   0.419802)
  47:      1493.50    8.829135  (  1.672949   2.445816   0.219920)
  48:      1498.68   10.590482  (  0.985466  -0.122677   3.099079)
  49:      1505.17   13.948155  ( -0.441405  -3.246428  -1.792770)
  50:      1510.42   56.989850  (  2.784857  -3.555932  -6.048948)
  51:      1645.14   37.935569  ( -0.970455  -5.231150   3.103040)
  52:      1655.77   36.236872  (  5.387375  -0.241146   2.674867)
  53:      3027.99   10.873939  (  0.893294   0.951852  -3.028191)
  54:      3032.34   18.798898  (  0.173743  -2.252679  -3.700561)
  55:      3037.01   20.759495  (  0.093370  -0.041841   4.555110)
  56:      3058.39    5.557419  (  1.875297  -1.427404   0.056543)
  57:      3064.81    3.279353  ( -0.865582  -0.045819   1.589975)
  58:      3079.99    7.639289  ( -1.175018   2.227521  -1.138760)
  59:      3099.04    4.045292  (  0.991711  -1.253356  -1.221024)
  60:      3104.66   11.607773  (  0.704599  -3.007378  -1.437703)
  61:      3118.64   21.161536  (  1.483998  -1.521407  -4.079780)
  62:      3120.42    7.840613  ( -0.348523   2.765139   0.270468)
  63:      3143.66    3.952236  ( -0.971306   1.248133  -1.204560)
  64:      3147.99    2.066844  (  0.293764   1.342021  -0.423706)
  65:      3151.13    7.286138  ( -2.306775  -1.351464   0.372120)
  66:      3422.52   18.294809  ( -1.044099   1.246142   3.956235)
  67:      3505.38   73.241068  (  1.012694  -7.995956   2.877534)
  68:      3514.45  110.220058  ( 10.268770   1.387623   1.687284)

--------------------------
THERMOCHEMISTRY AT 298.15K
--------------------------

Temperature         ... 298.15 K
Pressure            ... 1.00 atm
Total Mass          ... 102.20 AMU

Throughout the following assumptions are being made:
  (1) The electronic state is orbitally nondegenerate
  (2) There are no thermally accessible electronically excited states
  (3) Hindered rotations indicated by low frequency modes) are not
      treated as such but are treated as vibrations and this may
      case some error
  (4) All equations used are the standard statistical mechanics
      equations for an ideal gas
  (5) All vibrations are strinctly harmonic

------------
INNER ENERGY
------------

The inner energy is: U= E(el) + E(ZPE) + E(vib) + E(rot) + E(trans)
    E(el)   - is the total energy from the electronic structure calculation
              = E(kin-el) + E(nuc-el) + E(el-el) + E(nuc-nuc)
    E(ZPE)  - the the zero temperature vibrational energy from the frequency calculation
    E(vib)  - the the finite temperature correction to E(ZPE) due to population
              of excietd vibrational states
    E(rot)  - is the rotational thermal energy
    E(trans)- is the translational thermal energy

Summary of contributions to the inner energy U:
Electronic energy                ...   -292.54578605 Eh
Zero point energy                ...      0.22071275 Eh     138.50 kcal/mol
Thermal vibrational correction   ...      0.00694605 Eh       4.36 kcal/mol
Thermal rotational correction    ...      0.00141627 Eh       0.89 kcal/mol
Thermal translational correction ...      0.00141627 Eh       0.89 kcal/mol
-----------------------------------------------------------------------
Total thermal energy                   -292.31529471 Eh

Summary of corrections to the electronic energy:
(perhaps to be used in another calculation)
Total thermal correction                  0.00977859 Eh       6.14 kcal/mol
Non-thermal (ZPE) correction              0.22071275 Eh     138.50 kcal/mol
-----------------------------------------------------------------------
Total correction                          0.23049135 Eh     144.64 kcal/mol

--------
ENTHALPY
--------

The enthalpy is H = U + kB*T
                kB is Boltzmann's constant
Total free energy                 ...   -292.31529471 Eh
Thermal Enthalpy correction       ...      0.00094421 Eh       0.59 kcal/mol
-----------------------------------------------------------------------
Total Enthalpy                    ...   -292.31435050 Eh

-------
ENTROPY
-------

The entropy contributions are T*S = T*(S(el)+S(vib)+S(rot)+S(trans)
     S(el)   - electronic entropy
     S(vib)  - vibrational entropy
     S(rot)  - rotational entropy
     S(trans)- translational entropy
The entropies will be listed as mutliplied by the temperature to get
units of energy

Electronic entropy                ...      0.00000000 Eh      0.00 kcal/mol
Vibrational entropy               ...      0.01251766 Eh      7.85 kcal/mol
Rotational entropy                ...      0.01227754 Eh      7.70 kcal/mol
Translational entropy             ...      0.01890208 Eh     11.86 kcal/mol
-----------------------------------------------------------------------
Final entropy term                ...      0.04369727 Eh     27.42 kcal/mol

CAUTION: The rotational entropy is not quite correctly treated here
         because it includes a symmetry number that is not yet correctly
         implemented in ORCA!
For a nonlinear molecule the correct rotational entropy is:
    S(rot) = R*(ln(qrot/sn)+1.5)
    R    = 8.31441 J/mol/K = 1.987191683e-3 kcal/mol/K
    qrot = 297147.9659519
    sn is the rotational symmetry number. We have assumed 3 here
       if it is different for your molecule then you should correct
       the printed rotational entropy by manually evaluating the equation
       as given above

For convenience we print out the resulting values for sn=1 - 12:
 sn= 1  qrot/sn=  297147.9660 T*S(rot)=     8.36 kcal/mol T*S(tot)=    28.07 kcal/mol
 sn= 2  qrot/sn=  148573.9830 T*S(rot)=     7.94 kcal/mol T*S(tot)=    27.66 kcal/mol
 sn= 3  qrot/sn=   99049.3220 T*S(rot)=     7.70 kcal/mol T*S(tot)=    27.42 kcal/mol
 sn= 4  qrot/sn=   74286.9915 T*S(rot)=     7.53 kcal/mol T*S(tot)=    27.25 kcal/mol
 sn= 5  qrot/sn=   59429.5932 T*S(rot)=     7.40 kcal/mol T*S(tot)=    27.12 kcal/mol
 sn= 6  qrot/sn=   49524.6610 T*S(rot)=     7.29 kcal/mol T*S(tot)=    27.01 kcal/mol
 sn= 7  qrot/sn=   42449.7094 T*S(rot)=     7.20 kcal/mol T*S(tot)=    26.92 kcal/mol
 sn= 8  qrot/sn=   37143.4957 T*S(rot)=     7.12 kcal/mol T*S(tot)=    26.84 kcal/mol
 sn= 9  qrot/sn=   33016.4407 T*S(rot)=     7.05 kcal/mol T*S(tot)=    26.77 kcal/mol
 sn=10  qrot/sn=   29714.7966 T*S(rot)=     6.99 kcal/mol T*S(tot)=    26.71 kcal/mol
 sn=11  qrot/sn=   27013.4515 T*S(rot)=     6.93 kcal/mol T*S(tot)=    26.65 kcal/mol
 sn=12  qrot/sn=   24762.3305 T*S(rot)=     6.88 kcal/mol T*S(tot)=    26.60 kcal/mol

-------------------
GIBBS FREE ENTHALPY
-------------------

The Gibbs free enthalpy is G = H - T*S

Total enthalpy                    ...   -292.31435050 Eh
Total entropy correction          ...     -0.04369727 Eh    -27.42 kcal/mol
-----------------------------------------------------------------------
Final Gibbs free enthalpy         ...   -292.35804777 Eh

For completeness - the Gibbs free enthalpy minus the electronic energy
G-E(el)                           ...      0.18773828 Eh    117.81 kcal/mol

                             ****ORCA TERMINATED NORMALLY****
TOTAL RUN TIME: 0 days 0 hours 56 minutes 15 seconds 808 msec
