                         Program Version 3.0.3 - RELEASE   -
|  1> ! NORI PBE0 def2-TZVP UseSym TightOPT Freq TightSCF Grid3 FinalGrid5 XYZFile
|  2> % pal
|  3>     nprocs 8
|  4> end
|  5> %method
|  6>     SymThresh 5.0e-2
|  7> end
|  8> % geom
|  9>     MaxIter 10
| 10> end
| 11> % maxcore 2000
| 12> % output
| 13>     printlevel mini
| 14>     print[ P_Basis ] 0
| 15>     print[ P_SCFInfo ] 1
| 16>     print[ P_SCFIterInfo ] 1
| 17>     print[ P_OrbEn ] 0
| 18>     print[ P_Cartesian ] 0
| 19> end
| 20> % elprop
| 21>     Dipole false
| 22> end
| 23> *xyz 1 1
| 24>  C        1.0828740307     0.0142908388     0.1599086325
| 25>  C        2.4957905924     0.1758230647     0.7028713777
| 26>  C        3.4278327539     0.9358378517    -0.2205043054
| 27>  N        2.8488868340     2.3328625933    -0.4390791023
| 28>  C        4.8653695155     1.1085154900     0.2030688509
| 29>  C        5.8034100319     1.5972541730    -0.8598798500
| 30>  C        5.2665988464     0.8086473439     1.4334107336
| 31>  H        0.5057631405    -0.6470894875     0.8064802909
| 32>  H        1.0817586784    -0.4279026280    -0.8399238265
| 33>  H        0.5220244873     0.9547173641     0.1236258192
| 34>  H        2.4728635855     0.6514441091     1.6888823303
| 35>  H        2.9456913599    -0.8082629722     0.8506022656
| 36>  H        3.3982767443     0.4839169021    -1.2183173283
| 37>  H        2.8483313619     2.8454085679     0.4454470714
| 38>  H        1.8885753689     2.2821003072    -0.7846684106
| 39>  H        3.4099002716     2.8623618611    -1.1075144973
| 40>  H        5.8192169438     0.9142769558    -1.7150841279
| 41>  H        6.8188782016     1.6787505517    -0.4751219053
| 42>  H        5.5401458791     2.5889117432    -1.2490757329
| 43>  H        6.3058265578     0.9219573566     1.7184342539
| 44>  H        4.5980348144     0.4252180134     2.1935074604
| 45> *
| 46>
| 47>                          ****END OF INPUT****
 Total Charge           Charge          ....    1
 Multiplicity           Mult            ....    1
 Number of Electrons    NEL             ....   56
FINAL SINGLE POINT ENERGY      -291.313820183497
FINAL SINGLE POINT ENERGY      -291.313821452674

CARTESIAN COORDINATES (ANGSTROEM)
---------------------------------
  C      2.715917   -0.001293    0.401125
  C      1.447620    0.403685   -0.336246
  C      0.202173   -0.319568    0.137496
  N     -0.000695   -0.001409    1.617662
  C     -1.100266   -0.029585   -0.565868
  C     -2.226964   -0.971296   -0.262310
  C     -1.216682    0.977304   -1.424505
  H      3.586251    0.455283   -0.070530
  H      2.866793   -1.083686    0.382102
  H      2.737429    0.333361    1.444538
  H      1.300005    1.487166   -0.273557
  H      1.551919    0.171740   -1.398540
  H      0.383914   -1.400097    0.126998
  H     -0.192306    0.996631    1.730864
  H      0.833617   -0.233946    2.160080
  H     -0.794184   -0.517787    1.999785
  H     -1.957935   -2.000561   -0.519485
  H     -3.119687   -0.705320   -0.826378
  H     -2.518777   -0.973902    0.795965
  H     -2.154435    1.161801   -1.935240
  H     -0.396046    1.639180   -1.671102

FINAL SINGLE POINT ENERGY      -291.313822297479
                    ***********************HURRAY********************
 Multiplicity           Mult            ....    1
 Number of Electrons    NEL             ....   56
 Basis Dimension        Dim             ....  301
FINAL SINGLE POINT ENERGY      -291.313822645804

VIBRATIONAL FREQUENCIES
-----------------------

   0:         0.00 cm**-1
   1:         0.00 cm**-1
   2:         0.00 cm**-1
   3:         0.00 cm**-1
   4:         0.00 cm**-1
   5:         0.00 cm**-1
   6:        36.36 cm**-1
   7:       107.13 cm**-1
   8:       161.16 cm**-1
   9:       199.15 cm**-1
  10:       202.79 cm**-1
  11:       223.98 cm**-1
  12:       277.04 cm**-1
  13:       332.07 cm**-1
  14:       360.29 cm**-1
  15:       452.96 cm**-1
  16:       494.53 cm**-1
  17:       557.46 cm**-1
  18:       716.63 cm**-1
  19:       757.00 cm**-1
  20:       816.48 cm**-1
  21:       872.92 cm**-1
  22:       917.41 cm**-1
  23:       966.00 cm**-1
  24:       978.92 cm**-1
  25:       999.55 cm**-1
  26:      1010.53 cm**-1
  27:      1046.71 cm**-1
  28:      1062.65 cm**-1
  29:      1111.57 cm**-1
  30:      1123.98 cm**-1
  31:      1193.13 cm**-1
  32:      1253.85 cm**-1
  33:      1308.18 cm**-1
  34:      1330.25 cm**-1
  35:      1386.38 cm**-1
  36:      1414.70 cm**-1
  37:      1416.55 cm**-1
  38:      1420.36 cm**-1
  39:      1446.28 cm**-1
  40:      1463.07 cm**-1
  41:      1473.21 cm**-1
  42:      1479.20 cm**-1
  43:      1486.29 cm**-1
  44:      1492.21 cm**-1
  45:      1506.68 cm**-1
  46:      1645.17 cm**-1
  47:      1654.17 cm**-1
  48:      1734.41 cm**-1
  49:      3022.90 cm**-1
  50:      3037.10 cm**-1
  51:      3053.92 cm**-1
  52:      3069.51 cm**-1
  53:      3086.20 cm**-1
  54:      3102.08 cm**-1
  55:      3125.01 cm**-1
  56:      3148.42 cm**-1
  57:      3158.88 cm**-1
  58:      3176.53 cm**-1
  59:      3263.16 cm**-1
  60:      3417.04 cm**-1
  61:      3503.46 cm**-1
  62:      3514.18 cm**-1

IR SPECTRUM
-----------

 Mode    freq (cm**-1)   T**2         TX         TY         TZ
-------------------------------------------------------------------
   6:        36.36    4.062653  ( -0.047416   2.007118   0.178557)
   7:       107.13    2.606967  (  1.135764  -0.862940  -0.756534)
   8:       161.16    0.354292  ( -0.037765   0.495170   0.328135)
   9:       199.15    2.328757  ( -0.555152   0.193782   1.408195)
  10:       202.79    0.708804  ( -0.830672   0.052075   0.126792)
  11:       223.98    4.301687  ( -1.023347   0.885147  -1.571930)
  12:       277.04   19.571290  (  4.413791   0.176457   0.242076)
  13:       332.07    3.690321  ( -1.022182  -1.550880   0.490140)
  14:       360.29    1.054750  ( -0.788661  -0.310959  -0.579715)
  15:       452.96    2.204998  ( -1.208672  -0.787656   0.351720)
  16:       494.53    4.018627  ( -0.018124   1.344406   1.486900)
  17:       557.46    9.793251  ( -0.202038   0.928145   2.981774)
  18:       716.63    0.241238  ( -0.318955   0.350380  -0.129380)
  19:       757.00    2.939226  (  1.418978  -0.867322   0.416509)
  20:       816.48    4.683151  ( -0.554014  -0.442207  -2.044669)
  21:       872.92    9.483351  ( -2.620049  -0.085146   1.615997)
  22:       917.41   17.544057  (  1.314780  -0.366826   3.959905)
  23:       966.00    4.800505  ( -1.232097  -0.617421   1.703301)
  24:       978.92   10.798618  (  2.212973   2.428219  -0.071583)
  25:       999.55   32.996437  ( -1.466075   3.810908   4.040302)
  26:      1010.53    2.669035  (  0.519016  -1.272045   0.884059)
  27:      1046.71   14.258739  ( -3.596258   0.420969  -1.071660)
  28:      1062.65    0.386180  ( -0.050504   0.365512   0.500030)
  29:      1111.57    7.705778  ( -2.096196  -1.229450  -1.341713)
  30:      1123.98   24.143516  ( -4.666791   1.319793   0.789126)
  31:      1193.13   12.142348  (  3.249895   0.575597   1.117683)
  32:      1253.85    0.043921  ( -0.184538  -0.034232  -0.093246)
  33:      1308.18    1.745049  ( -1.257074  -0.111548  -0.390349)
  34:      1330.25    1.744529  ( -0.309979  -0.778578   1.020910)
  35:      1386.38   26.180810  (  0.899806  -2.836881   4.162123)
  36:      1414.70    3.284251  ( -1.600854  -0.154268  -0.835295)
  37:      1416.55    6.164038  (  1.614219   1.878474  -0.172254)
  38:      1420.36    4.031471  ( -1.266883   1.314544   0.835734)
  39:      1446.28    1.242699  ( -0.296366   0.615873  -0.880662)
  40:      1463.07  112.404033  (  0.406939   0.640342 -10.574895)
  41:      1473.21   15.606902  ( -2.424001   1.120561  -2.911265)
  42:      1479.20   50.138147  ( -1.961032   1.314183   6.675734)
  43:      1486.29   27.907841  ( -3.078601   2.539759   3.461168)
  44:      1492.21    3.650988  ( -0.794147  -0.911051  -1.479968)
  45:      1506.68   44.289230  ( -0.143134   4.696793   4.712629)
  46:      1645.17   44.145532  ( -1.593293  -5.685332   3.046958)
  47:      1654.17   33.793173  ( -5.559895   1.055392  -1.329243)
  48:      1734.41    3.089129  (  0.450939   1.676101  -0.276531)
  49:      3022.90   18.584867  (  0.690302   1.220507  -4.076605)
  50:      3037.10   19.370934  (  0.156452  -0.295722   4.388508)
  51:      3053.92    2.342246  ( -1.349468   0.721261  -0.031027)
  52:      3069.51    9.087369  ( -1.189730   2.471674  -1.250096)
  53:      3086.20    7.089028  (  0.398577  -1.514579  -2.153187)
  54:      3102.08    7.919884  ( -1.163161   1.785605   1.838085)
  55:      3125.01    7.752232  (  0.212203  -2.213255  -1.675918)
  56:      3148.42    2.022316  (  0.547343   1.269153  -0.334637)
  57:      3158.88    1.584077  (  0.968872  -0.372661   0.711680)
  58:      3176.53    0.171557  (  0.378784  -0.035916   0.163675)
  59:      3263.16    0.554129  ( -0.634865  -0.372661   0.110448)
  60:      3417.04   23.015534  (  0.080175   1.167597   4.652507)
  61:      3503.46   76.542377  ( -5.691716   6.523719  -1.260093)
  62:      3514.18   91.676818  (  8.125341   5.052031  -0.364187)

--------------------------
THERMOCHEMISTRY AT 298.15K
--------------------------

Temperature         ... 298.15 K
Pressure            ... 1.00 atm
Total Mass          ... 100.18 AMU

Throughout the following assumptions are being made:
  (1) The electronic state is orbitally nondegenerate
  (2) There are no thermally accessible electronically excited states
  (3) Hindered rotations indicated by low frequency modes) are not
      treated as such but are treated as vibrations and this may
      case some error
  (4) All equations used are the standard statistical mechanics
      equations for an ideal gas
  (5) All vibrations are strinctly harmonic

------------
INNER ENERGY
------------

The inner energy is: U= E(el) + E(ZPE) + E(vib) + E(rot) + E(trans)
    E(el)   - is the total energy from the electronic structure calculation
              = E(kin-el) + E(nuc-el) + E(el-el) + E(nuc-nuc)
    E(ZPE)  - the the zero temperature vibrational energy from the frequency calculation
    E(vib)  - the the finite temperature correction to E(ZPE) due to population
              of excietd vibrational states
    E(rot)  - is the rotational thermal energy
    E(trans)- is the translational thermal energy

Summary of contributions to the inner energy U:
Electronic energy                ...   -291.31382265 Eh
Zero point energy                ...      0.19721581 Eh     123.75 kcal/mol
Thermal vibrational correction   ...      0.00647493 Eh       4.06 kcal/mol
Thermal rotational correction    ...      0.00141627 Eh       0.89 kcal/mol
Thermal translational correction ...      0.00141627 Eh       0.89 kcal/mol
-----------------------------------------------------------------------
Total thermal energy                   -291.10729936 Eh

Summary of corrections to the electronic energy:
(perhaps to be used in another calculation)
Total thermal correction                  0.00930748 Eh       5.84 kcal/mol
Non-thermal (ZPE) correction              0.19721581 Eh     123.75 kcal/mol
-----------------------------------------------------------------------
Total correction                          0.20652329 Eh     129.60 kcal/mol

--------
ENTHALPY
--------

The enthalpy is H = U + kB*T
                kB is Boltzmann's constant
Total free energy                 ...   -291.10729936 Eh
Thermal Enthalpy correction       ...      0.00094421 Eh       0.59 kcal/mol
-----------------------------------------------------------------------
Total Enthalpy                    ...   -291.10635515 Eh

-------
ENTROPY
-------

The entropy contributions are T*S = T*(S(el)+S(vib)+S(rot)+S(trans)
     S(el)   - electronic entropy
     S(vib)  - vibrational entropy
     S(rot)  - rotational entropy
     S(trans)- translational entropy
The entropies will be listed as mutliplied by the temperature to get
units of energy

Electronic entropy                ...      0.00000000 Eh      0.00 kcal/mol
Vibrational entropy               ...      0.01205162 Eh      7.56 kcal/mol
Rotational entropy                ...      0.01223765 Eh      7.68 kcal/mol
Translational entropy             ...      0.01887386 Eh     11.84 kcal/mol
-----------------------------------------------------------------------
Final entropy term                ...      0.04316314 Eh     27.09 kcal/mol

CAUTION: The rotational entropy is not quite correctly treated here
         because it includes a symmetry number that is not yet correctly
         implemented in ORCA!
For a nonlinear molecule the correct rotational entropy is:
    S(rot) = R*(ln(qrot/sn)+1.5)
    R    = 8.31441 J/mol/K = 1.987191683e-3 kcal/mol/K
    qrot = 284857.5902062
    sn is the rotational symmetry number. We have assumed 3 here
       if it is different for your molecule then you should correct
       the printed rotational entropy by manually evaluating the equation
       as given above

For convenience we print out the resulting values for sn=1 - 12:
 sn= 1  qrot/sn=  284857.5902 T*S(rot)=     8.33 kcal/mol T*S(tot)=    27.74 kcal/mol
 sn= 2  qrot/sn=  142428.7951 T*S(rot)=     7.92 kcal/mol T*S(tot)=    27.33 kcal/mol
 sn= 3  qrot/sn=   94952.5301 T*S(rot)=     7.68 kcal/mol T*S(tot)=    27.09 kcal/mol
 sn= 4  qrot/sn=   71214.3976 T*S(rot)=     7.51 kcal/mol T*S(tot)=    26.91 kcal/mol
 sn= 5  qrot/sn=   56971.5180 T*S(rot)=     7.38 kcal/mol T*S(tot)=    26.78 kcal/mol
 sn= 6  qrot/sn=   47476.2650 T*S(rot)=     7.27 kcal/mol T*S(tot)=    26.67 kcal/mol
 sn= 7  qrot/sn=   40693.9415 T*S(rot)=     7.18 kcal/mol T*S(tot)=    26.58 kcal/mol
 sn= 8  qrot/sn=   35607.1988 T*S(rot)=     7.10 kcal/mol T*S(tot)=    26.50 kcal/mol
 sn= 9  qrot/sn=   31650.8434 T*S(rot)=     7.03 kcal/mol T*S(tot)=    26.43 kcal/mol
 sn=10  qrot/sn=   28485.7590 T*S(rot)=     6.97 kcal/mol T*S(tot)=    26.37 kcal/mol
 sn=11  qrot/sn=   25896.1446 T*S(rot)=     6.91 kcal/mol T*S(tot)=    26.32 kcal/mol
 sn=12  qrot/sn=   23738.1325 T*S(rot)=     6.86 kcal/mol T*S(tot)=    26.26 kcal/mol

-------------------
GIBBS FREE ENTHALPY
-------------------

The Gibbs free enthalpy is G = H - T*S

Total enthalpy                    ...   -291.10635515 Eh
Total entropy correction          ...     -0.04316314 Eh    -27.09 kcal/mol
-----------------------------------------------------------------------
Final Gibbs free enthalpy         ...   -291.14951829 Eh

For completeness - the Gibbs free enthalpy minus the electronic energy
G-E(el)                           ...      0.16430436 Eh    103.10 kcal/mol

                             ****ORCA TERMINATED NORMALLY****
TOTAL RUN TIME: 0 days 0 hours 50 minutes 2 seconds 933 msec
