                         Program Version 3.0.3 - RELEASE   -
|  1> ! NORI PBE0 def2-TZVP UseSym TightOPT Freq TightSCF Grid3 FinalGrid5 XYZFile
|  2> % pal
|  3>     nprocs 8
|  4> end
|  5> %method
|  6>     SymThresh 5.0e-2
|  7> end
|  8> % geom
|  9>     MaxIter 10
| 10> end
| 11> % maxcore 2000
| 12> % output
| 13>     printlevel mini
| 14>     print[ P_Basis ] 0
| 15>     print[ P_SCFInfo ] 1
| 16>     print[ P_SCFIterInfo ] 1
| 17>     print[ P_OrbEn ] 0
| 18>     print[ P_Cartesian ] 0
| 19> end
| 20> % elprop
| 21>     Dipole false
| 22> end
| 23> *xyz 1 1
| 24>  C        2.8049088053     0.7769401028    -1.1195481032
| 25>  C        2.4423831897    -0.0731612948     0.0856941593
| 26>  C        3.0526246564     0.4783483582     1.3696591245
| 27>  N        2.5497649388    -0.3627818711     2.5436462383
| 28>  C        4.4973560410     0.4638922714     1.4175380818
| 29>  C        5.7004079026     0.4497650584     1.4468116362
| 30>  C        7.1460057206     0.4453883564     1.4637681692
| 31>  H        2.3494136533     0.3611534998    -2.0179890749
| 32>  H        3.8850025431     0.8056591215    -1.2697397861
| 33>  H        2.4450819258     1.8020112333    -1.0077703962
| 34>  H        2.7925109254    -1.1007685292    -0.0601047400
| 35>  H        1.3524750900    -0.1055010597     0.2017793348
| 36>  H        2.6678113793     1.4852133894     1.5649972065
| 37>  H        2.8726298691    -1.3269274739     2.4344468287
| 38>  H        1.5286230339    -0.3662748027     2.5925275882
| 39>  H        2.9250469065    -0.0090529793     3.4256496487
| 40>  H        7.5312348540     0.9969656396     0.6027640889
| 41>  H        7.5324372338    -0.5744978820     1.4153103835
| 42>  H        7.5263113315     0.9204188621     2.3704696116
| 43> *
| 44>
| 45>                          ****END OF INPUT****
 Total Charge           Charge          ....    1
 Multiplicity           Mult            ....    1
 Number of Electrons    NEL             ....   54
FINAL SINGLE POINT ENERGY      -290.069821002999

CARTESIAN COORDINATES (ANGSTROEM)
---------------------------------
  C      2.337729    0.000435   -0.884659
  C      1.731373    0.414010    0.444774
  C      0.481064   -0.395397    0.771128
  N     -0.000164   -0.000052    2.167916
  C     -0.627790   -0.204074   -0.136496
  C     -1.544377   -0.039815   -0.898852
  C     -2.632868    0.150801   -1.830998
  H      3.231590    0.590935   -1.085227
  H      1.635322    0.160593   -1.703727
  H      2.627916   -1.052537   -0.880358
  H      1.469712    1.477425    0.423988
  H      2.463620    0.266341    1.247466
  H      0.734086   -1.457735    0.855659
  H     -0.259817    0.989073    2.171055
  H      0.727396   -0.146675    2.870868
  H     -0.828982   -0.538232    2.427965
  H     -2.299087   -0.076784   -2.846213
  H     -2.984863    1.184266   -1.811927
  H     -3.470091   -0.508082   -1.591857

FINAL SINGLE POINT ENERGY      -290.069821534946
                    ***********************HURRAY********************
 Multiplicity           Mult            ....    1
 Number of Electrons    NEL             ....   54
 Basis Dimension        Dim             ....  289
FINAL SINGLE POINT ENERGY      -290.069821802674

VIBRATIONAL FREQUENCIES
-----------------------

   0:         0.00 cm**-1
   1:         0.00 cm**-1
   2:         0.00 cm**-1
   3:         0.00 cm**-1
   4:         0.00 cm**-1
   5:         0.00 cm**-1
   6:         2.05 cm**-1
   7:        80.23 cm**-1
   8:       120.48 cm**-1
   9:       141.39 cm**-1
  10:       211.80 cm**-1
  11:       229.56 cm**-1
  12:       240.95 cm**-1
  13:       328.72 cm**-1
  14:       351.94 cm**-1
  15:       417.74 cm**-1
  16:       505.36 cm**-1
  17:       544.03 cm**-1
  18:       691.81 cm**-1
  19:       816.86 cm**-1
  20:       855.35 cm**-1
  21:       907.64 cm**-1
  22:       992.03 cm**-1
  23:      1036.26 cm**-1
  24:      1038.09 cm**-1
  25:      1042.88 cm**-1
  26:      1079.64 cm**-1
  27:      1105.13 cm**-1
  28:      1171.96 cm**-1
  29:      1223.86 cm**-1
  30:      1289.29 cm**-1
  31:      1345.61 cm**-1
  32:      1373.00 cm**-1
  33:      1396.46 cm**-1
  34:      1405.30 cm**-1
  35:      1420.16 cm**-1
  36:      1455.05 cm**-1
  37:      1457.65 cm**-1
  38:      1473.72 cm**-1
  39:      1483.68 cm**-1
  40:      1490.92 cm**-1
  41:      1498.06 cm**-1
  42:      1640.53 cm**-1
  43:      1652.66 cm**-1
  44:      2367.50 cm**-1
  45:      3036.35 cm**-1
  46:      3059.86 cm**-1
  47:      3065.92 cm**-1
  48:      3066.60 cm**-1
  49:      3089.75 cm**-1
  50:      3135.18 cm**-1
  51:      3139.54 cm**-1
  52:      3144.37 cm**-1
  53:      3157.78 cm**-1
  54:      3413.61 cm**-1
  55:      3504.98 cm**-1
  56:      3513.34 cm**-1

IR SPECTRUM
-----------

 Mode    freq (cm**-1)   T**2         TX         TY         TZ
-------------------------------------------------------------------
   7:        80.23    2.373188  ( -1.488025  -0.136129  -0.374751)
   8:       120.48    2.138999  ( -1.247628  -0.763133   0.007241)
   9:       141.39   14.665353  (  1.736497  -3.410385   0.138586)
  10:       211.80    0.936103  (  0.214551   0.943428  -0.003887)
  11:       229.56   11.001134  (  2.587873   1.882259  -0.872438)
  12:       240.95    0.499403  (  0.484841  -0.005638  -0.514102)
  13:       328.72    6.017613  (  0.358081   0.605706   2.350003)
  14:       351.94    0.968998  ( -0.484554  -0.835052  -0.192077)
  15:       417.74    4.011336  (  1.559716   0.426464  -1.181841)
  16:       505.36    3.113713  (  0.849055   0.977096   1.199209)
  17:       544.03   13.172864  ( -0.516524   0.033126   3.592349)
  18:       691.81    1.086593  (  0.407990  -0.178563   0.942471)
  19:       816.86    2.732968  ( -1.068408   0.648377   1.082165)
  20:       855.35   15.228906  (  0.594265  -0.471921   3.827930)
  21:       907.64   27.503411  (  1.699460  -0.403978   4.944901)
  22:       992.03   20.525652  (  3.104102   3.296259   0.157740)
  23:      1036.26    2.355942  ( -0.170336  -0.277280  -1.500014)
  24:      1038.09    7.306455  (  2.562404  -0.654971   0.558170)
  25:      1042.88    2.647734  (  0.964610   1.300429  -0.161694)
  26:      1079.64   21.825918  (  4.208945  -0.994639  -1.766747)
  27:      1105.13    3.033085  (  0.985811  -0.032140  -1.435350)
  28:      1171.96    2.474572  ( -0.625692  -1.258300   0.706938)
  29:      1223.86    5.583506  ( -2.125101  -0.526136  -0.889176)
  30:      1289.29    4.245831  (  1.873684  -0.140797   0.845763)
  31:      1345.61    3.501743  (  0.851516   1.555180  -0.598396)
  32:      1373.00    5.779927  (  0.328569   0.541519  -2.319208)
  33:      1396.46   55.308809  ( -4.313772   0.842283  -5.999228)
  34:      1405.30    3.183061  (  1.084602   0.138835   1.409760)
  35:      1420.16    5.955407  ( -2.404740   0.376530   0.175663)
  36:      1455.05   13.549939  ( -1.211050  -3.414311   0.652515)
  37:      1457.65   13.350208  ( -1.829626   1.365279   2.852839)
  38:      1473.72   14.657093  ( -0.247086  -0.054094  -3.820094)
  39:      1483.68  139.128116  (  4.246133  -2.523972 -10.711117)
  40:      1490.92   13.980963  (  0.848410  -1.685919   3.227823)
  41:      1498.06   26.801708  (  0.687859   3.457759   3.791103)
  42:      1640.53   49.142469  (  1.593987   6.609957  -1.705914)
  43:      1652.66   38.107012  (  5.417500  -1.399341   2.607596)
  44:      2367.50  141.345412  ( -8.391861   0.870389  -8.376425)
  45:      3036.35   18.745966  ( -0.934436  -1.346875  -4.007334)
  46:      3059.86    0.303158  ( -0.220776  -0.030113  -0.503497)
  47:      3065.92    0.697524  (  0.477265  -0.503693  -0.464796)
  48:      3066.60    5.964315  (  0.406731  -1.338613  -2.001749)
  49:      3089.75    8.948722  ( -2.107448   1.804303  -1.118873)
  50:      3135.18    0.600137  (  0.085705   0.131101   0.758686)
  51:      3139.54    0.071590  ( -0.039436  -0.209853   0.161234)
  52:      3144.37    9.526104  (  1.139846  -2.563800   1.285996)
  53:      3157.78    4.841374  ( -1.895010  -0.546934  -0.975282)
  54:      3413.61   40.062396  (  1.656864  -1.250277  -5.979465)
  55:      3504.98   82.894173  ( -1.067779   8.521421  -3.023145)
  56:      3513.34   75.461144  ( -8.242570  -2.437056  -1.257756)

--------------------------
THERMOCHEMISTRY AT 298.15K
--------------------------

Temperature         ... 298.15 K
Pressure            ... 1.00 atm
Total Mass          ... 98.17 AMU

Throughout the following assumptions are being made:
  (1) The electronic state is orbitally nondegenerate
  (2) There are no thermally accessible electronically excited states
  (3) Hindered rotations indicated by low frequency modes) are not
      treated as such but are treated as vibrations and this may
      case some error
  (4) All equations used are the standard statistical mechanics
      equations for an ideal gas
  (5) All vibrations are strinctly harmonic

------------
INNER ENERGY
------------

The inner energy is: U= E(el) + E(ZPE) + E(vib) + E(rot) + E(trans)
    E(el)   - is the total energy from the electronic structure calculation
              = E(kin-el) + E(nuc-el) + E(el-el) + E(nuc-nuc)
    E(ZPE)  - the the zero temperature vibrational energy from the frequency calculation
    E(vib)  - the the finite temperature correction to E(ZPE) due to population
              of excietd vibrational states
    E(rot)  - is the rotational thermal energy
    E(trans)- is the translational thermal energy

Summary of contributions to the inner energy U:
Electronic energy                ...   -290.06982180 Eh
Zero point energy                ...      0.17362051 Eh     108.95 kcal/mol
Thermal vibrational correction   ...      0.00574984 Eh       3.61 kcal/mol
Thermal rotational correction    ...      0.00141627 Eh       0.89 kcal/mol
Thermal translational correction ...      0.00141627 Eh       0.89 kcal/mol
-----------------------------------------------------------------------
Total thermal energy                   -289.88761891 Eh

Summary of corrections to the electronic energy:
(perhaps to be used in another calculation)
Total thermal correction                  0.00858239 Eh       5.39 kcal/mol
Non-thermal (ZPE) correction              0.17362051 Eh     108.95 kcal/mol
-----------------------------------------------------------------------
Total correction                          0.18220289 Eh     114.33 kcal/mol

--------
ENTHALPY
--------

The enthalpy is H = U + kB*T
                kB is Boltzmann's constant
Total free energy                 ...   -289.88761891 Eh
Thermal Enthalpy correction       ...      0.00094421 Eh       0.59 kcal/mol
-----------------------------------------------------------------------
Total Enthalpy                    ...   -289.88667470 Eh

-------
ENTROPY
-------

The entropy contributions are T*S = T*(S(el)+S(vib)+S(rot)+S(trans)
     S(el)   - electronic entropy
     S(vib)  - vibrational entropy
     S(rot)  - rotational entropy
     S(trans)- translational entropy
The entropies will be listed as mutliplied by the temperature to get
units of energy

Electronic entropy                ...      0.00000000 Eh      0.00 kcal/mol
Vibrational entropy               ...      0.01024884 Eh      6.43 kcal/mol
Rotational entropy                ...      0.01245951 Eh      7.82 kcal/mol
Translational entropy             ...      0.01884507 Eh     11.83 kcal/mol
-----------------------------------------------------------------------
Final entropy term                ...      0.04155343 Eh     26.08 kcal/mol

CAUTION: The rotational entropy is not quite correctly treated here
         because it includes a symmetry number that is not yet correctly
         implemented in ORCA!
For a nonlinear molecule the correct rotational entropy is:
    S(rot) = R*(ln(qrot/sn)+1.5)
    R    = 8.31441 J/mol/K = 1.987191683e-3 kcal/mol/K
    qrot = 360310.3776633
    sn is the rotational symmetry number. We have assumed 3 here
       if it is different for your molecule then you should correct
       the printed rotational entropy by manually evaluating the equation
       as given above

For convenience we print out the resulting values for sn=1 - 12:
 sn= 1  qrot/sn=  360310.3777 T*S(rot)=     8.47 kcal/mol T*S(tot)=    26.73 kcal/mol
 sn= 2  qrot/sn=  180155.1888 T*S(rot)=     8.06 kcal/mol T*S(tot)=    26.32 kcal/mol
 sn= 3  qrot/sn=  120103.4592 T*S(rot)=     7.82 kcal/mol T*S(tot)=    26.08 kcal/mol
 sn= 4  qrot/sn=   90077.5944 T*S(rot)=     7.65 kcal/mol T*S(tot)=    25.90 kcal/mol
 sn= 5  qrot/sn=   72062.0755 T*S(rot)=     7.52 kcal/mol T*S(tot)=    25.77 kcal/mol
 sn= 6  qrot/sn=   60051.7296 T*S(rot)=     7.41 kcal/mol T*S(tot)=    25.66 kcal/mol
 sn= 7  qrot/sn=   51472.9111 T*S(rot)=     7.32 kcal/mol T*S(tot)=    25.57 kcal/mol
 sn= 8  qrot/sn=   45038.7972 T*S(rot)=     7.24 kcal/mol T*S(tot)=    25.49 kcal/mol
 sn= 9  qrot/sn=   40034.4864 T*S(rot)=     7.17 kcal/mol T*S(tot)=    25.42 kcal/mol
 sn=10  qrot/sn=   36031.0378 T*S(rot)=     7.11 kcal/mol T*S(tot)=    25.36 kcal/mol
 sn=11  qrot/sn=   32755.4889 T*S(rot)=     7.05 kcal/mol T*S(tot)=    25.31 kcal/mol
 sn=12  qrot/sn=   30025.8648 T*S(rot)=     7.00 kcal/mol T*S(tot)=    25.25 kcal/mol

-------------------
GIBBS FREE ENTHALPY
-------------------

The Gibbs free enthalpy is G = H - T*S

Total enthalpy                    ...   -289.88667470 Eh
Total entropy correction          ...     -0.04155343 Eh    -26.08 kcal/mol
-----------------------------------------------------------------------
Final Gibbs free enthalpy         ...   -289.92822813 Eh

For completeness - the Gibbs free enthalpy minus the electronic energy
G-E(el)                           ...      0.14159368 Eh     88.85 kcal/mol

                             ****ORCA TERMINATED NORMALLY****
TOTAL RUN TIME: 0 days 0 hours 41 minutes 29 seconds 310 msec
