                         Program Version 3.0.3 - RELEASE   -
|  1> ! NORI PBE0 def2-TZVP UseSym TightOPT Freq TightSCF Grid3 FinalGrid5 XYZFile
|  2> % pal
|  3>     nprocs 8
|  4> end
|  5> %method
|  6>     SymThresh 5.0e-2
|  7> end
|  8> % geom
|  9>     MaxIter 10
| 10> end
| 11> % maxcore 2000
| 12> % output
| 13>     printlevel mini
| 14>     print[ P_Basis ] 0
| 15>     print[ P_SCFInfo ] 1
| 16>     print[ P_SCFIterInfo ] 1
| 17>     print[ P_OrbEn ] 0
| 18>     print[ P_Cartesian ] 0
| 19> end
| 20> % elprop
| 21>     Dipole false
| 22> end
| 23> *xyz 1 1
| 24>  C        2.8006585758    -0.6362779233    -1.5319239138
| 25>  C        2.3933865152    -0.0439680629    -0.1912071068
| 26>  C        2.9163554937    -0.7714330681     1.0370359610
| 27>  N        2.3492311672    -2.1808395827     1.0484462905
| 28>  C        4.4319553391    -0.8770618095     1.1578816871
| 29>  C        5.0685426668     0.4690795352     1.3062964118
| 30>  C        5.9923008005     0.9490849174     0.4883931170
| 31>  H        2.3718106888    -0.0427498918    -2.3394524917
| 32>  H        2.4353513583    -1.6580011062    -1.6892245391
| 33>  H        3.8827048845    -0.6355895260    -1.6719306824
| 34>  H        1.3022511198     0.0319248837    -0.1235318554
| 35>  H        2.7668878334     0.9797675071    -0.1159779868
| 36>  H        2.5097593844    -0.3044751266     1.9385388856
| 37>  H        2.6522682559    -2.6863107989     0.2126177730
| 38>  H        1.3275702877    -2.1720003639     1.0519063246
| 39>  H        2.6697758565    -2.7042488901     1.8650320930
| 40>  H        4.8493888619    -1.3931600691     0.2878694128
| 41>  H        4.6737461040    -1.4856808848     2.0407827243
| 42>  H        4.7498317349     1.0594125213     2.1631948309
| 43>  H        6.3508948628     0.3856573141    -0.3673180421
| 44>  H        6.4382882089     1.9218304250     0.6544311064
| 45> *
| 46>
| 47>                          ****END OF INPUT****
 Total Charge           Charge          ....    1
 Multiplicity           Mult            ....    1
 Number of Electrons    NEL             ....   56
FINAL SINGLE POINT ENERGY      -291.309365077132
FINAL SINGLE POINT ENERGY      -291.309367060027
FINAL SINGLE POINT ENERGY      -291.309368133804

CARTESIAN COORDINATES (ANGSTROEM)
---------------------------------
  C      2.165905   -0.003816    0.071249
  C      1.050950   -1.027729    0.220703
  C     -0.254650   -0.502856    0.796555
  N      0.002832    0.005044    2.205053
  C     -0.930655    0.616170    0.012608
  C     -1.348218    0.160956   -1.350808
  C     -0.953342    0.733395   -2.477518
  H      3.049908   -0.483969   -0.349181
  H      2.489147    0.432605    1.023397
  H      1.891265    0.809705   -0.601557
  H      1.391190   -1.876881    0.824253
  H      0.802204   -1.442132   -0.759224
  H     -0.954498   -1.332785    0.927302
  H      0.679858    0.770944    2.180990
  H      0.386812   -0.730124    2.801569
  H     -0.853732    0.356124    2.636891
  H     -0.264053    1.480199   -0.072831
  H     -1.820281    0.946910    0.566994
  H     -2.037477   -0.680148   -1.386740
  H     -0.281505    1.586201   -2.483839
  H     -1.302638    0.379790   -3.439843

FINAL SINGLE POINT ENERGY      -291.309368345145
                    ***********************HURRAY********************
 Multiplicity           Mult            ....    1
 Number of Electrons    NEL             ....   56
 Basis Dimension        Dim             ....  301
FINAL SINGLE POINT ENERGY      -291.309368474316

VIBRATIONAL FREQUENCIES
-----------------------

   0:         0.00 cm**-1
   1:         0.00 cm**-1
   2:         0.00 cm**-1
   3:         0.00 cm**-1
   4:         0.00 cm**-1
   5:         0.00 cm**-1
   6:        56.03 cm**-1
   7:        89.79 cm**-1
   8:       117.30 cm**-1
   9:       190.41 cm**-1
  10:       213.94 cm**-1
  11:       243.46 cm**-1
  12:       264.71 cm**-1
  13:       349.14 cm**-1
  14:       407.99 cm**-1
  15:       434.27 cm**-1
  16:       542.74 cm**-1
  17:       636.87 cm**-1
  18:       761.96 cm**-1
  19:       798.95 cm**-1
  20:       891.88 cm**-1
  21:       913.10 cm**-1
  22:       936.15 cm**-1
  23:       985.47 cm**-1
  24:       997.47 cm**-1
  25:      1000.98 cm**-1
  26:      1026.17 cm**-1
  27:      1029.27 cm**-1
  28:      1067.86 cm**-1
  29:      1118.91 cm**-1
  30:      1166.63 cm**-1
  31:      1211.36 cm**-1
  32:      1245.35 cm**-1
  33:      1309.54 cm**-1
  34:      1319.58 cm**-1
  35:      1339.11 cm**-1
  36:      1382.58 cm**-1
  37:      1390.18 cm**-1
  38:      1406.13 cm**-1
  39:      1423.53 cm**-1
  40:      1454.75 cm**-1
  41:      1468.70 cm**-1
  42:      1472.62 cm**-1
  43:      1480.22 cm**-1
  44:      1496.14 cm**-1
  45:      1503.77 cm**-1
  46:      1648.94 cm**-1
  47:      1656.94 cm**-1
  48:      1728.69 cm**-1
  49:      3014.62 cm**-1
  50:      3039.37 cm**-1
  51:      3052.10 cm**-1
  52:      3079.42 cm**-1
  53:      3097.85 cm**-1
  54:      3108.93 cm**-1
  55:      3125.19 cm**-1
  56:      3153.32 cm**-1
  57:      3156.04 cm**-1
  58:      3161.22 cm**-1
  59:      3252.93 cm**-1
  60:      3420.11 cm**-1
  61:      3502.70 cm**-1
  62:      3515.16 cm**-1

IR SPECTRUM
-----------

 Mode    freq (cm**-1)   T**2         TX         TY         TZ
-------------------------------------------------------------------
   6:        56.03    0.563807  (  0.299613  -0.326809  -0.605999)
   7:        89.79    1.590488  (  0.161795  -1.250650   0.013590)
   8:       117.30    4.311609  ( -1.422304  -1.309556   0.757446)
   9:       190.41    0.982934  (  0.632338  -0.758529  -0.087840)
  10:       213.94    4.575590  (  1.023454   0.500263  -1.810488)
  11:       243.46    5.685209  (  2.169494  -0.596858  -0.788837)
  12:       264.71    2.402725  (  1.414656   0.218330  -0.594816)
  13:       349.14    6.035094  ( -1.694104   1.602728  -0.772249)
  14:       407.99    7.021611  (  0.730333  -0.518117  -2.493949)
  15:       434.27    0.584277  ( -0.468904   0.462696   0.387709)
  16:       542.74    4.570437  ( -1.742095   0.005357   1.239158)
  17:       636.87   13.446861  ( -3.283955   1.613093   0.245831)
  18:       761.96    2.015207  ( -0.701808   0.054169  -1.232777)
  19:       798.95    5.553866  ( -0.604527   1.794770  -1.402574)
  20:       891.88    6.900368  (  0.495216  -0.368321  -2.553325)
  21:       913.10    4.064698  (  0.791704  -1.592729  -0.949272)
  22:       936.15   13.753432  ( -2.169845   1.625881  -2.530161)
  23:       985.47    1.435751  (  0.843701   0.698653   0.485596)
  24:       997.47   39.759750  (  4.774786  -4.118269  -0.032150)
  25:      1000.98   12.929653  (  3.061402  -0.466021  -1.827648)
  26:      1026.17    8.205418  ( -1.386417   1.996425  -1.515768)
  27:      1029.27   19.407829  ( -3.451196   2.494731  -1.128449)
  28:      1067.86    8.579926  ( -0.961427  -0.724327   2.670381)
  29:      1118.91    6.260023  (  0.468998   0.952374   2.265623)
  30:      1166.63   12.150536  ( -3.260802   0.835817  -0.905052)
  31:      1211.36    4.587297  ( -0.958241   1.735600  -0.810410)
  32:      1245.35    0.243925  (  0.024233   0.359213   0.338088)
  33:      1309.54    2.892631  ( -1.470705   0.633024  -0.573532)
  34:      1319.58    6.281554  (  0.196854   2.012381  -1.480920)
  35:      1339.11    0.872862  ( -0.195711   0.033003  -0.912946)
  36:      1382.58    1.670495  ( -1.139121   0.573354   0.210147)
  37:      1390.18    0.766172  ( -0.796943   0.356966   0.060239)
  38:      1406.13   14.708432  ( -0.110234  -1.013586   3.697151)
  39:      1423.53   10.595136  (  2.954706   0.948765  -0.982188)
  40:      1454.75    3.185859  (  1.183798   1.332300  -0.097245)
  41:      1468.70   26.890291  (  0.652176  -2.185689  -4.657008)
  42:      1472.62   16.138480  (  0.273255   2.798830  -2.868861)
  43:      1480.22   91.198934  (  0.615988  -5.186290  -7.995116)
  44:      1496.14   47.448915  (  2.272276   1.785804   6.252726)
  45:      1503.77   41.030950  (  1.364818  -0.644626   6.225165)
  46:      1648.94   48.499089  ( -1.767380  -6.122987   2.807933)
  47:      1656.94   41.137449  ( -5.953772   1.710057   1.663055)
  48:      1728.69    2.803812  ( -0.719490  -0.559934   1.404500)
  49:      3014.62   17.512636  (  1.264972  -1.675500  -3.620108)
  50:      3039.37   22.681541  (  0.987627   2.841140   3.692432)
  51:      3052.10   10.943666  ( -0.137448   2.867338  -1.644125)
  52:      3079.42    2.173235  (  1.102010   0.170510   0.964228)
  53:      3097.85    8.359477  (  2.179759   1.825523  -0.524970)
  54:      3108.93    2.089851  ( -0.913468  -0.334034   1.069509)
  55:      3125.19   10.715564  (  0.657338  -0.643081   3.141642)
  56:      3153.32    4.463372  ( -1.177622   1.290990  -1.187403)
  57:      3156.04    5.709997  ( -1.384586  -1.944911  -0.101192)
  58:      3161.22    0.136871  (  0.215653   0.260930  -0.149269)
  59:      3252.93    1.074384  ( -0.760092  -0.680261  -0.184087)
  60:      3420.11   32.158340  (  1.226726   1.423842   5.350342)
  61:      3502.70   84.335751  ( -5.854064  -5.427470   4.539631)
  62:      3515.16   79.847458  (  6.778178  -5.745485   0.945070)

--------------------------
THERMOCHEMISTRY AT 298.15K
--------------------------

Temperature         ... 298.15 K
Pressure            ... 1.00 atm
Total Mass          ... 100.18 AMU

Throughout the following assumptions are being made:
  (1) The electronic state is orbitally nondegenerate
  (2) There are no thermally accessible electronically excited states
  (3) Hindered rotations indicated by low frequency modes) are not
      treated as such but are treated as vibrations and this may
      case some error
  (4) All equations used are the standard statistical mechanics
      equations for an ideal gas
  (5) All vibrations are strinctly harmonic

------------
INNER ENERGY
------------

The inner energy is: U= E(el) + E(ZPE) + E(vib) + E(rot) + E(trans)
    E(el)   - is the total energy from the electronic structure calculation
              = E(kin-el) + E(nuc-el) + E(el-el) + E(nuc-nuc)
    E(ZPE)  - the the zero temperature vibrational energy from the frequency calculation
    E(vib)  - the the finite temperature correction to E(ZPE) due to population
              of excietd vibrational states
    E(rot)  - is the rotational thermal energy
    E(trans)- is the translational thermal energy

Summary of contributions to the inner energy U:
Electronic energy                ...   -291.30936847 Eh
Zero point energy                ...      0.19787828 Eh     124.17 kcal/mol
Thermal vibrational correction   ...      0.00633475 Eh       3.98 kcal/mol
Thermal rotational correction    ...      0.00141627 Eh       0.89 kcal/mol
Thermal translational correction ...      0.00141627 Eh       0.89 kcal/mol
-----------------------------------------------------------------------
Total thermal energy                   -291.10232290 Eh

Summary of corrections to the electronic energy:
(perhaps to be used in another calculation)
Total thermal correction                  0.00916729 Eh       5.75 kcal/mol
Non-thermal (ZPE) correction              0.19787828 Eh     124.17 kcal/mol
-----------------------------------------------------------------------
Total correction                          0.20704558 Eh     129.92 kcal/mol

--------
ENTHALPY
--------

The enthalpy is H = U + kB*T
                kB is Boltzmann's constant
Total free energy                 ...   -291.10232290 Eh
Thermal Enthalpy correction       ...      0.00094421 Eh       0.59 kcal/mol
-----------------------------------------------------------------------
Total Enthalpy                    ...   -291.10137869 Eh

-------
ENTROPY
-------

The entropy contributions are T*S = T*(S(el)+S(vib)+S(rot)+S(trans)
     S(el)   - electronic entropy
     S(vib)  - vibrational entropy
     S(rot)  - rotational entropy
     S(trans)- translational entropy
The entropies will be listed as mutliplied by the temperature to get
units of energy

Electronic entropy                ...      0.00000000 Eh      0.00 kcal/mol
Vibrational entropy               ...      0.01175143 Eh      7.37 kcal/mol
Rotational entropy                ...      0.01230020 Eh      7.72 kcal/mol
Translational entropy             ...      0.01887386 Eh     11.84 kcal/mol
-----------------------------------------------------------------------
Final entropy term                ...      0.04292549 Eh     26.94 kcal/mol

CAUTION: The rotational entropy is not quite correctly treated here
         because it includes a symmetry number that is not yet correctly
         implemented in ORCA!
For a nonlinear molecule the correct rotational entropy is:
    S(rot) = R*(ln(qrot/sn)+1.5)
    R    = 8.31441 J/mol/K = 1.987191683e-3 kcal/mol/K
    qrot = 304366.2153178
    sn is the rotational symmetry number. We have assumed 3 here
       if it is different for your molecule then you should correct
       the printed rotational entropy by manually evaluating the equation
       as given above

For convenience we print out the resulting values for sn=1 - 12:
 sn= 1  qrot/sn=  304366.2153 T*S(rot)=     8.37 kcal/mol T*S(tot)=    27.59 kcal/mol
 sn= 2  qrot/sn=  152183.1077 T*S(rot)=     7.96 kcal/mol T*S(tot)=    27.18 kcal/mol
 sn= 3  qrot/sn=  101455.4051 T*S(rot)=     7.72 kcal/mol T*S(tot)=    26.94 kcal/mol
 sn= 4  qrot/sn=   76091.5538 T*S(rot)=     7.55 kcal/mol T*S(tot)=    26.77 kcal/mol
 sn= 5  qrot/sn=   60873.2431 T*S(rot)=     7.42 kcal/mol T*S(tot)=    26.63 kcal/mol
 sn= 6  qrot/sn=   50727.7026 T*S(rot)=     7.31 kcal/mol T*S(tot)=    26.53 kcal/mol
 sn= 7  qrot/sn=   43480.8879 T*S(rot)=     7.22 kcal/mol T*S(tot)=    26.43 kcal/mol
 sn= 8  qrot/sn=   38045.7769 T*S(rot)=     7.14 kcal/mol T*S(tot)=    26.35 kcal/mol
 sn= 9  qrot/sn=   33818.4684 T*S(rot)=     7.07 kcal/mol T*S(tot)=    26.29 kcal/mol
 sn=10  qrot/sn=   30436.6215 T*S(rot)=     7.01 kcal/mol T*S(tot)=    26.22 kcal/mol
 sn=11  qrot/sn=   27669.6559 T*S(rot)=     6.95 kcal/mol T*S(tot)=    26.17 kcal/mol
 sn=12  qrot/sn=   25363.8513 T*S(rot)=     6.90 kcal/mol T*S(tot)=    26.11 kcal/mol

-------------------
GIBBS FREE ENTHALPY
-------------------

The Gibbs free enthalpy is G = H - T*S

Total enthalpy                    ...   -291.10137869 Eh
Total entropy correction          ...     -0.04292549 Eh    -26.94 kcal/mol
-----------------------------------------------------------------------
Final Gibbs free enthalpy         ...   -291.14430418 Eh

For completeness - the Gibbs free enthalpy minus the electronic energy
G-E(el)                           ...      0.16506430 Eh    103.58 kcal/mol

                             ****ORCA TERMINATED NORMALLY****
TOTAL RUN TIME: 0 days 0 hours 50 minutes 34 seconds 144 msec
