                         Program Version 3.0.3 - RELEASE   -
|  1> ! NORI PBE0 def2-TZVP UseSym TightOPT Freq TightSCF Grid3 FinalGrid5 XYZFile
|  2> % pal
|  3>     nprocs 8
|  4> end
|  5> %method
|  6>     SymThresh 5.0e-2
|  7> end
|  8> % geom
|  9>     MaxIter 10
| 10> end
| 11> % maxcore 2000
| 12> % output
| 13>     printlevel mini
| 14>     print[ P_Basis ] 0
| 15>     print[ P_SCFInfo ] 1
| 16>     print[ P_SCFIterInfo ] 1
| 17>     print[ P_OrbEn ] 0
| 18>     print[ P_Cartesian ] 0
| 19> end
| 20> % elprop
| 21>     Dipole false
| 22> end
| 23> *xyz 1 1
| 24>  C        1.1095474019    -0.3110150706    -0.1532533171
| 25>  C        2.6220325364    -0.3318189078    -0.0015221953
| 26>  C        3.1177171623     0.0813765256     1.3698242254
| 27>  N        2.5693386789    -0.8869427900     2.3994675276
| 28>  C        4.6379581907     0.1105766493     1.5115122225
| 29>  C        5.2174463643     1.1404325420     0.6713470893
| 30>  C        5.6864960032     2.0003101810    -0.0185169719
| 31>  H        0.8312210551    -0.5125157592    -1.1876885815
| 32>  H        0.6934434553     0.6647630965     0.1109563957
| 33>  H        0.5996858673    -1.0767779242     0.4431170623
| 34>  H        3.0781546896     0.3666834861    -0.7067297642
| 35>  H        3.0302917362    -1.3189079384    -0.2526217133
| 36>  H        2.7008747742     1.0530774417     1.6480971615
| 37>  H        2.9413008713    -1.8273002518     2.2449848376
| 38>  H        1.5509224622    -0.9413922483     2.3244122205
| 39>  H        2.8080128722    -0.6066100352     3.3523298957
| 40>  H        4.9193548037     0.3006546700     2.5550411307
| 41>  H        5.0547461959    -0.8676230473     1.2379286941
| 42>  H        6.1151648792     2.7638593806    -0.6275959196
| 43> *
| 44>
| 45>                          ****END OF INPUT****
 Total Charge           Charge          ....    1
 Multiplicity           Mult            ....    1
 Number of Electrons    NEL             ....   54
FINAL SINGLE POINT ENERGY      -290.055321642372
FINAL SINGLE POINT ENERGY      -290.055323150875

CARTESIAN COORDINATES (ANGSTROEM)
---------------------------------
  C      2.561458    0.000726    0.509829
  C      1.220173    0.483174   -0.019890
  C      0.019840   -0.231267    0.568064
  N     -0.000511    0.000351    2.067053
  C     -1.325610    0.220446    0.003669
  C     -1.442860   -0.122514   -1.400516
  C     -1.534904   -0.418247   -2.557817
  H      3.375213    0.482485   -0.032509
  H      2.679788   -1.078166    0.382239
  H      2.726726    0.244409    1.565910
  H      1.164898    0.321685   -1.099091
  H      1.105829    1.564667    0.126429
  H      0.125352   -1.313204    0.452250
  H     -0.140290    0.991797    2.276905
  H      0.892189   -0.280064    2.479238
  H     -0.746452   -0.526668    2.524760
  H     -2.147287   -0.252889    0.556204
  H     -1.435155    1.305670    0.129225
  H     -1.629121   -0.677300   -3.588263

FINAL SINGLE POINT ENERGY      -290.055323913397
                    ***********************HURRAY********************
 Multiplicity           Mult            ....    1
 Number of Electrons    NEL             ....   54
 Basis Dimension        Dim             ....  289
FINAL SINGLE POINT ENERGY      -290.055324053815

VIBRATIONAL FREQUENCIES
-----------------------

   0:         0.00 cm**-1
   1:         0.00 cm**-1
   2:         0.00 cm**-1
   3:         0.00 cm**-1
   4:         0.00 cm**-1
   5:         0.00 cm**-1
   6:        80.08 cm**-1
   7:        90.31 cm**-1
   8:       147.06 cm**-1
   9:       201.35 cm**-1
  10:       233.01 cm**-1
  11:       248.51 cm**-1
  12:       323.36 cm**-1
  13:       338.25 cm**-1
  14:       403.68 cm**-1
  15:       430.50 cm**-1
  16:       540.67 cm**-1
  17:       719.11 cm**-1
  18:       741.60 cm**-1
  19:       761.18 cm**-1
  20:       811.36 cm**-1
  21:       894.05 cm**-1
  22:       922.53 cm**-1
  23:       947.07 cm**-1
  24:       984.99 cm**-1
  25:      1020.69 cm**-1
  26:      1059.35 cm**-1
  27:      1111.41 cm**-1
  28:      1141.26 cm**-1
  29:      1197.80 cm**-1
  30:      1245.74 cm**-1
  31:      1313.68 cm**-1
  32:      1332.10 cm**-1
  33:      1347.58 cm**-1
  34:      1401.02 cm**-1
  35:      1410.86 cm**-1
  36:      1421.21 cm**-1
  37:      1462.61 cm**-1
  38:      1473.66 cm**-1
  39:      1480.76 cm**-1
  40:      1492.26 cm**-1
  41:      1507.63 cm**-1
  42:      1649.08 cm**-1
  43:      1657.22 cm**-1
  44:      2256.31 cm**-1
  45:      3021.50 cm**-1
  46:      3034.38 cm**-1
  47:      3040.51 cm**-1
  48:      3060.31 cm**-1
  49:      3099.85 cm**-1
  50:      3103.03 cm**-1
  51:      3122.40 cm**-1
  52:      3149.32 cm**-1
  53:      3415.27 cm**-1
  54:      3463.78 cm**-1
  55:      3495.95 cm**-1
  56:      3509.53 cm**-1

IR SPECTRUM
-----------

 Mode    freq (cm**-1)   T**2         TX         TY         TZ
-------------------------------------------------------------------
   6:        80.08    1.942338  (  0.606871   1.233045  -0.231613)
   7:        90.31    2.251476  ( -0.593718   1.187682   0.698847)
   8:       147.06    5.801489  (  1.458911  -1.913017  -0.115911)
   9:       201.35    0.945340  ( -0.762156   0.215590   0.563897)
  10:       233.01    1.012744  ( -0.967430  -0.264213   0.083747)
  11:       248.51   15.117704  ( -3.338479  -0.467464   1.937458)
  12:       323.36    2.780274  (  1.180856   0.655410   0.977901)
  13:       338.25   11.992250  (  1.562572   3.011758  -0.692772)
  14:       403.68    8.323620  ( -2.878755  -0.074255   0.175723)
  15:       430.50    5.659803  ( -0.312394   1.063763  -2.104904)
  16:       540.67    9.425710  (  2.147433  -1.124104   1.884312)
  17:       719.11   41.312090  ( -2.683200  -5.624274   1.574824)
  18:       741.60   35.070369  (  5.356179  -2.526057  -0.027536)
  19:       761.18    4.716220  (  1.670320  -1.068103  -0.886232)
  20:       811.36    1.369156  ( -0.576598   0.184839  -1.001262)
  21:       894.05   12.273962  ( -1.271710   1.004157  -3.106185)
  22:       922.53   17.900849  ( -4.025708   0.817099   1.013348)
  23:       947.07    3.465563  ( -0.476920  -0.069111  -1.798147)
  24:       984.99   13.016655  (  2.197308   2.727114  -0.866800)
  25:      1020.69    4.625035  (  1.979265  -0.162921  -0.825229)
  26:      1059.35    3.954362  (  1.231103   0.230585   1.544532)
  27:      1111.41    7.819726  ( -0.818517  -1.164453  -2.407033)
  28:      1141.26    3.108510  (  1.651567  -0.617046   0.009530)
  29:      1197.80   14.122144  ( -3.470057  -1.176494  -0.834693)
  30:      1245.74    1.220819  (  0.906876   0.292123   0.559516)
  31:      1313.68    5.376097  ( -2.211340  -0.545925  -0.433632)
  32:      1332.10    1.323396  ( -0.679357   0.281134  -0.884779)
  33:      1347.58    5.540935  ( -0.677404  -0.116449  -2.251333)
  34:      1401.02    8.026264  (  1.571418  -1.430660   1.873531)
  35:      1410.86    4.676062  (  0.749513   1.593420  -1.255112)
  36:      1421.21    5.458930  ( -1.817086   0.559946   1.357788)
  37:      1462.61   10.037213  (  1.950337  -1.687912   1.839660)
  38:      1473.66    0.626981  (  0.444885  -0.639630  -0.141184)
  39:      1480.76  126.491367  ( -2.109568  -0.455837  11.037812)
  40:      1492.26   15.593097  ( -0.848295  -0.437740  -3.831694)
  41:      1507.63   69.746729  (  0.364400   4.268279   7.169082)
  42:      1649.08   47.057298  ( -2.366869   6.064370  -2.163016)
  43:      1657.22   38.041061  (  5.511296   2.496681  -1.197188)
  44:      2256.31    4.653814  (  0.446459   0.363387   2.079047)
  45:      3021.50   13.781399  (  0.291591  -0.953892  -3.575816)
  46:      3034.38   24.039735  ( -0.607151   0.338882  -4.853479)
  47:      3040.51    8.095137  (  1.490220  -2.423462  -0.034888)
  48:      3060.31    1.659378  (  0.978482   0.711331  -0.442672)
  49:      3099.85    4.215071  (  0.460893  -1.899081  -0.629397)
  50:      3103.03    5.461365  (  0.522044  -0.759883  -2.147420)
  51:      3122.40    6.153772  ( -0.216242   2.067511   1.353665)
  52:      3149.32    1.774328  (  0.411746   1.247130  -0.222398)
  53:      3415.27   38.209036  ( -1.102007  -1.021051  -5.996005)
  54:      3463.78   91.690073  (  1.447126   2.190209   9.208631)
  55:      3495.95   87.227187  ( -6.532082   6.646608  -0.617811)
  56:      3509.53   93.342865  (  7.747111   5.428921  -1.962639)

--------------------------
THERMOCHEMISTRY AT 298.15K
--------------------------

Temperature         ... 298.15 K
Pressure            ... 1.00 atm
Total Mass          ... 98.17 AMU

Throughout the following assumptions are being made:
  (1) The electronic state is orbitally nondegenerate
  (2) There are no thermally accessible electronically excited states
  (3) Hindered rotations indicated by low frequency modes) are not
      treated as such but are treated as vibrations and this may
      case some error
  (4) All equations used are the standard statistical mechanics
      equations for an ideal gas
  (5) All vibrations are strinctly harmonic

------------
INNER ENERGY
------------

The inner energy is: U= E(el) + E(ZPE) + E(vib) + E(rot) + E(trans)
    E(el)   - is the total energy from the electronic structure calculation
              = E(kin-el) + E(nuc-el) + E(el-el) + E(nuc-nuc)
    E(ZPE)  - the the zero temperature vibrational energy from the frequency calculation
    E(vib)  - the the finite temperature correction to E(ZPE) due to population
              of excietd vibrational states
    E(rot)  - is the rotational thermal energy
    E(trans)- is the translational thermal energy

Summary of contributions to the inner energy U:
Electronic energy                ...   -290.05532405 Eh
Zero point energy                ...      0.17386226 Eh     109.10 kcal/mol
Thermal vibrational correction   ...      0.00606079 Eh       3.80 kcal/mol
Thermal rotational correction    ...      0.00141627 Eh       0.89 kcal/mol
Thermal translational correction ...      0.00141627 Eh       0.89 kcal/mol
-----------------------------------------------------------------------
Total thermal energy                   -289.87256846 Eh

Summary of corrections to the electronic energy:
(perhaps to be used in another calculation)
Total thermal correction                  0.00889333 Eh       5.58 kcal/mol
Non-thermal (ZPE) correction              0.17386226 Eh     109.10 kcal/mol
-----------------------------------------------------------------------
Total correction                          0.18275559 Eh     114.68 kcal/mol

--------
ENTHALPY
--------

The enthalpy is H = U + kB*T
                kB is Boltzmann's constant
Total free energy                 ...   -289.87256846 Eh
Thermal Enthalpy correction       ...      0.00094421 Eh       0.59 kcal/mol
-----------------------------------------------------------------------
Total Enthalpy                    ...   -289.87162425 Eh

-------
ENTROPY
-------

The entropy contributions are T*S = T*(S(el)+S(vib)+S(rot)+S(trans)
     S(el)   - electronic entropy
     S(vib)  - vibrational entropy
     S(rot)  - rotational entropy
     S(trans)- translational entropy
The entropies will be listed as mutliplied by the temperature to get
units of energy

Electronic entropy                ...      0.00000000 Eh      0.00 kcal/mol
Vibrational entropy               ...      0.01086674 Eh      6.82 kcal/mol
Rotational entropy                ...      0.01232488 Eh      7.73 kcal/mol
Translational entropy             ...      0.01884507 Eh     11.83 kcal/mol
-----------------------------------------------------------------------
Final entropy term                ...      0.04203669 Eh     26.38 kcal/mol

CAUTION: The rotational entropy is not quite correctly treated here
         because it includes a symmetry number that is not yet correctly
         implemented in ORCA!
For a nonlinear molecule the correct rotational entropy is:
    S(rot) = R*(ln(qrot/sn)+1.5)
    R    = 8.31441 J/mol/K = 1.987191683e-3 kcal/mol/K
    qrot = 312427.7529668
    sn is the rotational symmetry number. We have assumed 3 here
       if it is different for your molecule then you should correct
       the printed rotational entropy by manually evaluating the equation
       as given above

For convenience we print out the resulting values for sn=1 - 12:
 sn= 1  qrot/sn=  312427.7530 T*S(rot)=     8.38 kcal/mol T*S(tot)=    27.03 kcal/mol
 sn= 2  qrot/sn=  156213.8765 T*S(rot)=     7.97 kcal/mol T*S(tot)=    26.62 kcal/mol
 sn= 3  qrot/sn=  104142.5843 T*S(rot)=     7.73 kcal/mol T*S(tot)=    26.38 kcal/mol
 sn= 4  qrot/sn=   78106.9382 T*S(rot)=     7.56 kcal/mol T*S(tot)=    26.21 kcal/mol
 sn= 5  qrot/sn=   62485.5506 T*S(rot)=     7.43 kcal/mol T*S(tot)=    26.08 kcal/mol
 sn= 6  qrot/sn=   52071.2922 T*S(rot)=     7.32 kcal/mol T*S(tot)=    25.97 kcal/mol
 sn= 7  qrot/sn=   44632.5361 T*S(rot)=     7.23 kcal/mol T*S(tot)=    25.88 kcal/mol
 sn= 8  qrot/sn=   39053.4691 T*S(rot)=     7.15 kcal/mol T*S(tot)=    25.80 kcal/mol
 sn= 9  qrot/sn=   34714.1948 T*S(rot)=     7.08 kcal/mol T*S(tot)=    25.73 kcal/mol
 sn=10  qrot/sn=   31242.7753 T*S(rot)=     7.02 kcal/mol T*S(tot)=    25.67 kcal/mol
 sn=11  qrot/sn=   28402.5230 T*S(rot)=     6.96 kcal/mol T*S(tot)=    25.61 kcal/mol
 sn=12  qrot/sn=   26035.6461 T*S(rot)=     6.91 kcal/mol T*S(tot)=    25.56 kcal/mol

-------------------
GIBBS FREE ENTHALPY
-------------------

The Gibbs free enthalpy is G = H - T*S

Total enthalpy                    ...   -289.87162425 Eh
Total entropy correction          ...     -0.04203669 Eh    -26.38 kcal/mol
-----------------------------------------------------------------------
Final Gibbs free enthalpy         ...   -289.91366094 Eh

For completeness - the Gibbs free enthalpy minus the electronic energy
G-E(el)                           ...      0.14166311 Eh     88.89 kcal/mol

                             ****ORCA TERMINATED NORMALLY****
TOTAL RUN TIME: 0 days 0 hours 42 minutes 38 seconds 536 msec
