                         Program Version 3.0.3 - RELEASE   -
|  1> ! NORI PBE0 def2-TZVP UseSym TightOPT Freq TightSCF Grid3 FinalGrid5 XYZFile
|  2> % pal
|  3>     nprocs 8
|  4> end
|  5> %method
|  6>     SymThresh 5.0e-2
|  7> end
|  8> % geom
|  9>     MaxIter 10
| 10> end
| 11> % maxcore 2000
| 12> % output
| 13>     printlevel mini
| 14>     print[ P_Basis ] 0
| 15>     print[ P_SCFInfo ] 1
| 16>     print[ P_SCFIterInfo ] 1
| 17>     print[ P_OrbEn ] 0
| 18>     print[ P_Cartesian ] 0
| 19> end
| 20> % elprop
| 21>     Dipole false
| 22> end
| 23> *xyz 1 1
| 24>  C        3.0107043517    -1.7324525562    -0.1016800961
| 25>  C        3.1338070756    -0.5027357810     0.7847699919
| 26>  C        3.7765987461     0.6606699444     0.0473421373
| 27>  N        3.8103539171     1.8953742298     0.9479484560
| 28>  C        2.5010840452     2.5086289235     1.2937665130
| 29>  C        5.1823699634     0.3977827367    -0.3889220815
| 30>  C        5.6184156343     0.6254875205    -1.6196466437
| 31>  H        2.5374293090    -2.5447571574     0.4500484274
| 32>  H        3.9853395310    -2.0816833523    -0.4445426769
| 33>  H        2.3963319522    -1.5263617686    -0.9812114899
| 34>  H        3.7374172311    -0.7414101375     1.6699678449
| 35>  H        2.1400788052    -0.2188611231     1.1401666718
| 36>  H        3.1689649463     0.9611709245    -0.8113855440
| 37>  H        4.3967361684     2.5870345004     0.4764359934
| 38>  H        4.3087006777     1.6470526701     1.8056591388
| 39>  H        1.9703303349     2.7393628840     0.3721558653
| 40>  H        2.6803440206     3.4221768736     1.8585806322
| 41>  H        1.9224832662     1.8127914049     1.8949034619
| 42>  H        5.8506192647    -0.0232239353     0.3607987799
| 43>  H        4.9666229423     1.0138980023    -2.3964123812
| 44>  H        6.6417578171     0.4112651968    -1.9030230004
| 45> *
| 46>
| 47>                          ****END OF INPUT****
 Total Charge           Charge          ....    1
 Multiplicity           Mult            ....    1
 Number of Electrons    NEL             ....   56
FINAL SINGLE POINT ENERGY      -291.307364016016
FINAL SINGLE POINT ENERGY      -291.307366445392
FINAL SINGLE POINT ENERGY      -291.307369241811
FINAL SINGLE POINT ENERGY      -291.307370023435

CARTESIAN COORDINATES (ANGSTROEM)
---------------------------------
  C      1.264075    0.002829   -2.117479
  C      1.271673    0.207776   -0.610226
  C     -0.073112   -0.133311    0.011426
  N      0.006264    0.007061    1.532096
  C      0.845178   -0.988762    2.249189
  C     -1.192592    0.741882   -0.453324
  C     -2.359061    0.273564   -0.873891
  H      2.243985    0.241042   -2.531081
  H      0.527521    0.640930   -2.607592
  H      1.037699   -1.034475   -2.374284
  H      1.516223    1.252186   -0.378217
  H      2.057483   -0.412720   -0.170999
  H     -0.324068   -1.184615   -0.155833
  H     -0.952462   -0.038579    1.883083
  H      0.336327    0.951127    1.745092
  H      0.499094   -1.986676    1.987151
  H      0.741800   -0.828690    3.321216
  H      1.884224   -0.863995    1.958047
  H     -1.000043    1.813770   -0.454696
  H     -2.569046   -0.790968   -0.916528
  H     -3.143628    0.939452   -1.212547

FINAL SINGLE POINT ENERGY      -291.307370761997
                    ***********************HURRAY********************
 Multiplicity           Mult            ....    1
 Number of Electrons    NEL             ....   56
 Basis Dimension        Dim             ....  301
FINAL SINGLE POINT ENERGY      -291.307371226481

VIBRATIONAL FREQUENCIES
-----------------------

   0:         0.00 cm**-1
   1:         0.00 cm**-1
   2:         0.00 cm**-1
   3:         0.00 cm**-1
   4:         0.00 cm**-1
   5:         0.00 cm**-1
   6:        53.52 cm**-1
   7:        86.99 cm**-1
   8:       100.95 cm**-1
   9:       191.97 cm**-1
  10:       210.47 cm**-1
  11:       243.50 cm**-1
  12:       253.81 cm**-1
  13:       306.51 cm**-1
  14:       388.57 cm**-1
  15:       453.57 cm**-1
  16:       488.78 cm**-1
  17:       674.65 cm**-1
  18:       781.41 cm**-1
  19:       799.22 cm**-1
  20:       883.10 cm**-1
  21:       923.65 cm**-1
  22:       965.62 cm**-1
  23:      1020.96 cm**-1
  24:      1022.85 cm**-1
  25:      1029.90 cm**-1
  26:      1035.78 cm**-1
  27:      1068.32 cm**-1
  28:      1084.05 cm**-1
  29:      1137.80 cm**-1
  30:      1206.29 cm**-1
  31:      1215.49 cm**-1
  32:      1282.68 cm**-1
  33:      1321.64 cm**-1
  34:      1329.34 cm**-1
  35:      1342.09 cm**-1
  36:      1367.57 cm**-1
  37:      1398.94 cm**-1
  38:      1412.97 cm**-1
  39:      1422.17 cm**-1
  40:      1456.10 cm**-1
  41:      1461.31 cm**-1
  42:      1479.43 cm**-1
  43:      1491.11 cm**-1
  44:      1491.78 cm**-1
  45:      1495.74 cm**-1
  46:      1501.80 cm**-1
  47:      1646.01 cm**-1
  48:      1721.50 cm**-1
  49:      3033.57 cm**-1
  50:      3066.05 cm**-1
  51:      3086.06 cm**-1
  52:      3095.30 cm**-1
  53:      3100.92 cm**-1
  54:      3142.28 cm**-1
  55:      3150.79 cm**-1
  56:      3156.58 cm**-1
  57:      3159.82 cm**-1
  58:      3189.51 cm**-1
  59:      3207.92 cm**-1
  60:      3254.51 cm**-1
  61:      3434.49 cm**-1
  62:      3487.12 cm**-1

IR SPECTRUM
-----------

 Mode    freq (cm**-1)   T**2         TX         TY         TZ
-------------------------------------------------------------------
   6:        53.52    1.255887  ( -0.887189  -0.681774   0.062991)
   7:        86.99    1.241581  (  0.996837   0.002090   0.497889)
   8:       100.95    0.811296  ( -0.607206  -0.663061  -0.054288)
   9:       191.97    0.208700  ( -0.137246  -0.306619  -0.309593)
  10:       210.47    0.378335  (  0.502917   0.281650  -0.214669)
  11:       243.50    2.245857  ( -1.142114  -0.969288   0.043733)
  12:       253.81    0.267582  (  0.418451   0.135075   0.272461)
  13:       306.51    2.004978  (  1.372015  -0.129745   0.325146)
  14:       388.57    1.331646  ( -0.015415   0.871051  -0.756755)
  15:       453.57    0.462965  ( -0.015654   0.658650  -0.170002)
  16:       488.78    1.386846  (  0.360685   0.400916  -1.046909)
  17:       674.65    9.521099  ( -0.998526   0.712358   2.831358)
  18:       781.41    7.887634  ( -0.109195   1.778057  -2.171226)
  19:       799.22   10.806763  (  2.478601   0.483695  -2.104600)
  20:       883.10   13.890913  (  2.226617   1.226047   2.725784)
  21:       923.65   28.363533  ( -0.905215   1.119430  -5.127475)
  22:       965.62   11.023727  ( -2.194542  -0.537938   2.432762)
  23:      1020.96   59.708554  ( -0.678192  -0.940312   7.639661)
  24:      1022.85   18.601024  (  3.424128  -1.637827  -2.047900)
  25:      1029.90    0.826887  ( -0.483998  -0.395336  -0.660562)
  26:      1035.78    0.534929  (  0.415262  -0.569485  -0.195380)
  27:      1068.32    1.766514  ( -0.777936  -0.147605   1.067493)
  28:      1084.05   14.634957  ( -0.305799  -0.147968  -3.810453)
  29:      1137.80    3.296908  (  1.507379  -0.408984   0.925984)
  30:      1206.29    4.497623  ( -1.660427   0.886146  -0.977420)
  31:      1215.49    1.837045  (  0.897117  -0.186039   0.998807)
  32:      1282.68    1.062824  ( -0.445851  -0.187976   0.910333)
  33:      1321.64    1.752989  ( -0.544435  -1.072974  -0.552546)
  34:      1329.34    3.442916  ( -1.044993  -1.521809   0.187097)
  35:      1342.09    7.829209  ( -1.298755   0.583443  -2.408742)
  36:      1367.57    8.130087  ( -1.103952   1.364270  -2.247253)
  37:      1398.94    0.614976  ( -0.652418   0.090012  -0.425704)
  38:      1412.97   59.426134  (  2.940837  -1.102940   7.039967)
  39:      1422.17    2.378509  ( -0.585488   0.692241   1.247604)
  40:      1456.10    4.671423  ( -0.583803   1.636315  -1.285717)
  41:      1461.31   28.713933  (  4.367602   1.721681   2.583369)
  42:      1479.43    1.974340  ( -1.394118   0.100175  -0.144014)
  43:      1491.11   19.741327  ( -1.184375  -3.956539   1.638408)
  44:      1491.78   16.781175  (  2.854541  -0.645837  -2.866298)
  45:      1495.74    7.051970  (  1.007792  -0.114596  -2.454219)
  46:      1501.80   25.158511  (  2.899454   2.211787   3.443788)
  47:      1646.01   52.752585  ( -3.957055   4.950126   3.548317)
  48:      1721.50    1.394131  ( -0.458476   0.665180  -0.861085)
  49:      3033.57   13.837535  ( -1.321585  -1.716260  -3.024136)
  50:      3066.05    7.276895  ( -0.636545  -1.010375  -2.418852)
  51:      3086.06    2.667740  ( -1.323135  -0.376004  -0.880725)
  52:      3095.30    1.400288  (  0.237596  -1.054029   0.482555)
  53:      3100.92    7.783959  ( -1.254341   2.184968  -1.198542)
  54:      3142.28   10.576645  (  0.445124  -3.154247   0.655159)
  55:      3150.79    2.202159  ( -0.209507  -1.468486  -0.042615)
  56:      3156.58    7.057347  (  2.605751  -0.490558   0.163596)
  57:      3159.82    0.672284  ( -0.435649   0.641992  -0.265217)
  58:      3189.51    0.033417  (  0.054543  -0.110658  -0.134896)
  59:      3207.92    0.063371  (  0.130675  -0.115058   0.181815)
  60:      3254.51    0.160685  ( -0.339932  -0.134470  -0.164465)
  61:      3434.49   36.746976  (  2.729609  -4.316427  -3.265680)
  62:      3487.12   59.265303  (  6.414252   4.213031  -0.610767)

--------------------------
THERMOCHEMISTRY AT 298.15K
--------------------------

Temperature         ... 298.15 K
Pressure            ... 1.00 atm
Total Mass          ... 100.18 AMU

Throughout the following assumptions are being made:
  (1) The electronic state is orbitally nondegenerate
  (2) There are no thermally accessible electronically excited states
  (3) Hindered rotations indicated by low frequency modes) are not
      treated as such but are treated as vibrations and this may
      case some error
  (4) All equations used are the standard statistical mechanics
      equations for an ideal gas
  (5) All vibrations are strinctly harmonic

------------
INNER ENERGY
------------

The inner energy is: U= E(el) + E(ZPE) + E(vib) + E(rot) + E(trans)
    E(el)   - is the total energy from the electronic structure calculation
              = E(kin-el) + E(nuc-el) + E(el-el) + E(nuc-nuc)
    E(ZPE)  - the the zero temperature vibrational energy from the frequency calculation
    E(vib)  - the the finite temperature correction to E(ZPE) due to population
              of excietd vibrational states
    E(rot)  - is the rotational thermal energy
    E(trans)- is the translational thermal energy

Summary of contributions to the inner energy U:
Electronic energy                ...   -291.30737123 Eh
Zero point energy                ...      0.19777879 Eh     124.11 kcal/mol
Thermal vibrational correction   ...      0.00643008 Eh       4.03 kcal/mol
Thermal rotational correction    ...      0.00141627 Eh       0.89 kcal/mol
Thermal translational correction ...      0.00141627 Eh       0.89 kcal/mol
-----------------------------------------------------------------------
Total thermal energy                   -291.10032982 Eh

Summary of corrections to the electronic energy:
(perhaps to be used in another calculation)
Total thermal correction                  0.00926263 Eh       5.81 kcal/mol
Non-thermal (ZPE) correction              0.19777879 Eh     124.11 kcal/mol
-----------------------------------------------------------------------
Total correction                          0.20704141 Eh     129.92 kcal/mol

--------
ENTHALPY
--------

The enthalpy is H = U + kB*T
                kB is Boltzmann's constant
Total free energy                 ...   -291.10032982 Eh
Thermal Enthalpy correction       ...      0.00094421 Eh       0.59 kcal/mol
-----------------------------------------------------------------------
Total Enthalpy                    ...   -291.09938561 Eh

-------
ENTROPY
-------

The entropy contributions are T*S = T*(S(el)+S(vib)+S(rot)+S(trans)
     S(el)   - electronic entropy
     S(vib)  - vibrational entropy
     S(rot)  - rotational entropy
     S(trans)- translational entropy
The entropies will be listed as mutliplied by the temperature to get
units of energy

Electronic entropy                ...      0.00000000 Eh      0.00 kcal/mol
Vibrational entropy               ...      0.01209894 Eh      7.59 kcal/mol
Rotational entropy                ...      0.01236529 Eh      7.76 kcal/mol
Translational entropy             ...      0.01887386 Eh     11.84 kcal/mol
-----------------------------------------------------------------------
Final entropy term                ...      0.04333809 Eh     27.20 kcal/mol

CAUTION: The rotational entropy is not quite correctly treated here
         because it includes a symmetry number that is not yet correctly
         implemented in ORCA!
For a nonlinear molecule the correct rotational entropy is:
    S(rot) = R*(ln(qrot/sn)+1.5)
    R    = 8.31441 J/mol/K = 1.987191683e-3 kcal/mol/K
    qrot = 326089.8515941
    sn is the rotational symmetry number. We have assumed 3 here
       if it is different for your molecule then you should correct
       the printed rotational entropy by manually evaluating the equation
       as given above

For convenience we print out the resulting values for sn=1 - 12:
 sn= 1  qrot/sn=  326089.8516 T*S(rot)=     8.41 kcal/mol T*S(tot)=    27.85 kcal/mol
 sn= 2  qrot/sn=  163044.9258 T*S(rot)=     8.00 kcal/mol T*S(tot)=    27.44 kcal/mol
 sn= 3  qrot/sn=  108696.6172 T*S(rot)=     7.76 kcal/mol T*S(tot)=    27.20 kcal/mol
 sn= 4  qrot/sn=   81522.4629 T*S(rot)=     7.59 kcal/mol T*S(tot)=    27.02 kcal/mol
 sn= 5  qrot/sn=   65217.9703 T*S(rot)=     7.46 kcal/mol T*S(tot)=    26.89 kcal/mol
 sn= 6  qrot/sn=   54348.3086 T*S(rot)=     7.35 kcal/mol T*S(tot)=    26.78 kcal/mol
 sn= 7  qrot/sn=   46584.2645 T*S(rot)=     7.26 kcal/mol T*S(tot)=    26.69 kcal/mol
 sn= 8  qrot/sn=   40761.2314 T*S(rot)=     7.18 kcal/mol T*S(tot)=    26.61 kcal/mol
 sn= 9  qrot/sn=   36232.2057 T*S(rot)=     7.11 kcal/mol T*S(tot)=    26.54 kcal/mol
 sn=10  qrot/sn=   32608.9852 T*S(rot)=     7.05 kcal/mol T*S(tot)=    26.48 kcal/mol
 sn=11  qrot/sn=   29644.5320 T*S(rot)=     6.99 kcal/mol T*S(tot)=    26.43 kcal/mol
 sn=12  qrot/sn=   27174.1543 T*S(rot)=     6.94 kcal/mol T*S(tot)=    26.37 kcal/mol

-------------------
GIBBS FREE ENTHALPY
-------------------

The Gibbs free enthalpy is G = H - T*S

Total enthalpy                    ...   -291.09938561 Eh
Total entropy correction          ...     -0.04333809 Eh    -27.20 kcal/mol
-----------------------------------------------------------------------
Final Gibbs free enthalpy         ...   -291.14272370 Eh

For completeness - the Gibbs free enthalpy minus the electronic energy
G-E(el)                           ...      0.16464753 Eh    103.32 kcal/mol

                             ****ORCA TERMINATED NORMALLY****
TOTAL RUN TIME: 0 days 0 hours 51 minutes 15 seconds 831 msec
