                         Program Version 3.0.3 - RELEASE   -
|  1> ! NORI PBE0 def2-TZVP UseSym TightOPT Freq TightSCF Grid3 FinalGrid5 XYZFile
|  2> % pal
|  3>     nprocs 8
|  4> end
|  5> %method
|  6>     SymThresh 5.0e-2
|  7> end
|  8> % geom
|  9>     MaxIter 10
| 10> end
| 11> % maxcore 2000
| 12> % output
| 13>     printlevel mini
| 14>     print[ P_Basis ] 0
| 15>     print[ P_SCFInfo ] 1
| 16>     print[ P_SCFIterInfo ] 1
| 17>     print[ P_OrbEn ] 0
| 18>     print[ P_Cartesian ] 0
| 19> end
| 20> % elprop
| 21>     Dipole false
| 22> end
| 23> *xyz 1 1
| 24>  C        2.7891380719    -1.2407188350    -1.1923232477
| 25>  C        2.3715639192    -0.1492173187    -0.2220323935
| 26>  C        2.9487039386     1.2105807723    -0.6076316524
| 27>  N        2.4011920083     2.2681526315     0.3369423408
| 28>  C        2.7117958127     3.6739507882    -0.0376256249
| 29>  C        4.3963255824     1.2705625295    -0.5638377658
| 30>  C        5.5934820306     1.3007833614    -0.5138287411
| 31>  H        2.3403882657    -2.1891577109    -0.8978592183
| 32>  H        3.8723439969    -1.3690024630    -1.2015727019
| 33>  H        2.4595310272    -1.0176948104    -2.2095508232
| 34>  H        2.6993176942    -0.4016214781     0.7918259907
| 35>  H        1.2780932936    -0.0671867767    -0.2075395268
| 36>  H        2.5891034863     1.5005435995    -1.6009672705
| 37>  H        2.7752730607     2.0721238003     1.2684959023
| 38>  H        1.3890035071     2.1404940944     0.3980145655
| 39>  H        3.7928422020     3.7818401975    -0.0916596825
| 40>  H        2.2985854756     4.3395242809     0.7179720653
| 41>  H        2.2638813556     3.8818947493    -1.0073365071
| 42>  H        6.6608152714     1.3218285876    -0.4789057089
| 43> *
| 44>
| 45>                          ****END OF INPUT****
 Total Charge           Charge          ....    1
 Multiplicity           Mult            ....    1
 Number of Electrons    NEL             ....   54
FINAL SINGLE POINT ENERGY      -290.051009016913

CARTESIAN COORDINATES (ANGSTROEM)
---------------------------------
  C      1.879485   -0.000062   -1.825314
  C      1.536815    0.342821   -0.385802
  C      0.220471   -0.291914    0.056148
  N     -0.000157    0.000140    1.531361
  C     -1.138245   -0.725156    2.157209
  C     -0.936766    0.181103   -0.677340
  C     -1.881210    0.591270   -1.290858
  H      2.833630    0.451764   -2.096395
  H      1.121035    0.376127   -2.512938
  H      1.969201   -1.079235   -1.967723
  H      1.467804    1.428990   -0.263951
  H      2.332154   -0.016555    0.278106
  H      0.290216   -1.383053   -0.012205
  H     -0.142847    1.008369    1.627528
  H      0.866238   -0.218748    2.027399
  H     -2.045244   -0.471851    1.613017
  H     -1.220147   -0.420673    3.199069
  H     -0.946319   -1.794373    2.091932
  H     -2.719557    0.950413   -1.846444

FINAL SINGLE POINT ENERGY      -290.051009590695
                    ***********************HURRAY********************
 Multiplicity           Mult            ....    1
 Number of Electrons    NEL             ....   54
 Basis Dimension        Dim             ....  289
FINAL SINGLE POINT ENERGY      -290.051009825039

VIBRATIONAL FREQUENCIES
-----------------------

   0:         0.00 cm**-1
   1:         0.00 cm**-1
   2:         0.00 cm**-1
   3:         0.00 cm**-1
   4:         0.00 cm**-1
   5:         0.00 cm**-1
   6:        85.90 cm**-1
   7:       106.26 cm**-1
   8:       153.10 cm**-1
   9:       185.78 cm**-1
  10:       188.38 cm**-1
  11:       243.26 cm**-1
  12:       255.11 cm**-1
  13:       362.98 cm**-1
  14:       392.06 cm**-1
  15:       528.91 cm**-1
  16:       559.78 cm**-1
  17:       724.72 cm**-1
  18:       767.28 cm**-1
  19:       771.44 cm**-1
  20:       806.96 cm**-1
  21:       889.47 cm**-1
  22:       930.02 cm**-1
  23:       979.23 cm**-1
  24:      1018.66 cm**-1
  25:      1066.56 cm**-1
  26:      1095.45 cm**-1
  27:      1114.04 cm**-1
  28:      1166.00 cm**-1
  29:      1201.61 cm**-1
  30:      1283.47 cm**-1
  31:      1327.66 cm**-1
  32:      1335.73 cm**-1
  33:      1368.27 cm**-1
  34:      1407.10 cm**-1
  35:      1415.79 cm**-1
  36:      1426.11 cm**-1
  37:      1454.64 cm**-1
  38:      1475.69 cm**-1
  39:      1490.40 cm**-1
  40:      1491.58 cm**-1
  41:      1496.42 cm**-1
  42:      1497.92 cm**-1
  43:      1639.96 cm**-1
  44:      2250.42 cm**-1
  45:      3036.11 cm**-1
  46:      3066.73 cm**-1
  47:      3067.63 cm**-1
  48:      3090.34 cm**-1
  49:      3093.41 cm**-1
  50:      3145.66 cm**-1
  51:      3158.28 cm**-1
  52:      3192.84 cm**-1
  53:      3200.58 cm**-1
  54:      3433.39 cm**-1
  55:      3453.23 cm**-1
  56:      3489.59 cm**-1

IR SPECTRUM
-----------

 Mode    freq (cm**-1)   T**2         TX         TY         TZ
-------------------------------------------------------------------
   6:        85.90    0.965553  ( -0.607596   0.768460  -0.076479)
   7:       106.26    0.730689  (  0.431478  -0.731486  -0.097175)
   8:       153.10    1.798034  ( -1.120215   0.712716  -0.187585)
   9:       185.78    1.124519  (  0.735397  -0.597822  -0.475729)
  10:       188.38    1.562619  ( -0.201810  -1.219334   0.187396)
  11:       243.26    4.600665  ( -1.216843   1.664759   0.590370)
  12:       255.11    3.631828  ( -0.305453  -1.862541  -0.263567)
  13:       362.98    4.000156  (  1.099905   1.074171  -1.279266)
  14:       392.06    4.517023  ( -1.159675  -1.028234   1.454273)
  15:       528.91    7.470326  (  1.631259   1.662198   1.430531)
  16:       559.78   12.613817  ( -0.724594   0.040817   3.476653)
  17:       724.72   39.275057  (  2.876652   5.460082  -1.089694)
  18:       767.28   15.094848  ( -2.882161   2.149116   1.472853)
  19:       771.44   20.231629  (  1.000099  -1.030313  -4.262615)
  20:       806.96    4.464796  ( -0.348242   0.316060  -2.060007)
  21:       889.47   12.495529  ( -1.346626   3.147152   0.881793)
  22:       930.02   15.694767  ( -0.274818  -0.222466   3.945852)
  23:       979.23   17.102486  ( -2.869846   0.786100  -2.872023)
  24:      1018.66   20.801546  ( -2.323746  -1.505340   3.624321)
  25:      1066.56    1.355687  (  0.680628  -0.895990  -0.299391)
  26:      1095.45   19.328736  (  2.082598   0.698764  -3.808313)
  27:      1114.04    7.821923  ( -1.079697  -0.329702   2.558803)
  28:      1166.00    3.629739  ( -1.348121   0.489828   1.253944)
  29:      1201.61    3.426850  (  1.285647  -0.105730  -1.327698)
  30:      1283.47    1.281275  (  0.403665  -0.494179   0.934942)
  31:      1327.66    2.190101  ( -0.969869   1.091016   0.243190)
  32:      1335.73    9.453581  ( -0.122899   0.691093  -2.993471)
  33:      1368.27    4.453100  ( -0.240824   0.851147  -1.915895)
  34:      1407.10   26.469475  ( -3.172892  -0.658788   3.996027)
  35:      1415.79   21.306557  ( -1.925761   0.753270  -4.126813)
  36:      1426.11   30.687236  (  3.689120  -0.377322  -4.115247)
  37:      1454.64    4.919482  (  1.124607   1.006474  -1.625346)
  38:      1475.69    5.735433  ( -1.514193   1.051648   1.528623)
  39:      1490.40    7.667925  ( -1.582647   1.648812  -1.563513)
  40:      1491.58   20.711688  ( -2.384748   3.269140  -2.082641)
  41:      1496.42   10.475501  ( -2.084025  -0.569419   2.410000)
  42:      1497.92   24.511180  ( -0.232152  -3.304241  -3.679576)
  43:      1639.96   57.050314  ( -4.561439  -4.449789  -4.054993)
  44:      2250.42   26.404654  ( -3.530252   1.442249  -3.444110)
  45:      3036.11   17.676312  (  1.332706   0.567771   3.946878)
  46:      3066.73    0.731341  (  0.061891  -0.376109  -0.765541)
  47:      3067.63    5.462485  (  0.096698  -1.210464  -1.996975)
  48:      3090.34    6.181553  (  1.402659  -1.990239   0.503040)
  49:      3093.41    0.401746  ( -0.133392   0.416407  -0.458866)
  50:      3145.66    8.388374  (  0.584903  -2.749032   0.699347)
  51:      3158.28    3.943516  (  1.882680   0.022166   0.631301)
  52:      3192.84    0.123714  ( -0.161382  -0.217006  -0.224896)
  53:      3200.58    0.910942  (  0.432833  -0.197591   0.827378)
  54:      3433.39   43.550379  ( -3.358213  -4.275741  -3.740431)
  55:      3453.23   93.587099  (  7.692397  -3.281398   4.862773)
  56:      3489.59   63.394596  ( -5.172685   5.734759  -1.936611)

--------------------------
THERMOCHEMISTRY AT 298.15K
--------------------------

Temperature         ... 298.15 K
Pressure            ... 1.00 atm
Total Mass          ... 98.17 AMU

Throughout the following assumptions are being made:
  (1) The electronic state is orbitally nondegenerate
  (2) There are no thermally accessible electronically excited states
  (3) Hindered rotations indicated by low frequency modes) are not
      treated as such but are treated as vibrations and this may
      case some error
  (4) All equations used are the standard statistical mechanics
      equations for an ideal gas
  (5) All vibrations are strinctly harmonic

------------
INNER ENERGY
------------

The inner energy is: U= E(el) + E(ZPE) + E(vib) + E(rot) + E(trans)
    E(el)   - is the total energy from the electronic structure calculation
              = E(kin-el) + E(nuc-el) + E(el-el) + E(nuc-nuc)
    E(ZPE)  - the the zero temperature vibrational energy from the frequency calculation
    E(vib)  - the the finite temperature correction to E(ZPE) due to population
              of excietd vibrational states
    E(rot)  - is the rotational thermal energy
    E(trans)- is the translational thermal energy

Summary of contributions to the inner energy U:
Electronic energy                ...   -290.05100983 Eh
Zero point energy                ...      0.17401089 Eh     109.19 kcal/mol
Thermal vibrational correction   ...      0.00605446 Eh       3.80 kcal/mol
Thermal rotational correction    ...      0.00141627 Eh       0.89 kcal/mol
Thermal translational correction ...      0.00141627 Eh       0.89 kcal/mol
-----------------------------------------------------------------------
Total thermal energy                   -289.86811194 Eh

Summary of corrections to the electronic energy:
(perhaps to be used in another calculation)
Total thermal correction                  0.00888700 Eh       5.58 kcal/mol
Non-thermal (ZPE) correction              0.17401089 Eh     109.19 kcal/mol
-----------------------------------------------------------------------
Total correction                          0.18289789 Eh     114.77 kcal/mol

--------
ENTHALPY
--------

The enthalpy is H = U + kB*T
                kB is Boltzmann's constant
Total free energy                 ...   -289.86811194 Eh
Thermal Enthalpy correction       ...      0.00094421 Eh       0.59 kcal/mol
-----------------------------------------------------------------------
Total Enthalpy                    ...   -289.86716773 Eh

-------
ENTROPY
-------

The entropy contributions are T*S = T*(S(el)+S(vib)+S(rot)+S(trans)
     S(el)   - electronic entropy
     S(vib)  - vibrational entropy
     S(rot)  - rotational entropy
     S(trans)- translational entropy
The entropies will be listed as mutliplied by the temperature to get
units of energy

Electronic entropy                ...      0.00000000 Eh      0.00 kcal/mol
Vibrational entropy               ...      0.01085306 Eh      6.81 kcal/mol
Rotational entropy                ...      0.01228060 Eh      7.71 kcal/mol
Translational entropy             ...      0.01884507 Eh     11.83 kcal/mol
-----------------------------------------------------------------------
Final entropy term                ...      0.04197873 Eh     26.34 kcal/mol

CAUTION: The rotational entropy is not quite correctly treated here
         because it includes a symmetry number that is not yet correctly
         implemented in ORCA!
For a nonlinear molecule the correct rotational entropy is:
    S(rot) = R*(ln(qrot/sn)+1.5)
    R    = 8.31441 J/mol/K = 1.987191683e-3 kcal/mol/K
    qrot = 298113.6505614
    sn is the rotational symmetry number. We have assumed 3 here
       if it is different for your molecule then you should correct
       the printed rotational entropy by manually evaluating the equation
       as given above

For convenience we print out the resulting values for sn=1 - 12:
 sn= 1  qrot/sn=  298113.6506 T*S(rot)=     8.36 kcal/mol T*S(tot)=    26.99 kcal/mol
 sn= 2  qrot/sn=  149056.8253 T*S(rot)=     7.95 kcal/mol T*S(tot)=    26.58 kcal/mol
 sn= 3  qrot/sn=   99371.2169 T*S(rot)=     7.71 kcal/mol T*S(tot)=    26.34 kcal/mol
 sn= 4  qrot/sn=   74528.4126 T*S(rot)=     7.54 kcal/mol T*S(tot)=    26.17 kcal/mol
 sn= 5  qrot/sn=   59622.7301 T*S(rot)=     7.40 kcal/mol T*S(tot)=    26.04 kcal/mol
 sn= 6  qrot/sn=   49685.6084 T*S(rot)=     7.30 kcal/mol T*S(tot)=    25.93 kcal/mol
 sn= 7  qrot/sn=   42587.6644 T*S(rot)=     7.20 kcal/mol T*S(tot)=    25.84 kcal/mol
 sn= 8  qrot/sn=   37264.2063 T*S(rot)=     7.13 kcal/mol T*S(tot)=    25.76 kcal/mol
 sn= 9  qrot/sn=   33123.7390 T*S(rot)=     7.06 kcal/mol T*S(tot)=    25.69 kcal/mol
 sn=10  qrot/sn=   29811.3651 T*S(rot)=     6.99 kcal/mol T*S(tot)=    25.63 kcal/mol
 sn=11  qrot/sn=   27101.2410 T*S(rot)=     6.94 kcal/mol T*S(tot)=    25.57 kcal/mol
 sn=12  qrot/sn=   24842.8042 T*S(rot)=     6.88 kcal/mol T*S(tot)=    25.52 kcal/mol

-------------------
GIBBS FREE ENTHALPY
-------------------

The Gibbs free enthalpy is G = H - T*S

Total enthalpy                    ...   -289.86716773 Eh
Total entropy correction          ...     -0.04197873 Eh    -26.34 kcal/mol
-----------------------------------------------------------------------
Final Gibbs free enthalpy         ...   -289.90914646 Eh

For completeness - the Gibbs free enthalpy minus the electronic energy
G-E(el)                           ...      0.14186337 Eh     89.02 kcal/mol

                             ****ORCA TERMINATED NORMALLY****
TOTAL RUN TIME: 0 days 0 hours 43 minutes 23 seconds 870 msec
