                         Program Version 3.0.3 - RELEASE   -
|  1> ! NORI PBE0 def2-TZVP UseSym TightOPT Freq TightSCF Grid3 FinalGrid5 XYZFile
|  2> % pal
|  3>     nprocs 8
|  4> end
|  5> %method
|  6>     SymThresh 5.0e-2
|  7> end
|  8> % geom
|  9>     MaxIter 10
| 10> end
| 11> % maxcore 2000
| 12> % output
| 13>     printlevel mini
| 14>     print[ P_Basis ] 0
| 15>     print[ P_SCFInfo ] 1
| 16>     print[ P_SCFIterInfo ] 1
| 17>     print[ P_OrbEn ] 0
| 18>     print[ P_Cartesian ] 0
| 19> end
| 20> % elprop
| 21>     Dipole false
| 22> end
| 23> *xyz 1 1
| 24>  C        2.6036247127     2.7721958109    -0.5829174685
| 25>  C        2.9262032348     2.4264315747    -2.0281362542
| 26>  C        3.5937042807     1.0768519705    -2.2040504796
| 27>  N        4.8618738309     0.9275296732    -1.4083409208
| 28>  C        5.2505858946    -0.5007904136    -1.2927306135
| 29>  C        5.9763125770     1.7799615783    -1.9466410246
| 30>  C        7.1292376677     1.9241606359    -0.9821724702
| 31>  H        2.0205668747     3.6920820820    -0.5328017992
| 32>  H        3.4985541238     2.9531073965     0.0240009435
| 33>  H        2.0151802898     1.9865039234    -0.1006180186
| 34>  H        2.0013121476     2.3750206263    -2.6088438812
| 35>  H        3.5151278388     3.2210807680    -2.4944127786
| 36>  H        3.8568800130     0.8764551152    -3.2443590235
| 37>  H        2.9297006615     0.2803789318    -1.8611288108
| 38>  H        4.6545271714     1.2703295417    -0.4672999028
| 39>  H        5.4320325425    -0.8915074253    -2.2929239525
| 40>  H        4.4384857540    -1.0520304216    -0.8226335801
| 41>  H        6.1506561046    -0.5884934166    -0.6898524017
| 42>  H        5.5386782488     2.7520849309    -2.1691662247
| 43>  H        6.2796185181     1.3217871899    -2.8899266249
| 44>  H        6.8037730481     2.3285249523    -0.0202949365
| 45>  H        7.8439231371     2.6332709847    -1.4027989932
| 46>  H        7.6662613280     0.9912339910    -0.8107907840
| 47> *
| 48>
| 49>                          ****END OF INPUT****
 Total Charge           Charge          ....    1
 Multiplicity           Mult            ....    1
 Number of Electrons    NEL             ....   58
FINAL SINGLE POINT ENERGY      -292.538522524356
FINAL SINGLE POINT ENERGY      -292.538526307227

CARTESIAN COORDINATES (ANGSTROEM)
---------------------------------
  C      1.772408    0.004200   -1.863296
  C      0.708142    1.054190   -1.583916
  C      0.413003    1.257409   -0.110902
  N     -0.001371   -0.002449    0.599403
  C      0.117350    0.155965    2.071128
  C     -1.368817   -0.467901    0.186062
  C     -1.663307   -1.887799    0.607764
  H      2.026623   -0.006230   -2.923317
  H      1.442815   -1.014031   -1.626202
  H      2.693577    0.204585   -1.309457
  H      1.047115    2.026693   -1.951561
  H     -0.205812    0.837830   -2.142981
  H     -0.386217    1.982230    0.055295
  H      1.306852    1.611676    0.406405
  H      0.658943   -0.728134    0.311054
  H     -0.548914    0.957572    2.386935
  H      1.145932    0.411924    2.318576
  H     -0.157697   -0.772868    2.564149
  H     -1.410845   -0.373901   -0.898235
  H     -2.074193    0.246166    0.615580
  H     -0.918151   -2.588043    0.220889
  H     -2.626276   -2.179630    0.186390
  H     -1.736083   -2.008541    1.688527

FINAL SINGLE POINT ENERGY      -292.538526955349
                    ***********************HURRAY********************
 Multiplicity           Mult            ....    1
 Number of Electrons    NEL             ....   58
 Basis Dimension        Dim             ....  313
FINAL SINGLE POINT ENERGY      -292.538527264145

VIBRATIONAL FREQUENCIES
-----------------------

   0:         0.00 cm**-1
   1:         0.00 cm**-1
   2:         0.00 cm**-1
   3:         0.00 cm**-1
   4:         0.00 cm**-1
   5:         0.00 cm**-1
   6:        37.28 cm**-1
   7:        58.02 cm**-1
   8:       129.15 cm**-1
   9:       200.23 cm**-1
  10:       215.85 cm**-1
  11:       248.81 cm**-1
  12:       258.64 cm**-1
  13:       311.98 cm**-1
  14:       357.68 cm**-1
  15:       418.18 cm**-1
  16:       456.26 cm**-1
  17:       511.79 cm**-1
  18:       737.59 cm**-1
  19:       793.84 cm**-1
  20:       828.06 cm**-1
  21:       878.81 cm**-1
  22:       908.12 cm**-1
  23:       943.81 cm**-1
  24:      1000.79 cm**-1
  25:      1047.98 cm**-1
  26:      1062.17 cm**-1
  27:      1076.63 cm**-1
  28:      1088.42 cm**-1
  29:      1106.01 cm**-1
  30:      1185.30 cm**-1
  31:      1196.16 cm**-1
  32:      1222.50 cm**-1
  33:      1278.66 cm**-1
  34:      1302.72 cm**-1
  35:      1339.98 cm**-1
  36:      1369.50 cm**-1
  37:      1392.03 cm**-1
  38:      1397.80 cm**-1
  39:      1418.30 cm**-1
  40:      1423.28 cm**-1
  41:      1425.74 cm**-1
  42:      1432.78 cm**-1
  43:      1457.38 cm**-1
  44:      1475.33 cm**-1
  45:      1479.91 cm**-1
  46:      1485.07 cm**-1
  47:      1487.58 cm**-1
  48:      1493.10 cm**-1
  49:      1499.32 cm**-1
  50:      1503.11 cm**-1
  51:      1505.86 cm**-1
  52:      1509.39 cm**-1
  53:      3034.75 cm**-1
  54:      3063.87 cm**-1
  55:      3073.54 cm**-1
  56:      3084.11 cm**-1
  57:      3092.80 cm**-1
  58:      3096.47 cm**-1
  59:      3098.18 cm**-1
  60:      3118.04 cm**-1
  61:      3138.75 cm**-1
  62:      3143.31 cm**-1
  63:      3147.92 cm**-1
  64:      3151.58 cm**-1
  65:      3167.43 cm**-1
  66:      3186.11 cm**-1
  67:      3201.00 cm**-1
  68:      3438.43 cm**-1

IR SPECTRUM
-----------

 Mode    freq (cm**-1)   T**2         TX         TY         TZ
-------------------------------------------------------------------
   6:        37.28    0.411658  ( -0.584693  -0.044376  -0.260428)
   7:        58.02    0.543900  ( -0.059702  -0.636070  -0.368442)
   8:       129.15    2.586769  ( -0.572475  -0.252162   1.481707)
   9:       200.23    0.600823  (  0.500662   0.391428  -0.443784)
  10:       215.85    0.246169  ( -0.086544  -0.050670   0.485913)
  11:       248.81    1.766633  (  1.099263   0.325394  -0.672587)
  12:       258.64    0.962068  ( -0.736237  -0.159694  -0.628108)
  13:       311.98    0.361624  ( -0.190799  -0.218110  -0.526923)
  14:       357.68    0.241347  ( -0.012565   0.332357   0.361564)
  15:       418.18    0.473483  ( -0.443296   0.123710   0.511534)
  16:       456.26    0.336039  (  0.182179   0.305215  -0.457923)
  17:       511.79    2.154243  ( -0.493585   0.243444  -1.360644)
  18:       737.59    4.663065  (  1.681066   0.922529  -0.992987)
  19:       793.84    4.215824  (  0.355011   1.004837   1.755020)
  20:       828.06    1.825895  (  0.047867  -0.149539   1.342104)
  21:       878.81    7.482838  ( -2.244949  -1.291097   0.880971)
  22:       908.12    1.434280  (  0.109975  -1.105013  -0.448478)
  23:       943.81   18.833003  (  2.042911   3.156173  -2.167509)
  24:      1000.79   15.926639  (  2.585448   1.653662  -2.550980)
  25:      1047.98   23.153533  (  3.693642   1.599786   2.636518)
  26:      1062.17    8.595692  ( -1.023106  -2.346072   1.429998)
  27:      1076.63    0.635376  ( -0.441700  -0.432699   0.503039)
  28:      1088.42    0.426591  (  0.212737  -0.534679   0.308954)
  29:      1106.01    0.805546  ( -0.710949  -0.309081  -0.452290)
  30:      1185.30    1.156958  (  0.843637   0.047883  -0.665539)
  31:      1196.16    5.492819  ( -0.580126  -0.444392  -2.226834)
  32:      1222.50    1.932127  (  0.271896   0.586577  -1.230499)
  33:      1278.66    5.003609  (  0.008713   1.056010  -1.971897)
  34:      1302.72    2.906896  (  0.184019  -1.572191   0.633442)
  35:      1339.98    4.256262  (  0.041310  -1.407467   1.507843)
  36:      1369.50    0.793353  ( -0.308241   0.477841   0.685572)
  37:      1392.03    1.452462  (  0.021967   0.988640   0.688891)
  38:      1397.80   15.999005  (  2.250227   0.775610  -3.214641)
  39:      1418.30   30.643315  ( -4.477558  -2.289572   2.313580)
  40:      1423.28    5.531767  ( -0.261782  -1.777879   1.517360)
  41:      1425.74   13.239199  (  0.069134   3.542132   0.829288)
  42:      1432.78    8.322075  ( -0.712769  -1.235627  -2.507441)
  43:      1457.38    5.622770  (  0.622710   0.251577   2.274140)
  44:      1475.33    5.158329  (  0.385935  -1.059258   1.971638)
  45:      1479.91   11.048690  (  2.271227  -1.158821  -2.132452)
  46:      1485.07    3.022556  (  0.099324   1.704230   0.329075)
  47:      1487.58   15.622217  (  2.117370  -0.036667  -3.337307)
  48:      1493.10    7.965744  (  0.415898   0.805966  -2.672675)
  49:      1499.32   21.416967  ( -3.586498  -2.854700   0.636150)
  50:      1503.11   40.974081  ( -4.406217   0.845453  -4.565582)
  51:      1505.86    4.007566  ( -0.977520   1.457351   0.963405)
  52:      1509.39   28.682534  (  0.586758  -5.312877   0.334045)
  53:      3034.75   19.240611  (  0.259963   3.729517  -2.294283)
  54:      3063.87    2.856271  ( -1.369867   0.875147  -0.462440)
  55:      3073.54    6.562131  ( -2.277588   0.923691  -0.722162)
  56:      3084.11    2.487314  (  0.324651   0.847458   1.289857)
  57:      3092.80    0.977485  ( -0.424459  -0.099899  -0.887322)
  58:      3096.47    3.581541  (  1.709664   0.157107  -0.796182)
  59:      3098.18    4.545170  ( -0.230277  -1.909927   0.918871)
  60:      3118.04   14.590507  (  2.857123   2.499806   0.422285)
  61:      3138.75    2.516371  ( -1.061066   0.495928   1.069844)
  62:      3143.31    4.729204  (  2.085372   0.089422  -0.610273)
  63:      3147.92    3.177225  ( -1.063389   0.000281  -1.430535)
  64:      3151.58    0.696939  ( -0.038106  -0.774164   0.310091)
  65:      3167.43    4.404554  (  0.043584  -0.458199  -2.047610)
  66:      3186.11    0.177517  ( -0.400945  -0.017670  -0.128247)
  67:      3201.00    0.720030  ( -0.098650  -0.258174   0.802275)
  68:      3438.43   45.071074  ( -4.700798   3.512475   3.261302)

--------------------------
THERMOCHEMISTRY AT 298.15K
--------------------------

Temperature         ... 298.15 K
Pressure            ... 1.00 atm
Total Mass          ... 102.20 AMU

Throughout the following assumptions are being made:
  (1) The electronic state is orbitally nondegenerate
  (2) There are no thermally accessible electronically excited states
  (3) Hindered rotations indicated by low frequency modes) are not
      treated as such but are treated as vibrations and this may
      case some error
  (4) All equations used are the standard statistical mechanics
      equations for an ideal gas
  (5) All vibrations are strinctly harmonic

------------
INNER ENERGY
------------

The inner energy is: U= E(el) + E(ZPE) + E(vib) + E(rot) + E(trans)
    E(el)   - is the total energy from the electronic structure calculation
              = E(kin-el) + E(nuc-el) + E(el-el) + E(nuc-nuc)
    E(ZPE)  - the the zero temperature vibrational energy from the frequency calculation
    E(vib)  - the the finite temperature correction to E(ZPE) due to population
              of excietd vibrational states
    E(rot)  - is the rotational thermal energy
    E(trans)- is the translational thermal energy

Summary of contributions to the inner energy U:
Electronic energy                ...   -292.53852726 Eh
Zero point energy                ...      0.22142233 Eh     138.94 kcal/mol
Thermal vibrational correction   ...      0.00670902 Eh       4.21 kcal/mol
Thermal rotational correction    ...      0.00141627 Eh       0.89 kcal/mol
Thermal translational correction ...      0.00141627 Eh       0.89 kcal/mol
-----------------------------------------------------------------------
Total thermal energy                   -292.30756338 Eh

Summary of corrections to the electronic energy:
(perhaps to be used in another calculation)
Total thermal correction                  0.00954156 Eh       5.99 kcal/mol
Non-thermal (ZPE) correction              0.22142233 Eh     138.94 kcal/mol
-----------------------------------------------------------------------
Total correction                          0.23096388 Eh     144.93 kcal/mol

--------
ENTHALPY
--------

The enthalpy is H = U + kB*T
                kB is Boltzmann's constant
Total free energy                 ...   -292.30756338 Eh
Thermal Enthalpy correction       ...      0.00094421 Eh       0.59 kcal/mol
-----------------------------------------------------------------------
Total Enthalpy                    ...   -292.30661917 Eh

-------
ENTROPY
-------

The entropy contributions are T*S = T*(S(el)+S(vib)+S(rot)+S(trans)
     S(el)   - electronic entropy
     S(vib)  - vibrational entropy
     S(rot)  - rotational entropy
     S(trans)- translational entropy
The entropies will be listed as mutliplied by the temperature to get
units of energy

Electronic entropy                ...      0.00000000 Eh      0.00 kcal/mol
Vibrational entropy               ...      0.01290357 Eh      8.10 kcal/mol
Rotational entropy                ...      0.01235302 Eh      7.75 kcal/mol
Translational entropy             ...      0.01890208 Eh     11.86 kcal/mol
-----------------------------------------------------------------------
Final entropy term                ...      0.04415866 Eh     27.71 kcal/mol

CAUTION: The rotational entropy is not quite correctly treated here
         because it includes a symmetry number that is not yet correctly
         implemented in ORCA!
For a nonlinear molecule the correct rotational entropy is:
    S(rot) = R*(ln(qrot/sn)+1.5)
    R    = 8.31441 J/mol/K = 1.987191683e-3 kcal/mol/K
    qrot = 321877.4968072
    sn is the rotational symmetry number. We have assumed 3 here
       if it is different for your molecule then you should correct
       the printed rotational entropy by manually evaluating the equation
       as given above

For convenience we print out the resulting values for sn=1 - 12:
 sn= 1  qrot/sn=  321877.4968 T*S(rot)=     8.40 kcal/mol T*S(tot)=    28.36 kcal/mol
 sn= 2  qrot/sn=  160938.7484 T*S(rot)=     7.99 kcal/mol T*S(tot)=    27.95 kcal/mol
 sn= 3  qrot/sn=  107292.4989 T*S(rot)=     7.75 kcal/mol T*S(tot)=    27.71 kcal/mol
 sn= 4  qrot/sn=   80469.3742 T*S(rot)=     7.58 kcal/mol T*S(tot)=    27.54 kcal/mol
 sn= 5  qrot/sn=   64375.4994 T*S(rot)=     7.45 kcal/mol T*S(tot)=    27.41 kcal/mol
 sn= 6  qrot/sn=   53646.2495 T*S(rot)=     7.34 kcal/mol T*S(tot)=    27.30 kcal/mol
 sn= 7  qrot/sn=   45982.4995 T*S(rot)=     7.25 kcal/mol T*S(tot)=    27.21 kcal/mol
 sn= 8  qrot/sn=   40234.6871 T*S(rot)=     7.17 kcal/mol T*S(tot)=    27.13 kcal/mol
 sn= 9  qrot/sn=   35764.1663 T*S(rot)=     7.10 kcal/mol T*S(tot)=    27.06 kcal/mol
 sn=10  qrot/sn=   32187.7497 T*S(rot)=     7.04 kcal/mol T*S(tot)=    27.00 kcal/mol
 sn=11  qrot/sn=   29261.5906 T*S(rot)=     6.98 kcal/mol T*S(tot)=    26.94 kcal/mol
 sn=12  qrot/sn=   26823.1247 T*S(rot)=     6.93 kcal/mol T*S(tot)=    26.89 kcal/mol

-------------------
GIBBS FREE ENTHALPY
-------------------

The Gibbs free enthalpy is G = H - T*S

Total enthalpy                    ...   -292.30661917 Eh
Total entropy correction          ...     -0.04415866 Eh    -27.71 kcal/mol
-----------------------------------------------------------------------
Final Gibbs free enthalpy         ...   -292.35077783 Eh

For completeness - the Gibbs free enthalpy minus the electronic energy
G-E(el)                           ...      0.18774943 Eh    117.81 kcal/mol

                             ****ORCA TERMINATED NORMALLY****
TOTAL RUN TIME: 0 days 1 hours 4 minutes 29 seconds 973 msec
