                         Program Version 3.0.3 - RELEASE   -
|  1> ! NORI PBE0 def2-TZVP UseSym TightOPT Freq TightSCF Grid3 FinalGrid5 XYZFile
|  2> % pal
|  3>     nprocs 8
|  4> end
|  5> %method
|  6>     SymThresh 5.0e-2
|  7> end
|  8> % geom
|  9>     MaxIter 10
| 10> end
| 11> % maxcore 2000
| 12> % output
| 13>     printlevel mini
| 14>     print[ P_Basis ] 0
| 15>     print[ P_SCFInfo ] 1
| 16>     print[ P_SCFIterInfo ] 1
| 17>     print[ P_OrbEn ] 0
| 18>     print[ P_Cartesian ] 0
| 19> end
| 20> % elprop
| 21>     Dipole false
| 22> end
| 23> *xyz 1 1
| 24>  C        0.9770603513     0.2951228303    -0.3249465084
| 25>  C        2.4530015546     0.1220830275    -0.0022671985
| 26>  C        2.8346163889     0.8947755633     1.2427368559
| 27>  N        4.2861964357     0.7184001611     1.5636573031
| 28>  C        4.8496397253     1.5410961664     2.7043361462
| 29>  C        4.2169401095     1.1212877208     4.0124106340
| 30>  C        6.3557437492     1.3865474884     2.6925359287
| 31>  H        0.7180935197    -0.2627020637    -1.2245988840
| 32>  H        0.7276240799     1.3435388987    -0.5009750028
| 33>  H        0.3456768433    -0.0735616778     0.4865100060
| 34>  H        3.0590372518     0.4656808449    -0.8488069079
| 35>  H        2.6770339834    -0.9411254679     0.1405732930
| 36>  H        2.2683042894     0.5578492406     2.1106506962
| 37>  H        2.6702897603     1.9670723344     1.1193584801
| 38>  H        4.8275720235     0.9310266239     0.7228805416
| 39>  H        4.4644779414    -0.2695051334     1.7604463099
| 40>  H        4.5754113079     2.5710280863     2.4615358411
| 41>  H        4.4066752695     0.0650986320     4.2260692333
| 42>  H        3.1422476084     1.3033763705     4.0437426016
| 43>  H        4.6655608318     1.7000676765     4.8199627012
| 44>  H        6.6561114676     0.3570492375     2.9074352767
| 45>  H        6.7893947544     2.0211215966     3.4653962696
| 46>  H        6.7946007532     1.6907118430     1.7386363833
| 47> *
| 48>
| 49>                          ****END OF INPUT****
 Total Charge           Charge          ....    1
 Multiplicity           Mult            ....    1
 Number of Electrons    NEL             ....   58
FINAL SINGLE POINT ENERGY      -292.548880088389
FINAL SINGLE POINT ENERGY      -292.548881528549

CARTESIAN COORDINATES (ANGSTROEM)
---------------------------------
  C      2.810783    0.000825   -2.004930
  C      2.146785   -0.106344   -0.641075
  C      0.651336    0.110950   -0.740998
  N      0.000233   -0.000467    0.602420
  C     -1.476410    0.329744    0.687270
  C     -2.281471   -0.677400   -0.103235
  C     -1.860475    0.384125    2.150922
  H      3.885953   -0.153597   -1.915739
  H      2.652751    0.986056   -2.448998
  H      2.423775   -0.750499   -2.696562
  H      2.581083    0.634539    0.040042
  H      2.347285   -1.093794   -0.209772
  H      0.182943   -0.628209   -1.390460
  H      0.412115    1.105866   -1.122061
  H      0.499436    0.612892    1.250277
  H      0.139713   -0.948436    0.960925
  H     -1.561467    1.322880    0.238159
  H     -2.141755   -1.691243    0.283721
  H     -2.047986   -0.666891   -1.167851
  H     -3.340047   -0.435515   -0.002495
  H     -1.760258   -0.594727    2.628188
  H     -2.904889    0.684674    2.238694
  H     -1.265002    1.112492    2.707707

FINAL SINGLE POINT ENERGY      -292.548882497430
                    ***********************HURRAY********************
 Multiplicity           Mult            ....    1
 Number of Electrons    NEL             ....   58
 Basis Dimension        Dim             ....  313
FINAL SINGLE POINT ENERGY      -292.548882650202

VIBRATIONAL FREQUENCIES
-----------------------

   0:         0.00 cm**-1
   1:         0.00 cm**-1
   2:         0.00 cm**-1
   3:         0.00 cm**-1
   4:         0.00 cm**-1
   5:         0.00 cm**-1
   6:        47.31 cm**-1
   7:        74.08 cm**-1
   8:       125.64 cm**-1
   9:       141.73 cm**-1
  10:       221.51 cm**-1
  11:       238.35 cm**-1
  12:       255.38 cm**-1
  13:       302.23 cm**-1
  14:       304.60 cm**-1
  15:       406.57 cm**-1
  16:       434.88 cm**-1
  17:       484.52 cm**-1
  18:       756.96 cm**-1
  19:       808.78 cm**-1
  20:       828.00 cm**-1
  21:       912.93 cm**-1
  22:       923.67 cm**-1
  23:       935.68 cm**-1
  24:       944.17 cm**-1
  25:       960.83 cm**-1
  26:      1013.37 cm**-1
  27:      1067.84 cm**-1
  28:      1077.54 cm**-1
  29:      1113.35 cm**-1
  30:      1174.24 cm**-1
  31:      1191.90 cm**-1
  32:      1218.78 cm**-1
  33:      1257.65 cm**-1
  34:      1303.46 cm**-1
  35:      1332.71 cm**-1
  36:      1355.55 cm**-1
  37:      1372.62 cm**-1
  38:      1396.21 cm**-1
  39:      1408.30 cm**-1
  40:      1416.14 cm**-1
  41:      1419.84 cm**-1
  42:      1424.87 cm**-1
  43:      1437.91 cm**-1
  44:      1467.08 cm**-1
  45:      1481.14 cm**-1
  46:      1484.51 cm**-1
  47:      1491.28 cm**-1
  48:      1493.88 cm**-1
  49:      1497.40 cm**-1
  50:      1502.17 cm**-1
  51:      1508.38 cm**-1
  52:      1645.11 cm**-1
  53:      3035.77 cm**-1
  54:      3052.34 cm**-1
  55:      3058.61 cm**-1
  56:      3063.04 cm**-1
  57:      3075.15 cm**-1
  58:      3090.03 cm**-1
  59:      3095.12 cm**-1
  60:      3128.27 cm**-1
  61:      3136.48 cm**-1
  62:      3141.47 cm**-1
  63:      3153.27 cm**-1
  64:      3154.66 cm**-1
  65:      3156.59 cm**-1
  66:      3162.56 cm**-1
  67:      3428.11 cm**-1
  68:      3481.02 cm**-1

IR SPECTRUM
-----------

 Mode    freq (cm**-1)   T**2         TX         TY         TZ
-------------------------------------------------------------------
   6:        47.31    0.190240  (  0.192224   0.283417   0.270120)
   7:        74.08    3.024641  ( -0.061378  -1.700756  -0.358196)
   8:       125.64    1.710748  (  0.327662   0.123910   1.260172)
   9:       141.73    2.380986  (  0.005296   1.524299  -0.239729)
  10:       221.51    0.212293  ( -0.014235  -0.412233  -0.205314)
  11:       238.35    0.025251  (  0.082731  -0.130116  -0.038426)
  12:       255.38    1.033419  (  0.274608   0.978770   0.004360)
  13:       302.23    1.167210  (  0.737832  -0.767661  -0.183061)
  14:       304.60    0.205873  ( -0.149010  -0.102060  -0.416237)
  15:       406.57    2.173456  ( -0.652225   0.851974   1.011038)
  16:       434.88    1.818222  (  1.154673   0.525262   0.457222)
  17:       484.52    8.726891  (  2.326108   0.681721  -1.688599)
  18:       756.96    6.824530  ( -0.429580  -2.524933  -0.514495)
  19:       808.78    5.119689  (  1.552088   1.645241   0.062396)
  20:       828.00    0.739121  ( -0.454607  -0.112837   0.720917)
  21:       912.93    1.822983  (  0.378719   1.291467  -0.108013)
  22:       923.67    1.559072  (  0.428680   0.117239   1.166859)
  23:       935.68    2.830261  (  0.770365   0.747422   1.295438)
  24:       944.17    2.245342  ( -1.246934   0.230575   0.798331)
  25:       960.83    4.901681  (  2.170401   0.402455  -0.170497)
  26:      1013.37   18.533674  ( -3.643122   0.088735   2.292043)
  27:      1067.84   15.164456  ( -3.180488   0.550407   2.178533)
  28:      1077.54    3.702815  ( -1.517301   1.142957  -0.307024)
  29:      1113.35   23.385518  (  4.682066  -0.453939  -1.121481)
  30:      1174.24   15.952248  ( -3.819368   0.697500   0.937107)
  31:      1191.90    1.597944  ( -0.375240  -0.412329  -1.134515)
  32:      1218.78    1.375838  ( -0.091869   1.090602   0.421882)
  33:      1257.65    4.647201  ( -1.508391   1.164236   1.008222)
  34:      1303.46   14.127494  ( -3.013592   0.520293   2.185189)
  35:      1332.71    3.412026  (  1.104153  -1.317143  -0.676762)
  36:      1355.55    3.554953  (  1.751115   0.044358  -0.697553)
  37:      1372.62    3.065277  (  0.410914   1.667598  -0.339919)
  38:      1396.21    2.781723  ( -1.500309  -0.579878  -0.441064)
  39:      1408.30   66.941468  ( -7.263742  -0.589924   3.719073)
  40:      1416.14   15.176025  ( -3.119421  -0.850715   2.172907)
  41:      1419.84   21.325029  ( -0.171079  -1.960743  -4.177469)
  42:      1424.87   26.859904  (  3.896580   1.065305  -3.246797)
  43:      1437.91   17.690440  ( -1.361211   2.601654   3.011468)
  44:      1467.08    1.041467  ( -0.670964   0.764065  -0.086475)
  45:      1481.14    6.652253  ( -2.362078   0.083490   1.032411)
  46:      1484.51    3.070684  (  0.729529   1.184684   1.065361)
  47:      1491.28    1.319544  ( -0.944518  -0.361342  -0.544849)
  48:      1493.88   13.570175  ( -0.323948  -3.656797  -0.305066)
  49:      1497.40    3.143695  ( -1.568941   0.483836   0.669344)
  50:      1502.17   19.277378  ( -1.499593   3.772903  -1.671467)
  51:      1508.38   19.037180  (  3.623391  -1.042981   2.195543)
  52:      1645.11   45.829113  ( -3.753469   1.823319  -5.330675)
  53:      3035.77   13.505318  ( -0.144736   0.450707  -3.644343)
  54:      3052.34    3.753220  (  1.318562  -0.059123   1.418139)
  55:      3058.61    3.436632  (  1.185370  -1.405907  -0.234428)
  56:      3063.04    9.644792  ( -0.318242  -0.410413   3.061874)
  57:      3075.15    5.879704  (  0.459472   2.343911   0.417938)
  58:      3090.03    0.686092  ( -0.414307  -0.658870   0.283429)
  59:      3095.12    3.611168  (  1.218810  -0.906704   1.141734)
  60:      3128.27    7.418713  ( -1.007365  -2.466479  -0.566047)
  61:      3136.48   10.954493  (  0.369664   3.242820   0.549512)
  62:      3141.47    6.413137  (  0.349630   2.125905  -1.330948)
  63:      3153.27    2.871461  ( -0.192473   0.826362  -1.466813)
  64:      3154.66    4.586427  (  1.864089  -0.450897   0.953042)
  65:      3156.59    1.753927  ( -0.962553  -0.874223   0.251304)
  66:      3162.56    4.492862  (  0.233798  -1.166387  -1.754349)
  67:      3428.11   23.621576  (  2.323496  -1.555974   3.975159)
  68:      3481.02   43.456991  (  1.669713   6.204146   1.475677)

--------------------------
THERMOCHEMISTRY AT 298.15K
--------------------------

Temperature         ... 298.15 K
Pressure            ... 1.00 atm
Total Mass          ... 102.20 AMU

Throughout the following assumptions are being made:
  (1) The electronic state is orbitally nondegenerate
  (2) There are no thermally accessible electronically excited states
  (3) Hindered rotations indicated by low frequency modes) are not
      treated as such but are treated as vibrations and this may
      case some error
  (4) All equations used are the standard statistical mechanics
      equations for an ideal gas
  (5) All vibrations are strinctly harmonic

------------
INNER ENERGY
------------

The inner energy is: U= E(el) + E(ZPE) + E(vib) + E(rot) + E(trans)
    E(el)   - is the total energy from the electronic structure calculation
              = E(kin-el) + E(nuc-el) + E(el-el) + E(nuc-nuc)
    E(ZPE)  - the the zero temperature vibrational energy from the frequency calculation
    E(vib)  - the the finite temperature correction to E(ZPE) due to population
              of excietd vibrational states
    E(rot)  - is the rotational thermal energy
    E(trans)- is the translational thermal energy

Summary of contributions to the inner energy U:
Electronic energy                ...   -292.54888265 Eh
Zero point energy                ...      0.22114975 Eh     138.77 kcal/mol
Thermal vibrational correction   ...      0.00690522 Eh       4.33 kcal/mol
Thermal rotational correction    ...      0.00141627 Eh       0.89 kcal/mol
Thermal translational correction ...      0.00141627 Eh       0.89 kcal/mol
-----------------------------------------------------------------------
Total thermal energy                   -292.31799514 Eh

Summary of corrections to the electronic energy:
(perhaps to be used in another calculation)
Total thermal correction                  0.00973777 Eh       6.11 kcal/mol
Non-thermal (ZPE) correction              0.22114975 Eh     138.77 kcal/mol
-----------------------------------------------------------------------
Total correction                          0.23088751 Eh     144.88 kcal/mol

--------
ENTHALPY
--------

The enthalpy is H = U + kB*T
                kB is Boltzmann's constant
Total free energy                 ...   -292.31799514 Eh
Thermal Enthalpy correction       ...      0.00094421 Eh       0.59 kcal/mol
-----------------------------------------------------------------------
Total Enthalpy                    ...   -292.31705093 Eh

-------
ENTROPY
-------

The entropy contributions are T*S = T*(S(el)+S(vib)+S(rot)+S(trans)
     S(el)   - electronic entropy
     S(vib)  - vibrational entropy
     S(rot)  - rotational entropy
     S(trans)- translational entropy
The entropies will be listed as mutliplied by the temperature to get
units of energy

Electronic entropy                ...      0.00000000 Eh      0.00 kcal/mol
Vibrational entropy               ...      0.01305417 Eh      8.19 kcal/mol
Rotational entropy                ...      0.01244999 Eh      7.81 kcal/mol
Translational entropy             ...      0.01890208 Eh     11.86 kcal/mol
-----------------------------------------------------------------------
Final entropy term                ...      0.04440623 Eh     27.87 kcal/mol

CAUTION: The rotational entropy is not quite correctly treated here
         because it includes a symmetry number that is not yet correctly
         implemented in ORCA!
For a nonlinear molecule the correct rotational entropy is:
    S(rot) = R*(ln(qrot/sn)+1.5)
    R    = 8.31441 J/mol/K = 1.987191683e-3 kcal/mol/K
    qrot = 356692.5126899
    sn is the rotational symmetry number. We have assumed 3 here
       if it is different for your molecule then you should correct
       the printed rotational entropy by manually evaluating the equation
       as given above

For convenience we print out the resulting values for sn=1 - 12:
 sn= 1  qrot/sn=  356692.5127 T*S(rot)=     8.46 kcal/mol T*S(tot)=    28.52 kcal/mol
 sn= 2  qrot/sn=  178346.2563 T*S(rot)=     8.05 kcal/mol T*S(tot)=    28.11 kcal/mol
 sn= 3  qrot/sn=  118897.5042 T*S(rot)=     7.81 kcal/mol T*S(tot)=    27.87 kcal/mol
 sn= 4  qrot/sn=   89173.1282 T*S(rot)=     7.64 kcal/mol T*S(tot)=    27.69 kcal/mol
 sn= 5  qrot/sn=   71338.5025 T*S(rot)=     7.51 kcal/mol T*S(tot)=    27.56 kcal/mol
 sn= 6  qrot/sn=   59448.7521 T*S(rot)=     7.40 kcal/mol T*S(tot)=    27.45 kcal/mol
 sn= 7  qrot/sn=   50956.0732 T*S(rot)=     7.31 kcal/mol T*S(tot)=    27.36 kcal/mol
 sn= 8  qrot/sn=   44586.5641 T*S(rot)=     7.23 kcal/mol T*S(tot)=    27.28 kcal/mol
 sn= 9  qrot/sn=   39632.5014 T*S(rot)=     7.16 kcal/mol T*S(tot)=    27.21 kcal/mol
 sn=10  qrot/sn=   35669.2513 T*S(rot)=     7.10 kcal/mol T*S(tot)=    27.15 kcal/mol
 sn=11  qrot/sn=   32426.5921 T*S(rot)=     7.04 kcal/mol T*S(tot)=    27.10 kcal/mol
 sn=12  qrot/sn=   29724.3761 T*S(rot)=     6.99 kcal/mol T*S(tot)=    27.04 kcal/mol

-------------------
GIBBS FREE ENTHALPY
-------------------

The Gibbs free enthalpy is G = H - T*S

Total enthalpy                    ...   -292.31705093 Eh
Total entropy correction          ...     -0.04440623 Eh    -27.87 kcal/mol
-----------------------------------------------------------------------
Final Gibbs free enthalpy         ...   -292.36145716 Eh

For completeness - the Gibbs free enthalpy minus the electronic energy
G-E(el)                           ...      0.18742549 Eh    117.61 kcal/mol

                             ****ORCA TERMINATED NORMALLY****
TOTAL RUN TIME: 0 days 0 hours 55 minutes 2 seconds 856 msec
