                         Program Version 3.0.3 - RELEASE   -
|  1> ! NORI PBE0 def2-TZVP UseSym TightOPT Freq TightSCF Grid3 FinalGrid5 XYZFile
|  2> % pal
|  3>     nprocs 8
|  4> end
|  5> %method
|  6>     SymThresh 5.0e-2
|  7> end
|  8> % geom
|  9>     MaxIter 10
| 10> end
| 11> % maxcore 2000
| 12> % output
| 13>     printlevel mini
| 14>     print[ P_Basis ] 0
| 15>     print[ P_SCFInfo ] 1
| 16>     print[ P_SCFIterInfo ] 1
| 17>     print[ P_OrbEn ] 0
| 18>     print[ P_Cartesian ] 0
| 19> end
| 20> % elprop
| 21>     Dipole false
| 22> end
| 23> *xyz 1 1
| 24>  C        0.8783538298    -0.5523265123    -0.1770489329
| 25>  C        2.3873645103    -0.3660917319    -0.2063504556
| 26>  C        2.8365627390     0.2390023138    -1.5189560673
| 27>  N        4.3209230991     0.4348433872    -1.5536204416
| 28>  C        4.8622670910     1.0324677216    -2.8270846775
| 29>  C        6.3407650424     1.1913721483    -2.7487933187
| 30>  C        7.1803422628     0.4894227424    -3.4961670119
| 31>  H        0.5697856048    -0.9909624628     0.7717580432
| 32>  H        0.5432709925    -1.2185401589    -0.9750750554
| 33>  H        0.3564888641     0.4006933658    -0.2861665705
| 34>  H        2.6951163663     0.2821594508     0.6218442037
| 35>  H        2.8817339408    -1.3325912320    -0.0578809156
| 36>  H        2.5861713047    -0.4005176259    -2.3674671463
| 37>  H        2.3882183374     1.2200677765    -1.6878024688
| 38>  H        4.5970307916     1.0257711542    -0.7663003290
| 39>  H        4.7875072388    -0.4616449303    -1.3964895075
| 40>  H        4.5675567303     0.3631329224    -3.6354863281
| 41>  H        4.3466474798     1.9865808586    -2.9557241661
| 42>  H        6.7193916399     1.9454353161    -2.0621961798
| 43>  H        6.8331566487    -0.2474184061    -4.2146035223
| 44>  H        8.2511254860     0.6421039025    -3.4327291522
| 45> *
| 46>
| 47>                          ****END OF INPUT****
 Total Charge           Charge          ....    1
 Multiplicity           Mult            ....    1
 Number of Electrons    NEL             ....   56
FINAL SINGLE POINT ENERGY      -291.309492422218
FINAL SINGLE POINT ENERGY      -291.309493791152

CARTESIAN COORDINATES (ANGSTROEM)
---------------------------------
  C      3.251344    0.003920   -1.693153
  C      2.313533    0.275863   -0.526902
  C      0.926881   -0.263394   -0.804546
  N     -0.001036   -0.003083    0.341880
  C     -1.410937   -0.503101    0.157377
  C     -2.238607   -0.197368    1.356991
  C     -3.239473    0.671246    1.337292
  H      4.244188    0.399220   -1.479556
  H      2.895433    0.478497   -2.610041
  H      3.353574   -1.066970   -1.881193
  H      2.712692   -0.186607    0.383214
  H      2.258493    1.354466   -0.340850
  H      0.477073    0.204626   -1.682323
  H      0.934842   -1.343854   -0.960636
  H      0.391184   -0.420875    1.188708
  H     -0.039477    1.001770    0.528275
  H     -1.799128   -0.017924   -0.738791
  H     -1.328604   -1.575769   -0.031833
  H     -2.008127   -0.746113    2.267348
  H     -3.513701    1.211130    0.436206
  H     -3.837314    0.859696    2.220625

FINAL SINGLE POINT ENERGY      -291.309494391564
                    ***********************HURRAY********************
 Multiplicity           Mult            ....    1
 Number of Electrons    NEL             ....   56
 Basis Dimension        Dim             ....  301
FINAL SINGLE POINT ENERGY      -291.309494534493

VIBRATIONAL FREQUENCIES
-----------------------

   0:         0.00 cm**-1
   1:         0.00 cm**-1
   2:         0.00 cm**-1
   3:         0.00 cm**-1
   4:         0.00 cm**-1
   5:         0.00 cm**-1
   6:        55.47 cm**-1
   7:        66.67 cm**-1
   8:       107.64 cm**-1
   9:       129.23 cm**-1
  10:       152.67 cm**-1
  11:       240.05 cm**-1
  12:       280.15 cm**-1
  13:       335.56 cm**-1
  14:       434.61 cm**-1
  15:       454.13 cm**-1
  16:       666.68 cm**-1
  17:       756.77 cm**-1
  18:       794.08 cm**-1
  19:       882.45 cm**-1
  20:       913.68 cm**-1
  21:       949.80 cm**-1
  22:       976.38 cm**-1
  23:       987.93 cm**-1
  24:      1008.86 cm**-1
  25:      1020.44 cm**-1
  26:      1031.30 cm**-1
  27:      1070.04 cm**-1
  28:      1089.53 cm**-1
  29:      1149.20 cm**-1
  30:      1208.22 cm**-1
  31:      1235.95 cm**-1
  32:      1293.42 cm**-1
  33:      1323.75 cm**-1
  34:      1329.78 cm**-1
  35:      1354.05 cm**-1
  36:      1362.60 cm**-1
  37:      1395.10 cm**-1
  38:      1409.23 cm**-1
  39:      1412.11 cm**-1
  40:      1427.91 cm**-1
  41:      1459.49 cm**-1
  42:      1480.28 cm**-1
  43:      1486.02 cm**-1
  44:      1493.78 cm**-1
  45:      1494.94 cm**-1
  46:      1508.30 cm**-1
  47:      1654.12 cm**-1
  48:      1724.60 cm**-1
  49:      3036.82 cm**-1
  50:      3063.52 cm**-1
  51:      3076.36 cm**-1
  52:      3086.93 cm**-1
  53:      3090.42 cm**-1
  54:      3136.68 cm**-1
  55:      3146.97 cm**-1
  56:      3148.79 cm**-1
  57:      3155.31 cm**-1
  58:      3160.70 cm**-1
  59:      3168.79 cm**-1
  60:      3257.40 cm**-1
  61:      3432.72 cm**-1
  62:      3483.37 cm**-1

IR SPECTRUM
-----------

 Mode    freq (cm**-1)   T**2         TX         TY         TZ
-------------------------------------------------------------------
   6:        55.47    3.276949  (  0.378923  -1.543926   0.865828)
   7:        66.67    0.468187  ( -0.306227  -0.600477  -0.117641)
   8:       107.64    2.356881  (  0.793157  -0.765035   1.068880)
   9:       129.23    1.813132  (  0.278227   0.016437   1.317366)
  10:       152.67    5.464447  ( -0.641471   2.246192   0.087087)
  11:       240.05    0.282605  ( -0.192818   0.465342  -0.169950)
  12:       280.15    0.455843  ( -0.527514  -0.420500  -0.027405)
  13:       335.56    0.917897  ( -0.913753  -0.265199   0.112349)
  14:       434.61    1.715530  ( -0.070017  -0.436178  -1.233036)
  15:       454.13    5.673803  (  1.945041  -0.590243  -1.241865)
  16:       666.68   23.076945  ( -3.790305  -2.948346  -0.133386)
  17:       756.77    7.492814  (  0.643879  -2.427771   1.088191)
  18:       794.08    5.455477  ( -0.948987   1.868270  -1.031731)
  19:       882.45    1.902095  (  0.808241  -0.964735   0.564027)
  20:       913.68    4.058851  ( -1.583178   0.370068   1.189726)
  21:       949.80    2.344062  ( -1.163081  -0.155849  -0.983369)
  22:       976.38    3.413733  ( -1.781645  -0.464536   0.153886)
  23:       987.93   54.114699  (  7.015445   1.846548  -1.220036)
  24:      1008.86   12.755006  ( -3.012446   0.376677   1.881034)
  25:      1020.44   57.109032  (  4.977409   5.443247   1.644838)
  26:      1031.30    1.662057  (  0.168595  -1.095621  -0.658215)
  27:      1070.04    4.590309  (  1.394987  -0.448257  -1.563133)
  28:      1089.53    4.319253  ( -2.072428  -0.139981  -0.068574)
  29:      1149.20    5.061095  (  1.907140  -0.211235  -1.174433)
  30:      1208.22    0.156743  (  0.169140  -0.199601  -0.297144)
  31:      1235.95    0.352503  (  0.270480  -0.524219  -0.067371)
  32:      1293.42   12.155184  (  3.000505   0.386531  -1.732844)
  33:      1323.75    0.637756  ( -0.703685   0.329045   0.185237)
  34:      1329.78    6.214779  (  2.239185  -1.085034   0.153399)
  35:      1354.05    9.193961  ( -1.281033   2.584148  -0.935467)
  36:      1362.60    2.620819  (  1.170859   1.087263  -0.260323)
  37:      1395.10    2.883333  (  1.522866  -0.179573  -0.729359)
  38:      1409.23   34.658298  (  5.548414  -0.031547  -1.967843)
  39:      1412.11   34.536218  (  5.474156  -0.128830  -2.133831)
  40:      1427.91   60.901138  (  6.686589  -0.621755  -3.975435)
  41:      1459.49   19.796479  ( -3.624162   2.504587   0.623679)
  42:      1480.28    6.485144  ( -1.996808  -0.430572   1.520693)
  43:      1486.02    4.190448  ( -1.256998  -0.014258  -1.615612)
  44:      1493.78   13.436386  (  0.938540  -3.196783   1.528433)
  45:      1494.94    1.533355  ( -0.464506   0.129416  -1.140544)
  46:      1508.30   21.708766  (  2.516735   2.121424   3.297631)
  47:      1654.12   38.070301  (  1.575379   3.097152   5.098640)
  48:      1724.60    1.127053  ( -0.869478  -0.441880   0.419288)
  49:      3036.82   13.159931  ( -0.719216   1.232164   3.335331)
  50:      3063.52    9.769070  ( -1.056805   0.995906   2.767744)
  51:      3076.36    5.353722  ( -0.628645   2.046918  -0.876730)
  52:      3086.93    1.969529  (  1.379918   0.230836  -0.109866)
  53:      3090.42    4.736231  ( -0.270966  -1.090866  -1.863550)
  54:      3136.68    9.219890  ( -0.798135   2.649800  -1.249571)
  55:      3146.97    3.562727  ( -0.401480   1.637901  -0.847833)
  56:      3148.79    2.335269  (  0.452859  -1.346809   0.562400)
  57:      3155.31    4.453324  (  1.504899   0.984903   1.103888)
  58:      3160.70    1.717124  ( -0.211417  -0.243314   1.270128)
  59:      3168.79    0.539665  ( -0.394617   0.393260  -0.478841)
  60:      3257.40    0.239861  ( -0.404650   0.271968   0.046399)
  61:      3432.72   29.194126  ( -1.657424  -2.532600  -4.475825)
  62:      3483.37   54.169103  ( -2.130553   6.369040  -3.010843)

--------------------------
THERMOCHEMISTRY AT 298.15K
--------------------------

Temperature         ... 298.15 K
Pressure            ... 1.00 atm
Total Mass          ... 100.18 AMU

Throughout the following assumptions are being made:
  (1) The electronic state is orbitally nondegenerate
  (2) There are no thermally accessible electronically excited states
  (3) Hindered rotations indicated by low frequency modes) are not
      treated as such but are treated as vibrations and this may
      case some error
  (4) All equations used are the standard statistical mechanics
      equations for an ideal gas
  (5) All vibrations are strinctly harmonic

------------
INNER ENERGY
------------

The inner energy is: U= E(el) + E(ZPE) + E(vib) + E(rot) + E(trans)
    E(el)   - is the total energy from the electronic structure calculation
              = E(kin-el) + E(nuc-el) + E(el-el) + E(nuc-nuc)
    E(ZPE)  - the the zero temperature vibrational energy from the frequency calculation
    E(vib)  - the the finite temperature correction to E(ZPE) due to population
              of excietd vibrational states
    E(rot)  - is the rotational thermal energy
    E(trans)- is the translational thermal energy

Summary of contributions to the inner energy U:
Electronic energy                ...   -291.30949453 Eh
Zero point energy                ...      0.19831852 Eh     124.45 kcal/mol
Thermal vibrational correction   ...      0.00637665 Eh       4.00 kcal/mol
Thermal rotational correction    ...      0.00141627 Eh       0.89 kcal/mol
Thermal translational correction ...      0.00141627 Eh       0.89 kcal/mol
-----------------------------------------------------------------------
Total thermal energy                   -291.10196683 Eh

Summary of corrections to the electronic energy:
(perhaps to be used in another calculation)
Total thermal correction                  0.00920919 Eh       5.78 kcal/mol
Non-thermal (ZPE) correction              0.19831852 Eh     124.45 kcal/mol
-----------------------------------------------------------------------
Total correction                          0.20752771 Eh     130.23 kcal/mol

--------
ENTHALPY
--------

The enthalpy is H = U + kB*T
                kB is Boltzmann's constant
Total free energy                 ...   -291.10196683 Eh
Thermal Enthalpy correction       ...      0.00094421 Eh       0.59 kcal/mol
-----------------------------------------------------------------------
Total Enthalpy                    ...   -291.10102262 Eh

-------
ENTROPY
-------

The entropy contributions are T*S = T*(S(el)+S(vib)+S(rot)+S(trans)
     S(el)   - electronic entropy
     S(vib)  - vibrational entropy
     S(rot)  - rotational entropy
     S(trans)- translational entropy
The entropies will be listed as mutliplied by the temperature to get
units of energy

Electronic entropy                ...      0.00000000 Eh      0.00 kcal/mol
Vibrational entropy               ...      0.01243084 Eh      7.80 kcal/mol
Rotational entropy                ...      0.01234190 Eh      7.74 kcal/mol
Translational entropy             ...      0.01887386 Eh     11.84 kcal/mol
-----------------------------------------------------------------------
Final entropy term                ...      0.04364661 Eh     27.39 kcal/mol

CAUTION: The rotational entropy is not quite correctly treated here
         because it includes a symmetry number that is not yet correctly
         implemented in ORCA!
For a nonlinear molecule the correct rotational entropy is:
    S(rot) = R*(ln(qrot/sn)+1.5)
    R    = 8.31441 J/mol/K = 1.987191683e-3 kcal/mol/K
    qrot = 318110.6766374
    sn is the rotational symmetry number. We have assumed 3 here
       if it is different for your molecule then you should correct
       the printed rotational entropy by manually evaluating the equation
       as given above

For convenience we print out the resulting values for sn=1 - 12:
 sn= 1  qrot/sn=  318110.6766 T*S(rot)=     8.40 kcal/mol T*S(tot)=    28.04 kcal/mol
 sn= 2  qrot/sn=  159055.3383 T*S(rot)=     7.98 kcal/mol T*S(tot)=    27.63 kcal/mol
 sn= 3  qrot/sn=  106036.8922 T*S(rot)=     7.74 kcal/mol T*S(tot)=    27.39 kcal/mol
 sn= 4  qrot/sn=   79527.6692 T*S(rot)=     7.57 kcal/mol T*S(tot)=    27.22 kcal/mol
 sn= 5  qrot/sn=   63622.1353 T*S(rot)=     7.44 kcal/mol T*S(tot)=    27.09 kcal/mol
 sn= 6  qrot/sn=   53018.4461 T*S(rot)=     7.33 kcal/mol T*S(tot)=    26.98 kcal/mol
 sn= 7  qrot/sn=   45444.3824 T*S(rot)=     7.24 kcal/mol T*S(tot)=    26.89 kcal/mol
 sn= 8  qrot/sn=   39763.8346 T*S(rot)=     7.16 kcal/mol T*S(tot)=    26.81 kcal/mol
 sn= 9  qrot/sn=   35345.6307 T*S(rot)=     7.09 kcal/mol T*S(tot)=    26.74 kcal/mol
 sn=10  qrot/sn=   31811.0677 T*S(rot)=     7.03 kcal/mol T*S(tot)=    26.68 kcal/mol
 sn=11  qrot/sn=   28919.1524 T*S(rot)=     6.97 kcal/mol T*S(tot)=    26.62 kcal/mol
 sn=12  qrot/sn=   26509.2231 T*S(rot)=     6.92 kcal/mol T*S(tot)=    26.57 kcal/mol

-------------------
GIBBS FREE ENTHALPY
-------------------

The Gibbs free enthalpy is G = H - T*S

Total enthalpy                    ...   -291.10102262 Eh
Total entropy correction          ...     -0.04364661 Eh    -27.39 kcal/mol
-----------------------------------------------------------------------
Final Gibbs free enthalpy         ...   -291.14466922 Eh

For completeness - the Gibbs free enthalpy minus the electronic energy
G-E(el)                           ...      0.16482531 Eh    103.43 kcal/mol

                             ****ORCA TERMINATED NORMALLY****
TOTAL RUN TIME: 0 days 0 hours 39 minutes 6 seconds 801 msec
