                         Program Version 3.0.3 - RELEASE   -
|  1> ! NORI PBE0 def2-TZVP UseSym TightOPT Freq TightSCF Grid3 FinalGrid5 XYZFile
|  2> % pal
|  3>     nprocs 8
|  4> end
|  5> %method
|  6>     SymThresh 5.0e-2
|  7> end
|  8> % geom
|  9>     MaxIter 10
| 10> end
| 11> % maxcore 2000
| 12> % output
| 13>     printlevel mini
| 14>     print[ P_Basis ] 0
| 15>     print[ P_SCFInfo ] 1
| 16>     print[ P_SCFIterInfo ] 1
| 17>     print[ P_OrbEn ] 0
| 18>     print[ P_Cartesian ] 0
| 19> end
| 20> % elprop
| 21>     Dipole false
| 22> end
| 23> *xyz 1 1
| 24>  C        0.9714844313    -0.1773270715    -0.2043093568
| 25>  C        2.4869944141    -0.0822791600    -0.1211352502
| 26>  C        2.9137927890     1.2013304420     0.5574687280
| 27>  N        4.4066737013     1.3022186330     0.6403404491
| 28>  C        4.9241897660     2.5485482889     1.3052868292
| 29>  C        6.3676866964     2.5349832931     1.3336073511
| 30>  C        7.5650289404     2.5060167216     1.3478353527
| 31>  H        0.6782027194    -1.1075699202    -0.6905521840
| 32>  H        0.5512571712     0.6469752772    -0.7845590966
| 33>  H        0.5149450917    -0.1643246972     0.7875907146
| 34>  H        2.9160687054    -0.1261563138    -1.1281470320
| 35>  H        2.8813457441    -0.9405853621     0.4343017191
| 36>  H        2.5392127652     1.2629944606     1.5811054954
| 37>  H        2.5703026204     2.0827887126     0.0124256221
| 38>  H        4.8073222681     1.2477649771    -0.2993125480
| 39>  H        4.7778898451     0.4909204161     1.1409223308
| 40>  H        4.4959614900     2.5778339962     2.3094796226
| 41>  H        4.5345385526     3.3987997283     0.7407439287
| 42>  H        8.6328022883     2.4937975781     1.3691573243
| 43> *
| 44>
| 45>                          ****END OF INPUT****
 Total Charge           Charge          ....    1
 Multiplicity           Mult            ....    1
 Number of Electrons    NEL             ....   54
FINAL SINGLE POINT ENERGY      -290.050481352554

CARTESIAN COORDINATES (ANGSTROEM)
---------------------------------
  C     -2.763418    2.324361    0.000000
  C     -1.298507    1.915215   -0.000000
  C     -1.155392    0.408414   -0.000000
  N      0.286345    0.000003   -0.000000
  C      0.526728   -1.485189    0.000000
  C      1.944180   -1.760147    0.000000
  C      3.123726   -1.968731    0.000000
  H     -2.851223    3.410615    0.000000
  H     -3.282527    1.949813    0.884747
  H     -3.282527    1.949813   -0.884747
  H     -0.798225    2.332297    0.881264
  H     -0.798225    2.332297   -0.881264
  H     -1.608039   -0.042790   -0.885153
  H     -1.608039   -0.042790    0.885153
  H      0.757168    0.403560    0.813621
  H      0.757168    0.403560   -0.813621
  H      0.031860   -1.890440   -0.885570
  H      0.031860   -1.890440    0.885570
  H      4.172455   -2.170377    0.000000

FINAL SINGLE POINT ENERGY      -290.050481888182
                    ***********************HURRAY********************
 Multiplicity           Mult            ....    1
 Number of Electrons    NEL             ....   54
 Basis Dimension        Dim             ....  289
FINAL SINGLE POINT ENERGY      -290.050482024779

VIBRATIONAL FREQUENCIES
-----------------------

   0:         0.00 cm**-1
   1:         0.00 cm**-1
   2:         0.00 cm**-1
   3:         0.00 cm**-1
   4:         0.00 cm**-1
   5:         0.00 cm**-1
   6:        55.58 cm**-1
   7:        89.76 cm**-1
   8:        95.54 cm**-1
   9:       138.98 cm**-1
  10:       199.56 cm**-1
  11:       240.07 cm**-1
  12:       329.03 cm**-1
  13:       353.43 cm**-1
  14:       372.68 cm**-1
  15:       547.84 cm**-1
  16:       727.86 cm**-1
  17:       757.40 cm**-1
  18:       775.74 cm**-1
  19:       796.29 cm**-1
  20:       888.67 cm**-1
  21:       915.59 cm**-1
  22:       985.24 cm**-1
  23:       991.09 cm**-1
  24:       997.57 cm**-1
  25:      1018.28 cm**-1
  26:      1069.24 cm**-1
  27:      1150.01 cm**-1
  28:      1151.68 cm**-1
  29:      1231.10 cm**-1
  30:      1297.60 cm**-1
  31:      1322.14 cm**-1
  32:      1351.95 cm**-1
  33:      1364.40 cm**-1
  34:      1392.48 cm**-1
  35:      1409.93 cm**-1
  36:      1418.97 cm**-1
  37:      1430.47 cm**-1
  38:      1475.18 cm**-1
  39:      1482.24 cm**-1
  40:      1492.82 cm**-1
  41:      1493.95 cm**-1
  42:      1508.02 cm**-1
  43:      1654.87 cm**-1
  44:      2259.15 cm**-1
  45:      3038.30 cm**-1
  46:      3064.16 cm**-1
  47:      3078.30 cm**-1
  48:      3082.96 cm**-1
  49:      3089.11 cm**-1
  50:      3133.16 cm**-1
  51:      3137.70 cm**-1
  52:      3148.19 cm**-1
  53:      3156.03 cm**-1
  54:      3431.80 cm**-1
  55:      3454.00 cm**-1
  56:      3480.37 cm**-1

IR SPECTRUM
-----------

 Mode    freq (cm**-1)   T**2         TX         TY         TZ
-------------------------------------------------------------------
   6:        55.58    2.822530  (  0.000153   0.000048  -1.680039)
   7:        89.76    3.375709  (  0.000183   0.000102   1.837310)
   8:        95.54    1.395486  ( -0.830473  -0.840119   0.000062)
   9:       138.98    2.454885  ( -0.000090  -0.000020   1.566807)
  10:       199.56    3.041776  (  1.405568   1.032547  -0.000016)
  11:       240.07    0.173679  (  0.000059   0.000087   0.416748)
  12:       329.03   19.485564  ( -0.000184   0.000017  -4.414246)
  13:       353.43    0.533270  (  0.696235  -0.220287   0.000031)
  14:       372.68    7.945128  ( -1.363915  -2.466752   0.000020)
  15:       547.84   33.632023  (  2.209535  -5.361901  -0.000000)
  16:       727.86   40.759260  ( -0.000003  -0.000004  -6.384298)
  17:       757.40    8.370102  (  0.000002   0.000004   2.893113)
  18:       775.74   29.364533  ( -1.645605  -5.162995  -0.000002)
  19:       796.29    5.272283  ( -0.000036   0.000019  -2.296145)
  20:       888.67    1.025401  ( -0.000016  -0.000014  -1.012621)
  21:       915.59    2.410868  ( -1.489142   0.439686   0.000019)
  22:       985.24   36.491553  (  2.392397  -5.546890  -0.000044)
  23:       991.09    3.989095  ( -0.288169   1.976374   0.000015)
  24:       997.57    2.432567  (  0.000109  -0.000236   1.559669)
  25:      1018.28   20.695918  (  3.913900  -2.318901  -0.000032)
  26:      1069.24    3.645224  (  1.871292  -0.378799   0.000024)
  27:      1150.01    7.028904  ( -2.067158   1.660048  -0.000095)
  28:      1151.68    0.205097  ( -0.000335   0.000289   0.452876)
  29:      1231.10    0.098552  (  0.000018  -0.000035  -0.313930)
  30:      1297.60    9.365290  (  1.766991  -2.498606  -0.000002)
  31:      1322.14    0.105415  (  0.000015   0.000015  -0.324677)
  32:      1351.95    8.703788  ( -0.000043   0.000004   2.950218)
  33:      1364.40    2.885903  ( -0.956943  -1.403625   0.000004)
  34:      1392.48    0.087044  (  0.000088  -0.000030  -0.295033)
  35:      1409.93   13.980994  (  2.474452  -2.803227  -0.000015)
  36:      1418.97   48.294513  (  5.657815  -4.035299  -0.000022)
  37:      1430.47   95.437457  ( -8.215501   5.286115  -0.000036)
  38:      1475.18    6.022310  (  2.442270   0.240052  -0.000015)
  39:      1482.24    6.427568  ( -0.690866   2.439318   0.000137)
  40:      1492.82    0.438967  (  0.214534   0.626850  -0.001257)
  41:      1493.95   13.631814  ( -0.000151  -0.000262  -3.692129)
  42:      1508.02   21.426003  (  2.406044   3.954359  -0.000090)
  43:      1654.87   38.049912  (  4.611932   4.096339  -0.000005)
  44:      2259.15   31.527138  (  5.206663  -2.101856  -0.000001)
  45:      3038.30   12.155660  ( -3.433119  -0.607745   0.000005)
  46:      3064.16    9.394860  ( -3.055447  -0.243109  -0.000012)
  47:      3078.30    4.825461  ( -0.000042  -0.000024  -2.196693)
  48:      3082.96    2.895716  ( -0.845643   1.476687   0.000002)
  49:      3089.11    3.173831  (  1.128628   1.378415  -0.000036)
  50:      3133.16    1.041350  (  0.000079  -0.000035   1.020466)
  51:      3137.70    9.138516  ( -0.000019  -0.000006   3.022998)
  52:      3148.19    5.295065  (  0.000003  -0.000023  -2.301101)
  53:      3156.03    3.899773  ( -0.682709  -1.853020   0.000029)
  54:      3431.80   32.719087  ( -3.944463  -4.142499   0.000190)
  55:      3454.00  100.655704  ( -9.801932   2.139589   0.000012)
  56:      3480.37   65.635559  ( -0.000131  -0.000090  -8.101578)

--------------------------
THERMOCHEMISTRY AT 298.15K
--------------------------

Temperature         ... 298.15 K
Pressure            ... 1.00 atm
Total Mass          ... 98.17 AMU

Throughout the following assumptions are being made:
  (1) The electronic state is orbitally nondegenerate
  (2) There are no thermally accessible electronically excited states
  (3) Hindered rotations indicated by low frequency modes) are not
      treated as such but are treated as vibrations and this may
      case some error
  (4) All equations used are the standard statistical mechanics
      equations for an ideal gas
  (5) All vibrations are strinctly harmonic

------------
INNER ENERGY
------------

The inner energy is: U= E(el) + E(ZPE) + E(vib) + E(rot) + E(trans)
    E(el)   - is the total energy from the electronic structure calculation
              = E(kin-el) + E(nuc-el) + E(el-el) + E(nuc-nuc)
    E(ZPE)  - the the zero temperature vibrational energy from the frequency calculation
    E(vib)  - the the finite temperature correction to E(ZPE) due to population
              of excietd vibrational states
    E(rot)  - is the rotational thermal energy
    E(trans)- is the translational thermal energy

Summary of contributions to the inner energy U:
Electronic energy                ...   -290.05048202 Eh
Zero point energy                ...      0.17434013 Eh     109.40 kcal/mol
Thermal vibrational correction   ...      0.00611054 Eh       3.83 kcal/mol
Thermal rotational correction    ...      0.00141627 Eh       0.89 kcal/mol
Thermal translational correction ...      0.00141627 Eh       0.89 kcal/mol
-----------------------------------------------------------------------
Total thermal energy                   -289.86719882 Eh

Summary of corrections to the electronic energy:
(perhaps to be used in another calculation)
Total thermal correction                  0.00894308 Eh       5.61 kcal/mol
Non-thermal (ZPE) correction              0.17434013 Eh     109.40 kcal/mol
-----------------------------------------------------------------------
Total correction                          0.18328321 Eh     115.01 kcal/mol

--------
ENTHALPY
--------

The enthalpy is H = U + kB*T
                kB is Boltzmann's constant
Total free energy                 ...   -289.86719882 Eh
Thermal Enthalpy correction       ...      0.00094421 Eh       0.59 kcal/mol
-----------------------------------------------------------------------
Total Enthalpy                    ...   -289.86625461 Eh

-------
ENTROPY
-------

The entropy contributions are T*S = T*(S(el)+S(vib)+S(rot)+S(trans)
     S(el)   - electronic entropy
     S(vib)  - vibrational entropy
     S(rot)  - rotational entropy
     S(trans)- translational entropy
The entropies will be listed as mutliplied by the temperature to get
units of energy

Electronic entropy                ...      0.00000000 Eh      0.00 kcal/mol
Vibrational entropy               ...      0.01171695 Eh      7.35 kcal/mol
Rotational entropy                ...      0.01224848 Eh      7.69 kcal/mol
Translational entropy             ...      0.01884507 Eh     11.83 kcal/mol
-----------------------------------------------------------------------
Final entropy term                ...      0.04281050 Eh     26.86 kcal/mol

CAUTION: The rotational entropy is not quite correctly treated here
         because it includes a symmetry number that is not yet correctly
         implemented in ORCA!
For a nonlinear molecule the correct rotational entropy is:
    S(rot) = R*(ln(qrot/sn)+1.5)
    R    = 8.31441 J/mol/K = 1.987191683e-3 kcal/mol/K
    qrot = 288143.4717242
    sn is the rotational symmetry number. We have assumed 3 here
       if it is different for your molecule then you should correct
       the printed rotational entropy by manually evaluating the equation
       as given above

For convenience we print out the resulting values for sn=1 - 12:
 sn= 1  qrot/sn=  288143.4717 T*S(rot)=     8.34 kcal/mol T*S(tot)=    27.51 kcal/mol
 sn= 2  qrot/sn=  144071.7359 T*S(rot)=     7.93 kcal/mol T*S(tot)=    27.10 kcal/mol
 sn= 3  qrot/sn=   96047.8239 T*S(rot)=     7.69 kcal/mol T*S(tot)=    26.86 kcal/mol
 sn= 4  qrot/sn=   72035.8679 T*S(rot)=     7.52 kcal/mol T*S(tot)=    26.69 kcal/mol
 sn= 5  qrot/sn=   57628.6943 T*S(rot)=     7.38 kcal/mol T*S(tot)=    26.56 kcal/mol
 sn= 6  qrot/sn=   48023.9120 T*S(rot)=     7.28 kcal/mol T*S(tot)=    26.45 kcal/mol
 sn= 7  qrot/sn=   41163.3531 T*S(rot)=     7.18 kcal/mol T*S(tot)=    26.36 kcal/mol
 sn= 8  qrot/sn=   36017.9340 T*S(rot)=     7.10 kcal/mol T*S(tot)=    26.28 kcal/mol
 sn= 9  qrot/sn=   32015.9413 T*S(rot)=     7.04 kcal/mol T*S(tot)=    26.21 kcal/mol
 sn=10  qrot/sn=   28814.3472 T*S(rot)=     6.97 kcal/mol T*S(tot)=    26.15 kcal/mol
 sn=11  qrot/sn=   26194.8611 T*S(rot)=     6.92 kcal/mol T*S(tot)=    26.09 kcal/mol
 sn=12  qrot/sn=   24011.9560 T*S(rot)=     6.86 kcal/mol T*S(tot)=    26.04 kcal/mol

-------------------
GIBBS FREE ENTHALPY
-------------------

The Gibbs free enthalpy is G = H - T*S

Total enthalpy                    ...   -289.86625461 Eh
Total entropy correction          ...     -0.04281050 Eh    -26.86 kcal/mol
-----------------------------------------------------------------------
Final Gibbs free enthalpy         ...   -289.90906511 Eh

For completeness - the Gibbs free enthalpy minus the electronic energy
G-E(el)                           ...      0.14141691 Eh     88.74 kcal/mol

                             ****ORCA TERMINATED NORMALLY****
TOTAL RUN TIME: 0 days 0 hours 37 minutes 39 seconds 281 msec
