                         Program Version 3.0.3 - RELEASE   -
|  1> ! NORI PBE0 def2-TZVP UseSym TightOPT Freq TightSCF Grid3 FinalGrid5 XYZFile
|  2> % pal
|  3>     nprocs 8
|  4> end
|  5> %method
|  6>     SymThresh 5.0e-2
|  7> end
|  8> % geom
|  9>     MaxIter 10
| 10> end
| 11> % maxcore 2000
| 12> % output
| 13>     printlevel mini
| 14>     print[ P_Basis ] 0
| 15>     print[ P_SCFInfo ] 1
| 16>     print[ P_SCFIterInfo ] 1
| 17>     print[ P_OrbEn ] 0
| 18>     print[ P_Cartesian ] 0
| 19> end
| 20> % elprop
| 21>     Dipole false
| 22> end
| 23> *xyz 1 1
| 24>  C        1.4742908940    -0.8238367232     0.7799064958
| 25>  C        2.2484267340    -0.0401158241     0.0416428289
| 26>  C        2.9349127735    -0.5268787808    -1.1852251804
| 27>  N        4.4341726845    -0.5919980053    -0.9474619840
| 28>  C        5.2419500813    -1.0975196431    -2.1022449787
| 29>  C        4.8801272049    -2.4725004854    -2.3938094458
| 30>  N        4.5734517593    -3.5611480004    -2.5896970073
| 31>  H        0.9675136958    -0.4432318487     1.6583407559
| 32>  H        1.2997634222    -1.8647928152     0.5254094518
| 33>  H        2.3765600803     1.0083676779     0.2998169096
| 34>  H        2.6253236210    -1.5359652214    -1.4582959512
| 35>  H        2.7988504871     0.1360381633    -2.0430017155
| 36>  H        4.7691434432     0.3407511004    -0.6939849357
| 37>  H        4.5958096377    -1.1837996608    -0.1271855291
| 38>  H        5.0464628831    -0.4543842489    -2.9630725958
| 39>  H        6.3012805980    -1.0284256843    -1.8434671184
| 40> *
| 41>
| 42>                          ****END OF INPUT****
 Total Charge           Charge          ....    1
 Multiplicity           Mult            ....    1
 Number of Electrons    NEL             ....   52
FINAL SINGLE POINT ENERGY      -304.886274793549
FINAL SINGLE POINT ENERGY      -304.886275917245

CARTESIAN COORDINATES (ANGSTROEM)
---------------------------------
  C     -2.628207   -1.145211   -0.865890
  C     -2.239494   -0.252368    0.034506
  C     -0.942757    0.469903   -0.067460
  N      0.001136   -0.003834    1.025110
  C      1.355011    0.636155    1.019390
  C      2.054587    0.301563   -0.207280
  N      2.579307    0.009629   -1.185504
  H     -3.586746   -1.643329   -0.783556
  H     -2.017373   -1.396633   -1.727666
  H     -2.887189    0.005943    0.868923
  H     -0.435990    0.277393   -1.013470
  H     -1.043077    1.548637    0.074163
  H     -0.437580    0.161607    1.934324
  H      0.097568   -1.019818    0.936924
  H      1.221646    1.716496    1.106505
  H      1.913899    0.278659    1.887225

FINAL SINGLE POINT ENERGY      -304.886276830638
                    ***********************HURRAY********************
 Multiplicity           Mult            ....    1
 Number of Electrons    NEL             ....   52
 Basis Dimension        Dim             ....  271
FINAL SINGLE POINT ENERGY      -304.886277012159

VIBRATIONAL FREQUENCIES
-----------------------

   0:         0.00 cm**-1
   1:         0.00 cm**-1
   2:         0.00 cm**-1
   3:         0.00 cm**-1
   4:         0.00 cm**-1
   5:         0.00 cm**-1
   6:        53.45 cm**-1
   7:        83.74 cm**-1
   8:       116.94 cm**-1
   9:       203.20 cm**-1
  10:       246.18 cm**-1
  11:       358.13 cm**-1
  12:       367.18 cm**-1
  13:       431.20 cm**-1
  14:       585.19 cm**-1
  15:       652.44 cm**-1
  16:       802.39 cm**-1
  17:       869.39 cm**-1
  18:       910.76 cm**-1
  19:       959.80 cm**-1
  20:       985.29 cm**-1
  21:      1021.30 cm**-1
  22:      1022.90 cm**-1
  23:      1038.79 cm**-1
  24:      1060.34 cm**-1
  25:      1168.52 cm**-1
  26:      1225.97 cm**-1
  27:      1279.06 cm**-1
  28:      1329.32 cm**-1
  29:      1365.79 cm**-1
  30:      1372.79 cm**-1
  31:      1412.37 cm**-1
  32:      1435.86 cm**-1
  33:      1458.46 cm**-1
  34:      1467.83 cm**-1
  35:      1489.88 cm**-1
  36:      1642.49 cm**-1
  37:      1719.31 cm**-1
  38:      2403.55 cm**-1
  39:      3087.59 cm**-1
  40:      3091.17 cm**-1
  41:      3144.56 cm**-1
  42:      3153.27 cm**-1
  43:      3161.03 cm**-1
  44:      3172.25 cm**-1
  45:      3258.04 cm**-1
  46:      3421.93 cm**-1
  47:      3478.47 cm**-1

IR SPECTRUM
-----------

 Mode    freq (cm**-1)   T**2         TX         TY         TZ
-------------------------------------------------------------------
   6:        53.45    6.273892  (  1.160368   1.969668   1.023644)
   7:        83.74    4.068993  (  0.733242  -1.320309   1.337211)
   8:       116.94    7.349222  ( -1.929378  -1.167489  -1.504557)
   9:       203.20    6.305293  ( -1.914584   0.513278   1.541495)
  10:       246.18    0.672565  (  0.008930   0.418930  -0.704970)
  11:       358.13    2.081522  ( -1.272566  -0.572444  -0.366615)
  12:       367.18    0.972573  ( -0.747567  -0.481797  -0.426132)
  13:       431.20    0.929953  ( -0.660126  -0.111206  -0.694133)
  14:       585.19    5.017243  (  0.697509   0.513259  -2.065742)
  15:       652.44   14.566998  ( -2.219214   2.768158  -1.406907)
  16:       802.39    7.286989  ( -2.048056   1.557066   0.817312)
  17:       869.39   26.679243  ( -4.398643   1.416299  -2.307657)
  18:       910.76   19.299630  (  3.144436   0.448018   3.035034)
  19:       959.80    1.159144  ( -0.935478  -0.094464   0.524500)
  20:       985.29    7.297141  (  2.179676   0.719530   1.424230)
  21:      1021.30   42.605903  (  3.849855  -3.939032   3.502649)
  22:      1022.90   21.337450  (  4.462993   0.839032  -0.845678)
  23:      1038.79   19.230901  ( -1.666527   3.570916  -1.924097)
  24:      1060.34    4.398606  ( -0.386645  -1.616967   1.278487)
  25:      1168.52    3.528144  (  0.349405   0.941074   1.587589)
  26:      1225.97    1.149260  ( -0.124600   0.717343   0.786864)
  27:      1279.06   20.380693  ( -3.498108  -1.991718  -2.043769)
  28:      1329.32    7.304614  (  1.035998   1.626355   1.893751)
  29:      1365.79    7.997704  (  2.549939  -1.221227  -0.064201)
  30:      1372.79    3.260525  ( -1.040242   0.593472  -1.351374)
  31:      1412.37   54.481794  (  7.102423   0.315249   1.984438)
  32:      1435.86   25.232578  ( -2.801385  -0.917601  -4.067288)
  33:      1458.46   22.514597  (  2.194482   3.246585   2.675543)
  34:      1467.83   27.627378  (  1.874312   2.988389   3.896648)
  35:      1489.88   12.195904  ( -1.494671  -0.932119   3.015463)
  36:      1642.49   56.568024  (  2.759532   5.414706  -4.431023)
  37:      1719.31    2.338814  (  1.426571   0.117939   0.538331)
  38:      2403.55    7.379921  (  1.768307  -0.325877  -2.036373)
  39:      3087.59    3.200143  ( -1.417241  -0.910727  -0.601789)
  40:      3091.17    3.192171  ( -1.063677  -0.676861  -1.265947)
  41:      3144.56    7.244796  (  0.949158  -2.142469   1.324281)
  42:      3153.27    0.679963  ( -0.661753  -0.151003   0.468234)
  43:      3161.03    1.069685  ( -0.913191  -0.479969   0.073471)
  44:      3172.25    0.124741  (  0.129367   0.139499   0.297565)
  45:      3258.04    0.529434  (  0.643340   0.336704   0.046667)
  46:      3421.93   53.397911  ( -1.576080  -5.466063   4.586506)
  47:      3478.47   80.136877  (  3.083507  -5.590683  -6.274800)

--------------------------
THERMOCHEMISTRY AT 298.15K
--------------------------

Temperature         ... 298.15 K
Pressure            ... 1.00 atm
Total Mass          ... 97.14 AMU

Throughout the following assumptions are being made:
  (1) The electronic state is orbitally nondegenerate
  (2) There are no thermally accessible electronically excited states
  (3) Hindered rotations indicated by low frequency modes) are not
      treated as such but are treated as vibrations and this may
      case some error
  (4) All equations used are the standard statistical mechanics
      equations for an ideal gas
  (5) All vibrations are strinctly harmonic

------------
INNER ENERGY
------------

The inner energy is: U= E(el) + E(ZPE) + E(vib) + E(rot) + E(trans)
    E(el)   - is the total energy from the electronic structure calculation
              = E(kin-el) + E(nuc-el) + E(el-el) + E(nuc-nuc)
    E(ZPE)  - the the zero temperature vibrational energy from the frequency calculation
    E(vib)  - the the finite temperature correction to E(ZPE) due to population
              of excietd vibrational states
    E(rot)  - is the rotational thermal energy
    E(trans)- is the translational thermal energy

Summary of contributions to the inner energy U:
Electronic energy                ...   -304.88627701 Eh
Zero point energy                ...      0.14012580 Eh      87.93 kcal/mol
Thermal vibrational correction   ...      0.00512987 Eh       3.22 kcal/mol
Thermal rotational correction    ...      0.00141627 Eh       0.89 kcal/mol
Thermal translational correction ...      0.00141627 Eh       0.89 kcal/mol
-----------------------------------------------------------------------
Total thermal energy                   -304.73818880 Eh

Summary of corrections to the electronic energy:
(perhaps to be used in another calculation)
Total thermal correction                  0.00796241 Eh       5.00 kcal/mol
Non-thermal (ZPE) correction              0.14012580 Eh      87.93 kcal/mol
-----------------------------------------------------------------------
Total correction                          0.14808822 Eh      92.93 kcal/mol

--------
ENTHALPY
--------

The enthalpy is H = U + kB*T
                kB is Boltzmann's constant
Total free energy                 ...   -304.73818880 Eh
Thermal Enthalpy correction       ...      0.00094421 Eh       0.59 kcal/mol
-----------------------------------------------------------------------
Total Enthalpy                    ...   -304.73724459 Eh

-------
ENTROPY
-------

The entropy contributions are T*S = T*(S(el)+S(vib)+S(rot)+S(trans)
     S(el)   - electronic entropy
     S(vib)  - vibrational entropy
     S(rot)  - rotational entropy
     S(trans)- translational entropy
The entropies will be listed as mutliplied by the temperature to get
units of energy

Electronic entropy                ...      0.00000000 Eh      0.00 kcal/mol
Vibrational entropy               ...      0.00984111 Eh      6.18 kcal/mol
Rotational entropy                ...      0.01230364 Eh      7.72 kcal/mol
Translational entropy             ...      0.01883016 Eh     11.82 kcal/mol
-----------------------------------------------------------------------
Final entropy term                ...      0.04097491 Eh     25.71 kcal/mol

CAUTION: The rotational entropy is not quite correctly treated here
         because it includes a symmetry number that is not yet correctly
         implemented in ORCA!
For a nonlinear molecule the correct rotational entropy is:
    S(rot) = R*(ln(qrot/sn)+1.5)
    R    = 8.31441 J/mol/K = 1.987191683e-3 kcal/mol/K
    qrot = 305478.4494727
    sn is the rotational symmetry number. We have assumed 3 here
       if it is different for your molecule then you should correct
       the printed rotational entropy by manually evaluating the equation
       as given above

For convenience we print out the resulting values for sn=1 - 12:
 sn= 1  qrot/sn=  305478.4495 T*S(rot)=     8.37 kcal/mol T*S(tot)=    26.36 kcal/mol
 sn= 2  qrot/sn=  152739.2247 T*S(rot)=     7.96 kcal/mol T*S(tot)=    25.95 kcal/mol
 sn= 3  qrot/sn=  101826.1498 T*S(rot)=     7.72 kcal/mol T*S(tot)=    25.71 kcal/mol
 sn= 4  qrot/sn=   76369.6124 T*S(rot)=     7.55 kcal/mol T*S(tot)=    25.54 kcal/mol
 sn= 5  qrot/sn=   61095.6899 T*S(rot)=     7.42 kcal/mol T*S(tot)=    25.41 kcal/mol
 sn= 6  qrot/sn=   50913.0749 T*S(rot)=     7.31 kcal/mol T*S(tot)=    25.30 kcal/mol
 sn= 7  qrot/sn=   43639.7785 T*S(rot)=     7.22 kcal/mol T*S(tot)=    25.21 kcal/mol
 sn= 8  qrot/sn=   38184.8062 T*S(rot)=     7.14 kcal/mol T*S(tot)=    25.13 kcal/mol
 sn= 9  qrot/sn=   33942.0499 T*S(rot)=     7.07 kcal/mol T*S(tot)=    25.06 kcal/mol
 sn=10  qrot/sn=   30547.8449 T*S(rot)=     7.01 kcal/mol T*S(tot)=    25.00 kcal/mol
 sn=11  qrot/sn=   27770.7681 T*S(rot)=     6.95 kcal/mol T*S(tot)=    24.94 kcal/mol
 sn=12  qrot/sn=   25456.5375 T*S(rot)=     6.90 kcal/mol T*S(tot)=    24.89 kcal/mol

-------------------
GIBBS FREE ENTHALPY
-------------------

The Gibbs free enthalpy is G = H - T*S

Total enthalpy                    ...   -304.73724459 Eh
Total entropy correction          ...     -0.04097491 Eh    -25.71 kcal/mol
-----------------------------------------------------------------------
Final Gibbs free enthalpy         ...   -304.77821950 Eh

For completeness - the Gibbs free enthalpy minus the electronic energy
G-E(el)                           ...      0.10805751 Eh     67.81 kcal/mol

                             ****ORCA TERMINATED NORMALLY****
TOTAL RUN TIME: 0 days 0 hours 27 minutes 26 seconds 292 msec
