                         Program Version 3.0.3 - RELEASE   -
|  1> ! NORI PBE0 def2-TZVP UseSym TightOPT Freq TightSCF Grid3 FinalGrid5 XYZFile
|  2> % pal
|  3>     nprocs 8
|  4> end
|  5> %method
|  6>     SymThresh 5.0e-2
|  7> end
|  8> % geom
|  9>     MaxIter 10
| 10> end
| 11> % maxcore 2000
| 12> % output
| 13>     printlevel mini
| 14>     print[ P_Basis ] 0
| 15>     print[ P_SCFInfo ] 1
| 16>     print[ P_SCFIterInfo ] 1
| 17>     print[ P_OrbEn ] 0
| 18>     print[ P_Cartesian ] 0
| 19> end
| 20> % elprop
| 21>     Dipole false
| 22> end
| 23> *xyz 1 1
| 24>  C        0.9533582517    -0.1312278500     0.1291675938
| 25>  C        2.1474996756    -0.0372043477     0.1331716740
| 26>  C        3.5855066388     0.0590567353     0.1258820141
| 27>  N        4.1680321826    -1.2161633126    -0.4505496907
| 28>  C        5.6645027746    -1.2552915612    -0.5104532402
| 29>  C        6.1521388800    -0.2025301996    -1.3816108376
| 30>  N        6.4996579285     0.6413781687    -2.0778188502
| 31>  H       -0.1130991735    -0.1994410690     0.1324227384
| 32>  H        3.9456091771     0.8810513650    -0.4977626093
| 33>  H        3.9997925638     0.1712492955     1.1309840794
| 34>  H        3.8301896579    -2.0044409130     0.1084401075
| 35>  H        3.7778705780    -1.3457923439    -1.3891406744
| 36>  H        6.0498827078    -1.1303412640     0.5038996806
| 37>  H        5.9680281573    -2.2357727032    -0.8841419853
| 38> *
| 39>
| 40>                          ****END OF INPUT****
 Total Charge           Charge          ....    1
 Multiplicity           Mult            ....    1
 Number of Electrons    NEL             ....   50
FINAL SINGLE POINT ENERGY      -303.625750023281

CARTESIAN COORDINATES (ANGSTROEM)
---------------------------------
  C     -3.156956   -1.049765   -0.003601
  C     -2.144747   -0.423213   -0.137217
  C     -0.918141    0.319354   -0.283129
  N      0.000066   -0.000368    0.879829
  C      1.316592    0.714710    0.859745
  C      2.070989    0.329814   -0.318395
  N      2.637502    0.000793   -1.261001
  H     -4.065735   -1.601950    0.101127
  H     -0.376674    0.056050   -1.195260
  H     -1.082299    1.399872   -0.269849
  H     -0.493646    0.222135    1.748746
  H      0.153770   -1.013447    0.892041
  H      1.121241    1.789346    0.862488
  H      1.863049    0.453904    1.768968

FINAL SINGLE POINT ENERGY      -303.625750350763
                    ***********************HURRAY********************
 Multiplicity           Mult            ....    1
 Number of Electrons    NEL             ....   50
 Basis Dimension        Dim             ....  259
FINAL SINGLE POINT ENERGY      -303.625750494268

VIBRATIONAL FREQUENCIES
-----------------------

   0:         0.00 cm**-1
   1:         0.00 cm**-1
   2:         0.00 cm**-1
   3:         0.00 cm**-1
   4:         0.00 cm**-1
   5:         0.00 cm**-1
   6:        56.32 cm**-1
   7:        96.61 cm**-1
   8:       150.09 cm**-1
   9:       195.89 cm**-1
  10:       322.40 cm**-1
  11:       328.27 cm**-1
  12:       363.61 cm**-1
  13:       478.97 cm**-1
  14:       599.18 cm**-1
  15:       733.55 cm**-1
  16:       784.43 cm**-1
  17:       806.24 cm**-1
  18:       868.01 cm**-1
  19:       920.65 cm**-1
  20:       998.25 cm**-1
  21:      1013.98 cm**-1
  22:      1046.20 cm**-1
  23:      1077.27 cm**-1
  24:      1211.02 cm**-1
  25:      1276.99 cm**-1
  26:      1358.36 cm**-1
  27:      1377.65 cm**-1
  28:      1418.66 cm**-1
  29:      1438.84 cm**-1
  30:      1468.10 cm**-1
  31:      1477.63 cm**-1
  32:      1642.35 cm**-1
  33:      2258.85 cm**-1
  34:      2403.00 cm**-1
  35:      3078.89 cm**-1
  36:      3091.08 cm**-1
  37:      3132.22 cm**-1
  38:      3144.37 cm**-1
  39:      3418.55 cm**-1
  40:      3449.10 cm**-1
  41:      3470.84 cm**-1

IR SPECTRUM
-----------

 Mode    freq (cm**-1)   T**2         TX         TY         TZ
-------------------------------------------------------------------
   6:        56.32    4.832739  ( -0.943198  -1.842210  -0.741202)
   7:        96.61    8.522181  (  1.938286   0.706513   2.065446)
   8:       150.09    1.546961  (  0.380059   0.968746  -0.681210)
   9:       195.89    4.750649  ( -1.929029   0.065593   1.012518)
  10:       322.40    3.763134  ( -0.560522  -1.121330   1.480394)
  11:       328.27   20.164952  (  1.709148  -3.450542  -2.310308)
  12:       363.61    0.201326  (  0.259005  -0.358885  -0.073783)
  13:       478.97   26.012653  (  2.684499  -0.666370   4.285098)
  14:       599.18    7.651023  (  2.696653  -0.607833  -0.098118)
  15:       733.55   40.612423  ( -2.531458   4.715495   3.459516)
  16:       784.43   27.153095  (  1.014421  -2.446114   4.487825)
  17:       806.24    7.667043  (  1.999494  -1.904560  -0.204251)
  18:       868.01   26.724403  ( -4.428841   0.747378  -2.559530)
  19:       920.65    6.968153  (  1.789841   0.754271   1.787651)
  20:       998.25    6.578365  ( -2.177891  -1.054150  -0.850836)
  21:      1013.98   17.020382  (  3.964216   1.046580   0.458303)
  22:      1046.20   15.762346  ( -3.359661  -0.534930   2.046673)
  23:      1077.27    5.692216  ( -0.311420   1.942137   1.350310)
  24:      1211.02    1.765430  ( -0.332694  -0.940130  -0.878009)
  25:      1276.99   14.094213  (  2.784805   1.741829   1.817996)
  26:      1358.36    8.721457  ( -2.590150   1.382591  -0.317843)
  27:      1377.65    8.013371  ( -1.291320  -1.260378   2.181126)
  28:      1418.66   44.701428  (  6.667339   0.483450  -0.119543)
  29:      1438.84   53.796236  (  6.077709   2.180665   3.478849)
  30:      1468.10   28.606921  (  2.060331   3.488791   3.491460)
  31:      1477.63   10.000925  ( -0.968322  -1.660058   2.511471)
  32:      1642.35   56.963821  (  2.619115   4.909872  -5.098746)
  33:      2258.85   46.107183  ( -6.140714  -2.882165  -0.303220)
  34:      2403.00    9.322057  (  2.112507  -0.393449  -2.169002)
  35:      3078.89    2.476539  ( -1.059346  -0.243886  -1.137913)
  36:      3091.08    4.852674  ( -1.372404  -1.055690  -1.361874)
  37:      3132.22    4.212721  ( -1.329818   0.911079   1.270528)
  38:      3144.37    8.690208  ( -1.252268   2.071278  -1.682807)
  39:      3418.55   59.726153  ( -1.213110  -5.249685   5.540336)
  40:      3449.10  102.455632  ( -8.653221  -5.153117   1.011329)
  41:      3470.84   94.160886  (  4.117670  -6.698604  -5.686333)

--------------------------
THERMOCHEMISTRY AT 298.15K
--------------------------

Temperature         ... 298.15 K
Pressure            ... 1.00 atm
Total Mass          ... 95.12 AMU

Throughout the following assumptions are being made:
  (1) The electronic state is orbitally nondegenerate
  (2) There are no thermally accessible electronically excited states
  (3) Hindered rotations indicated by low frequency modes) are not
      treated as such but are treated as vibrations and this may
      case some error
  (4) All equations used are the standard statistical mechanics
      equations for an ideal gas
  (5) All vibrations are strinctly harmonic

------------
INNER ENERGY
------------

The inner energy is: U= E(el) + E(ZPE) + E(vib) + E(rot) + E(trans)
    E(el)   - is the total energy from the electronic structure calculation
              = E(kin-el) + E(nuc-el) + E(el-el) + E(nuc-nuc)
    E(ZPE)  - the the zero temperature vibrational energy from the frequency calculation
    E(vib)  - the the finite temperature correction to E(ZPE) due to population
              of excietd vibrational states
    E(rot)  - is the rotational thermal energy
    E(trans)- is the translational thermal energy

Summary of contributions to the inner energy U:
Electronic energy                ...   -303.62575049 Eh
Zero point energy                ...      0.11608729 Eh      72.85 kcal/mol
Thermal vibrational correction   ...      0.00487224 Eh       3.06 kcal/mol
Thermal rotational correction    ...      0.00141627 Eh       0.89 kcal/mol
Thermal translational correction ...      0.00141627 Eh       0.89 kcal/mol
-----------------------------------------------------------------------
Total thermal energy                   -303.50195842 Eh

Summary of corrections to the electronic energy:
(perhaps to be used in another calculation)
Total thermal correction                  0.00770478 Eh       4.83 kcal/mol
Non-thermal (ZPE) correction              0.11608729 Eh      72.85 kcal/mol
-----------------------------------------------------------------------
Total correction                          0.12379207 Eh      77.68 kcal/mol

--------
ENTHALPY
--------

The enthalpy is H = U + kB*T
                kB is Boltzmann's constant
Total free energy                 ...   -303.50195842 Eh
Thermal Enthalpy correction       ...      0.00094421 Eh       0.59 kcal/mol
-----------------------------------------------------------------------
Total Enthalpy                    ...   -303.50101421 Eh

-------
ENTROPY
-------

The entropy contributions are T*S = T*(S(el)+S(vib)+S(rot)+S(trans)
     S(el)   - electronic entropy
     S(vib)  - vibrational entropy
     S(rot)  - rotational entropy
     S(trans)- translational entropy
The entropies will be listed as mutliplied by the temperature to get
units of energy

Electronic entropy                ...      0.00000000 Eh      0.00 kcal/mol
Vibrational entropy               ...      0.00915416 Eh      5.74 kcal/mol
Rotational entropy                ...      0.01219736 Eh      7.65 kcal/mol
Translational entropy             ...      0.01880046 Eh     11.80 kcal/mol
-----------------------------------------------------------------------
Final entropy term                ...      0.04015198 Eh     25.20 kcal/mol

CAUTION: The rotational entropy is not quite correctly treated here
         because it includes a symmetry number that is not yet correctly
         implemented in ORCA!
For a nonlinear molecule the correct rotational entropy is:
    S(rot) = R*(ln(qrot/sn)+1.5)
    R    = 8.31441 J/mol/K = 1.987191683e-3 kcal/mol/K
    qrot = 272957.2992630
    sn is the rotational symmetry number. We have assumed 3 here
       if it is different for your molecule then you should correct
       the printed rotational entropy by manually evaluating the equation
       as given above

For convenience we print out the resulting values for sn=1 - 12:
 sn= 1  qrot/sn=  272957.2993 T*S(rot)=     8.30 kcal/mol T*S(tot)=    25.85 kcal/mol
 sn= 2  qrot/sn=  136478.6496 T*S(rot)=     7.89 kcal/mol T*S(tot)=    25.44 kcal/mol
 sn= 3  qrot/sn=   90985.7664 T*S(rot)=     7.65 kcal/mol T*S(tot)=    25.20 kcal/mol
 sn= 4  qrot/sn=   68239.3248 T*S(rot)=     7.48 kcal/mol T*S(tot)=    25.03 kcal/mol
 sn= 5  qrot/sn=   54591.4599 T*S(rot)=     7.35 kcal/mol T*S(tot)=    24.89 kcal/mol
 sn= 6  qrot/sn=   45492.8832 T*S(rot)=     7.24 kcal/mol T*S(tot)=    24.79 kcal/mol
 sn= 7  qrot/sn=   38993.8999 T*S(rot)=     7.15 kcal/mol T*S(tot)=    24.69 kcal/mol
 sn= 8  qrot/sn=   34119.6624 T*S(rot)=     7.07 kcal/mol T*S(tot)=    24.61 kcal/mol
 sn= 9  qrot/sn=   30328.5888 T*S(rot)=     7.00 kcal/mol T*S(tot)=    24.54 kcal/mol
 sn=10  qrot/sn=   27295.7299 T*S(rot)=     6.94 kcal/mol T*S(tot)=    24.48 kcal/mol
 sn=11  qrot/sn=   24814.2999 T*S(rot)=     6.88 kcal/mol T*S(tot)=    24.43 kcal/mol
 sn=12  qrot/sn=   22746.4416 T*S(rot)=     6.83 kcal/mol T*S(tot)=    24.37 kcal/mol

-------------------
GIBBS FREE ENTHALPY
-------------------

The Gibbs free enthalpy is G = H - T*S

Total enthalpy                    ...   -303.50101421 Eh
Total entropy correction          ...     -0.04015198 Eh    -25.20 kcal/mol
-----------------------------------------------------------------------
Final Gibbs free enthalpy         ...   -303.54116619 Eh

For completeness - the Gibbs free enthalpy minus the electronic energy
G-E(el)                           ...      0.08458430 Eh     53.08 kcal/mol

                             ****ORCA TERMINATED NORMALLY****
TOTAL RUN TIME: 0 days 0 hours 23 minutes 34 seconds 453 msec
