                         Program Version 3.0.3 - RELEASE   -
|  1> ! NORI PBE0 def2-TZVP UseSym TightOPT Freq TightSCF Grid3 FinalGrid5 XYZFile
|  2> % pal
|  3>     nprocs 8
|  4> end
|  5> %method
|  6>     SymThresh 5.0e-2
|  7> end
|  8> % geom
|  9>     MaxIter 10
| 10> end
| 11> % maxcore 2000
| 12> % output
| 13>     printlevel mini
| 14>     print[ P_Basis ] 0
| 15>     print[ P_SCFInfo ] 1
| 16>     print[ P_SCFIterInfo ] 1
| 17>     print[ P_OrbEn ] 0
| 18>     print[ P_Cartesian ] 0
| 19> end
| 20> % elprop
| 21>     Dipole false
| 22> end
| 23> *xyz 1 1
| 24>  C        1.3426647451     0.0488037130     0.3479974013
| 25>  C        2.8029737996    -0.0934880596     0.2938628831
| 26>  C        3.7605127833     1.0336776970     0.0726209325
| 27>  N        3.4284189926    -1.2231483506     0.4328560056
| 28>  C        4.7694286485    -0.9575134780     0.3219552452
| 29>  C        5.7849740109    -2.0067706374     0.4302885288
| 30>  N        5.0067274727     0.3127254722     0.1157051372
| 31>  H        0.8726056544    -0.9167557664     0.5193487796
| 32>  H        0.9696383556     0.4801122444    -0.5867108339
| 33>  H        1.0588981049     0.7449000181     1.1439901554
| 34>  H        3.6085900189     1.5319404388    -0.8911469758
| 35>  H        3.7013611145     1.7945091315     0.8589976129
| 36>  H        6.7990080568    -1.6304570485     0.3107648521
| 37>  H        5.5757106631    -2.7743450161    -0.3207935849
| 38>  H        5.6775956839    -2.4960189364     1.4031291972
| 39>  H        5.9220218951     0.7250485782     0.0041546637
| 40> *
| 41>
| 42>                          ****END OF INPUT****
 Total Charge           Charge          ....    1
 Multiplicity           Mult            ....    1
 Number of Electrons    NEL             ....   52
FINAL SINGLE POINT ENERGY      -304.968545017115

CARTESIAN COORDINATES (ANGSTROEM)
---------------------------------
  C      0.754472    2.437658   -0.000000
  C      0.207667    1.075042    0.000000
  C     -1.250476    0.742927    0.000000
  N      0.936250   -0.000005    0.000000
  C      0.077057   -1.069065    0.000000
  C      0.553517   -2.453833   -0.000000
  N     -1.177228   -0.695620    0.000000
  H      1.841746    2.410977    0.000000
  H      0.398439    2.988585    0.876481
  H      0.398439    2.988585   -0.876481
  H     -1.768401    1.126176    0.885983
  H     -1.768401    1.126176   -0.885983
  H     -0.255456   -3.181649   -0.000000
  H      1.193893   -2.602043    0.874532
  H      1.193893   -2.602043   -0.874532
  H     -1.971960   -1.319005    0.000000

FINAL SINGLE POINT ENERGY      -304.968545208220
                    ***********************HURRAY********************
 Multiplicity           Mult            ....    1
 Number of Electrons    NEL             ....   52
 Basis Dimension        Dim             ....  271
FINAL SINGLE POINT ENERGY      -304.968545235887

VIBRATIONAL FREQUENCIES
-----------------------

   0:         0.00 cm**-1
   1:         0.00 cm**-1
   2:         0.00 cm**-1
   3:         0.00 cm**-1
   4:         0.00 cm**-1
   5:         0.00 cm**-1
   6:        58.28 cm**-1
   7:       129.11 cm**-1
   8:       193.08 cm**-1
   9:       260.14 cm**-1
  10:       276.54 cm**-1
  11:       416.79 cm**-1
  12:       451.67 cm**-1
  13:       611.52 cm**-1
  14:       623.07 cm**-1
  15:       673.36 cm**-1
  16:       713.67 cm**-1
  17:       847.91 cm**-1
  18:       891.33 cm**-1
  19:       980.37 cm**-1
  20:      1002.23 cm**-1
  21:      1051.67 cm**-1
  22:      1056.75 cm**-1
  23:      1061.01 cm**-1
  24:      1081.76 cm**-1
  25:      1192.55 cm**-1
  26:      1216.61 cm**-1
  27:      1290.40 cm**-1
  28:      1370.43 cm**-1
  29:      1374.69 cm**-1
  30:      1403.08 cm**-1
  31:      1420.67 cm**-1
  32:      1436.55 cm**-1
  33:      1440.21 cm**-1
  34:      1454.31 cm**-1
  35:      1459.65 cm**-1
  36:      1476.62 cm**-1
  37:      1609.25 cm**-1
  38:      1663.15 cm**-1
  39:      3052.41 cm**-1
  40:      3061.28 cm**-1
  41:      3067.22 cm**-1
  42:      3107.02 cm**-1
  43:      3113.65 cm**-1
  44:      3124.60 cm**-1
  45:      3181.59 cm**-1
  46:      3185.46 cm**-1
  47:      3624.86 cm**-1

IR SPECTRUM
-----------

 Mode    freq (cm**-1)   T**2         TX         TY         TZ
-------------------------------------------------------------------
   6:        58.28    0.875548  ( -0.000007   0.000003  -0.935707)
   7:       129.11    2.821626  ( -0.000017  -0.000001   1.679770)
   8:       193.08   12.647863  ( -0.000003  -0.000022  -3.556383)
   9:       260.14    1.257467  ( -0.000016   0.000017  -1.121368)
  10:       276.54    1.143065  (  1.058592  -0.149827   0.000059)
  11:       416.79    4.292379  (  0.189081   2.063159   0.000017)
  12:       451.67    0.326668  ( -0.000002  -0.000032   0.571548)
  13:       611.52    1.230426  ( -0.173256  -1.095631  -0.000029)
  14:       623.07   54.340460  ( -0.000013   0.000004   7.371598)
  15:       673.36   25.301635  (  0.000025  -0.000017   5.030073)
  16:       713.67    0.474742  ( -0.681863  -0.099020  -0.000004)
  17:       847.91    1.591507  (  0.000016  -0.000039   1.261549)
  18:       891.33    0.340755  ( -0.502525  -0.297024   0.000013)
  19:       980.37   24.966119  ( -1.126892  -4.867878   0.000004)
  20:      1002.23    3.514003  ( -0.365868  -1.838517  -0.000009)
  21:      1051.67   10.826722  (  0.000017  -0.000080  -3.290398)
  22:      1056.75    4.373783  (  0.199828   2.081791  -0.000320)
  23:      1061.01    2.221822  (  0.000001   0.000277   1.490578)
  24:      1081.76   13.040385  (  3.570226   0.542099   0.000017)
  25:      1192.55    2.212790  (  0.000000   0.000012  -1.487545)
  26:      1216.61   20.638778  (  3.739122   2.580260   0.000007)
  27:      1290.40   23.842415  ( -4.058513  -2.714937   0.000009)
  28:      1370.43   34.400088  ( -4.596711   3.642847   0.000050)
  29:      1374.69   26.661286  (  4.228977   2.962607  -0.000064)
  30:      1403.08   76.031236  (  5.843837  -6.471538  -0.000016)
  31:      1420.67  123.110153  (  5.038400   9.885579   0.000057)
  32:      1436.55   77.148412  ( -0.656981   8.758812   0.000054)
  33:      1440.21   15.622515  (  0.000040   0.000082   3.952533)
  34:      1454.31   15.988248  ( -0.000140  -0.000392   3.998531)
  35:      1459.65   32.072110  (  3.887978   4.117734   0.000142)
  36:      1476.62  115.149132  ( -1.402855  10.638662  -0.000023)
  37:      1609.25   86.387748  (  4.298151   8.240974  -0.000001)
  38:      1663.15  229.957833  (  8.613491 -12.480609   0.000002)
  39:      3052.41   15.104115  ( -2.331506  -3.109372  -0.000018)
  40:      3061.28   26.679521  (  3.256508  -4.009323  -0.000003)
  41:      3067.22   16.109687  (  3.627343  -1.718160  -0.000005)
  42:      3107.02    2.746059  (  0.000006   0.000014   1.657124)
  43:      3113.65    7.433863  ( -0.000001   0.000036  -2.726511)
  44:      3124.60    6.648432  ( -0.000021   0.000019   2.578455)
  45:      3181.59    4.848137  (  1.149743  -1.877825  -0.000010)
  46:      3185.46    2.541080  ( -0.754755   1.404074   0.000001)
  47:      3624.86  161.222505  ( 10.730885   6.787533   0.000000)

--------------------------
THERMOCHEMISTRY AT 298.15K
--------------------------

Temperature         ... 298.15 K
Pressure            ... 1.00 atm
Total Mass          ... 97.14 AMU

Throughout the following assumptions are being made:
  (1) The electronic state is orbitally nondegenerate
  (2) There are no thermally accessible electronically excited states
  (3) Hindered rotations indicated by low frequency modes) are not
      treated as such but are treated as vibrations and this may
      case some error
  (4) All equations used are the standard statistical mechanics
      equations for an ideal gas
  (5) All vibrations are strinctly harmonic

------------
INNER ENERGY
------------

The inner energy is: U= E(el) + E(ZPE) + E(vib) + E(rot) + E(trans)
    E(el)   - is the total energy from the electronic structure calculation
              = E(kin-el) + E(nuc-el) + E(el-el) + E(nuc-nuc)
    E(ZPE)  - the the zero temperature vibrational energy from the frequency calculation
    E(vib)  - the the finite temperature correction to E(ZPE) due to population
              of excietd vibrational states
    E(rot)  - is the rotational thermal energy
    E(trans)- is the translational thermal energy

Summary of contributions to the inner energy U:
Electronic energy                ...   -304.96854524 Eh
Zero point energy                ...      0.13829954 Eh      86.78 kcal/mol
Thermal vibrational correction   ...      0.00450508 Eh       2.83 kcal/mol
Thermal rotational correction    ...      0.00141627 Eh       0.89 kcal/mol
Thermal translational correction ...      0.00141627 Eh       0.89 kcal/mol
-----------------------------------------------------------------------
Total thermal energy                   -304.82290807 Eh

Summary of corrections to the electronic energy:
(perhaps to be used in another calculation)
Total thermal correction                  0.00733762 Eh       4.60 kcal/mol
Non-thermal (ZPE) correction              0.13829954 Eh      86.78 kcal/mol
-----------------------------------------------------------------------
Total correction                          0.14563716 Eh      91.39 kcal/mol

--------
ENTHALPY
--------

The enthalpy is H = U + kB*T
                kB is Boltzmann's constant
Total free energy                 ...   -304.82290807 Eh
Thermal Enthalpy correction       ...      0.00094421 Eh       0.59 kcal/mol
-----------------------------------------------------------------------
Total Enthalpy                    ...   -304.82196386 Eh

-------
ENTROPY
-------

The entropy contributions are T*S = T*(S(el)+S(vib)+S(rot)+S(trans)
     S(el)   - electronic entropy
     S(vib)  - vibrational entropy
     S(rot)  - rotational entropy
     S(trans)- translational entropy
The entropies will be listed as mutliplied by the temperature to get
units of energy

Electronic entropy                ...      0.00000000 Eh      0.00 kcal/mol
Vibrational entropy               ...      0.00813582 Eh      5.11 kcal/mol
Rotational entropy                ...      0.01186459 Eh      7.45 kcal/mol
Translational entropy             ...      0.01883016 Eh     11.82 kcal/mol
-----------------------------------------------------------------------
Final entropy term                ...      0.03883057 Eh     24.37 kcal/mol

CAUTION: The rotational entropy is not quite correctly treated here
         because it includes a symmetry number that is not yet correctly
         implemented in ORCA!
For a nonlinear molecule the correct rotational entropy is:
    S(rot) = R*(ln(qrot/sn)+1.5)
    R    = 8.31441 J/mol/K = 1.987191683e-3 kcal/mol/K
    qrot = 191880.8544096
    sn is the rotational symmetry number. We have assumed 3 here
       if it is different for your molecule then you should correct
       the printed rotational entropy by manually evaluating the equation
       as given above

For convenience we print out the resulting values for sn=1 - 12:
 sn= 1  qrot/sn=  191880.8544 T*S(rot)=     8.10 kcal/mol T*S(tot)=    25.02 kcal/mol
 sn= 2  qrot/sn=   95940.4272 T*S(rot)=     7.69 kcal/mol T*S(tot)=    24.61 kcal/mol
 sn= 3  qrot/sn=   63960.2848 T*S(rot)=     7.45 kcal/mol T*S(tot)=    24.37 kcal/mol
 sn= 4  qrot/sn=   47970.2136 T*S(rot)=     7.27 kcal/mol T*S(tot)=    24.20 kcal/mol
 sn= 5  qrot/sn=   38376.1709 T*S(rot)=     7.14 kcal/mol T*S(tot)=    24.06 kcal/mol
 sn= 6  qrot/sn=   31980.1424 T*S(rot)=     7.03 kcal/mol T*S(tot)=    23.96 kcal/mol
 sn= 7  qrot/sn=   27411.5506 T*S(rot)=     6.94 kcal/mol T*S(tot)=    23.86 kcal/mol
 sn= 8  qrot/sn=   23985.1068 T*S(rot)=     6.86 kcal/mol T*S(tot)=    23.79 kcal/mol
 sn= 9  qrot/sn=   21320.0949 T*S(rot)=     6.79 kcal/mol T*S(tot)=    23.72 kcal/mol
 sn=10  qrot/sn=   19188.0854 T*S(rot)=     6.73 kcal/mol T*S(tot)=    23.65 kcal/mol
 sn=11  qrot/sn=   17443.7140 T*S(rot)=     6.68 kcal/mol T*S(tot)=    23.60 kcal/mol
 sn=12  qrot/sn=   15990.0712 T*S(rot)=     6.62 kcal/mol T*S(tot)=    23.55 kcal/mol

-------------------
GIBBS FREE ENTHALPY
-------------------

The Gibbs free enthalpy is G = H - T*S

Total enthalpy                    ...   -304.82196386 Eh
Total entropy correction          ...     -0.03883057 Eh    -24.37 kcal/mol
-----------------------------------------------------------------------
Final Gibbs free enthalpy         ...   -304.86079444 Eh

For completeness - the Gibbs free enthalpy minus the electronic energy
G-E(el)                           ...      0.10775080 Eh     67.61 kcal/mol

                             ****ORCA TERMINATED NORMALLY****
TOTAL RUN TIME: 0 days 0 hours 31 minutes 24 seconds 140 msec
