                         Program Version 3.0.3 - RELEASE   -
|  1> ! NORI PBE0 def2-TZVP UseSym TightOPT Freq TightSCF Grid3 FinalGrid5 XYZFile
|  2> % pal
|  3>     nprocs 8
|  4> end
|  5> %method
|  6>     SymThresh 5.0e-2
|  7> end
|  8> % geom
|  9>     MaxIter 10
| 10> end
| 11> % maxcore 2000
| 12> % output
| 13>     printlevel mini
| 14>     print[ P_Basis ] 0
| 15>     print[ P_SCFInfo ] 1
| 16>     print[ P_SCFIterInfo ] 1
| 17>     print[ P_OrbEn ] 0
| 18>     print[ P_Cartesian ] 0
| 19> end
| 20> % elprop
| 21>     Dipole false
| 22> end
| 23> *xyz 1 1
| 24>  C        1.0520431377    -0.4865105408     0.2989799456
| 25>  C        2.4618282505    -0.7295948079    -0.1938794400
| 26>  C        2.6415259933    -2.0613808130    -0.8849972189
| 27>  N        2.8086662273     0.4060148204    -1.1551501320
| 28>  C        4.2267789932     0.4847314449    -1.6250313222
| 29>  C        5.1210591413     0.6354830890    -0.4920698366
| 30>  N        5.8017035386     0.7593941465     0.4239249684
| 31>  H        0.9447586969     0.4864950532     0.7856324117
| 32>  H        0.8026850291    -1.2458829280     1.0407568590
| 33>  H        0.3195273663    -0.5661803182    -0.5092991171
| 34>  H        3.1763843068    -0.6161731605     0.6253134380
| 35>  H        1.9886752754    -2.1548952784    -1.7577697606
| 36>  H        2.3615571816    -2.8504843299    -0.1860499651
| 37>  H        3.6729792538    -2.2582878158    -1.1810738183
| 38>  H        2.1999382092     0.3292616637    -1.9743749426
| 39>  H        2.5640738937     1.2880620735    -0.6974156259
| 40>  H        4.3191424590     1.3402874382    -2.2986502281
| 41>  H        4.4591630462    -0.4228297371    -2.1833962154
| 42> *
| 43>
| 44>                          ****END OF INPUT****
 Total Charge           Charge          ....    1
 Multiplicity           Mult            ....    1
 Number of Electrons    NEL             ....   54
FINAL SINGLE POINT ENERGY      -306.126595752278
FINAL SINGLE POINT ENERGY      -306.126597021458

CARTESIAN COORDINATES (ANGSTROEM)
---------------------------------
  C     -1.799055   -1.608013    0.588547
  C     -1.019702   -0.468359   -0.030479
  C     -1.882091    0.694986   -0.461794
  N      0.000093   -0.002408    1.006985
  C      1.016576    0.998796    0.555613
  C      1.792124    0.460677   -0.546748
  N      2.391345    0.005514   -1.413518
  H     -1.151199   -2.431092    0.901078
  H     -2.490010   -2.007435   -0.154277
  H     -2.394436   -1.275561    1.443639
  H     -0.411418   -0.830818   -0.863066
  H     -2.435140    1.122684    0.379897
  H     -2.617550    0.328975   -1.179017
  H     -1.320719    1.483868   -0.964572
  H     -0.510699    0.390807    1.802041
  H      0.487235   -0.830341    1.359741
  H      1.668385    1.232186    1.400653
  H      0.498663    1.910290    0.255795

FINAL SINGLE POINT ENERGY      -306.126597654559
                    ***********************HURRAY********************
 Multiplicity           Mult            ....    1
 Number of Electrons    NEL             ....   54
 Basis Dimension        Dim             ....  283
FINAL SINGLE POINT ENERGY      -306.126597790039

VIBRATIONAL FREQUENCIES
-----------------------

   0:         0.00 cm**-1
   1:         0.00 cm**-1
   2:         0.00 cm**-1
   3:         0.00 cm**-1
   4:         0.00 cm**-1
   5:         0.00 cm**-1
   6:        36.75 cm**-1
   7:        96.72 cm**-1
   8:       182.73 cm**-1
   9:       224.47 cm**-1
  10:       257.43 cm**-1
  11:       270.56 cm**-1
  12:       350.71 cm**-1
  13:       371.78 cm**-1
  14:       409.68 cm**-1
  15:       432.87 cm**-1
  16:       598.18 cm**-1
  17:       750.00 cm**-1
  18:       830.68 cm**-1
  19:       914.43 cm**-1
  20:       943.20 cm**-1
  21:       945.24 cm**-1
  22:       962.34 cm**-1
  23:      1007.23 cm**-1
  24:      1037.05 cm**-1
  25:      1128.83 cm**-1
  26:      1163.76 cm**-1
  27:      1192.56 cm**-1
  28:      1260.11 cm**-1
  29:      1303.81 cm**-1
  30:      1360.83 cm**-1
  31:      1394.05 cm**-1
  32:      1411.22 cm**-1
  33:      1420.25 cm**-1
  34:      1432.48 cm**-1
  35:      1441.96 cm**-1
  36:      1464.61 cm**-1
  37:      1468.34 cm**-1
  38:      1486.57 cm**-1
  39:      1495.96 cm**-1
  40:      1503.08 cm**-1
  41:      1635.31 cm**-1
  42:      2403.29 cm**-1
  43:      3052.62 cm**-1
  44:      3056.76 cm**-1
  45:      3098.02 cm**-1
  46:      3098.92 cm**-1
  47:      3129.92 cm**-1
  48:      3139.95 cm**-1
  49:      3151.65 cm**-1
  50:      3154.66 cm**-1
  51:      3157.09 cm**-1
  52:      3422.96 cm**-1
  53:      3478.22 cm**-1

IR SPECTRUM
-----------

 Mode    freq (cm**-1)   T**2         TX         TY         TZ
-------------------------------------------------------------------
   6:        36.75    6.511700  ( -0.942684   1.854281  -1.478069)
   7:        96.72    9.195779  (  1.891093   2.023636   1.234683)
   8:       182.73    3.085229  (  1.019206   0.430665  -1.364176)
   9:       224.47    0.867816  (  0.613836  -0.148504  -0.684813)
  10:       257.43    0.751115  (  0.644407  -0.146048  -0.560826)
  11:       270.56    2.068403  ( -1.220660   0.510853   0.563402)
  12:       350.71    3.555584  ( -1.346047  -1.131036  -0.681541)
  13:       371.78    2.083209  (  1.119467   0.598746   0.686663)
  14:       409.68    2.134416  (  0.739641  -1.228166   0.280988)
  15:       432.87    1.539425  ( -1.234011  -0.047061  -0.120114)
  16:       598.18    4.433896  ( -1.850320  -0.017806   1.004935)
  17:       750.00   10.871923  ( -3.283160   0.155726  -0.261794)
  18:       830.68    3.791398  ( -1.718123   0.715531  -0.572246)
  19:       914.43    4.815341  (  1.564569   0.351934   1.497868)
  20:       943.20    4.037599  (  0.330040   1.965277  -0.257602)
  21:       945.24    0.362831  (  0.575942  -0.119947  -0.129359)
  22:       962.34    2.030762  (  1.288399  -0.596182   0.123926)
  23:      1007.23    2.102780  (  1.051031  -0.565186  -0.823820)
  24:      1037.05   23.534813  ( -4.385949  -1.865085   0.905385)
  25:      1128.83   35.269375  (  4.008560   3.110102   3.086760)
  26:      1163.76    3.451011  ( -1.259249   1.161325  -0.718768)
  27:      1192.56    3.174444  ( -1.698681   0.455713   0.285049)
  28:      1260.11    6.325198  ( -1.178030  -2.193578  -0.354487)
  29:      1303.81    5.934827  ( -1.465075  -1.943995  -0.096260)
  30:      1360.83    7.534305  ( -2.550682  -0.729768  -0.704107)
  31:      1394.05   18.820542  (  4.235936  -0.166253  -0.921819)
  32:      1411.22   40.140467  ( -5.820879  -0.453298  -2.460153)
  33:      1420.25   31.078269  ( -2.901544  -4.737335   0.465803)
  34:      1432.48    8.522318  (  2.110846  -0.351571   1.985710)
  35:      1441.96   10.692010  ( -0.516022  -2.414894  -2.143366)
  36:      1464.61    0.254849  ( -0.055752  -0.073366  -0.496345)
  37:      1468.34   30.462656  (  0.941738   4.473706   3.092206)
  38:      1486.57   12.460777  (  0.530108  -3.354220  -0.963831)
  39:      1495.96    5.931887  (  1.593410   0.022271   1.841856)
  40:      1503.08   15.169798  ( -1.860353   0.441113   3.393273)
  41:      1635.31   63.023507  ( -0.480149  -2.939115   7.358978)
  42:      2403.29    6.903127  ( -1.716442   0.504479   1.924176)
  43:      3052.62    2.827483  (  0.528313  -0.369817   1.552934)
  44:      3056.76    5.065489  ( -0.789131  -1.393926  -1.581054)
  45:      3098.02    2.863243  (  0.917940   1.108707   0.889605)
  46:      3098.92    0.284872  (  0.106481  -0.269241  -0.448378)
  47:      3129.92    4.063911  ( -1.238274   1.590766  -0.007145)
  48:      3139.95    5.368573  (  1.745436   0.312712  -1.491388)
  49:      3151.65    6.031876  (  0.723726  -1.674700   1.644225)
  50:      3154.66    3.621563  (  1.844028   0.081534   0.463115)
  51:      3157.09    0.326710  ( -0.517118   0.027411  -0.241966)
  52:      3422.96   47.646838  (  0.217911   2.327971  -6.494606)
  53:      3478.22   65.801543  ( -4.886777   6.149214   2.026850)

--------------------------
THERMOCHEMISTRY AT 298.15K
--------------------------

Temperature         ... 298.15 K
Pressure            ... 1.00 atm
Total Mass          ... 99.16 AMU

Throughout the following assumptions are being made:
  (1) The electronic state is orbitally nondegenerate
  (2) There are no thermally accessible electronically excited states
  (3) Hindered rotations indicated by low frequency modes) are not
      treated as such but are treated as vibrations and this may
      case some error
  (4) All equations used are the standard statistical mechanics
      equations for an ideal gas
  (5) All vibrations are strinctly harmonic

------------
INNER ENERGY
------------

The inner energy is: U= E(el) + E(ZPE) + E(vib) + E(rot) + E(trans)
    E(el)   - is the total energy from the electronic structure calculation
              = E(kin-el) + E(nuc-el) + E(el-el) + E(nuc-nuc)
    E(ZPE)  - the the zero temperature vibrational energy from the frequency calculation
    E(vib)  - the the finite temperature correction to E(ZPE) due to population
              of excietd vibrational states
    E(rot)  - is the rotational thermal energy
    E(trans)- is the translational thermal energy

Summary of contributions to the inner energy U:
Electronic energy                ...   -306.12659779 Eh
Zero point energy                ...      0.16295688 Eh     102.26 kcal/mol
Thermal vibrational correction   ...      0.00566054 Eh       3.55 kcal/mol
Thermal rotational correction    ...      0.00141627 Eh       0.89 kcal/mol
Thermal translational correction ...      0.00141627 Eh       0.89 kcal/mol
-----------------------------------------------------------------------
Total thermal energy                   -305.95514783 Eh

Summary of corrections to the electronic energy:
(perhaps to be used in another calculation)
Total thermal correction                  0.00849308 Eh       5.33 kcal/mol
Non-thermal (ZPE) correction              0.16295688 Eh     102.26 kcal/mol
-----------------------------------------------------------------------
Total correction                          0.17144996 Eh     107.59 kcal/mol

--------
ENTHALPY
--------

The enthalpy is H = U + kB*T
                kB is Boltzmann's constant
Total free energy                 ...   -305.95514783 Eh
Thermal Enthalpy correction       ...      0.00094421 Eh       0.59 kcal/mol
-----------------------------------------------------------------------
Total Enthalpy                    ...   -305.95420362 Eh

-------
ENTROPY
-------

The entropy contributions are T*S = T*(S(el)+S(vib)+S(rot)+S(trans)
     S(el)   - electronic entropy
     S(vib)  - vibrational entropy
     S(rot)  - rotational entropy
     S(trans)- translational entropy
The entropies will be listed as mutliplied by the temperature to get
units of energy

Electronic entropy                ...      0.00000000 Eh      0.00 kcal/mol
Vibrational entropy               ...      0.01062788 Eh      6.67 kcal/mol
Rotational entropy                ...      0.01223381 Eh      7.68 kcal/mol
Translational entropy             ...      0.01885925 Eh     11.83 kcal/mol
-----------------------------------------------------------------------
Final entropy term                ...      0.04172094 Eh     26.18 kcal/mol

CAUTION: The rotational entropy is not quite correctly treated here
         because it includes a symmetry number that is not yet correctly
         implemented in ORCA!
For a nonlinear molecule the correct rotational entropy is:
    S(rot) = R*(ln(qrot/sn)+1.5)
    R    = 8.31441 J/mol/K = 1.987191683e-3 kcal/mol/K
    qrot = 283700.5110544
    sn is the rotational symmetry number. We have assumed 3 here
       if it is different for your molecule then you should correct
       the printed rotational entropy by manually evaluating the equation
       as given above

For convenience we print out the resulting values for sn=1 - 12:
 sn= 1  qrot/sn=  283700.5111 T*S(rot)=     8.33 kcal/mol T*S(tot)=    26.83 kcal/mol
 sn= 2  qrot/sn=  141850.2555 T*S(rot)=     7.92 kcal/mol T*S(tot)=    26.42 kcal/mol
 sn= 3  qrot/sn=   94566.8370 T*S(rot)=     7.68 kcal/mol T*S(tot)=    26.18 kcal/mol
 sn= 4  qrot/sn=   70925.1278 T*S(rot)=     7.51 kcal/mol T*S(tot)=    26.01 kcal/mol
 sn= 5  qrot/sn=   56740.1022 T*S(rot)=     7.37 kcal/mol T*S(tot)=    25.88 kcal/mol
 sn= 6  qrot/sn=   47283.4185 T*S(rot)=     7.27 kcal/mol T*S(tot)=    25.77 kcal/mol
 sn= 7  qrot/sn=   40528.6444 T*S(rot)=     7.17 kcal/mol T*S(tot)=    25.68 kcal/mol
 sn= 8  qrot/sn=   35462.5639 T*S(rot)=     7.10 kcal/mol T*S(tot)=    25.60 kcal/mol
 sn= 9  qrot/sn=   31522.2790 T*S(rot)=     7.03 kcal/mol T*S(tot)=    25.53 kcal/mol
 sn=10  qrot/sn=   28370.0511 T*S(rot)=     6.96 kcal/mol T*S(tot)=    25.47 kcal/mol
 sn=11  qrot/sn=   25790.9556 T*S(rot)=     6.91 kcal/mol T*S(tot)=    25.41 kcal/mol
 sn=12  qrot/sn=   23641.7093 T*S(rot)=     6.86 kcal/mol T*S(tot)=    25.36 kcal/mol

-------------------
GIBBS FREE ENTHALPY
-------------------

The Gibbs free enthalpy is G = H - T*S

Total enthalpy                    ...   -305.95420362 Eh
Total entropy correction          ...     -0.04172094 Eh    -26.18 kcal/mol
-----------------------------------------------------------------------
Final Gibbs free enthalpy         ...   -305.99592456 Eh

For completeness - the Gibbs free enthalpy minus the electronic energy
G-E(el)                           ...      0.13067323 Eh     82.00 kcal/mol

                             ****ORCA TERMINATED NORMALLY****
TOTAL RUN TIME: 0 days 0 hours 37 minutes 31 seconds 901 msec
