                         Program Version 3.0.3 - RELEASE   -
|  1> ! NORI PBE0 def2-TZVP UseSym TightOPT Freq TightSCF Grid3 FinalGrid5 XYZFile
|  2> % pal
|  3>     nprocs 8
|  4> end
|  5> %method
|  6>     SymThresh 5.0e-2
|  7> end
|  8> % geom
|  9>     MaxIter 10
| 10> end
| 11> % maxcore 2000
| 12> % output
| 13>     printlevel mini
| 14>     print[ P_Basis ] 0
| 15>     print[ P_SCFInfo ] 1
| 16>     print[ P_SCFIterInfo ] 1
| 17>     print[ P_OrbEn ] 0
| 18>     print[ P_Cartesian ] 0
| 19> end
| 20> % elprop
| 21>     Dipole false
| 22> end
| 23> *xyz 1 1
| 24>  C        2.9983833407     1.5605137188    -0.5738815310
| 25>  C        2.5408452134     0.2239336356    -0.0120101274
| 26>  C        3.0754041289    -0.0142459655     1.3972597010
| 27>  N        2.5508919465    -1.3229353075     1.9450148592
| 28>  C        2.9026085968    -1.6111914497     3.3665813241
| 29>  C        4.5308004421    -0.0672354680     1.4517821410
| 30>  N        5.6757795881    -0.1492412511     1.4848522778
| 31>  H        2.5814354031     1.7004159782    -1.5707153324
| 32>  H        4.0855968889     1.6076901458    -0.6573102438
| 33>  H        2.6611181745     2.3922523210     0.0481506194
| 34>  H        2.8710507314    -0.5929260652    -0.6627473731
| 35>  H        1.4460572389     0.1934065064     0.0335018471
| 36>  H        2.7208796407     0.7636475338     2.0811455130
| 37>  H        2.8951533163    -2.0794845621     1.3472255220
| 38>  H        1.5340864766    -1.3147978081     1.8349764229
| 39>  H        3.9870263127    -1.6389258468     3.4563478748
| 40>  H        2.4749183943    -2.5737512672     3.6408613681
| 41>  H        2.4893841663    -0.8228848483     3.9929751373
| 42> *
| 43>
| 44>                          ****END OF INPUT****
 Total Charge           Charge          ....    1
 Multiplicity           Mult            ....    1
 Number of Electrons    NEL             ....   54
FINAL SINGLE POINT ENERGY      -306.124740448903

CARTESIAN COORDINATES (ANGSTROEM)
---------------------------------
  C     -1.790666   -0.549906   -1.832203
  C     -1.389763   -0.778467   -0.383850
  C     -0.330212    0.218359    0.076882
  N     -0.000145   -0.000003    1.536869
  C      0.935101    0.994740    2.139280
  C      0.913949    0.113513   -0.674699
  N      1.906535    0.000832   -1.241067
  H     -2.560237   -1.267187   -2.116220
  H     -0.943708   -0.684501   -2.507313
  H     -2.197809    0.452389   -1.981123
  H     -1.004797   -1.795422   -0.254101
  H     -2.263698   -0.666362    0.267720
  H     -0.706611    1.243486    0.002160
  H      0.389983   -0.941101    1.638103
  H     -0.882960   -0.001639    2.053215
  H      1.874812    0.962709    1.591300
  H      1.095997    0.731108    3.183046
  H      0.485361    1.982982    2.065000

FINAL SINGLE POINT ENERGY      -306.124741271359
                    ***********************HURRAY********************
 Multiplicity           Mult            ....    1
 Number of Electrons    NEL             ....   54
 Basis Dimension        Dim             ....  283
FINAL SINGLE POINT ENERGY      -306.124741559213

VIBRATIONAL FREQUENCIES
-----------------------

   0:         0.00 cm**-1
   1:         0.00 cm**-1
   2:         0.00 cm**-1
   3:         0.00 cm**-1
   4:         0.00 cm**-1
   5:         0.00 cm**-1
   6:        84.35 cm**-1
   7:       103.25 cm**-1
   8:       154.57 cm**-1
   9:       180.21 cm**-1
  10:       193.47 cm**-1
  11:       246.96 cm**-1
  12:       263.80 cm**-1
  13:       373.03 cm**-1
  14:       392.06 cm**-1
  15:       548.97 cm**-1
  16:       588.00 cm**-1
  17:       764.26 cm**-1
  18:       811.42 cm**-1
  19:       890.34 cm**-1
  20:       937.02 cm**-1
  21:       971.79 cm**-1
  22:      1016.32 cm**-1
  23:      1060.86 cm**-1
  24:      1096.29 cm**-1
  25:      1115.66 cm**-1
  26:      1171.23 cm**-1
  27:      1203.42 cm**-1
  28:      1281.00 cm**-1
  29:      1325.22 cm**-1
  30:      1335.16 cm**-1
  31:      1364.43 cm**-1
  32:      1412.51 cm**-1
  33:      1421.46 cm**-1
  34:      1430.23 cm**-1
  35:      1459.24 cm**-1
  36:      1476.96 cm**-1
  37:      1491.01 cm**-1
  38:      1493.05 cm**-1
  39:      1495.36 cm**-1
  40:      1496.69 cm**-1
  41:      1645.06 cm**-1
  42:      2393.88 cm**-1
  43:      3043.93 cm**-1
  44:      3067.10 cm**-1
  45:      3081.56 cm**-1
  46:      3091.98 cm**-1
  47:      3099.02 cm**-1
  48:      3145.49 cm**-1
  49:      3159.53 cm**-1
  50:      3194.93 cm**-1
  51:      3198.18 cm**-1
  52:      3427.89 cm**-1
  53:      3481.24 cm**-1

IR SPECTRUM
-----------

 Mode    freq (cm**-1)   T**2         TX         TY         TZ
-------------------------------------------------------------------
   6:        84.35    0.453681  ( -0.650206   0.135084   0.112540)
   7:       103.25    3.986503  (  1.404482  -0.202773   1.404570)
   8:       154.57    8.145108  ( -0.178172  -1.126280  -2.616268)
   9:       180.21    0.970656  (  0.915974  -0.331800  -0.146820)
  10:       193.47    2.336705  ( -0.286175  -1.196185   0.907717)
  11:       246.96    2.044667  (  1.150538  -0.559770  -0.638426)
  12:       263.80    1.213745  ( -0.564871  -0.552867   0.767466)
  13:       373.03    1.948440  (  0.563028  -0.267837   1.248881)
  14:       392.06    3.425062  (  0.931917   0.432609   1.539300)
  15:       548.97    2.610581  ( -1.192465   0.272089   1.055735)
  16:       588.00    2.043439  (  0.721154  -0.018834  -1.234108)
  17:       764.26    3.058273  ( -1.035317   0.966697   1.025616)
  18:       811.42    1.695431  (  0.235782  -0.520185  -1.170148)
  19:       890.34   12.318180  (  2.429486  -2.530755   0.105168)
  20:       937.02    5.796326  ( -0.096550   0.365525  -2.377687)
  21:       971.79   16.032889  ( -2.905985  -0.310755   2.737074)
  22:      1016.32   25.537725  ( -2.174767  -2.055490  -4.072232)
  23:      1060.86    1.161510  (  0.813155  -0.594751   0.382831)
  24:      1096.29   17.560850  (  1.983816   1.295675   3.456378)
  25:      1115.66    7.670120  ( -0.860451  -0.538231  -2.576830)
  26:      1171.23    4.068170  ( -1.690509   0.009302  -1.100119)
  27:      1203.42    3.010182  (  1.157164   0.156815   1.283184)
  28:      1281.00    0.564516  (  0.034417   0.383433   0.645221)
  29:      1325.22    1.998596  (  1.127588  -0.718175   0.459745)
  30:      1335.16    7.200230  ( -0.329353  -0.607734  -2.592762)
  31:      1364.43    3.908512  (  0.677543  -0.587661  -1.761846)
  32:      1412.51   23.892377  ( -2.984010  -1.813385  -3.420482)
  33:      1421.46   12.824431  (  1.164613  -0.230075  -3.378635)
  34:      1430.23   30.544646  ( -3.367423  -0.913338  -4.286131)
  35:      1459.24    4.657346  ( -0.941392  -1.314421  -1.429484)
  36:      1476.96    7.398629  (  1.995620  -0.363749   1.812130)
  37:      1491.01   13.152778  (  1.935463  -1.391651  -2.733142)
  38:      1493.05   20.491177  ( -3.115353   2.152814   2.480151)
  39:      1495.36   13.396880  (  2.490972   0.214946   2.673151)
  40:      1496.69   25.256803  (  1.052526  -3.795479   3.121431)
  41:      1645.06   55.934072  (  2.984684   5.529984  -4.055245)
  42:      2393.88    5.931876  ( -1.595554   0.199443   1.829291)
  43:      3043.93   11.908068  (  0.242316   0.682940  -3.373862)
  44:      3067.10    4.466217  (  0.130170  -1.307951   1.654853)
  45:      3081.56    2.078748  (  0.954703  -1.078826  -0.058519)
  46:      3091.98    0.345023  (  0.557673   0.082677   0.164888)
  47:      3099.02    1.106543  ( -0.841295   0.388534   0.497803)
  48:      3145.49    6.066950  (  1.610120  -1.822188  -0.392545)
  49:      3159.53    1.486458  (  0.866099   0.794968  -0.323043)
  50:      3194.93    0.864887  ( -0.188036  -0.488046   0.768987)
  51:      3198.18    1.321815  ( -0.871883   0.189745   0.725005)
  52:      3427.89   53.349662  ( -1.683867  -5.670885   4.284310)
  53:      3481.24   76.393716  ( -7.073890   4.380420   2.676886)

--------------------------
THERMOCHEMISTRY AT 298.15K
--------------------------

Temperature         ... 298.15 K
Pressure            ... 1.00 atm
Total Mass          ... 99.16 AMU

Throughout the following assumptions are being made:
  (1) The electronic state is orbitally nondegenerate
  (2) There are no thermally accessible electronically excited states
  (3) Hindered rotations indicated by low frequency modes) are not
      treated as such but are treated as vibrations and this may
      case some error
  (4) All equations used are the standard statistical mechanics
      equations for an ideal gas
  (5) All vibrations are strinctly harmonic

------------
INNER ENERGY
------------

The inner energy is: U= E(el) + E(ZPE) + E(vib) + E(rot) + E(trans)
    E(el)   - is the total energy from the electronic structure calculation
              = E(kin-el) + E(nuc-el) + E(el-el) + E(nuc-nuc)
    E(ZPE)  - the the zero temperature vibrational energy from the frequency calculation
    E(vib)  - the the finite temperature correction to E(ZPE) due to population
              of excietd vibrational states
    E(rot)  - is the rotational thermal energy
    E(trans)- is the translational thermal energy

Summary of contributions to the inner energy U:
Electronic energy                ...   -306.12474156 Eh
Zero point energy                ...      0.16329764 Eh     102.47 kcal/mol
Thermal vibrational correction   ...      0.00581282 Eh       3.65 kcal/mol
Thermal rotational correction    ...      0.00141627 Eh       0.89 kcal/mol
Thermal translational correction ...      0.00141627 Eh       0.89 kcal/mol
-----------------------------------------------------------------------
Total thermal energy                   -305.95279855 Eh

Summary of corrections to the electronic energy:
(perhaps to be used in another calculation)
Total thermal correction                  0.00864537 Eh       5.43 kcal/mol
Non-thermal (ZPE) correction              0.16329764 Eh     102.47 kcal/mol
-----------------------------------------------------------------------
Total correction                          0.17194300 Eh     107.90 kcal/mol

--------
ENTHALPY
--------

The enthalpy is H = U + kB*T
                kB is Boltzmann's constant
Total free energy                 ...   -305.95279855 Eh
Thermal Enthalpy correction       ...      0.00094421 Eh       0.59 kcal/mol
-----------------------------------------------------------------------
Total Enthalpy                    ...   -305.95185435 Eh

-------
ENTROPY
-------

The entropy contributions are T*S = T*(S(el)+S(vib)+S(rot)+S(trans)
     S(el)   - electronic entropy
     S(vib)  - vibrational entropy
     S(rot)  - rotational entropy
     S(trans)- translational entropy
The entropies will be listed as mutliplied by the temperature to get
units of energy

Electronic entropy                ...      0.00000000 Eh      0.00 kcal/mol
Vibrational entropy               ...      0.01054180 Eh      6.62 kcal/mol
Rotational entropy                ...      0.01225225 Eh      7.69 kcal/mol
Translational entropy             ...      0.01885925 Eh     11.83 kcal/mol
-----------------------------------------------------------------------
Final entropy term                ...      0.04165331 Eh     26.14 kcal/mol

CAUTION: The rotational entropy is not quite correctly treated here
         because it includes a symmetry number that is not yet correctly
         implemented in ORCA!
For a nonlinear molecule the correct rotational entropy is:
    S(rot) = R*(ln(qrot/sn)+1.5)
    R    = 8.31441 J/mol/K = 1.987191683e-3 kcal/mol/K
    qrot = 289296.4182480
    sn is the rotational symmetry number. We have assumed 3 here
       if it is different for your molecule then you should correct
       the printed rotational entropy by manually evaluating the equation
       as given above

For convenience we print out the resulting values for sn=1 - 12:
 sn= 1  qrot/sn=  289296.4182 T*S(rot)=     8.34 kcal/mol T*S(tot)=    26.79 kcal/mol
 sn= 2  qrot/sn=  144648.2091 T*S(rot)=     7.93 kcal/mol T*S(tot)=    26.38 kcal/mol
 sn= 3  qrot/sn=   96432.1394 T*S(rot)=     7.69 kcal/mol T*S(tot)=    26.14 kcal/mol
 sn= 4  qrot/sn=   72324.1046 T*S(rot)=     7.52 kcal/mol T*S(tot)=    25.97 kcal/mol
 sn= 5  qrot/sn=   57859.2836 T*S(rot)=     7.39 kcal/mol T*S(tot)=    25.84 kcal/mol
 sn= 6  qrot/sn=   48216.0697 T*S(rot)=     7.28 kcal/mol T*S(tot)=    25.73 kcal/mol
 sn= 7  qrot/sn=   41328.0597 T*S(rot)=     7.19 kcal/mol T*S(tot)=    25.64 kcal/mol
 sn= 8  qrot/sn=   36162.0523 T*S(rot)=     7.11 kcal/mol T*S(tot)=    25.56 kcal/mol
 sn= 9  qrot/sn=   32144.0465 T*S(rot)=     7.04 kcal/mol T*S(tot)=    25.49 kcal/mol
 sn=10  qrot/sn=   28929.6418 T*S(rot)=     6.98 kcal/mol T*S(tot)=    25.42 kcal/mol
 sn=11  qrot/sn=   26299.6744 T*S(rot)=     6.92 kcal/mol T*S(tot)=    25.37 kcal/mol
 sn=12  qrot/sn=   24108.0349 T*S(rot)=     6.87 kcal/mol T*S(tot)=    25.32 kcal/mol

-------------------
GIBBS FREE ENTHALPY
-------------------

The Gibbs free enthalpy is G = H - T*S

Total enthalpy                    ...   -305.95185435 Eh
Total entropy correction          ...     -0.04165331 Eh    -26.14 kcal/mol
-----------------------------------------------------------------------
Final Gibbs free enthalpy         ...   -305.99350766 Eh

For completeness - the Gibbs free enthalpy minus the electronic energy
G-E(el)                           ...      0.13123390 Eh     82.35 kcal/mol

                             ****ORCA TERMINATED NORMALLY****
TOTAL RUN TIME: 0 days 0 hours 35 minutes 47 seconds 652 msec
