                         Program Version 3.0.3 - RELEASE   -
|  1> ! NORI PBE0 def2-TZVP UseSym TightOPT Freq TightSCF Grid3 FinalGrid5 XYZFile
|  2> % pal
|  3>     nprocs 8
|  4> end
|  5> %method
|  6>     SymThresh 5.0e-2
|  7> end
|  8> % geom
|  9>     MaxIter 10
| 10> end
| 11> % maxcore 2000
| 12> % output
| 13>     printlevel mini
| 14>     print[ P_Basis ] 0
| 15>     print[ P_SCFInfo ] 1
| 16>     print[ P_SCFIterInfo ] 1
| 17>     print[ P_OrbEn ] 0
| 18>     print[ P_Cartesian ] 0
| 19> end
| 20> % elprop
| 21>     Dipole false
| 22> end
| 23> *xyz 1 1
| 24>  C        0.3948017503     0.2699156647     0.0446083795
| 25>  C        1.9152013656     0.3058334364     0.0052861141
| 26>  C        2.4640506254    -0.9263792914    -0.6788268944
| 27>  N        3.9706699161    -0.8875617100    -0.7223522987
| 28>  C        4.6220769964    -2.0821023070    -1.3483164455
| 29>  C        4.3468298491    -3.2673036031    -0.5570952330
| 30>  N        4.1189342784    -4.1819243350     0.0979762181
| 31>  H        0.0118708228     1.1605291341     0.5422515710
| 32>  H        0.0309639846    -0.6005125833     0.5944279310
| 33>  H       -0.0306904937     0.2429643112    -0.9605889454
| 34>  H        2.2499755443     1.2051794274    -0.5241111193
| 35>  H        2.3086980427     0.3651938171     1.0261889166
| 36>  H        2.1947725598    -1.8438658427    -0.1524132933
| 37>  H        2.1294057251    -1.0066052875    -1.7151916905
| 38>  H        4.2634796968    -0.0503271056    -1.2319991413
| 39>  H        4.3210834848    -0.7758358558     0.2333305366
| 40>  H        5.6984678846    -1.9036544356    -1.4052057119
| 41>  H        4.2286379667    -2.1925334339    -2.3608188938
| 42> *
| 43>
| 44>                          ****END OF INPUT****
 Total Charge           Charge          ....    1
 Multiplicity           Mult            ....    1
 Number of Electrons    NEL             ....   54
FINAL SINGLE POINT ENERGY      -306.122179447766

CARTESIAN COORDINATES (ANGSTROEM)
---------------------------------
  C     -2.869095   -0.553651   -1.398144
  C     -2.041541   -0.722616   -0.132522
  C     -0.816596    0.163871   -0.169190
  N      0.000304   -0.000614    1.087573
  C      1.259270    0.808987    1.140898
  C      2.170568    0.376563    0.097423
  N      2.870771    0.002210   -0.731471
  H     -3.745945   -1.199576   -1.361112
  H     -2.295641   -0.821906   -2.287689
  H     -3.218734    0.474399   -1.512728
  H     -2.652260   -0.476848    0.743869
  H     -1.734258   -1.769717   -0.030558
  H     -0.154498   -0.083012   -1.001093
  H     -1.075576    1.222998   -0.230269
  H     -0.581419    0.244988    1.892474
  H      0.233187   -0.991859    1.196852
  H      1.717047    0.679051    2.124255
  H      0.993181    1.860107    1.011590

FINAL SINGLE POINT ENERGY      -306.122180122002
                    ***********************HURRAY********************
 Multiplicity           Mult            ....    1
 Number of Electrons    NEL             ....   54
 Basis Dimension        Dim             ....  283
FINAL SINGLE POINT ENERGY      -306.122180713924

VIBRATIONAL FREQUENCIES
-----------------------

   0:         0.00 cm**-1
   1:         0.00 cm**-1
   2:         0.00 cm**-1
   3:         0.00 cm**-1
   4:         0.00 cm**-1
   5:         0.00 cm**-1
   6:        65.19 cm**-1
   7:        68.00 cm**-1
   8:       131.05 cm**-1
   9:       172.88 cm**-1
  10:       205.26 cm**-1
  11:       241.78 cm**-1
  12:       358.45 cm**-1
  13:       370.24 cm**-1
  14:       391.88 cm**-1
  15:       590.82 cm**-1
  16:       759.66 cm**-1
  17:       808.23 cm**-1
  18:       872.95 cm**-1
  19:       895.63 cm**-1
  20:       934.67 cm**-1
  21:       978.37 cm**-1
  22:      1016.67 cm**-1
  23:      1031.89 cm**-1
  24:      1066.07 cm**-1
  25:      1142.51 cm**-1
  26:      1172.29 cm**-1
  27:      1238.45 cm**-1
  28:      1276.68 cm**-1
  29:      1331.54 cm**-1
  30:      1340.24 cm**-1
  31:      1372.78 cm**-1
  32:      1400.90 cm**-1
  33:      1413.28 cm**-1
  34:      1425.29 cm**-1
  35:      1440.30 cm**-1
  36:      1469.14 cm**-1
  37:      1481.11 cm**-1
  38:      1491.08 cm**-1
  39:      1493.62 cm**-1
  40:      1506.62 cm**-1
  41:      1644.74 cm**-1
  42:      2403.91 cm**-1
  43:      3035.37 cm**-1
  44:      3065.73 cm**-1
  45:      3076.47 cm**-1
  46:      3089.41 cm**-1
  47:      3091.52 cm**-1
  48:      3140.56 cm**-1
  49:      3144.93 cm**-1
  50:      3152.40 cm**-1
  51:      3157.98 cm**-1
  52:      3423.69 cm**-1
  53:      3477.32 cm**-1

IR SPECTRUM
-----------

 Mode    freq (cm**-1)   T**2         TX         TY         TZ
-------------------------------------------------------------------
   6:        65.19    3.455017  (  0.117442  -1.743136   0.634588)
   7:        68.00    8.380363  (  1.441465   0.869287   2.355182)
   8:       131.05    2.526254  ( -1.036321  -0.910657  -0.789302)
   9:       172.88    0.346679  ( -0.484642   0.178062   0.283011)
  10:       205.26    5.891351  ( -2.073274   0.159968   1.251918)
  11:       241.78    0.801095  (  0.670340  -0.369310  -0.464058)
  12:       358.45    1.840665  ( -1.092147  -0.594010  -0.543170)
  13:       370.24    1.208571  (  0.723357   0.631279   0.535548)
  14:       391.88    4.556583  ( -1.286822  -0.231583  -1.687318)
  15:       590.82    4.335914  (  1.887242  -0.125730  -0.870875)
  16:       759.66    7.420083  ( -1.472753   1.988581   1.138696)
  17:       808.23    2.849836  ( -1.390358   0.955197  -0.065882)
  18:       872.95    7.643421  (  2.082144  -0.695941   1.680406)
  19:       895.63    3.512426  (  1.483934  -0.376429   1.081049)
  20:       934.67    3.031081  (  1.676481   0.469260  -0.016984)
  21:       978.37    9.279283  (  0.263436   2.083527   2.206536)
  22:      1016.67    0.508950  (  0.363647  -0.513582  -0.336072)
  23:      1031.89   34.583357  (  5.685792   1.491401   0.175625)
  24:      1066.07    3.644201  (  0.973368  -0.250793   1.622917)
  25:      1142.51    6.844820  ( -2.235145  -0.885292  -1.032087)
  26:      1172.29    3.223591  ( -0.183079  -1.348485  -1.171179)
  27:      1238.45    0.118722  (  0.319852  -0.064411  -0.110764)
  28:      1276.68   15.274156  (  2.807012   1.675379   2.141949)
  29:      1331.54    3.790454  ( -1.118980  -0.786267  -1.385685)
  30:      1340.24    2.039874  ( -0.435848   1.351031   0.156925)
  31:      1372.78    7.826667  (  2.689397  -0.769549  -0.040047)
  32:      1400.90    2.398343  (  0.866002   0.661242   1.100519)
  33:      1413.28   23.609860  ( -4.560332  -0.579698  -1.573906)
  34:      1425.29   15.890570  (  3.748559  -0.912914   1.002727)
  35:      1440.30   35.356646  (  3.143474   0.955625   4.956006)
  36:      1469.14   26.842412  (  0.945046   3.380948   3.810314)
  37:      1481.11    7.129856  (  2.454746   0.713298   0.771547)
  38:      1491.08    0.156473  (  0.355504   0.107374   0.136239)
  39:      1493.62   14.148880  (  1.963857  -2.748142  -1.655252)
  40:      1506.62   16.384063  (  2.082965   2.825101  -2.015967)
  41:      1644.74   56.057920  (  2.724569   4.729070  -5.125480)
  42:      2403.91    7.738152  (  2.144562  -0.429166  -1.718960)
  43:      3035.37   13.312106  ( -0.718851   1.201676  -3.369174)
  44:      3065.73    7.268994  (  0.765988  -1.040579   2.366316)
  45:      3076.47    5.071728  ( -1.384306   1.419186   1.068333)
  46:      3089.41    3.057882  ( -0.660801  -1.618925   0.017517)
  47:      3091.52    2.353227  (  0.605694   0.723286   1.209636)
  48:      3140.56    8.623540  ( -1.544849   2.142838   1.282664)
  49:      3144.93    7.002262  (  0.892168  -1.835397   1.684523)
  50:      3152.40    1.871872  ( -0.398341   1.252242   0.380900)
  51:      3157.98    2.966923  (  1.043881   1.110817  -0.802073)
  52:      3423.69   52.035125  (  1.597312   4.785521  -5.155823)
  53:      3477.32   76.372324  (  4.575632  -5.994358  -4.416288)

--------------------------
THERMOCHEMISTRY AT 298.15K
--------------------------

Temperature         ... 298.15 K
Pressure            ... 1.00 atm
Total Mass          ... 99.16 AMU

Throughout the following assumptions are being made:
  (1) The electronic state is orbitally nondegenerate
  (2) There are no thermally accessible electronically excited states
  (3) Hindered rotations indicated by low frequency modes) are not
      treated as such but are treated as vibrations and this may
      case some error
  (4) All equations used are the standard statistical mechanics
      equations for an ideal gas
  (5) All vibrations are strinctly harmonic

------------
INNER ENERGY
------------

The inner energy is: U= E(el) + E(ZPE) + E(vib) + E(rot) + E(trans)
    E(el)   - is the total energy from the electronic structure calculation
              = E(kin-el) + E(nuc-el) + E(el-el) + E(nuc-nuc)
    E(ZPE)  - the the zero temperature vibrational energy from the frequency calculation
    E(vib)  - the the finite temperature correction to E(ZPE) due to population
              of excietd vibrational states
    E(rot)  - is the rotational thermal energy
    E(trans)- is the translational thermal energy

Summary of contributions to the inner energy U:
Electronic energy                ...   -306.12218071 Eh
Zero point energy                ...      0.16370810 Eh     102.73 kcal/mol
Thermal vibrational correction   ...      0.00572218 Eh       3.59 kcal/mol
Thermal rotational correction    ...      0.00141627 Eh       0.89 kcal/mol
Thermal translational correction ...      0.00141627 Eh       0.89 kcal/mol
-----------------------------------------------------------------------
Total thermal energy                   -305.94991789 Eh

Summary of corrections to the electronic energy:
(perhaps to be used in another calculation)
Total thermal correction                  0.00855473 Eh       5.37 kcal/mol
Non-thermal (ZPE) correction              0.16370810 Eh     102.73 kcal/mol
-----------------------------------------------------------------------
Total correction                          0.17226283 Eh     108.10 kcal/mol

--------
ENTHALPY
--------

The enthalpy is H = U + kB*T
                kB is Boltzmann's constant
Total free energy                 ...   -305.94991789 Eh
Thermal Enthalpy correction       ...      0.00094421 Eh       0.59 kcal/mol
-----------------------------------------------------------------------
Total Enthalpy                    ...   -305.94897368 Eh

-------
ENTROPY
-------

The entropy contributions are T*S = T*(S(el)+S(vib)+S(rot)+S(trans)
     S(el)   - electronic entropy
     S(vib)  - vibrational entropy
     S(rot)  - rotational entropy
     S(trans)- translational entropy
The entropies will be listed as mutliplied by the temperature to get
units of energy

Electronic entropy                ...      0.00000000 Eh      0.00 kcal/mol
Vibrational entropy               ...      0.01090552 Eh      6.84 kcal/mol
Rotational entropy                ...      0.01240780 Eh      7.79 kcal/mol
Translational entropy             ...      0.01885925 Eh     11.83 kcal/mol
-----------------------------------------------------------------------
Final entropy term                ...      0.04217256 Eh     26.46 kcal/mol

CAUTION: The rotational entropy is not quite correctly treated here
         because it includes a symmetry number that is not yet correctly
         implemented in ORCA!
For a nonlinear molecule the correct rotational entropy is:
    S(rot) = R*(ln(qrot/sn)+1.5)
    R    = 8.31441 J/mol/K = 1.987191683e-3 kcal/mol/K
    qrot = 341104.7193515
    sn is the rotational symmetry number. We have assumed 3 here
       if it is different for your molecule then you should correct
       the printed rotational entropy by manually evaluating the equation
       as given above

For convenience we print out the resulting values for sn=1 - 12:
 sn= 1  qrot/sn=  341104.7194 T*S(rot)=     8.44 kcal/mol T*S(tot)=    27.11 kcal/mol
 sn= 2  qrot/sn=  170552.3597 T*S(rot)=     8.03 kcal/mol T*S(tot)=    26.70 kcal/mol
 sn= 3  qrot/sn=  113701.5731 T*S(rot)=     7.79 kcal/mol T*S(tot)=    26.46 kcal/mol
 sn= 4  qrot/sn=   85276.1798 T*S(rot)=     7.62 kcal/mol T*S(tot)=    26.29 kcal/mol
 sn= 5  qrot/sn=   68220.9439 T*S(rot)=     7.48 kcal/mol T*S(tot)=    26.16 kcal/mol
 sn= 6  qrot/sn=   56850.7866 T*S(rot)=     7.38 kcal/mol T*S(tot)=    26.05 kcal/mol
 sn= 7  qrot/sn=   48729.2456 T*S(rot)=     7.28 kcal/mol T*S(tot)=    25.96 kcal/mol
 sn= 8  qrot/sn=   42638.0899 T*S(rot)=     7.20 kcal/mol T*S(tot)=    25.88 kcal/mol
 sn= 9  qrot/sn=   37900.5244 T*S(rot)=     7.14 kcal/mol T*S(tot)=    25.81 kcal/mol
 sn=10  qrot/sn=   34110.4719 T*S(rot)=     7.07 kcal/mol T*S(tot)=    25.75 kcal/mol
 sn=11  qrot/sn=   31009.5199 T*S(rot)=     7.02 kcal/mol T*S(tot)=    25.69 kcal/mol
 sn=12  qrot/sn=   28425.3933 T*S(rot)=     6.96 kcal/mol T*S(tot)=    25.64 kcal/mol

-------------------
GIBBS FREE ENTHALPY
-------------------

The Gibbs free enthalpy is G = H - T*S

Total enthalpy                    ...   -305.94897368 Eh
Total entropy correction          ...     -0.04217256 Eh    -26.46 kcal/mol
-----------------------------------------------------------------------
Final Gibbs free enthalpy         ...   -305.99114624 Eh

For completeness - the Gibbs free enthalpy minus the electronic energy
G-E(el)                           ...      0.13103447 Eh     82.23 kcal/mol

                             ****ORCA TERMINATED NORMALLY****
TOTAL RUN TIME: 0 days 0 hours 31 minutes 57 seconds 453 msec
