                         Program Version 3.0.3 - RELEASE   -
|  1> ! NORI PBE0 def2-TZVP UseSym TightOPT Freq TightSCF Grid3 FinalGrid5 XYZFile
|  2> % pal
|  3>     nprocs 8
|  4> end
|  5> %method
|  6>     SymThresh 5.0e-2
|  7> end
|  8> % geom
|  9>     MaxIter 10
| 10> end
| 11> % maxcore 2000
| 12> % output
| 13>     printlevel mini
| 14>     print[ P_Basis ] 0
| 15>     print[ P_SCFInfo ] 1
| 16>     print[ P_SCFIterInfo ] 1
| 17>     print[ P_OrbEn ] 0
| 18>     print[ P_Cartesian ] 0
| 19> end
| 20> % elprop
| 21>     Dipole false
| 22> end
| 23> *xyz 1 1
| 24>  C        0.9219669881     0.0332158890    -0.1186485126
| 25>  C        2.4380146567    -0.0432052819    -0.0666086038
| 26>  C        3.0564864538     0.1685678495    -1.3684819345
| 27>  N        3.5480668624     0.3644882255    -2.3876083066
| 28>  N        2.9763185817     0.9730765330     0.8913849893
| 29>  C        4.3739418816     1.4650339885     0.8732933554
| 30>  C        3.2767966137     2.3732679146     0.5079718092
| 31>  H        0.5513462647    -0.7363114877    -0.7960121104
| 32>  H        0.5852660602     1.0032176629    -0.4859848293
| 33>  H        0.4953313435    -0.1545392854     0.8684915369
| 34>  H        2.7659892859    -1.0150917162     0.3160565040
| 35>  H        2.5727657232     0.8635362758     1.8170988703
| 36>  H        4.8342042150     1.5347102336     1.8506342494
| 37>  H        4.9771427331     1.0393950100     0.0804001655
| 38>  H        3.1104821275     2.5822628436    -0.5419761861
| 39>  H        2.9277502092     3.1153753451     1.2139090033
| 40> *
| 41>
| 42>                          ****END OF INPUT****
 Total Charge           Charge          ....    1
 Multiplicity           Mult            ....    1
 Number of Electrons    NEL             ....   52
FINAL SINGLE POINT ENERGY      -304.883956328361

CARTESIAN COORDINATES (ANGSTROEM)
---------------------------------
  C     -1.935303    0.744658   -0.482089
  C     -0.466027    0.825965   -0.105408
  C     -0.209778    0.379798    1.257596
  N     -0.000599    0.000880    2.321263
  N      0.356848   -0.000249   -1.044168
  C      1.720499   -0.490096   -0.733647
  C      0.610334   -1.447631   -0.846525
  H     -2.509879    1.379452    0.192748
  H     -2.311829   -0.275245   -0.395802
  H     -2.090132    1.109355   -1.499511
  H     -0.094168    1.850685   -0.207731
  H      0.211025    0.277042   -2.010520
  H      2.428437   -0.380989   -1.545256
  H      2.068312   -0.217578    0.255601
  H      0.179531   -1.845057    0.064739
  H      0.498797   -2.047662   -1.740428

FINAL SINGLE POINT ENERGY      -304.883956835698
                    ***********************HURRAY********************
 Multiplicity           Mult            ....    1
 Number of Electrons    NEL             ....   52
 Basis Dimension        Dim             ....  271
FINAL SINGLE POINT ENERGY      -304.883957001736

VIBRATIONAL FREQUENCIES
-----------------------

   0:         0.00 cm**-1
   1:         0.00 cm**-1
   2:         0.00 cm**-1
   3:         0.00 cm**-1
   4:         0.00 cm**-1
   5:         0.00 cm**-1
   6:        81.43 cm**-1
   7:       149.21 cm**-1
   8:       207.25 cm**-1
   9:       229.05 cm**-1
  10:       252.56 cm**-1
  11:       358.08 cm**-1
  12:       412.76 cm**-1
  13:       559.86 cm**-1
  14:       625.21 cm**-1
  15:       730.00 cm**-1
  16:       798.27 cm**-1
  17:       860.13 cm**-1
  18:       880.25 cm**-1
  19:       928.60 cm**-1
  20:       987.14 cm**-1
  21:      1047.90 cm**-1
  22:      1107.59 cm**-1
  23:      1131.17 cm**-1
  24:      1150.71 cm**-1
  25:      1156.36 cm**-1
  26:      1184.78 cm**-1
  27:      1208.39 cm**-1
  28:      1215.48 cm**-1
  29:      1277.89 cm**-1
  30:      1337.64 cm**-1
  31:      1357.62 cm**-1
  32:      1417.98 cm**-1
  33:      1451.33 cm**-1
  34:      1471.16 cm**-1
  35:      1478.32 cm**-1
  36:      1488.66 cm**-1
  37:      1517.75 cm**-1
  38:      2393.92 cm**-1
  39:      3069.14 cm**-1
  40:      3082.60 cm**-1
  41:      3155.51 cm**-1
  42:      3166.13 cm**-1
  43:      3167.82 cm**-1
  44:      3168.26 cm**-1
  45:      3267.37 cm**-1
  46:      3276.98 cm**-1
  47:      3538.16 cm**-1

IR SPECTRUM
-----------

 Mode    freq (cm**-1)   T**2         TX         TY         TZ
-------------------------------------------------------------------
   6:        81.43    0.052466  ( -0.180316   0.045639  -0.133676)
   7:       149.21    9.532525  (  2.001416  -1.451827  -1.849070)
   8:       207.25    2.527505  (  0.959425   1.161790   0.507202)
   9:       229.05    0.415685  ( -0.637038   0.028740   0.095083)
  10:       252.56    1.595917  (  1.150042  -0.521400  -0.038237)
  11:       358.08    0.523890  (  0.008343   0.132266   0.711566)
  12:       412.76    0.330128  ( -0.442991   0.332114  -0.153582)
  13:       559.86    0.959731  ( -0.429189   0.495949  -0.727710)
  14:       625.21    1.169624  (  0.017476   0.392923  -1.007437)
  15:       730.00    2.004833  ( -0.343220   1.289550  -0.473386)
  16:       798.27    2.231440  ( -0.708322   0.565862   1.187232)
  17:       860.13    0.469616  (  0.632601  -0.154334   0.213570)
  18:       880.25    5.783781  ( -0.850982   1.368557  -1.785123)
  19:       928.60   17.998141  (  3.348775   2.602780   0.096884)
  20:       987.14   30.370051  ( -4.617607   3.001739   0.193197)
  21:      1047.90   29.193738  ( -3.135964   4.370857   0.505050)
  22:      1107.59   23.120904  ( -3.089279   1.666390   3.286397)
  23:      1131.17   10.249424  ( -0.044055  -2.916246  -1.320224)
  24:      1150.71    2.470166  ( -0.584730  -0.675922   1.292821)
  25:      1156.36    9.269295  ( -2.525474  -1.699881   0.041007)
  26:      1184.78    3.092395  (  1.599189   0.691958   0.237032)
  27:      1208.39    6.139893  ( -1.210411  -0.444772  -2.115886)
  28:      1215.48    7.026978  ( -1.970358  -1.550482   0.860624)
  29:      1277.89   20.536234  ( -3.249949   3.130667   0.415921)
  30:      1337.64    0.104105  (  0.013106   0.272715   0.171929)
  31:      1357.62   24.662181  (  2.823400  -1.671597  -3.727782)
  32:      1417.98   11.937340  ( -3.379166   0.514375  -0.503977)
  33:      1451.33   29.145678  ( -2.825395   4.570414  -0.523577)
  34:      1471.16   21.757186  (  3.604330   2.948100   0.273304)
  35:      1478.32    9.799461  (  0.174974  -3.085274  -0.499931)
  36:      1488.66    7.701864  ( -1.406962  -1.322685   1.993195)
  37:      1517.75    3.662733  (  1.439330  -0.977952  -0.796664)
  38:      2393.92    5.160756  ( -0.291696  -0.065077   2.251985)
  39:      3069.14    3.227643  (  0.874925  -0.836015  -1.327866)
  40:      3082.60    2.039186  ( -0.375626  -1.308750   0.430424)
  41:      3155.51    0.968093  (  0.408667  -0.707992   0.547569)
  42:      3166.13    1.086133  ( -0.972347   0.036707   0.373264)
  43:      3167.82    5.662310  (  1.267332   2.013292  -0.053218)
  44:      3168.26    3.784563  ( -1.732273   0.393317  -0.793155)
  45:      3267.37    0.039245  (  0.135617   0.136624   0.046768)
  46:      3276.98   18.988308  ( -0.861454   0.546485   4.236456)
  47:      3538.16   92.738558  (  1.676749  -3.250736   8.908411)

--------------------------
THERMOCHEMISTRY AT 298.15K
--------------------------

Temperature         ... 298.15 K
Pressure            ... 1.00 atm
Total Mass          ... 97.14 AMU

Throughout the following assumptions are being made:
  (1) The electronic state is orbitally nondegenerate
  (2) There are no thermally accessible electronically excited states
  (3) Hindered rotations indicated by low frequency modes) are not
      treated as such but are treated as vibrations and this may
      case some error
  (4) All equations used are the standard statistical mechanics
      equations for an ideal gas
  (5) All vibrations are strinctly harmonic

------------
INNER ENERGY
------------

The inner energy is: U= E(el) + E(ZPE) + E(vib) + E(rot) + E(trans)
    E(el)   - is the total energy from the electronic structure calculation
              = E(kin-el) + E(nuc-el) + E(el-el) + E(nuc-nuc)
    E(ZPE)  - the the zero temperature vibrational energy from the frequency calculation
    E(vib)  - the the finite temperature correction to E(ZPE) due to population
              of excietd vibrational states
    E(rot)  - is the rotational thermal energy
    E(trans)- is the translational thermal energy

Summary of contributions to the inner energy U:
Electronic energy                ...   -304.88395700 Eh
Zero point energy                ...      0.13975747 Eh      87.70 kcal/mol
Thermal vibrational correction   ...      0.00456377 Eh       2.86 kcal/mol
Thermal rotational correction    ...      0.00141627 Eh       0.89 kcal/mol
Thermal translational correction ...      0.00141627 Eh       0.89 kcal/mol
-----------------------------------------------------------------------
Total thermal energy                   -304.73680322 Eh

Summary of corrections to the electronic energy:
(perhaps to be used in another calculation)
Total thermal correction                  0.00739631 Eh       4.64 kcal/mol
Non-thermal (ZPE) correction              0.13975747 Eh      87.70 kcal/mol
-----------------------------------------------------------------------
Total correction                          0.14715378 Eh      92.34 kcal/mol

--------
ENTHALPY
--------

The enthalpy is H = U + kB*T
                kB is Boltzmann's constant
Total free energy                 ...   -304.73680322 Eh
Thermal Enthalpy correction       ...      0.00094421 Eh       0.59 kcal/mol
-----------------------------------------------------------------------
Total Enthalpy                    ...   -304.73585901 Eh

-------
ENTROPY
-------

The entropy contributions are T*S = T*(S(el)+S(vib)+S(rot)+S(trans)
     S(el)   - electronic entropy
     S(vib)  - vibrational entropy
     S(rot)  - rotational entropy
     S(trans)- translational entropy
The entropies will be listed as mutliplied by the temperature to get
units of energy

Electronic entropy                ...      0.00000000 Eh      0.00 kcal/mol
Vibrational entropy               ...      0.00797041 Eh      5.00 kcal/mol
Rotational entropy                ...      0.01199384 Eh      7.53 kcal/mol
Translational entropy             ...      0.01883016 Eh     11.82 kcal/mol
-----------------------------------------------------------------------
Final entropy term                ...      0.03879441 Eh     24.34 kcal/mol

CAUTION: The rotational entropy is not quite correctly treated here
         because it includes a symmetry number that is not yet correctly
         implemented in ORCA!
For a nonlinear molecule the correct rotational entropy is:
    S(rot) = R*(ln(qrot/sn)+1.5)
    R    = 8.31441 J/mol/K = 1.987191683e-3 kcal/mol/K
    qrot = 220028.9193697
    sn is the rotational symmetry number. We have assumed 3 here
       if it is different for your molecule then you should correct
       the printed rotational entropy by manually evaluating the equation
       as given above

For convenience we print out the resulting values for sn=1 - 12:
 sn= 1  qrot/sn=  220028.9194 T*S(rot)=     8.18 kcal/mol T*S(tot)=    24.99 kcal/mol
 sn= 2  qrot/sn=  110014.4597 T*S(rot)=     7.77 kcal/mol T*S(tot)=    24.58 kcal/mol
 sn= 3  qrot/sn=   73342.9731 T*S(rot)=     7.53 kcal/mol T*S(tot)=    24.34 kcal/mol
 sn= 4  qrot/sn=   55007.2298 T*S(rot)=     7.36 kcal/mol T*S(tot)=    24.17 kcal/mol
 sn= 5  qrot/sn=   44005.7839 T*S(rot)=     7.22 kcal/mol T*S(tot)=    24.04 kcal/mol
 sn= 6  qrot/sn=   36671.4866 T*S(rot)=     7.12 kcal/mol T*S(tot)=    23.93 kcal/mol
 sn= 7  qrot/sn=   31432.7028 T*S(rot)=     7.02 kcal/mol T*S(tot)=    23.84 kcal/mol
 sn= 8  qrot/sn=   27503.6149 T*S(rot)=     6.95 kcal/mol T*S(tot)=    23.76 kcal/mol
 sn= 9  qrot/sn=   24447.6577 T*S(rot)=     6.88 kcal/mol T*S(tot)=    23.69 kcal/mol
 sn=10  qrot/sn=   22002.8919 T*S(rot)=     6.81 kcal/mol T*S(tot)=    23.63 kcal/mol
 sn=11  qrot/sn=   20002.6290 T*S(rot)=     6.76 kcal/mol T*S(tot)=    23.57 kcal/mol
 sn=12  qrot/sn=   18335.7433 T*S(rot)=     6.70 kcal/mol T*S(tot)=    23.52 kcal/mol

-------------------
GIBBS FREE ENTHALPY
-------------------

The Gibbs free enthalpy is G = H - T*S

Total enthalpy                    ...   -304.73585901 Eh
Total entropy correction          ...     -0.03879441 Eh    -24.34 kcal/mol
-----------------------------------------------------------------------
Final Gibbs free enthalpy         ...   -304.77465342 Eh

For completeness - the Gibbs free enthalpy minus the electronic energy
G-E(el)                           ...      0.10930358 Eh     68.59 kcal/mol

                             ****ORCA TERMINATED NORMALLY****
TOTAL RUN TIME: 0 days 0 hours 32 minutes 5 seconds 679 msec
