                         Program Version 3.0.3 - RELEASE   -
|  1> ! NORI PBE0 def2-TZVP UseSym TightOPT Freq TightSCF Grid3 FinalGrid5 XYZFile
|  2> % pal
|  3>     nprocs 8
|  4> end
|  5> %method
|  6>     SymThresh 5.0e-2
|  7> end
|  8> % geom
|  9>     MaxIter 10
| 10> end
| 11> % maxcore 2000
| 12> % output
| 13>     printlevel mini
| 14>     print[ P_Basis ] 0
| 15>     print[ P_SCFInfo ] 1
| 16>     print[ P_SCFIterInfo ] 1
| 17>     print[ P_OrbEn ] 0
| 18>     print[ P_Cartesian ] 0
| 19> end
| 20> % elprop
| 21>     Dipole false
| 22> end
| 23> *xyz 1 1
| 24>  C        2.8273668094    -0.1911468319    -1.4932358370
| 25>  C        2.4352781703    -0.0555134798    -0.0324735271
| 26>  C        2.8512724119    -1.1993243011     0.7700200610
| 27>  N        3.1981622771    -2.0934120056     1.4015953274
| 28>  N        2.9990431651     1.2031161742     0.6059620643
| 29>  C        2.4043942721     1.4489083088     1.9512380226
| 30>  C        4.4889604258     1.2278460765     0.6636617018
| 31>  H        2.5459281249     0.7028228237    -2.0549550873
| 32>  H        2.2802377155    -1.0338831555    -1.9169479356
| 33>  H        3.8905016508    -0.3910619588    -1.6204422316
| 34>  H        1.3489751195     0.0464782595     0.0521444589
| 35>  H        2.7049587666     1.9670465207    -0.0061510208
| 36>  H        2.7017360643     0.6377612175     2.6146263663
| 37>  H        1.3194308743     1.4842790742     1.8618026011
| 38>  H        2.7796923386     2.3976933168     2.3296423608
| 39>  H        4.8249271340     0.3958670483     1.2806556565
| 40>  H        4.7964883357     2.1719981964     1.1090349533
| 41>  H        4.8950663439     1.1445847160    -0.3411579344
| 42> *
| 43>
| 44>                          ****END OF INPUT****
 Total Charge           Charge          ....    1
 Multiplicity           Mult            ....    1
 Number of Electrons    NEL             ....   54
FINAL SINGLE POINT ENERGY      -306.120568264919

CARTESIAN COORDINATES (ANGSTROEM)
---------------------------------
  C     -2.017785    0.071560   -0.459893
  C     -0.631977    0.565757   -0.083983
  C     -0.281129    0.259049    1.297398
  N     -0.001482   -0.002033    2.380022
  N      0.451789   -0.000197   -0.987033
  C      1.759132    0.684127   -0.770693
  C      0.597699   -1.481144   -0.889254
  H     -2.228548    0.272522   -1.512841
  H     -2.749016    0.620454    0.134428
  H     -2.151563   -0.988737   -0.249653
  H     -0.575692    1.650092   -0.219925
  H      0.144749    0.214121   -1.938073
  H      2.097203    0.471472    0.242456
  H      1.628729    1.756562   -0.907124
  H      2.476781    0.299522   -1.492771
  H      0.887119   -1.733287    0.129858
  H      1.372723   -1.793416   -1.586514
  H     -0.344143   -1.958968   -1.146547

FINAL SINGLE POINT ENERGY      -306.120569193741
                    ***********************HURRAY********************
 Multiplicity           Mult            ....    1
 Number of Electrons    NEL             ....   54
 Basis Dimension        Dim             ....  283
FINAL SINGLE POINT ENERGY      -306.120569519889

VIBRATIONAL FREQUENCIES
-----------------------

   0:         0.00 cm**-1
   1:         0.00 cm**-1
   2:         0.00 cm**-1
   3:         0.00 cm**-1
   4:         0.00 cm**-1
   5:         0.00 cm**-1
   6:        71.55 cm**-1
   7:       150.57 cm**-1
   8:       200.58 cm**-1
   9:       208.86 cm**-1
  10:       237.46 cm**-1
  11:       259.37 cm**-1
  12:       285.05 cm**-1
  13:       375.34 cm**-1
  14:       394.03 cm**-1
  15:       454.90 cm**-1
  16:       568.35 cm**-1
  17:       642.20 cm**-1
  18:       748.22 cm**-1
  19:       878.63 cm**-1
  20:       939.13 cm**-1
  21:       999.92 cm**-1
  22:      1043.02 cm**-1
  23:      1048.16 cm**-1
  24:      1092.02 cm**-1
  25:      1110.08 cm**-1
  26:      1172.79 cm**-1
  27:      1218.90 cm**-1
  28:      1251.39 cm**-1
  29:      1338.47 cm**-1
  30:      1351.16 cm**-1
  31:      1407.04 cm**-1
  32:      1419.78 cm**-1
  33:      1431.56 cm**-1
  34:      1443.21 cm**-1
  35:      1467.65 cm**-1
  36:      1472.57 cm**-1
  37:      1480.78 cm**-1
  38:      1486.89 cm**-1
  39:      1498.02 cm**-1
  40:      1503.36 cm**-1
  41:      1507.98 cm**-1
  42:      2394.84 cm**-1
  43:      3070.08 cm**-1
  44:      3085.80 cm**-1
  45:      3088.47 cm**-1
  46:      3094.50 cm**-1
  47:      3153.52 cm**-1
  48:      3170.71 cm**-1
  49:      3189.74 cm**-1
  50:      3190.66 cm**-1
  51:      3193.78 cm**-1
  52:      3204.25 cm**-1
  53:      3454.76 cm**-1

IR SPECTRUM
-----------

 Mode    freq (cm**-1)   T**2         TX         TY         TZ
-------------------------------------------------------------------
   6:        71.55    0.884494  (  0.423048   0.830359   0.126604)
   7:       150.57    8.473611  (  2.294400  -0.604001  -1.686571)
   8:       200.58    1.871404  (  0.525149   1.186093   0.434518)
   9:       208.86    0.984229  (  0.236738   0.932984   0.240259)
  10:       237.46    0.209075  (  0.440864   0.079101   0.091959)
  11:       259.37    0.742567  (  0.777080   0.111249   0.355440)
  12:       285.05    0.889315  ( -0.582185   0.701815   0.240480)
  13:       375.34    0.405594  (  0.556039  -0.206260  -0.232102)
  14:       394.03    0.161136  ( -0.181739  -0.356767  -0.028704)
  15:       454.90    0.399181  (  0.484739   0.275110  -0.297529)
  16:       568.35    1.577633  ( -0.565595   0.725009  -0.855627)
  17:       642.20    0.353329  (  0.288767  -0.518286   0.036368)
  18:       748.22    0.725883  (  0.653190   0.440235  -0.324683)
  19:       878.63    2.461961  ( -0.454900   0.008823  -1.501649)
  20:       939.13   15.803470  (  3.309210  -1.281823  -1.791515)
  21:       999.92   20.044527  (  3.731800   2.441305  -0.397774)
  22:      1043.02    9.540114  (  1.690904  -2.582248  -0.113802)
  23:      1048.16    2.105617  ( -0.808521  -1.202765   0.072577)
  24:      1092.02   14.371794  (  2.088392  -1.065914  -2.978967)
  25:      1110.08   17.483247  ( -2.483669   0.683690   3.293509)
  26:      1172.79   11.608907  (  1.912853  -2.216163  -1.743135)
  27:      1218.90    3.318542  ( -1.545650  -0.648249  -0.713638)
  28:      1251.39    1.075629  ( -0.774522   0.176606   0.666749)
  29:      1338.47    7.021510  ( -1.857523   0.163126   1.882686)
  30:      1351.16    3.562650  (  1.167618  -0.650841  -1.332562)
  31:      1407.04   21.893781  (  4.397374   1.443902   0.687048)
  32:      1419.78    4.837476  (  1.918526  -1.068180   0.125395)
  33:      1431.56    9.706797  (  1.871290  -1.103028   2.233473)
  34:      1443.21   10.587056  ( -0.160692  -3.117037   0.919409)
  35:      1467.65   11.647090  ( -2.389214   2.436699  -0.035273)
  36:      1472.57    2.249615  (  0.408319   1.443028   0.023646)
  37:      1480.78    2.795004  (  1.540616   0.515125   0.395161)
  38:      1486.89   19.698588  (  2.208687   3.844770  -0.195015)
  39:      1498.02   24.991169  (  1.231047  -3.313934   3.534619)
  40:      1503.36   27.751592  ( -4.450927   1.427580   2.429580)
  41:      1507.98   29.173793  ( -1.177796   1.741207   4.975418)
  42:      2394.84    5.084293  ( -0.012643  -0.224939   2.243554)
  43:      3070.08    4.126501  (  1.238428  -0.504451  -1.529159)
  44:      3085.80    0.936693  (  0.452089  -0.839306   0.166953)
  45:      3088.47    0.240327  ( -0.105587  -0.446604  -0.172403)
  46:      3094.50    0.436593  (  0.297129  -0.145354   0.571996)
  47:      3153.52    1.418451  ( -0.952666   0.612387  -0.368591)
  48:      3170.71    0.500933  ( -0.545599  -0.200642   0.403729)
  49:      3189.74    0.479184  ( -0.324106   0.112556  -0.601224)
  50:      3190.66    0.138270  ( -0.107017  -0.235644   0.267001)
  51:      3193.78    0.847342  ( -0.068813   0.052498   0.916433)
  52:      3204.25    0.296307  ( -0.309167   0.384049  -0.230713)
  53:      3454.76   58.527409  (  1.776025  -1.450067   7.298661)

--------------------------
THERMOCHEMISTRY AT 298.15K
--------------------------

Temperature         ... 298.15 K
Pressure            ... 1.00 atm
Total Mass          ... 99.16 AMU

Throughout the following assumptions are being made:
  (1) The electronic state is orbitally nondegenerate
  (2) There are no thermally accessible electronically excited states
  (3) Hindered rotations indicated by low frequency modes) are not
      treated as such but are treated as vibrations and this may
      case some error
  (4) All equations used are the standard statistical mechanics
      equations for an ideal gas
  (5) All vibrations are strinctly harmonic

------------
INNER ENERGY
------------

The inner energy is: U= E(el) + E(ZPE) + E(vib) + E(rot) + E(trans)
    E(el)   - is the total energy from the electronic structure calculation
              = E(kin-el) + E(nuc-el) + E(el-el) + E(nuc-nuc)
    E(ZPE)  - the the zero temperature vibrational energy from the frequency calculation
    E(vib)  - the the finite temperature correction to E(ZPE) due to population
              of excietd vibrational states
    E(rot)  - is the rotational thermal energy
    E(trans)- is the translational thermal energy

Summary of contributions to the inner energy U:
Electronic energy                ...   -306.12056952 Eh
Zero point energy                ...      0.16277526 Eh     102.14 kcal/mol
Thermal vibrational correction   ...      0.00566011 Eh       3.55 kcal/mol
Thermal rotational correction    ...      0.00141627 Eh       0.89 kcal/mol
Thermal translational correction ...      0.00141627 Eh       0.89 kcal/mol
-----------------------------------------------------------------------
Total thermal energy                   -305.94930161 Eh

Summary of corrections to the electronic energy:
(perhaps to be used in another calculation)
Total thermal correction                  0.00849265 Eh       5.33 kcal/mol
Non-thermal (ZPE) correction              0.16277526 Eh     102.14 kcal/mol
-----------------------------------------------------------------------
Total correction                          0.17126791 Eh     107.47 kcal/mol

--------
ENTHALPY
--------

The enthalpy is H = U + kB*T
                kB is Boltzmann's constant
Total free energy                 ...   -305.94930161 Eh
Thermal Enthalpy correction       ...      0.00094421 Eh       0.59 kcal/mol
-----------------------------------------------------------------------
Total Enthalpy                    ...   -305.94835740 Eh

-------
ENTROPY
-------

The entropy contributions are T*S = T*(S(el)+S(vib)+S(rot)+S(trans)
     S(el)   - electronic entropy
     S(vib)  - vibrational entropy
     S(rot)  - rotational entropy
     S(trans)- translational entropy
The entropies will be listed as mutliplied by the temperature to get
units of energy

Electronic entropy                ...      0.00000000 Eh      0.00 kcal/mol
Vibrational entropy               ...      0.00991876 Eh      6.22 kcal/mol
Rotational entropy                ...      0.01209237 Eh      7.59 kcal/mol
Translational entropy             ...      0.01885925 Eh     11.83 kcal/mol
-----------------------------------------------------------------------
Final entropy term                ...      0.04087038 Eh     25.65 kcal/mol

CAUTION: The rotational entropy is not quite correctly treated here
         because it includes a symmetry number that is not yet correctly
         implemented in ORCA!
For a nonlinear molecule the correct rotational entropy is:
    S(rot) = R*(ln(qrot/sn)+1.5)
    R    = 8.31441 J/mol/K = 1.987191683e-3 kcal/mol/K
    qrot = 244231.5944110
    sn is the rotational symmetry number. We have assumed 3 here
       if it is different for your molecule then you should correct
       the printed rotational entropy by manually evaluating the equation
       as given above

For convenience we print out the resulting values for sn=1 - 12:
 sn= 1  qrot/sn=  244231.5944 T*S(rot)=     8.24 kcal/mol T*S(tot)=    26.30 kcal/mol
 sn= 2  qrot/sn=  122115.7972 T*S(rot)=     7.83 kcal/mol T*S(tot)=    25.89 kcal/mol
 sn= 3  qrot/sn=   81410.5315 T*S(rot)=     7.59 kcal/mol T*S(tot)=    25.65 kcal/mol
 sn= 4  qrot/sn=   61057.8986 T*S(rot)=     7.42 kcal/mol T*S(tot)=    25.48 kcal/mol
 sn= 5  qrot/sn=   48846.3189 T*S(rot)=     7.29 kcal/mol T*S(tot)=    25.34 kcal/mol
 sn= 6  qrot/sn=   40705.2657 T*S(rot)=     7.18 kcal/mol T*S(tot)=    25.24 kcal/mol
 sn= 7  qrot/sn=   34890.2278 T*S(rot)=     7.09 kcal/mol T*S(tot)=    25.14 kcal/mol
 sn= 8  qrot/sn=   30528.9493 T*S(rot)=     7.01 kcal/mol T*S(tot)=    25.07 kcal/mol
 sn= 9  qrot/sn=   27136.8438 T*S(rot)=     6.94 kcal/mol T*S(tot)=    25.00 kcal/mol
 sn=10  qrot/sn=   24423.1594 T*S(rot)=     6.87 kcal/mol T*S(tot)=    24.93 kcal/mol
 sn=11  qrot/sn=   22202.8722 T*S(rot)=     6.82 kcal/mol T*S(tot)=    24.88 kcal/mol
 sn=12  qrot/sn=   20352.6329 T*S(rot)=     6.77 kcal/mol T*S(tot)=    24.83 kcal/mol

-------------------
GIBBS FREE ENTHALPY
-------------------

The Gibbs free enthalpy is G = H - T*S

Total enthalpy                    ...   -305.94835740 Eh
Total entropy correction          ...     -0.04087038 Eh    -25.65 kcal/mol
-----------------------------------------------------------------------
Final Gibbs free enthalpy         ...   -305.98922778 Eh

For completeness - the Gibbs free enthalpy minus the electronic energy
G-E(el)                           ...      0.13134174 Eh     82.42 kcal/mol

                             ****ORCA TERMINATED NORMALLY****
TOTAL RUN TIME: 0 days 0 hours 40 minutes 23 seconds 169 msec
