                         Program Version 3.0.3 - RELEASE   -
|  1> ! NORI PBE0 def2-TZVP UseSym TightOPT Freq TightSCF Grid3 FinalGrid5 XYZFile
|  2> % pal
|  3>     nprocs 8
|  4> end
|  5> %method
|  6>     SymThresh 5.0e-2
|  7> end
|  8> % geom
|  9>     MaxIter 10
| 10> end
| 11> % maxcore 2000
| 12> % output
| 13>     printlevel mini
| 14>     print[ P_Basis ] 0
| 15>     print[ P_SCFInfo ] 1
| 16>     print[ P_SCFIterInfo ] 1
| 17>     print[ P_OrbEn ] 0
| 18>     print[ P_Cartesian ] 0
| 19> end
| 20> % elprop
| 21>     Dipole false
| 22> end
| 23> *xyz 1 1
| 24>  C        1.5893974965    -0.7287346533    -1.0376400562
| 25>  C        1.6893486712     0.2148047914     0.1615993932
| 26>  C        2.9146489699    -0.0352788089     0.9864126788
| 27>  N        3.0485221700    -0.9131984167     1.9213669113
| 28>  N        4.1152435092     0.6275501326     0.8084336478
| 29>  C        4.3544811418     1.3331966285    -0.2781296082
| 30>  C        5.6006455793     1.9350097224    -0.2959221812
| 31>  H        0.6714786775    -0.5271289147    -1.5901309452
| 32>  H        1.5658962490    -1.7723455019    -0.7177846386
| 33>  H        2.4280996677    -0.6140501208    -1.7283528802
| 34>  H        0.8248134856     0.0755135413     0.8162165422
| 35>  H        1.6576218399     1.2596291604    -0.1593593824
| 36>  H        2.2184150184    -1.5112696394     1.9961859860
| 37>  H        3.6523307412     1.4554168607    -1.1016764103
| 38>  H        6.2690966280     1.7733934331     0.5455357578
| 39>  H        5.9235201549     2.5663917854    -1.1192948147
| 40> *
| 41>
| 42>                          ****END OF INPUT****
 Total Charge           Charge          ....    1
 Multiplicity           Mult            ....    1
 Number of Electrons    NEL             ....   52
FINAL SINGLE POINT ENERGY      -304.804257652466
FINAL SINGLE POINT ENERGY      -304.804259309698

CARTESIAN COORDINATES (ANGSTROEM)
---------------------------------
  C     -2.355770   -0.435973   -0.227602
  C     -1.433439    0.726107    0.145322
  C     -0.167366    0.265916    0.800619
  N      0.002334    0.002930    2.051561
  N      1.005641    0.002789    0.116966
  C      1.019952   -0.133310   -1.193462
  C      2.274437   -0.388676   -1.719430
  H     -3.270879   -0.050185   -0.676526
  H     -2.633076   -1.017659    0.653434
  H     -1.894230   -1.120146   -0.942955
  H     -1.939691    1.390899    0.850313
  H     -1.203205    1.337936   -0.731271
  H     -0.880175    0.062792    2.570765
  H      0.141505   -0.051725   -1.831650
  H      3.117613   -0.470998   -1.039013
  H      2.439127   -0.500604   -2.787679

FINAL SINGLE POINT ENERGY      -304.804259793194
                    ***********************HURRAY********************
 Multiplicity           Mult            ....    1
 Number of Electrons    NEL             ....   52
 Basis Dimension        Dim             ....  271
FINAL SINGLE POINT ENERGY      -304.804259930619

VIBRATIONAL FREQUENCIES
-----------------------

   0:         0.00 cm**-1
   1:         0.00 cm**-1
   2:         0.00 cm**-1
   3:         0.00 cm**-1
   4:         0.00 cm**-1
   5:         0.00 cm**-1
   6:        55.28 cm**-1
   7:       100.39 cm**-1
   8:       129.18 cm**-1
   9:       186.03 cm**-1
  10:       227.55 cm**-1
  11:       246.76 cm**-1
  12:       389.30 cm**-1
  13:       434.89 cm**-1
  14:       548.86 cm**-1
  15:       592.37 cm**-1
  16:       702.14 cm**-1
  17:       796.67 cm**-1
  18:       802.03 cm**-1
  19:       867.04 cm**-1
  20:       970.06 cm**-1
  21:      1012.42 cm**-1
  22:      1034.60 cm**-1
  23:      1085.97 cm**-1
  24:      1090.69 cm**-1
  25:      1124.26 cm**-1
  26:      1142.06 cm**-1
  27:      1255.31 cm**-1
  28:      1277.31 cm**-1
  29:      1325.77 cm**-1
  30:      1352.44 cm**-1
  31:      1397.71 cm**-1
  32:      1417.36 cm**-1
  33:      1479.25 cm**-1
  34:      1485.29 cm**-1
  35:      1488.15 cm**-1
  36:      1498.01 cm**-1
  37:      1528.29 cm**-1
  38:      1633.28 cm**-1
  39:      3061.74 cm**-1
  40:      3071.30 cm**-1
  41:      3108.12 cm**-1
  42:      3139.13 cm**-1
  43:      3151.69 cm**-1
  44:      3157.71 cm**-1
  45:      3162.01 cm**-1
  46:      3270.17 cm**-1
  47:      3446.56 cm**-1

IR SPECTRUM
-----------

 Mode    freq (cm**-1)   T**2         TX         TY         TZ
-------------------------------------------------------------------
   6:        55.28    2.620643  ( -0.054319   1.617929   0.000181)
   7:       100.39   13.122894  ( -1.982506  -2.985279   0.529785)
   8:       129.18    5.083679  (  0.332722   2.211647  -0.285642)
   9:       186.03    2.733521  (  1.123828  -0.490645   1.108963)
  10:       227.55    2.911094  ( -0.751050   0.941174  -1.208805)
  11:       246.76    3.270786  ( -0.358907  -1.260855  -1.245881)
  12:       389.30    5.493919  (  0.741940  -0.314893  -2.200974)
  13:       434.89   23.317901  (  3.222916   1.145272  -3.408675)
  14:       548.86    3.839236  (  1.212634   0.230040   1.521787)
  15:       592.37   16.295405  (  2.005011  -2.588441  -2.361209)
  16:       702.14   18.948794  (  1.646856   3.462641  -2.060771)
  17:       796.67    2.814502  (  1.615500   0.270413  -0.362682)
  18:       802.03   20.435771  ( -2.905091  -0.047943   3.463224)
  19:       867.04   53.681826  (  4.763314   3.903665  -3.969139)
  20:       970.06    1.113253  (  0.058866   1.053118   0.027026)
  21:      1012.42   45.965648  (  3.390911   5.501650  -2.049199)
  22:      1034.60    0.399842  ( -0.435399   0.272070   0.369117)
  23:      1085.97   10.433924  ( -2.988020   0.369718   1.170030)
  24:      1090.69    7.544422  ( -0.204959  -0.077053   2.737969)
  25:      1124.26   24.007549  (  0.758824  -1.429463   4.624756)
  26:      1142.06   13.673944  (  0.697342   3.509921  -0.931724)
  27:      1255.31   14.473035  (  1.278059  -0.563049   3.538725)
  28:      1277.31  170.647164  (  9.805387  -2.272675  -8.326854)
  29:      1325.77   11.497980  ( -0.312153   1.385021  -3.079327)
  30:      1352.44   33.323055  ( -0.221035   0.009880  -5.768371)
  31:      1397.71   63.061331  ( -3.396120   1.740019  -6.964197)
  32:      1417.36   16.886258  ( -0.803397  -1.377050  -3.787419)
  33:      1479.25   80.893823  ( -5.239671   1.973043   7.038947)
  34:      1485.29  246.571213  ( 11.599525  -1.589938 -10.463954)
  35:      1488.15   72.134048  ( -4.841124   0.300943   6.971872)
  36:      1498.01   30.406959  (  3.719729  -3.905297  -1.148578)
  37:      1528.29  200.220975  (  9.516397  -2.755536 -10.102781)
  38:      1633.28   39.044463  (  3.512045  -1.232714   5.019006)
  39:      3061.74    5.440368  ( -1.258788   1.540304   1.217901)
  40:      3071.30    9.291733  (  2.033857   2.225599  -0.449297)
  41:      3108.12    2.960544  (  1.293369  -0.799504  -0.805316)
  42:      3139.13    4.496627  ( -0.965242   0.335316   1.858090)
  43:      3151.69   15.683646  (  3.547812  -0.570340  -1.664748)
  44:      3157.71    3.623796  ( -1.435221   1.205803  -0.331627)
  45:      3162.01    1.550867  ( -1.155643   0.048367  -0.461539)
  46:      3270.17   18.306574  (  1.970332  -0.027354   3.797844)
  47:      3446.56   64.120650  ( -3.877076   0.082763   7.005861)

--------------------------
THERMOCHEMISTRY AT 298.15K
--------------------------

Temperature         ... 298.15 K
Pressure            ... 1.00 atm
Total Mass          ... 97.14 AMU

Throughout the following assumptions are being made:
  (1) The electronic state is orbitally nondegenerate
  (2) There are no thermally accessible electronically excited states
  (3) Hindered rotations indicated by low frequency modes) are not
      treated as such but are treated as vibrations and this may
      case some error
  (4) All equations used are the standard statistical mechanics
      equations for an ideal gas
  (5) All vibrations are strinctly harmonic

------------
INNER ENERGY
------------

The inner energy is: U= E(el) + E(ZPE) + E(vib) + E(rot) + E(trans)
    E(el)   - is the total energy from the electronic structure calculation
              = E(kin-el) + E(nuc-el) + E(el-el) + E(nuc-nuc)
    E(ZPE)  - the the zero temperature vibrational energy from the frequency calculation
    E(vib)  - the the finite temperature correction to E(ZPE) due to population
              of excietd vibrational states
    E(rot)  - is the rotational thermal energy
    E(trans)- is the translational thermal energy

Summary of contributions to the inner energy U:
Electronic energy                ...   -304.80425993 Eh
Zero point energy                ...      0.13497040 Eh      84.70 kcal/mol
Thermal vibrational correction   ...      0.00540441 Eh       3.39 kcal/mol
Thermal rotational correction    ...      0.00141627 Eh       0.89 kcal/mol
Thermal translational correction ...      0.00141627 Eh       0.89 kcal/mol
-----------------------------------------------------------------------
Total thermal energy                   -304.66105258 Eh

Summary of corrections to the electronic energy:
(perhaps to be used in another calculation)
Total thermal correction                  0.00823695 Eh       5.17 kcal/mol
Non-thermal (ZPE) correction              0.13497040 Eh      84.70 kcal/mol
-----------------------------------------------------------------------
Total correction                          0.14320735 Eh      89.86 kcal/mol

--------
ENTHALPY
--------

The enthalpy is H = U + kB*T
                kB is Boltzmann's constant
Total free energy                 ...   -304.66105258 Eh
Thermal Enthalpy correction       ...      0.00094421 Eh       0.59 kcal/mol
-----------------------------------------------------------------------
Total Enthalpy                    ...   -304.66010837 Eh

-------
ENTROPY
-------

The entropy contributions are T*S = T*(S(el)+S(vib)+S(rot)+S(trans)
     S(el)   - electronic entropy
     S(vib)  - vibrational entropy
     S(rot)  - rotational entropy
     S(trans)- translational entropy
The entropies will be listed as mutliplied by the temperature to get
units of energy

Electronic entropy                ...      0.00000000 Eh      0.00 kcal/mol
Vibrational entropy               ...      0.01016935 Eh      6.38 kcal/mol
Rotational entropy                ...      0.01218072 Eh      7.64 kcal/mol
Translational entropy             ...      0.01883016 Eh     11.82 kcal/mol
-----------------------------------------------------------------------
Final entropy term                ...      0.04118024 Eh     25.84 kcal/mol

CAUTION: The rotational entropy is not quite correctly treated here
         because it includes a symmetry number that is not yet correctly
         implemented in ORCA!
For a nonlinear molecule the correct rotational entropy is:
    S(rot) = R*(ln(qrot/sn)+1.5)
    R    = 8.31441 J/mol/K = 1.987191683e-3 kcal/mol/K
    qrot = 268188.8753257
    sn is the rotational symmetry number. We have assumed 3 here
       if it is different for your molecule then you should correct
       the printed rotational entropy by manually evaluating the equation
       as given above

For convenience we print out the resulting values for sn=1 - 12:
 sn= 1  qrot/sn=  268188.8753 T*S(rot)=     8.29 kcal/mol T*S(tot)=    26.49 kcal/mol
 sn= 2  qrot/sn=  134094.4377 T*S(rot)=     7.88 kcal/mol T*S(tot)=    26.08 kcal/mol
 sn= 3  qrot/sn=   89396.2918 T*S(rot)=     7.64 kcal/mol T*S(tot)=    25.84 kcal/mol
 sn= 4  qrot/sn=   67047.2188 T*S(rot)=     7.47 kcal/mol T*S(tot)=    25.67 kcal/mol
 sn= 5  qrot/sn=   53637.7751 T*S(rot)=     7.34 kcal/mol T*S(tot)=    25.54 kcal/mol
 sn= 6  qrot/sn=   44698.1459 T*S(rot)=     7.23 kcal/mol T*S(tot)=    25.43 kcal/mol
 sn= 7  qrot/sn=   38312.6965 T*S(rot)=     7.14 kcal/mol T*S(tot)=    25.34 kcal/mol
 sn= 8  qrot/sn=   33523.6094 T*S(rot)=     7.06 kcal/mol T*S(tot)=    25.26 kcal/mol
 sn= 9  qrot/sn=   29798.7639 T*S(rot)=     6.99 kcal/mol T*S(tot)=    25.19 kcal/mol
 sn=10  qrot/sn=   26818.8875 T*S(rot)=     6.93 kcal/mol T*S(tot)=    25.13 kcal/mol
 sn=11  qrot/sn=   24380.8068 T*S(rot)=     6.87 kcal/mol T*S(tot)=    25.07 kcal/mol
 sn=12  qrot/sn=   22349.0729 T*S(rot)=     6.82 kcal/mol T*S(tot)=    25.02 kcal/mol

-------------------
GIBBS FREE ENTHALPY
-------------------

The Gibbs free enthalpy is G = H - T*S

Total enthalpy                    ...   -304.66010837 Eh
Total entropy correction          ...     -0.04118024 Eh    -25.84 kcal/mol
-----------------------------------------------------------------------
Final Gibbs free enthalpy         ...   -304.70128861 Eh

For completeness - the Gibbs free enthalpy minus the electronic energy
G-E(el)                           ...      0.10297132 Eh     64.62 kcal/mol

                             ****ORCA TERMINATED NORMALLY****
TOTAL RUN TIME: 0 days 0 hours 34 minutes 9 seconds 11 msec
