                         Program Version 3.0.3 - RELEASE   -
|  1> ! NORI PBE0 def2-TZVP UseSym TightOPT Freq TightSCF Grid3 FinalGrid5 XYZFile
|  2> % pal
|  3>     nprocs 8
|  4> end
|  5> %method
|  6>     SymThresh 5.0e-2
|  7> end
|  8> % geom
|  9>     MaxIter 10
| 10> end
| 11> % maxcore 2000
| 12> % output
| 13>     printlevel mini
| 14>     print[ P_Basis ] 0
| 15>     print[ P_SCFInfo ] 1
| 16>     print[ P_SCFIterInfo ] 1
| 17>     print[ P_OrbEn ] 0
| 18>     print[ P_Cartesian ] 0
| 19> end
| 20> % elprop
| 21>     Dipole false
| 22> end
| 23> *xyz 1 1
| 24>  C        2.0991610769     0.6139042198    -1.0799721573
| 25>  C        2.1918938349    -0.3489497019     0.0796046839
| 26>  N        3.0335049504    -1.5161417658    -0.2599431121
| 27>  C        3.0247764191    -2.7626485666     0.5334412549
| 28>  C        2.5569025149    -2.8186727011    -0.8670644706
| 29>  C        1.0926586861    -2.9433358267    -1.1656308553
| 30>  C        3.4868788651    -3.3583666420    -1.9151033529
| 31>  H        1.4941312364     1.4717115297    -0.7844514121
| 32>  H        1.6286776473     0.1565103252    -1.9515586036
| 33>  H        3.0818466572     0.9931050525    -1.3694340858
| 34>  H        1.2143595314    -0.7253013819     0.3758929427
| 35>  H        2.6488079462     0.1152520936     0.9564833204
| 36>  H        3.9540446097    -1.2469324812    -0.5931407990
| 37>  H        4.0034061471    -3.1441112209     0.7968096223
| 38>  H        2.2926363017    -2.7567926848     1.3320056098
| 39>  H        0.8392679130    -2.4572832880    -2.1092431071
| 40>  H        0.4522180776    -2.5526524945    -0.3757791221
| 41>  H        0.8641093017    -4.0058512753    -1.2705446235
| 42>  H        3.2894402639    -2.9011572141    -2.8864335926
| 43>  H        3.3263081471    -4.4338249660    -2.0123151895
| 44>  H        4.5376798723    -3.2061310103    -1.6564129505
| 45> *
| 46>
| 47>                          ****END OF INPUT****
 Total Charge           Charge          ....    1
 Multiplicity           Mult            ....    1
 Number of Electrons    NEL             ....   56
FINAL SINGLE POINT ENERGY      -291.313110884378
FINAL SINGLE POINT ENERGY      -291.313113207410
FINAL SINGLE POINT ENERGY      -291.313114217562

CARTESIAN COORDINATES (ANGSTROEM)
---------------------------------
  C      2.460483    0.001837    0.588526
  C      1.224888    0.821165    0.875281
  N      0.000043   -0.000012    0.762095
  C     -1.348116    0.593149    0.642141
  C     -0.831254   -0.208171   -0.486543
  C     -0.369540    0.471267   -1.740643
  C     -1.315732   -1.620612   -0.646361
  H      3.342656    0.631569    0.709846
  H      2.463522   -0.385734   -0.431366
  H      2.560313   -0.835081    1.283871
  H      1.123574    1.660030    0.188405
  H      1.231817    1.223617    1.890849
  H      0.033980   -0.829253    1.347311
  H     -2.092278    0.177584    1.310614
  H     -1.334174    1.673864    0.568061
  H      0.431377   -0.091087   -2.223103
  H     -0.045972    1.499152   -1.582853
  H     -1.213819    0.501818   -2.432505
  H     -0.556184   -2.243370   -1.122373
  H     -2.200054   -1.621852   -1.286346
  H     -1.600897   -2.071978    0.306934

FINAL SINGLE POINT ENERGY      -291.313114553071
                    ***********************HURRAY********************
 Multiplicity           Mult            ....    1
 Number of Electrons    NEL             ....   56
 Basis Dimension        Dim             ....  301
FINAL SINGLE POINT ENERGY      -291.313114731107

VIBRATIONAL FREQUENCIES
-----------------------

   0:         0.00 cm**-1
   1:         0.00 cm**-1
   2:         0.00 cm**-1
   3:         0.00 cm**-1
   4:         0.00 cm**-1
   5:         0.00 cm**-1
   6:        76.73 cm**-1
   7:       137.41 cm**-1
   8:       175.70 cm**-1
   9:       213.35 cm**-1
  10:       234.11 cm**-1
  11:       287.95 cm**-1
  12:       360.60 cm**-1
  13:       361.13 cm**-1
  14:       399.54 cm**-1
  15:       439.42 cm**-1
  16:       482.74 cm**-1
  17:       672.74 cm**-1
  18:       760.10 cm**-1
  19:       815.19 cm**-1
  20:       865.91 cm**-1
  21:       910.92 cm**-1
  22:       967.05 cm**-1
  23:       970.07 cm**-1
  24:       988.33 cm**-1
  25:      1032.56 cm**-1
  26:      1055.29 cm**-1
  27:      1095.02 cm**-1
  28:      1119.48 cm**-1
  29:      1135.47 cm**-1
  30:      1148.09 cm**-1
  31:      1176.20 cm**-1
  32:      1221.66 cm**-1
  33:      1304.25 cm**-1
  34:      1341.06 cm**-1
  35:      1366.39 cm**-1
  36:      1384.26 cm**-1
  37:      1422.25 cm**-1
  38:      1424.82 cm**-1
  39:      1428.06 cm**-1
  40:      1458.12 cm**-1
  41:      1464.52 cm**-1
  42:      1476.35 cm**-1
  43:      1482.43 cm**-1
  44:      1486.67 cm**-1
  45:      1492.52 cm**-1
  46:      1497.63 cm**-1
  47:      1505.88 cm**-1
  48:      1515.82 cm**-1
  49:      3059.83 cm**-1
  50:      3064.43 cm**-1
  51:      3073.28 cm**-1
  52:      3093.48 cm**-1
  53:      3135.89 cm**-1
  54:      3139.67 cm**-1
  55:      3145.53 cm**-1
  56:      3149.91 cm**-1
  57:      3155.42 cm**-1
  58:      3160.94 cm**-1
  59:      3161.73 cm**-1
  60:      3168.87 cm**-1
  61:      3260.82 cm**-1
  62:      3532.81 cm**-1

IR SPECTRUM
-----------

 Mode    freq (cm**-1)   T**2         TX         TY         TZ
-------------------------------------------------------------------
   6:        76.73    0.703212  ( -0.397850   0.007609   0.738153)
   7:       137.41    0.226019  ( -0.118462  -0.458221  -0.044935)
   8:       175.70    0.093751  (  0.021569   0.292577  -0.087660)
   9:       213.35    0.018372  (  0.059493   0.116207   0.036447)
  10:       234.11    0.265674  (  0.412353  -0.302777  -0.062965)
  11:       287.95    0.264401  ( -0.365435  -0.067801  -0.355334)
  12:       360.60    0.782026  ( -0.099446   0.351017   0.805558)
  13:       361.13    0.892463  ( -0.865227   0.245411   0.289169)
  14:       399.54    0.194411  ( -0.005720   0.380203   0.223214)
  15:       439.42    0.372691  (  0.519597   0.315337   0.057211)
  16:       482.74    0.987233  ( -0.837781   0.331923  -0.418549)
  17:       672.74    8.519125  ( -1.580550  -0.514096  -2.399311)
  18:       760.10   12.551253  ( -2.117101  -0.103577  -2.838734)
  19:       815.19    0.886529  (  0.104728   0.440614  -0.825482)
  20:       865.91    8.731334  ( -2.462414  -0.116365  -1.629205)
  21:       910.92    2.134086  ( -0.777535   0.264296   1.208169)
  22:       967.05    6.907626  (  1.938511  -0.266684  -1.754616)
  23:       970.07    4.910197  ( -0.804186   1.296604   1.606954)
  24:       988.33    7.375162  (  2.517616  -1.007993   0.143947)
  25:      1032.56    9.188022  ( -2.358436  -1.426415  -1.261405)
  26:      1055.29    8.500271  ( -0.514472  -1.600220  -2.382202)
  27:      1095.02   29.308770  (  3.285418   1.723152   3.942784)
  28:      1119.48    2.557139  (  1.503940  -0.184765  -0.511043)
  29:      1135.47   28.646835  ( -5.192958   1.091325  -0.699307)
  30:      1148.09   18.646945  (  3.349355   1.110139   2.489248)
  31:      1176.20    3.464373  (  1.110013  -0.781496   1.273384)
  32:      1221.66    8.003525  (  2.551979   0.680628  -1.013742)
  33:      1304.25    4.408902  ( -1.781270   0.278914   1.076190)
  34:      1341.06    4.309918  ( -0.157684  -1.834873  -0.958278)
  35:      1366.39    5.248699  (  1.090529   0.428030   1.968816)
  36:      1384.26    0.764011  ( -0.329955  -0.453918   0.670148)
  37:      1422.25   13.154101  (  3.616072  -0.206075   0.188828)
  38:      1424.82   25.836064  (  0.007095  -4.010837   3.122371)
  39:      1428.06   13.308786  (  0.270176   2.101143   2.970015)
  40:      1458.12   36.246205  (  5.654246   1.378461   1.541282)
  41:      1464.52    3.822286  ( -1.455787  -0.965794  -0.877618)
  42:      1476.35   11.442271  (  2.499601  -1.628548   1.594395)
  43:      1482.43    6.978973  (  0.270512  -0.167506  -2.622544)
  44:      1486.67   16.610429  (  2.172651   0.174950  -3.443749)
  45:      1492.52    2.814532  (  0.891894  -0.238047   1.400853)
  46:      1497.63   15.042889  (  2.439386   0.509171   2.972041)
  47:      1505.88   31.301429  (  1.648417  -5.140326  -1.470103)
  48:      1515.82   10.638472  (  2.319535   1.978696   1.158875)
  49:      3059.83    1.702167  (  0.058782  -0.790077   1.036576)
  50:      3064.43    2.626674  (  0.003707   1.609671   0.188731)
  51:      3073.28    1.035635  (  1.010075   0.040739   0.117153)
  52:      3093.48    2.957747  ( -0.360317   1.554556   0.641306)
  53:      3135.89    2.869443  ( -0.279723  -0.452013   1.608379)
  54:      3139.67    4.079948  ( -0.681435  -0.439642   1.849948)
  55:      3145.53    0.507082  (  0.529825   0.434982   0.192766)
  56:      3149.91    0.999185  (  0.766290  -0.375558  -0.520519)
  57:      3155.42    0.796223  (  0.210735  -0.801789  -0.330073)
  58:      3160.94    4.554806  (  0.632056   0.406382   1.997540)
  59:      3161.73    1.954554  ( -0.496236   0.873762   0.972031)
  60:      3168.87    4.139688  ( -0.113287  -1.998948   0.362023)
  61:      3260.82    1.551364  ( -0.383936  -1.104618   0.428693)
  62:      3532.81   55.125231  (  1.231317  -5.416231   4.926817)

--------------------------
THERMOCHEMISTRY AT 298.15K
--------------------------

Temperature         ... 298.15 K
Pressure            ... 1.00 atm
Total Mass          ... 100.18 AMU

Throughout the following assumptions are being made:
  (1) The electronic state is orbitally nondegenerate
  (2) There are no thermally accessible electronically excited states
  (3) Hindered rotations indicated by low frequency modes) are not
      treated as such but are treated as vibrations and this may
      case some error
  (4) All equations used are the standard statistical mechanics
      equations for an ideal gas
  (5) All vibrations are strinctly harmonic

------------
INNER ENERGY
------------

The inner energy is: U= E(el) + E(ZPE) + E(vib) + E(rot) + E(trans)
    E(el)   - is the total energy from the electronic structure calculation
              = E(kin-el) + E(nuc-el) + E(el-el) + E(nuc-nuc)
    E(ZPE)  - the the zero temperature vibrational energy from the frequency calculation
    E(vib)  - the the finite temperature correction to E(ZPE) due to population
              of excietd vibrational states
    E(rot)  - is the rotational thermal energy
    E(trans)- is the translational thermal energy

Summary of contributions to the inner energy U:
Electronic energy                ...   -291.31311473 Eh
Zero point energy                ...      0.19696226 Eh     123.60 kcal/mol
Thermal vibrational correction   ...      0.00586389 Eh       3.68 kcal/mol
Thermal rotational correction    ...      0.00141627 Eh       0.89 kcal/mol
Thermal translational correction ...      0.00141627 Eh       0.89 kcal/mol
-----------------------------------------------------------------------
Total thermal energy                   -291.10745604 Eh

Summary of corrections to the electronic energy:
(perhaps to be used in another calculation)
Total thermal correction                  0.00869643 Eh       5.46 kcal/mol
Non-thermal (ZPE) correction              0.19696226 Eh     123.60 kcal/mol
-----------------------------------------------------------------------
Total correction                          0.20565869 Eh     129.05 kcal/mol

--------
ENTHALPY
--------

The enthalpy is H = U + kB*T
                kB is Boltzmann's constant
Total free energy                 ...   -291.10745604 Eh
Thermal Enthalpy correction       ...      0.00094421 Eh       0.59 kcal/mol
-----------------------------------------------------------------------
Total Enthalpy                    ...   -291.10651183 Eh

-------
ENTROPY
-------

The entropy contributions are T*S = T*(S(el)+S(vib)+S(rot)+S(trans)
     S(el)   - electronic entropy
     S(vib)  - vibrational entropy
     S(rot)  - rotational entropy
     S(trans)- translational entropy
The entropies will be listed as mutliplied by the temperature to get
units of energy

Electronic entropy                ...      0.00000000 Eh      0.00 kcal/mol
Vibrational entropy               ...      0.01015149 Eh      6.37 kcal/mol
Rotational entropy                ...      0.01212528 Eh      7.61 kcal/mol
Translational entropy             ...      0.01887386 Eh     11.84 kcal/mol
-----------------------------------------------------------------------
Final entropy term                ...      0.04115063 Eh     25.82 kcal/mol

CAUTION: The rotational entropy is not quite correctly treated here
         because it includes a symmetry number that is not yet correctly
         implemented in ORCA!
For a nonlinear molecule the correct rotational entropy is:
    S(rot) = R*(ln(qrot/sn)+1.5)
    R    = 8.31441 J/mol/K = 1.987191683e-3 kcal/mol/K
    qrot = 252895.0219969
    sn is the rotational symmetry number. We have assumed 3 here
       if it is different for your molecule then you should correct
       the printed rotational entropy by manually evaluating the equation
       as given above

For convenience we print out the resulting values for sn=1 - 12:
 sn= 1  qrot/sn=  252895.0220 T*S(rot)=     8.26 kcal/mol T*S(tot)=    26.47 kcal/mol
 sn= 2  qrot/sn=  126447.5110 T*S(rot)=     7.85 kcal/mol T*S(tot)=    26.06 kcal/mol
 sn= 3  qrot/sn=   84298.3407 T*S(rot)=     7.61 kcal/mol T*S(tot)=    25.82 kcal/mol
 sn= 4  qrot/sn=   63223.7555 T*S(rot)=     7.44 kcal/mol T*S(tot)=    25.65 kcal/mol
 sn= 5  qrot/sn=   50579.0044 T*S(rot)=     7.31 kcal/mol T*S(tot)=    25.52 kcal/mol
 sn= 6  qrot/sn=   42149.1703 T*S(rot)=     7.20 kcal/mol T*S(tot)=    25.41 kcal/mol
 sn= 7  qrot/sn=   36127.8603 T*S(rot)=     7.11 kcal/mol T*S(tot)=    25.32 kcal/mol
 sn= 8  qrot/sn=   31611.8777 T*S(rot)=     7.03 kcal/mol T*S(tot)=    25.24 kcal/mol
 sn= 9  qrot/sn=   28099.4469 T*S(rot)=     6.96 kcal/mol T*S(tot)=    25.17 kcal/mol
 sn=10  qrot/sn=   25289.5022 T*S(rot)=     6.90 kcal/mol T*S(tot)=    25.11 kcal/mol
 sn=11  qrot/sn=   22990.4565 T*S(rot)=     6.84 kcal/mol T*S(tot)=    25.05 kcal/mol
 sn=12  qrot/sn=   21074.5852 T*S(rot)=     6.79 kcal/mol T*S(tot)=    25.00 kcal/mol

-------------------
GIBBS FREE ENTHALPY
-------------------

The Gibbs free enthalpy is G = H - T*S

Total enthalpy                    ...   -291.10651183 Eh
Total entropy correction          ...     -0.04115063 Eh    -25.82 kcal/mol
-----------------------------------------------------------------------
Final Gibbs free enthalpy         ...   -291.14766246 Eh

For completeness - the Gibbs free enthalpy minus the electronic energy
G-E(el)                           ...      0.16545227 Eh    103.82 kcal/mol

                             ****ORCA TERMINATED NORMALLY****
TOTAL RUN TIME: 0 days 0 hours 53 minutes 49 seconds 204 msec
