                         Program Version 3.0.3 - RELEASE   -
|  1> ! NORI PBE0 def2-TZVP UseSym TightOPT Freq TightSCF Grid3 FinalGrid5 XYZFile
|  2> % pal
|  3>     nprocs 8
|  4> end
|  5> %method
|  6>     SymThresh 5.0e-2
|  7> end
|  8> % geom
|  9>     MaxIter 10
| 10> end
| 11> % maxcore 2000
| 12> % output
| 13>     printlevel mini
| 14>     print[ P_Basis ] 0
| 15>     print[ P_SCFInfo ] 1
| 16>     print[ P_SCFIterInfo ] 1
| 17>     print[ P_OrbEn ] 0
| 18>     print[ P_Cartesian ] 0
| 19> end
| 20> % elprop
| 21>     Dipole false
| 22> end
| 23> *xyz 1 1
| 24>  C        2.0019520663     1.2764340738    -0.2363954331
| 25>  C        2.3027974909    -0.1802270160     0.0190202439
| 26>  N        2.9476270290    -0.8102800028    -1.1545264511
| 27>  C        2.9250070988    -2.2669835912    -1.3663496760
| 28>  C        2.1485568007    -1.4050067054    -2.2819983966
| 29>  C        2.5911317573    -1.1236475975    -3.6545425203
| 30>  C        1.7469615610    -0.7510750988    -4.6063768203
| 31>  H        1.5276303460     1.7019755373     0.6489294704
| 32>  H        1.3204022363     1.4080986279    -1.0789208948
| 33>  H        2.9121158870     1.8496499362    -0.4263509375
| 34>  H        2.9836191388    -0.3171201439     0.8621933887
| 35>  H        1.3971256658    -0.7554966842     0.2229539987
| 36>  H        3.7971694924    -0.3423339530    -1.4580026188
| 37>  H        3.8604754699    -2.6909554750    -1.7104527129
| 38>  H        2.4140214023    -2.8160365168    -0.5854434231
| 39>  H        1.0841537276    -1.3214675021    -2.0890205860
| 40>  H        3.6455351418    -1.2746793838    -3.8762422434
| 41>  H        0.6869926664    -0.6181889759    -4.4143491482
| 42>  H        2.0875350218    -0.5792695287    -5.6197952394
| 43> *
| 44>
| 45>                          ****END OF INPUT****
 Total Charge           Charge          ....    1
 Multiplicity           Mult            ....    1
 Number of Electrons    NEL             ....   54
FINAL SINGLE POINT ENERGY      -290.072820850162
FINAL SINGLE POINT ENERGY      -290.072822558308

CARTESIAN COORDINATES (ANGSTROEM)
---------------------------------
  C      2.466013   -0.002340    0.805097
  C      1.234893    0.691487    1.335005
  N      0.000676    0.000790    0.899929
  C     -1.304575    0.681358    0.869748
  C     -0.667818    0.312521   -0.411702
  C     -1.139250   -0.817860   -1.222831
  C     -0.907717   -0.897780   -2.525631
  H      3.351549    0.534884    1.146482
  H      2.483660   -0.019995   -0.285855
  H      2.542267   -1.027222    1.175061
  H      1.214098    0.713520    2.426976
  H      1.157796    1.719759    0.976932
  H     -0.031100   -0.983035    1.152245
  H     -2.135151    0.088788    1.233447
  H     -1.271459    1.709201    1.207743
  H     -0.139496    1.100242   -0.938166
  H     -1.730451   -1.578193   -0.717053
  H     -0.342613   -0.138543   -3.056150
  H     -1.291552   -1.723045   -3.112202

FINAL SINGLE POINT ENERGY      -290.072823313493
                    ***********************HURRAY********************
 Multiplicity           Mult            ....    1
 Number of Electrons    NEL             ....   54
 Basis Dimension        Dim             ....  289
FINAL SINGLE POINT ENERGY      -290.072823586547

VIBRATIONAL FREQUENCIES
-----------------------

   0:         0.00 cm**-1
   1:         0.00 cm**-1
   2:         0.00 cm**-1
   3:         0.00 cm**-1
   4:         0.00 cm**-1
   5:         0.00 cm**-1
   6:        71.47 cm**-1
   7:       113.93 cm**-1
   8:       146.59 cm**-1
   9:       207.56 cm**-1
  10:       259.76 cm**-1
  11:       323.16 cm**-1
  12:       389.80 cm**-1
  13:       441.31 cm**-1
  14:       453.78 cm**-1
  15:       654.34 cm**-1
  16:       777.58 cm**-1
  17:       827.22 cm**-1
  18:       833.65 cm**-1
  19:       858.86 cm**-1
  20:       950.61 cm**-1
  21:       986.93 cm**-1
  22:      1006.31 cm**-1
  23:      1016.85 cm**-1
  24:      1024.15 cm**-1
  25:      1074.95 cm**-1
  26:      1097.86 cm**-1
  27:      1141.44 cm**-1
  28:      1146.65 cm**-1
  29:      1166.30 cm**-1
  30:      1220.46 cm**-1
  31:      1239.45 cm**-1
  32:      1259.75 cm**-1
  33:      1314.54 cm**-1
  34:      1331.61 cm**-1
  35:      1368.74 cm**-1
  36:      1385.12 cm**-1
  37:      1424.11 cm**-1
  38:      1453.83 cm**-1
  39:      1471.51 cm**-1
  40:      1483.14 cm**-1
  41:      1486.94 cm**-1
  42:      1496.65 cm**-1
  43:      1509.14 cm**-1
  44:      1721.58 cm**-1
  45:      3065.11 cm**-1
  46:      3085.19 cm**-1
  47:      3128.87 cm**-1
  48:      3150.97 cm**-1
  49:      3156.81 cm**-1
  50:      3161.02 cm**-1
  51:      3166.97 cm**-1
  52:      3168.54 cm**-1
  53:      3195.59 cm**-1
  54:      3263.41 cm**-1
  55:      3268.31 cm**-1
  56:      3528.62 cm**-1

IR SPECTRUM
-----------

 Mode    freq (cm**-1)   T**2         TX         TY         TZ
-------------------------------------------------------------------
   6:        71.47    0.276130  (  0.190968   0.253571  -0.418763)
   7:       113.93    0.685374  (  0.478845  -0.238796  -0.631711)
   8:       146.59    1.058336  (  0.320313  -0.726164  -0.654540)
   9:       207.56    0.546622  (  0.497961   0.394097  -0.378609)
  10:       259.76    0.343175  ( -0.303814  -0.093271   0.492110)
  11:       323.16    0.217698  ( -0.413628   0.044429  -0.211273)
  12:       389.80    0.870460  (  0.297067  -0.773680   0.428522)
  13:       441.31    1.161406  ( -0.457382   0.531786   0.818176)
  14:       453.78    1.577437  ( -0.542652   0.462397  -1.034000)
  15:       654.34    6.448226  (  1.692803  -1.689449  -0.853466)
  16:       777.58   38.806673  ( -3.448554   1.478909  -4.972623)
  17:       827.22    0.874874  ( -0.171519  -0.702694  -0.593023)
  18:       833.65    9.159814  (  1.999255   0.460330   2.225060)
  19:       858.86    9.784391  (  2.743826  -0.106996   1.498119)
  20:       950.61   11.939828  (  3.276838   0.694790  -0.848192)
  21:       986.93    7.068845  (  0.136240  -0.514282   2.604956)
  22:      1006.31   14.665635  (  2.922108  -1.582803   1.903064)
  23:      1016.85   53.920250  ( -6.592035   3.168884  -0.650772)
  24:      1024.15    8.377443  ( -2.334870   1.704587  -0.142156)
  25:      1074.95   50.315489  (  4.972040   0.297699   5.050315)
  26:      1097.86    5.677935  ( -0.581908   1.137866   2.011114)
  27:      1141.44   12.625226  ( -0.308520   1.305749   3.290146)
  28:      1146.65    2.028514  (  0.073175   1.420935  -0.064050)
  29:      1166.30    5.546281  ( -2.001302  -1.074709   0.621345)
  30:      1220.46   10.387981  (  2.887251   1.420887   0.181233)
  31:      1239.45    4.978585  (  0.892719  -0.624789  -1.947120)
  32:      1259.75    8.295650  ( -2.647056   0.967149  -0.594445)
  33:      1314.54    6.950665  ( -0.816221  -1.663928   1.875044)
  34:      1331.61    4.170223  ( -0.050829   0.907978   1.828446)
  35:      1368.74    3.098552  (  1.044960   1.403132  -0.194503)
  36:      1385.12    2.728523  (  0.444828  -0.242857   1.572155)
  37:      1424.11   12.224516  (  3.282148  -1.100339  -0.491200)
  38:      1453.83   32.494457  (  5.304324  -0.789984   1.932493)
  39:      1471.51   23.590625  (  2.471747  -0.240160   4.174137)
  40:      1483.14    2.937699  (  1.514155   0.390609  -0.701753)
  41:      1486.94   18.043987  (  0.762946   2.161976  -3.575998)
  42:      1496.65    5.518709  ( -1.425341   1.363893  -1.275503)
  43:      1509.14   37.345285  (  0.754890   3.438520   4.995198)
  44:      1721.58    2.643122  ( -0.728877  -1.067808  -0.985721)
  45:      3065.11    1.924600  (  0.196880   1.159683   0.735509)
  46:      3085.19    3.850975  (  0.727885  -1.524505  -0.998521)
  47:      3128.87    0.585973  ( -0.475847  -0.316275   0.509424)
  48:      3150.97    4.491926  (  0.379325  -1.566860   1.375859)
  49:      3156.81    2.482742  (  0.082266   0.081394   1.571416)
  50:      3161.02    0.675345  (  0.420365   0.590952  -0.386541)
  51:      3166.97    1.820234  (  0.878777  -0.625424  -0.810450)
  52:      3168.54    1.424958  ( -0.425610  -0.756103  -0.819831)
  53:      3195.59    1.212476  ( -0.058308   0.110921  -1.093971)
  54:      3263.41    0.628378  ( -0.155407  -0.431787  -0.646364)
  55:      3268.31    3.923130  ( -0.860314  -1.783577  -0.042949)
  56:      3528.62   61.695506  ( -0.863263   7.137058  -3.164283)

--------------------------
THERMOCHEMISTRY AT 298.15K
--------------------------

Temperature         ... 298.15 K
Pressure            ... 1.00 atm
Total Mass          ... 98.17 AMU

Throughout the following assumptions are being made:
  (1) The electronic state is orbitally nondegenerate
  (2) There are no thermally accessible electronically excited states
  (3) Hindered rotations indicated by low frequency modes) are not
      treated as such but are treated as vibrations and this may
      case some error
  (4) All equations used are the standard statistical mechanics
      equations for an ideal gas
  (5) All vibrations are strinctly harmonic

------------
INNER ENERGY
------------

The inner energy is: U= E(el) + E(ZPE) + E(vib) + E(rot) + E(trans)
    E(el)   - is the total energy from the electronic structure calculation
              = E(kin-el) + E(nuc-el) + E(el-el) + E(nuc-nuc)
    E(ZPE)  - the the zero temperature vibrational energy from the frequency calculation
    E(vib)  - the the finite temperature correction to E(ZPE) due to population
              of excietd vibrational states
    E(rot)  - is the rotational thermal energy
    E(trans)- is the translational thermal energy

Summary of contributions to the inner energy U:
Electronic energy                ...   -290.07282359 Eh
Zero point energy                ...      0.17422753 Eh     109.33 kcal/mol
Thermal vibrational correction   ...      0.00525554 Eh       3.30 kcal/mol
Thermal rotational correction    ...      0.00141627 Eh       0.89 kcal/mol
Thermal translational correction ...      0.00141627 Eh       0.89 kcal/mol
-----------------------------------------------------------------------
Total thermal energy                   -289.89050797 Eh

Summary of corrections to the electronic energy:
(perhaps to be used in another calculation)
Total thermal correction                  0.00808809 Eh       5.08 kcal/mol
Non-thermal (ZPE) correction              0.17422753 Eh     109.33 kcal/mol
-----------------------------------------------------------------------
Total correction                          0.18231562 Eh     114.40 kcal/mol

--------
ENTHALPY
--------

The enthalpy is H = U + kB*T
                kB is Boltzmann's constant
Total free energy                 ...   -289.89050797 Eh
Thermal Enthalpy correction       ...      0.00094421 Eh       0.59 kcal/mol
-----------------------------------------------------------------------
Total Enthalpy                    ...   -289.88956376 Eh

-------
ENTROPY
-------

The entropy contributions are T*S = T*(S(el)+S(vib)+S(rot)+S(trans)
     S(el)   - electronic entropy
     S(vib)  - vibrational entropy
     S(rot)  - rotational entropy
     S(trans)- translational entropy
The entropies will be listed as mutliplied by the temperature to get
units of energy

Electronic entropy                ...      0.00000000 Eh      0.00 kcal/mol
Vibrational entropy               ...      0.00942425 Eh      5.91 kcal/mol
Rotational entropy                ...      0.01224899 Eh      7.69 kcal/mol
Translational entropy             ...      0.01884507 Eh     11.83 kcal/mol
-----------------------------------------------------------------------
Final entropy term                ...      0.04051831 Eh     25.43 kcal/mol

CAUTION: The rotational entropy is not quite correctly treated here
         because it includes a symmetry number that is not yet correctly
         implemented in ORCA!
For a nonlinear molecule the correct rotational entropy is:
    S(rot) = R*(ln(qrot/sn)+1.5)
    R    = 8.31441 J/mol/K = 1.987191683e-3 kcal/mol/K
    qrot = 288299.2480807
    sn is the rotational symmetry number. We have assumed 3 here
       if it is different for your molecule then you should correct
       the printed rotational entropy by manually evaluating the equation
       as given above

For convenience we print out the resulting values for sn=1 - 12:
 sn= 1  qrot/sn=  288299.2481 T*S(rot)=     8.34 kcal/mol T*S(tot)=    26.08 kcal/mol
 sn= 2  qrot/sn=  144149.6240 T*S(rot)=     7.93 kcal/mol T*S(tot)=    25.67 kcal/mol
 sn= 3  qrot/sn=   96099.7494 T*S(rot)=     7.69 kcal/mol T*S(tot)=    25.43 kcal/mol
 sn= 4  qrot/sn=   72074.8120 T*S(rot)=     7.52 kcal/mol T*S(tot)=    25.26 kcal/mol
 sn= 5  qrot/sn=   57659.8496 T*S(rot)=     7.38 kcal/mol T*S(tot)=    25.12 kcal/mol
 sn= 6  qrot/sn=   48049.8747 T*S(rot)=     7.28 kcal/mol T*S(tot)=    25.01 kcal/mol
 sn= 7  qrot/sn=   41185.6069 T*S(rot)=     7.18 kcal/mol T*S(tot)=    24.92 kcal/mol
 sn= 8  qrot/sn=   36037.4060 T*S(rot)=     7.11 kcal/mol T*S(tot)=    24.84 kcal/mol
 sn= 9  qrot/sn=   32033.2498 T*S(rot)=     7.04 kcal/mol T*S(tot)=    24.77 kcal/mol
 sn=10  qrot/sn=   28829.9248 T*S(rot)=     6.97 kcal/mol T*S(tot)=    24.71 kcal/mol
 sn=11  qrot/sn=   26209.0226 T*S(rot)=     6.92 kcal/mol T*S(tot)=    24.66 kcal/mol
 sn=12  qrot/sn=   24024.9373 T*S(rot)=     6.86 kcal/mol T*S(tot)=    24.60 kcal/mol

-------------------
GIBBS FREE ENTHALPY
-------------------

The Gibbs free enthalpy is G = H - T*S

Total enthalpy                    ...   -289.88956376 Eh
Total entropy correction          ...     -0.04051831 Eh    -25.43 kcal/mol
-----------------------------------------------------------------------
Final Gibbs free enthalpy         ...   -289.93008207 Eh

For completeness - the Gibbs free enthalpy minus the electronic energy
G-E(el)                           ...      0.14274152 Eh     89.57 kcal/mol

                             ****ORCA TERMINATED NORMALLY****
TOTAL RUN TIME: 0 days 0 hours 41 minutes 5 seconds 495 msec
