                         Program Version 3.0.3 - RELEASE   -
|  1> ! NORI PBE0 def2-TZVP UseSym TightOPT Freq TightSCF Grid3 FinalGrid5 XYZFile
|  2> % pal
|  3>     nprocs 8
|  4> end
|  5> %method
|  6>     SymThresh 5.0e-2
|  7> end
|  8> % geom
|  9>     MaxIter 10
| 10> end
| 11> % maxcore 2000
| 12> % output
| 13>     printlevel mini
| 14>     print[ P_Basis ] 0
| 15>     print[ P_SCFInfo ] 1
| 16>     print[ P_SCFIterInfo ] 1
| 17>     print[ P_OrbEn ] 0
| 18>     print[ P_Cartesian ] 0
| 19> end
| 20> % elprop
| 21>     Dipole false
| 22> end
| 23> *xyz 1 1
| 24>  C        2.4042734553     1.2719121936    -0.0945605187
| 25>  C        2.5147848999    -0.2148337216     0.1375315615
| 26>  N        3.0104555070    -0.9120237414    -1.0721373215
| 27>  C        2.7734687671    -2.3467016367    -1.3022260641
| 28>  C        2.0802292339    -1.3563582176    -2.1604988238
| 29>  C        2.4956048717    -1.1151531337    -3.5034257876
| 30>  C        2.8312524211    -0.9207140213    -4.6372633360
| 31>  H        2.0447742290     1.7467577236     0.8191382689
| 32>  H        1.6993984566     1.5073515843    -0.8941023211
| 33>  H        3.3726386033     1.7163278988    -0.3347733058
| 34>  H        3.2135869930    -0.4568213115     0.9411991421
| 35>  H        1.5513228494    -0.6666137670     0.3818632064
| 36>  H        3.8976841576    -0.5625546036    -1.4255533249
| 37>  H        3.6154320223    -2.8898874127    -1.7109994457
| 38>  H        2.2174855240    -2.8320934723    -0.5100406050
| 39>  H        1.0458594827    -1.1332892424    -1.9173412836
| 40>  H        3.1276085262    -0.7495151185    -5.6490300410
| 41> *
| 42>
| 43>                          ****END OF INPUT****
 Total Charge           Charge          ....    1
 Multiplicity           Mult            ....    1
 Number of Electrons    NEL             ....   52
FINAL SINGLE POINT ENERGY      -288.811821261805

CARTESIAN COORDINATES (ANGSTROEM)
---------------------------------
  C      2.467173   -0.000615    0.831242
  C      1.204238    0.626788    1.368031
  N     -0.000066    0.000451    0.774596
  C     -1.302057    0.686496    0.734305
  C     -0.565545    0.466485   -0.533229
  C     -0.963783   -0.541377   -1.460273
  C     -1.304337   -1.376587   -2.249144
  H      3.327392    0.482466    1.296217
  H      2.555955    0.125020   -0.249359
  H      2.521760   -1.065225    1.068833
  H      1.111982    0.509406    2.450066
  H      1.143983    1.692630    1.138691
  H     -0.051262   -1.008401    0.893067
  H     -2.156431    0.059951    0.954559
  H     -1.292402    1.672913    1.180046
  H     -0.008930    1.309565   -0.931245
  H     -1.609444   -2.118367   -2.954555

FINAL SINGLE POINT ENERGY      -288.811821977204
                    ***********************HURRAY********************
 Multiplicity           Mult            ....    1
 Number of Electrons    NEL             ....   52
 Basis Dimension        Dim             ....  277
FINAL SINGLE POINT ENERGY      -288.811822404479

VIBRATIONAL FREQUENCIES
-----------------------

   0:         0.00 cm**-1
   1:         0.00 cm**-1
   2:         0.00 cm**-1
   3:         0.00 cm**-1
   4:         0.00 cm**-1
   5:         0.00 cm**-1
   6:        88.88 cm**-1
   7:       114.35 cm**-1
   8:       164.34 cm**-1
   9:       226.88 cm**-1
  10:       257.87 cm**-1
  11:       361.08 cm**-1
  12:       427.87 cm**-1
  13:       487.65 cm**-1
  14:       514.28 cm**-1
  15:       736.07 cm**-1
  16:       771.73 cm**-1
  17:       775.30 cm**-1
  18:       813.70 cm**-1
  19:       830.19 cm**-1
  20:       866.50 cm**-1
  21:       964.06 cm**-1
  22:       997.10 cm**-1
  23:      1060.89 cm**-1
  24:      1078.11 cm**-1
  25:      1132.08 cm**-1
  26:      1143.91 cm**-1
  27:      1164.05 cm**-1
  28:      1168.33 cm**-1
  29:      1220.18 cm**-1
  30:      1254.32 cm**-1
  31:      1323.29 cm**-1
  32:      1376.11 cm**-1
  33:      1394.16 cm**-1
  34:      1424.58 cm**-1
  35:      1457.78 cm**-1
  36:      1481.96 cm**-1
  37:      1485.61 cm**-1
  38:      1494.28 cm**-1
  39:      1505.00 cm**-1
  40:      2260.61 cm**-1
  41:      3065.06 cm**-1
  42:      3085.09 cm**-1
  43:      3128.99 cm**-1
  44:      3151.50 cm**-1
  45:      3156.12 cm**-1
  46:      3173.29 cm**-1
  47:      3180.70 cm**-1
  48:      3279.66 cm**-1
  49:      3452.08 cm**-1
  50:      3521.34 cm**-1

IR SPECTRUM
-----------

 Mode    freq (cm**-1)   T**2         TX         TY         TZ
-------------------------------------------------------------------
   6:        88.88    0.526396  ( -0.368993  -0.016117   0.624484)
   7:       114.35    0.590157  (  0.667762   0.303316  -0.228585)
   8:       164.34    1.142584  ( -0.284927   1.016665  -0.166712)
   9:       226.88    1.481183  ( -0.657740  -0.872663   0.535744)
  10:       257.87    1.627111  ( -1.093469   0.378104   0.537097)
  11:       361.08    4.475040  (  0.631045  -1.789744   0.934686)
  12:       427.87    3.927147  (  1.770574  -0.423683  -0.782755)
  13:       487.65   13.741472  (  0.914060  -2.169916   2.863115)
  14:       514.28   10.489708  (  2.627328   0.139232  -1.888776)
  15:       736.07   36.714254  ( -5.472383  -0.089723   2.599853)
  16:       771.73    5.393527  ( -0.917615  -1.418606  -1.593445)
  17:       775.30   53.108033  ( -2.495363   4.216179  -5.394908)
  18:       813.70    1.437547  ( -1.018105   0.182415   0.606410)
  19:       830.19    1.281096  (  0.281240   0.494332   0.978589)
  20:       866.50   18.328542  ( -3.073675  -0.034499  -2.979911)
  21:       964.06   18.525449  (  3.917225   1.419495  -1.079739)
  22:       997.10    9.091335  (  2.819721  -0.989741   0.401152)
  23:      1060.89   28.095019  ( -4.598185   1.320925  -2.281856)
  24:      1078.11   16.535821  (  2.995081   0.365883   2.726067)
  25:      1132.08   17.533573  (  0.393706  -2.009872  -3.652257)
  26:      1143.91    5.318100  ( -0.110936  -0.231366   2.291782)
  27:      1164.05    9.017715  (  1.585694   0.272201  -2.535586)
  28:      1168.33    5.414421  (  0.811499   1.813301   1.211540)
  29:      1220.18    8.585994  (  2.676538   1.181819   0.159511)
  30:      1254.32    9.139673  (  2.242418  -1.962564   0.509488)
  31:      1323.29    5.306697  (  0.902746   2.068971  -0.459462)
  32:      1376.11    8.481695  (  1.142501   1.811076   1.973927)
  33:      1394.16    4.985249  (  0.024125   2.147263   0.611497)
  34:      1424.58   13.018119  ( -3.454781   0.973976   0.366034)
  35:      1457.78   56.737818  ( -6.300476   0.380705  -4.110582)
  36:      1481.96    2.568072  ( -1.593389  -0.122149  -0.119424)
  37:      1485.61   19.088788  ( -0.702675  -2.416866   3.571245)
  38:      1494.28    4.835237  (  1.942660  -0.063621   1.028233)
  39:      1505.00   35.448816  (  0.730589   3.882549   4.454309)
  40:      2260.61   39.315328  (  1.985516   3.939370   4.455830)
  41:      3065.06    1.927570  ( -0.424776  -0.975781  -0.891621)
  42:      3085.09    2.993211  ( -1.004238   1.234321   0.679095)
  43:      3128.99    0.517621  ( -0.408057  -0.412867   0.425031)
  44:      3151.50    3.771189  ( -0.374918   1.516138  -1.154102)
  45:      3156.12    1.645882  ( -0.109833  -0.044163   1.277446)
  46:      3173.29    4.293999  ( -1.542671   0.541007   1.273372)
  47:      3180.70    5.603063  (  0.352591   0.809674  -2.196172)
  48:      3279.66    6.951356  (  1.449949   2.200474   0.083172)
  49:      3452.08  102.008060  ( -3.027601  -6.553620  -7.063410)
  50:      3521.34   70.344997  ( -0.694974   7.940544  -2.609553)

--------------------------
THERMOCHEMISTRY AT 298.15K
--------------------------

Temperature         ... 298.15 K
Pressure            ... 1.00 atm
Total Mass          ... 96.15 AMU

Throughout the following assumptions are being made:
  (1) The electronic state is orbitally nondegenerate
  (2) There are no thermally accessible electronically excited states
  (3) Hindered rotations indicated by low frequency modes) are not
      treated as such but are treated as vibrations and this may
      case some error
  (4) All equations used are the standard statistical mechanics
      equations for an ideal gas
  (5) All vibrations are strinctly harmonic

------------
INNER ENERGY
------------

The inner energy is: U= E(el) + E(ZPE) + E(vib) + E(rot) + E(trans)
    E(el)   - is the total energy from the electronic structure calculation
              = E(kin-el) + E(nuc-el) + E(el-el) + E(nuc-nuc)
    E(ZPE)  - the the zero temperature vibrational energy from the frequency calculation
    E(vib)  - the the finite temperature correction to E(ZPE) due to population
              of excietd vibrational states
    E(rot)  - is the rotational thermal energy
    E(trans)- is the translational thermal energy

Summary of contributions to the inner energy U:
Electronic energy                ...   -288.81182240 Eh
Zero point energy                ...      0.15039763 Eh      94.38 kcal/mol
Thermal vibrational correction   ...      0.00494045 Eh       3.10 kcal/mol
Thermal rotational correction    ...      0.00141627 Eh       0.89 kcal/mol
Thermal translational correction ...      0.00141627 Eh       0.89 kcal/mol
-----------------------------------------------------------------------
Total thermal energy                   -288.65365178 Eh

Summary of corrections to the electronic energy:
(perhaps to be used in another calculation)
Total thermal correction                  0.00777300 Eh       4.88 kcal/mol
Non-thermal (ZPE) correction              0.15039763 Eh      94.38 kcal/mol
-----------------------------------------------------------------------
Total correction                          0.15817063 Eh      99.25 kcal/mol

--------
ENTHALPY
--------

The enthalpy is H = U + kB*T
                kB is Boltzmann's constant
Total free energy                 ...   -288.65365178 Eh
Thermal Enthalpy correction       ...      0.00094421 Eh       0.59 kcal/mol
-----------------------------------------------------------------------
Total Enthalpy                    ...   -288.65270757 Eh

-------
ENTROPY
-------

The entropy contributions are T*S = T*(S(el)+S(vib)+S(rot)+S(trans)
     S(el)   - electronic entropy
     S(vib)  - vibrational entropy
     S(rot)  - rotational entropy
     S(trans)- translational entropy
The entropies will be listed as mutliplied by the temperature to get
units of energy

Electronic entropy                ...      0.00000000 Eh      0.00 kcal/mol
Vibrational entropy               ...      0.00868521 Eh      5.45 kcal/mol
Rotational entropy                ...      0.01217254 Eh      7.64 kcal/mol
Translational entropy             ...      0.01881568 Eh     11.81 kcal/mol
-----------------------------------------------------------------------
Final entropy term                ...      0.03967343 Eh     24.90 kcal/mol

CAUTION: The rotational entropy is not quite correctly treated here
         because it includes a symmetry number that is not yet correctly
         implemented in ORCA!
For a nonlinear molecule the correct rotational entropy is:
    S(rot) = R*(ln(qrot/sn)+1.5)
    R    = 8.31441 J/mol/K = 1.987191683e-3 kcal/mol/K
    qrot = 265873.9460854
    sn is the rotational symmetry number. We have assumed 3 here
       if it is different for your molecule then you should correct
       the printed rotational entropy by manually evaluating the equation
       as given above

For convenience we print out the resulting values for sn=1 - 12:
 sn= 1  qrot/sn=  265873.9461 T*S(rot)=     8.29 kcal/mol T*S(tot)=    25.55 kcal/mol
 sn= 2  qrot/sn=  132936.9730 T*S(rot)=     7.88 kcal/mol T*S(tot)=    25.14 kcal/mol
 sn= 3  qrot/sn=   88624.6487 T*S(rot)=     7.64 kcal/mol T*S(tot)=    24.90 kcal/mol
 sn= 4  qrot/sn=   66468.4865 T*S(rot)=     7.47 kcal/mol T*S(tot)=    24.72 kcal/mol
 sn= 5  qrot/sn=   53174.7892 T*S(rot)=     7.34 kcal/mol T*S(tot)=    24.59 kcal/mol
 sn= 6  qrot/sn=   44312.3243 T*S(rot)=     7.23 kcal/mol T*S(tot)=    24.48 kcal/mol
 sn= 7  qrot/sn=   37981.9923 T*S(rot)=     7.14 kcal/mol T*S(tot)=    24.39 kcal/mol
 sn= 8  qrot/sn=   33234.2433 T*S(rot)=     7.06 kcal/mol T*S(tot)=    24.31 kcal/mol
 sn= 9  qrot/sn=   29541.5496 T*S(rot)=     6.99 kcal/mol T*S(tot)=    24.24 kcal/mol
 sn=10  qrot/sn=   26587.3946 T*S(rot)=     6.93 kcal/mol T*S(tot)=    24.18 kcal/mol
 sn=11  qrot/sn=   24170.3587 T*S(rot)=     6.87 kcal/mol T*S(tot)=    24.13 kcal/mol
 sn=12  qrot/sn=   22156.1622 T*S(rot)=     6.82 kcal/mol T*S(tot)=    24.07 kcal/mol

-------------------
GIBBS FREE ENTHALPY
-------------------

The Gibbs free enthalpy is G = H - T*S

Total enthalpy                    ...   -288.65270757 Eh
Total entropy correction          ...     -0.03967343 Eh    -24.90 kcal/mol
-----------------------------------------------------------------------
Final Gibbs free enthalpy         ...   -288.69238099 Eh

For completeness - the Gibbs free enthalpy minus the electronic energy
G-E(el)                           ...      0.11944141 Eh     74.95 kcal/mol

                             ****ORCA TERMINATED NORMALLY****
TOTAL RUN TIME: 0 days 0 hours 34 minutes 17 seconds 321 msec
