                         Program Version 3.0.3 - RELEASE   -
|  1> ! NORI PBE0 def2-TZVP UseSym TightOPT Freq TightSCF Grid3 FinalGrid5 XYZFile
|  2> % pal
|  3>     nprocs 8
|  4> end
|  5> %method
|  6>     SymThresh 5.0e-2
|  7> end
|  8> % geom
|  9>     MaxIter 10
| 10> end
| 11> % maxcore 2000
| 12> % output
| 13>     printlevel mini
| 14>     print[ P_Basis ] 0
| 15>     print[ P_SCFInfo ] 1
| 16>     print[ P_SCFIterInfo ] 1
| 17>     print[ P_OrbEn ] 0
| 18>     print[ P_Cartesian ] 0
| 19> end
| 20> % elprop
| 21>     Dipole false
| 22> end
| 23> *xyz 1 1
| 24>  C        3.4188717120    -0.5146849264     0.5961567654
| 25>  C        2.2783730149     0.1142575317    -0.1643138031
| 26>  N        2.7780379428     1.0156249978    -1.2358790498
| 27>  C        1.9567083664     2.0940391354    -1.8109421079
| 28>  C        3.1156232821     2.4372503648    -0.9542994835
| 29>  C        4.3332788734     2.9255257552    -1.5348365791
| 30>  N        5.3065751705     3.2960654302    -2.0190984957
| 31>  H        3.0073842308    -1.1769544706     1.3592275605
| 32>  H        4.0360265595     0.2308736667     1.1013053767
| 33>  H        4.0541671620    -1.1204278441    -0.0538889793
| 34>  H        1.6539796953    -0.6290485878    -0.6649722103
| 35>  H        1.6360788236     0.7213173588     0.4769981787
| 36>  H        3.4146855444     0.5649900905    -1.8910326208
| 37>  H        0.9634719071     2.1701278847    -1.3872154624
| 38>  H        2.0428146039     2.2154915504    -2.8835063010
| 39>  H        2.9265631115     2.7255320626     0.0745572116
| 40> *
| 41>
| 42>                          ****END OF INPUT****
 Total Charge           Charge          ....    1
 Multiplicity           Mult            ....    1
 Number of Electrons    NEL             ....   52
FINAL SINGLE POINT ENERGY      -304.881436377973
FINAL SINGLE POINT ENERGY      -304.881438180271
FINAL SINGLE POINT ENERGY      -304.881439238183

CARTESIAN COORDINATES (ANGSTROEM)
---------------------------------
  C     -1.686613    1.801657    0.833030
  C     -1.277549    0.458277    1.383900
  N      0.001224   -0.001053    0.779761
  C      0.397132   -1.418661    0.742967
  C      0.020795   -0.732986   -0.515717
  C      1.025537   -0.327970   -1.455999
  N      1.844995    0.006695   -2.187808
  H     -2.620891    2.104509    1.307496
  H     -1.855986    1.767521   -0.244808
  H     -0.944296    2.572303    1.051609
  H     -1.108082    0.484763    2.462346
  H     -2.014923   -0.319587    1.175029
  H      0.770539    0.657186    0.890398
  H     -0.320078   -2.091708    1.195363
  H      1.443859   -1.609363    0.943491
  H     -0.970357   -0.910251   -0.920633

FINAL SINGLE POINT ENERGY      -304.881439409312
                    ***********************HURRAY********************
 Multiplicity           Mult            ....    1
 Number of Electrons    NEL             ....   52
 Basis Dimension        Dim             ....  271
FINAL SINGLE POINT ENERGY      -304.881439565529

VIBRATIONAL FREQUENCIES
-----------------------

   0:         0.00 cm**-1
   1:         0.00 cm**-1
   2:         0.00 cm**-1
   3:         0.00 cm**-1
   4:         0.00 cm**-1
   5:         0.00 cm**-1
   6:        89.67 cm**-1
   7:       114.49 cm**-1
   8:       169.60 cm**-1
   9:       229.89 cm**-1
  10:       265.70 cm**-1
  11:       364.98 cm**-1
  12:       429.31 cm**-1
  13:       522.53 cm**-1
  14:       537.98 cm**-1
  15:       781.39 cm**-1
  16:       811.19 cm**-1
  17:       830.34 cm**-1
  18:       885.60 cm**-1
  19:       968.35 cm**-1
  20:       995.37 cm**-1
  21:      1048.55 cm**-1
  22:      1074.25 cm**-1
  23:      1135.97 cm**-1
  24:      1143.71 cm**-1
  25:      1165.11 cm**-1
  26:      1169.86 cm**-1
  27:      1221.49 cm**-1
  28:      1254.71 cm**-1
  29:      1323.48 cm**-1
  30:      1375.88 cm**-1
  31:      1395.13 cm**-1
  32:      1424.82 cm**-1
  33:      1459.84 cm**-1
  34:      1480.60 cm**-1
  35:      1485.04 cm**-1
  36:      1493.81 cm**-1
  37:      1505.65 cm**-1
  38:      2401.62 cm**-1
  39:      3064.87 cm**-1
  40:      3087.41 cm**-1
  41:      3131.70 cm**-1
  42:      3153.30 cm**-1
  43:      3156.03 cm**-1
  44:      3171.72 cm**-1
  45:      3193.56 cm**-1
  46:      3279.14 cm**-1
  47:      3506.01 cm**-1

IR SPECTRUM
-----------

 Mode    freq (cm**-1)   T**2         TX         TY         TZ
-------------------------------------------------------------------
   6:        89.67    2.015313  ( -0.579535   1.252209  -0.333803)
   7:       114.49    4.023297  ( -0.706618   1.861033  -0.246055)
   8:       169.60    8.088572  ( -0.655812  -1.155126  -2.514789)
   9:       229.89    1.564943  ( -0.129773   0.257682  -1.217252)
  10:       265.70    2.784620  ( -0.865525   1.414877  -0.183328)
  11:       364.98    1.437948  ( -0.943516  -0.735352   0.083571)
  12:       429.31    0.742544  (  0.410084  -0.749337   0.113441)
  13:       522.53    1.416542  ( -0.144126   0.151593   1.171661)
  14:       537.98    1.083725  (  0.143736  -0.343330   0.972209)
  15:       781.39   14.244700  (  0.598960   1.796892   3.264525)
  16:       811.19    1.620477  ( -0.852344   0.934911   0.141172)
  17:       830.34    1.659479  ( -0.413673   1.219854  -0.017613)
  18:       885.60   10.856084  ( -1.152043   1.744653   2.546579)
  19:       968.35   13.113575  ( -3.295795   0.988321  -1.128953)
  20:       995.37   13.917156  (  1.900895  -3.096952  -0.844181)
  21:      1048.55   40.237272  ( -2.909163   4.832062   2.902623)
  22:      1074.25    8.047325  ( -1.537631   0.696685   2.279835)
  23:      1135.97   11.421231  (  0.646770   1.700013  -2.848311)
  24:      1143.71    5.348891  ( -0.058549   0.117905   2.309017)
  25:      1165.11   11.261855  (  0.703388   0.862357  -3.165982)
  26:      1169.86    6.794012  (  1.964004  -0.039743   1.713220)
  27:      1221.49    8.631665  ( -2.640738   1.201341  -0.463625)
  28:      1254.71   11.967972  (  0.406777  -3.433234   0.124144)
  29:      1323.48    6.090713  ( -2.225541  -1.065786  -0.042175)
  30:      1375.88    3.590320  (  1.534182   0.104843  -1.107074)
  31:      1395.13    2.757008  (  0.594966   1.261982   0.900235)
  32:      1424.82   13.700722  ( -1.692368   3.261661  -0.445174)
  33:      1459.84   46.869555  (  3.321981  -5.089134  -3.151938)
  34:      1480.60    2.746244  (  1.236837  -1.098002  -0.104252)
  35:      1485.04   18.660443  (  2.569312   1.289880   3.224172)
  36:      1493.81    4.063040  (  0.655560  -1.905305   0.055645)
  37:      1505.65   26.905587  (  2.900494   1.739979  -3.932582)
  38:      2401.62    6.632235  (  1.910957   0.652103  -1.598512)
  39:      3064.87    2.529777  (  1.191087  -0.122706  -1.046915)
  40:      3087.41    2.414510  (  0.024964  -1.540111   0.204807)
  41:      3131.70    0.915869  (  0.536535   0.080316   0.788384)
  42:      3153.30    2.091595  (  0.389213   1.220932   0.670398)
  43:      3156.03    1.138283  ( -0.519426   0.046801  -0.930747)
  44:      3171.72    8.618957  ( -1.098381   2.174626  -1.638144)
  45:      3193.56   11.171845  ( -2.331844  -0.677364  -2.296852)
  46:      3279.14   12.652789  ( -3.480272  -0.655786   0.332324)
  47:      3506.01   84.479839  ( -5.857017  -6.534822  -2.733365)

--------------------------
THERMOCHEMISTRY AT 298.15K
--------------------------

Temperature         ... 298.15 K
Pressure            ... 1.00 atm
Total Mass          ... 97.14 AMU

Throughout the following assumptions are being made:
  (1) The electronic state is orbitally nondegenerate
  (2) There are no thermally accessible electronically excited states
  (3) Hindered rotations indicated by low frequency modes) are not
      treated as such but are treated as vibrations and this may
      case some error
  (4) All equations used are the standard statistical mechanics
      equations for an ideal gas
  (5) All vibrations are strinctly harmonic

------------
INNER ENERGY
------------

The inner energy is: U= E(el) + E(ZPE) + E(vib) + E(rot) + E(trans)
    E(el)   - is the total energy from the electronic structure calculation
              = E(kin-el) + E(nuc-el) + E(el-el) + E(nuc-nuc)
    E(ZPE)  - the the zero temperature vibrational energy from the frequency calculation
    E(vib)  - the the finite temperature correction to E(ZPE) due to population
              of excietd vibrational states
    E(rot)  - is the rotational thermal energy
    E(trans)- is the translational thermal energy

Summary of contributions to the inner energy U:
Electronic energy                ...   -304.88143957 Eh
Zero point energy                ...      0.13965088 Eh      87.63 kcal/mol
Thermal vibrational correction   ...      0.00467670 Eh       2.93 kcal/mol
Thermal rotational correction    ...      0.00141627 Eh       0.89 kcal/mol
Thermal translational correction ...      0.00141627 Eh       0.89 kcal/mol
-----------------------------------------------------------------------
Total thermal energy                   -304.73427945 Eh

Summary of corrections to the electronic energy:
(perhaps to be used in another calculation)
Total thermal correction                  0.00750924 Eh       4.71 kcal/mol
Non-thermal (ZPE) correction              0.13965088 Eh      87.63 kcal/mol
-----------------------------------------------------------------------
Total correction                          0.14716012 Eh      92.34 kcal/mol

--------
ENTHALPY
--------

The enthalpy is H = U + kB*T
                kB is Boltzmann's constant
Total free energy                 ...   -304.73427945 Eh
Thermal Enthalpy correction       ...      0.00094421 Eh       0.59 kcal/mol
-----------------------------------------------------------------------
Total Enthalpy                    ...   -304.73333524 Eh

-------
ENTROPY
-------

The entropy contributions are T*S = T*(S(el)+S(vib)+S(rot)+S(trans)
     S(el)   - electronic entropy
     S(vib)  - vibrational entropy
     S(rot)  - rotational entropy
     S(trans)- translational entropy
The entropies will be listed as mutliplied by the temperature to get
units of energy

Electronic entropy                ...      0.00000000 Eh      0.00 kcal/mol
Vibrational entropy               ...      0.00829228 Eh      5.20 kcal/mol
Rotational entropy                ...      0.01215747 Eh      7.63 kcal/mol
Translational entropy             ...      0.01883016 Eh     11.82 kcal/mol
-----------------------------------------------------------------------
Final entropy term                ...      0.03927991 Eh     24.65 kcal/mol

CAUTION: The rotational entropy is not quite correctly treated here
         because it includes a symmetry number that is not yet correctly
         implemented in ORCA!
For a nonlinear molecule the correct rotational entropy is:
    S(rot) = R*(ln(qrot/sn)+1.5)
    R    = 8.31441 J/mol/K = 1.987191683e-3 kcal/mol/K
    qrot = 261664.4022227
    sn is the rotational symmetry number. We have assumed 3 here
       if it is different for your molecule then you should correct
       the printed rotational entropy by manually evaluating the equation
       as given above

For convenience we print out the resulting values for sn=1 - 12:
 sn= 1  qrot/sn=  261664.4022 T*S(rot)=     8.28 kcal/mol T*S(tot)=    25.30 kcal/mol
 sn= 2  qrot/sn=  130832.2011 T*S(rot)=     7.87 kcal/mol T*S(tot)=    24.89 kcal/mol
 sn= 3  qrot/sn=   87221.4674 T*S(rot)=     7.63 kcal/mol T*S(tot)=    24.65 kcal/mol
 sn= 4  qrot/sn=   65416.1006 T*S(rot)=     7.46 kcal/mol T*S(tot)=    24.48 kcal/mol
 sn= 5  qrot/sn=   52332.8804 T*S(rot)=     7.33 kcal/mol T*S(tot)=    24.35 kcal/mol
 sn= 6  qrot/sn=   43610.7337 T*S(rot)=     7.22 kcal/mol T*S(tot)=    24.24 kcal/mol
 sn= 7  qrot/sn=   37380.6289 T*S(rot)=     7.13 kcal/mol T*S(tot)=    24.15 kcal/mol
 sn= 8  qrot/sn=   32708.0503 T*S(rot)=     7.05 kcal/mol T*S(tot)=    24.07 kcal/mol
 sn= 9  qrot/sn=   29073.8225 T*S(rot)=     6.98 kcal/mol T*S(tot)=    24.00 kcal/mol
 sn=10  qrot/sn=   26166.4402 T*S(rot)=     6.92 kcal/mol T*S(tot)=    23.94 kcal/mol
 sn=11  qrot/sn=   23787.6729 T*S(rot)=     6.86 kcal/mol T*S(tot)=    23.88 kcal/mol
 sn=12  qrot/sn=   21805.3669 T*S(rot)=     6.81 kcal/mol T*S(tot)=    23.83 kcal/mol

-------------------
GIBBS FREE ENTHALPY
-------------------

The Gibbs free enthalpy is G = H - T*S

Total enthalpy                    ...   -304.73333524 Eh
Total entropy correction          ...     -0.03927991 Eh    -24.65 kcal/mol
-----------------------------------------------------------------------
Final Gibbs free enthalpy         ...   -304.77261515 Eh

For completeness - the Gibbs free enthalpy minus the electronic energy
G-E(el)                           ...      0.10882441 Eh     68.29 kcal/mol

                             ****ORCA TERMINATED NORMALLY****
TOTAL RUN TIME: 0 days 0 hours 30 minutes 15 seconds 627 msec
