                         Program Version 3.0.3 - RELEASE   -
|  1> ! NORI PBE0 def2-TZVP UseSym TightOPT Freq TightSCF Grid3 FinalGrid5 XYZFile
|  2> % pal
|  3>     nprocs 8
|  4> end
|  5> %method
|  6>     SymThresh 5.0e-2
|  7> end
|  8> % geom
|  9>     MaxIter 10
| 10> end
| 11> % maxcore 2000
| 12> % output
| 13>     printlevel mini
| 14>     print[ P_Basis ] 0
| 15>     print[ P_SCFInfo ] 1
| 16>     print[ P_SCFIterInfo ] 1
| 17>     print[ P_OrbEn ] 0
| 18>     print[ P_Cartesian ] 0
| 19> end
| 20> % elprop
| 21>     Dipole false
| 22> end
| 23> *xyz 1 1
| 24>  C        1.1849389506     0.0463693214     0.2051976898
| 25>  C        2.6834477414    -0.0702312177     0.0651847016
| 26>  N        3.0811634494    -0.8139991054    -1.1568604794
| 27>  C        4.5522064655    -1.0785546944    -1.3848961874
| 28>  C        4.2352430167    -2.5052295017    -1.8344841554
| 29>  C        2.8204591043    -2.3239368207    -1.2637733527
| 30>  C        1.6365115669    -2.7195844528    -2.0960716530
| 31>  H        0.9578277487     0.6366469021     1.0938552052
| 32>  H        0.7077787177    -0.9267928857     0.3279281265
| 33>  H        0.7341461820     0.5569681457    -0.6494387955
| 34>  H        3.1590830888     0.9111126333    -0.0026152373
| 35>  H        3.1302673249    -0.6007448191     0.9084865423
| 36>  H        2.6754410440    -0.3517493412    -1.9715901595
| 37>  H        5.0026069491    -0.3869860478    -2.0941570714
| 38>  H        5.0657484314    -1.0161653666    -0.4267802596
| 39>  H        4.8365746360    -3.2950222617    -1.3917051852
| 40>  H        4.2327510783    -2.6210666475    -2.9187081743
| 41>  H        2.7422596679    -2.6902819294    -0.2382688351
| 42>  H        1.6998075827    -2.3060121346    -3.1058735495
| 43>  H        0.6908960495    -2.4163806442    -1.6448558084
| 44>  H        1.6255012042    -3.8078391321    -2.1900633617
| 45> *
| 46>
| 47>                          ****END OF INPUT****
 Total Charge           Charge          ....    1
 Multiplicity           Mult            ....    1
 Number of Electrons    NEL             ....   56
FINAL SINGLE POINT ENERGY      -291.319441433331
FINAL SINGLE POINT ENERGY      -291.319443027770

CARTESIAN COORDINATES (ANGSTROEM)
---------------------------------
  C      2.484023   -0.000765    0.396080
  C      1.256446    0.725960    0.890119
  N      0.000484    0.000453    0.572445
  C     -1.312919    0.649828    0.945591
  C     -1.913593    0.227006   -0.395038
  C     -0.492236   -0.100178   -0.878913
  C     -0.231149   -1.410729   -1.561123
  H      3.370511    0.557306    0.699406
  H      2.504116   -0.080050   -0.691877
  H      2.565298   -1.001933    0.826043
  H      1.273435    0.850352    1.975784
  H      1.162548    1.716742    0.441313
  H      0.053370   -0.939264    0.967392
  H     -1.736391    0.251450    1.865131
  H     -1.151278    1.722167    1.044448
  H     -2.446882    0.995881   -0.948211
  H     -2.540615   -0.661748   -0.320829
  H     -0.036973    0.737642   -1.410913
  H     -0.647327   -2.248061   -0.994168
  H      0.832001   -1.587345   -1.730824
  H     -0.724665   -1.400194   -2.535433

FINAL SINGLE POINT ENERGY      -291.319443836780
                    ***********************HURRAY********************
 Multiplicity           Mult            ....    1
 Number of Electrons    NEL             ....   56
 Basis Dimension        Dim             ....  301
FINAL SINGLE POINT ENERGY      -291.319444062150

VIBRATIONAL FREQUENCIES
-----------------------

   0:         0.00 cm**-1
   1:         0.00 cm**-1
   2:         0.00 cm**-1
   3:         0.00 cm**-1
   4:         0.00 cm**-1
   5:         0.00 cm**-1
   6:        74.85 cm**-1
   7:       106.06 cm**-1
   8:       201.67 cm**-1
   9:       230.05 cm**-1
  10:       237.33 cm**-1
  11:       313.86 cm**-1
  12:       333.03 cm**-1
  13:       411.97 cm**-1
  14:       472.00 cm**-1
  15:       643.29 cm**-1
  16:       751.50 cm**-1
  17:       802.22 cm**-1
  18:       820.02 cm**-1
  19:       903.26 cm**-1
  20:       925.59 cm**-1
  21:       940.28 cm**-1
  22:       983.15 cm**-1
  23:      1007.42 cm**-1
  24:      1042.32 cm**-1
  25:      1072.36 cm**-1
  26:      1102.00 cm**-1
  27:      1125.75 cm**-1
  28:      1144.88 cm**-1
  29:      1197.30 cm**-1
  30:      1209.19 cm**-1
  31:      1245.10 cm**-1
  32:      1279.70 cm**-1
  33:      1291.02 cm**-1
  34:      1305.73 cm**-1
  35:      1330.61 cm**-1
  36:      1354.57 cm**-1
  37:      1377.68 cm**-1
  38:      1400.12 cm**-1
  39:      1417.40 cm**-1
  40:      1426.04 cm**-1
  41:      1434.46 cm**-1
  42:      1479.71 cm**-1
  43:      1480.53 cm**-1
  44:      1485.54 cm**-1
  45:      1487.97 cm**-1
  46:      1491.56 cm**-1
  47:      1500.26 cm**-1
  48:      1510.94 cm**-1
  49:      3056.62 cm**-1
  50:      3064.21 cm**-1
  51:      3080.99 cm**-1
  52:      3104.82 cm**-1
  53:      3113.08 cm**-1
  54:      3118.29 cm**-1
  55:      3126.39 cm**-1
  56:      3136.41 cm**-1
  57:      3148.51 cm**-1
  58:      3149.84 cm**-1
  59:      3156.21 cm**-1
  60:      3177.08 cm**-1
  61:      3189.36 cm**-1
  62:      3465.98 cm**-1

IR SPECTRUM
-----------

 Mode    freq (cm**-1)   T**2         TX         TY         TZ
-------------------------------------------------------------------
   6:        74.85    0.529566  (  0.197593  -0.572748   0.403091)
   7:       106.06    0.536195  (  0.484838  -0.256309  -0.485214)
   8:       201.67    0.244345  ( -0.320621  -0.231314  -0.296717)
   9:       230.05    0.068434  ( -0.047299   0.029494   0.255591)
  10:       237.33    0.392403  (  0.533119   0.195525  -0.264495)
  11:       313.86    0.641491  ( -0.265831   0.014842  -0.755384)
  12:       333.03    0.476744  (  0.314605   0.259353  -0.557228)
  13:       411.97    0.997235  (  0.471664  -0.486134  -0.733787)
  14:       472.00    0.260221  ( -0.299728  -0.352053  -0.215505)
  15:       643.29    2.522219  ( -1.080108  -0.743496   0.895990)
  16:       751.50    4.718356  (  0.732561   0.767095   1.895594)
  17:       802.22    1.359251  ( -0.124382  -0.568079   1.010478)
  18:       820.02    2.861957  (  0.624130  -0.700530   1.407720)
  19:       903.26    3.643324  (  0.018627   0.584931   1.816819)
  20:       925.59    0.776102  ( -0.504855   0.717170   0.083007)
  21:       940.28    5.385011  (  1.957886  -0.087471  -1.242595)
  22:       983.15    7.843111  ( -2.041384   1.663404   0.953389)
  23:      1007.42    4.786584  ( -1.667106  -1.063251  -0.936396)
  24:      1042.32   17.664610  (  1.395983   0.637227   3.912772)
  25:      1072.36    4.147077  ( -2.018115   0.052989   0.267362)
  26:      1102.00   36.443490  (  5.599890   0.685411   2.148239)
  27:      1125.75    0.198678  ( -0.392160   0.065012   0.201648)
  28:      1144.88    6.441667  (  1.753708   0.921128   1.586726)
  29:      1197.30    7.712108  (  1.560241  -1.538804  -1.705825)
  30:      1209.19    5.560187  ( -0.235876  -1.789919  -1.516819)
  31:      1245.10    3.006519  (  0.105186   0.221523  -1.716503)
  32:      1279.70    3.156617  ( -0.859255   0.989051   1.200032)
  33:      1291.02    6.705196  ( -1.239435   0.881494   2.095701)
  34:      1305.73    3.248943  (  0.102670   0.590318   1.699979)
  35:      1330.61    4.832660  (  0.655296  -0.781927  -1.947264)
  36:      1354.57   17.991834  ( -2.798562  -1.218430   2.945389)
  37:      1377.68    2.481884  (  0.695858  -0.819645  -1.151454)
  38:      1400.12    4.691161  ( -0.936036   0.646539   1.843091)
  39:      1417.40   10.281578  ( -0.553267  -2.790764  -1.478888)
  40:      1426.04   20.404220  ( -3.285874   2.635398   1.631541)
  41:      1434.46   45.457634  (  5.761438   0.618610   3.446852)
  42:      1479.71    7.263268  (  0.254542   0.896399  -2.528823)
  43:      1480.53   11.507909  (  1.545883  -0.764760   2.921181)
  44:      1485.54    2.816184  ( -0.977734   0.853162   1.064112)
  45:      1487.97   12.343849  (  2.605156   1.854931  -1.454731)
  46:      1491.56    8.630926  (  1.331078   0.500151  -2.570799)
  47:      1500.26    9.250298  (  1.260877   2.766967   0.066162)
  48:      1510.94   16.220655  (  0.705434  -3.471988  -1.915286)
  49:      3056.62    2.000497  ( -0.405656   0.796143  -1.096402)
  50:      3064.21    2.821447  ( -0.350384  -1.530600  -0.596608)
  51:      3080.99    4.034913  ( -0.932235   1.560456   0.854884)
  52:      3104.82    0.174786  (  0.083112  -0.409665  -0.007296)
  53:      3113.08    2.090523  ( -1.051558  -0.967219  -0.221890)
  54:      3118.29    2.675762  (  0.244950   0.972523   1.292269)
  55:      3126.39    0.404255  (  0.246034  -0.067975  -0.582325)
  56:      3136.41    3.356812  (  1.082739   1.395186  -0.487794)
  57:      3148.51    4.435675  ( -1.080456   1.361660  -1.189190)
  58:      3149.84    3.538168  ( -1.403614  -0.827869   0.939504)
  59:      3156.21    3.846586  ( -0.252530   0.121805   1.941128)
  60:      3177.08    0.334151  ( -0.285174   0.470356   0.177741)
  61:      3189.36    0.302723  ( -0.290071  -0.112807   0.453714)
  62:      3465.98   34.701480  (  0.928903  -5.153949   2.697301)

--------------------------
THERMOCHEMISTRY AT 298.15K
--------------------------

Temperature         ... 298.15 K
Pressure            ... 1.00 atm
Total Mass          ... 100.18 AMU

Throughout the following assumptions are being made:
  (1) The electronic state is orbitally nondegenerate
  (2) There are no thermally accessible electronically excited states
  (3) Hindered rotations indicated by low frequency modes) are not
      treated as such but are treated as vibrations and this may
      case some error
  (4) All equations used are the standard statistical mechanics
      equations for an ideal gas
  (5) All vibrations are strinctly harmonic

------------
INNER ENERGY
------------

The inner energy is: U= E(el) + E(ZPE) + E(vib) + E(rot) + E(trans)
    E(el)   - is the total energy from the electronic structure calculation
              = E(kin-el) + E(nuc-el) + E(el-el) + E(nuc-nuc)
    E(ZPE)  - the the zero temperature vibrational energy from the frequency calculation
    E(vib)  - the the finite temperature correction to E(ZPE) due to population
              of excietd vibrational states
    E(rot)  - is the rotational thermal energy
    E(trans)- is the translational thermal energy

Summary of contributions to the inner energy U:
Electronic energy                ...   -291.31944406 Eh
Zero point energy                ...      0.19919862 Eh     125.00 kcal/mol
Thermal vibrational correction   ...      0.00531702 Eh       3.34 kcal/mol
Thermal rotational correction    ...      0.00141627 Eh       0.89 kcal/mol
Thermal translational correction ...      0.00141627 Eh       0.89 kcal/mol
-----------------------------------------------------------------------
Total thermal energy                   -291.11209587 Eh

Summary of corrections to the electronic energy:
(perhaps to be used in another calculation)
Total thermal correction                  0.00814957 Eh       5.11 kcal/mol
Non-thermal (ZPE) correction              0.19919862 Eh     125.00 kcal/mol
-----------------------------------------------------------------------
Total correction                          0.20734819 Eh     130.11 kcal/mol

--------
ENTHALPY
--------

The enthalpy is H = U + kB*T
                kB is Boltzmann's constant
Total free energy                 ...   -291.11209587 Eh
Thermal Enthalpy correction       ...      0.00094421 Eh       0.59 kcal/mol
-----------------------------------------------------------------------
Total Enthalpy                    ...   -291.11115167 Eh

-------
ENTROPY
-------

The entropy contributions are T*S = T*(S(el)+S(vib)+S(rot)+S(trans)
     S(el)   - electronic entropy
     S(vib)  - vibrational entropy
     S(rot)  - rotational entropy
     S(trans)- translational entropy
The entropies will be listed as mutliplied by the temperature to get
units of energy

Electronic entropy                ...      0.00000000 Eh      0.00 kcal/mol
Vibrational entropy               ...      0.00938811 Eh      5.89 kcal/mol
Rotational entropy                ...      0.01212642 Eh      7.61 kcal/mol
Translational entropy             ...      0.01887386 Eh     11.84 kcal/mol
-----------------------------------------------------------------------
Final entropy term                ...      0.04038839 Eh     25.34 kcal/mol

CAUTION: The rotational entropy is not quite correctly treated here
         because it includes a symmetry number that is not yet correctly
         implemented in ORCA!
For a nonlinear molecule the correct rotational entropy is:
    S(rot) = R*(ln(qrot/sn)+1.5)
    R    = 8.31441 J/mol/K = 1.987191683e-3 kcal/mol/K
    qrot = 253200.9421366
    sn is the rotational symmetry number. We have assumed 3 here
       if it is different for your molecule then you should correct
       the printed rotational entropy by manually evaluating the equation
       as given above

For convenience we print out the resulting values for sn=1 - 12:
 sn= 1  qrot/sn=  253200.9421 T*S(rot)=     8.26 kcal/mol T*S(tot)=    25.99 kcal/mol
 sn= 2  qrot/sn=  126600.4711 T*S(rot)=     7.85 kcal/mol T*S(tot)=    25.58 kcal/mol
 sn= 3  qrot/sn=   84400.3140 T*S(rot)=     7.61 kcal/mol T*S(tot)=    25.34 kcal/mol
 sn= 4  qrot/sn=   63300.2355 T*S(rot)=     7.44 kcal/mol T*S(tot)=    25.17 kcal/mol
 sn= 5  qrot/sn=   50640.1884 T*S(rot)=     7.31 kcal/mol T*S(tot)=    25.04 kcal/mol
 sn= 6  qrot/sn=   42200.1570 T*S(rot)=     7.20 kcal/mol T*S(tot)=    24.93 kcal/mol
 sn= 7  qrot/sn=   36171.5632 T*S(rot)=     7.11 kcal/mol T*S(tot)=    24.84 kcal/mol
 sn= 8  qrot/sn=   31650.1178 T*S(rot)=     7.03 kcal/mol T*S(tot)=    24.76 kcal/mol
 sn= 9  qrot/sn=   28133.4380 T*S(rot)=     6.96 kcal/mol T*S(tot)=    24.69 kcal/mol
 sn=10  qrot/sn=   25320.0942 T*S(rot)=     6.90 kcal/mol T*S(tot)=    24.63 kcal/mol
 sn=11  qrot/sn=   23018.2675 T*S(rot)=     6.84 kcal/mol T*S(tot)=    24.57 kcal/mol
 sn=12  qrot/sn=   21100.0785 T*S(rot)=     6.79 kcal/mol T*S(tot)=    24.52 kcal/mol

-------------------
GIBBS FREE ENTHALPY
-------------------

The Gibbs free enthalpy is G = H - T*S

Total enthalpy                    ...   -291.11115167 Eh
Total entropy correction          ...     -0.04038839 Eh    -25.34 kcal/mol
-----------------------------------------------------------------------
Final Gibbs free enthalpy         ...   -291.15154006 Eh

For completeness - the Gibbs free enthalpy minus the electronic energy
G-E(el)                           ...      0.16790401 Eh    105.36 kcal/mol

                             ****ORCA TERMINATED NORMALLY****
TOTAL RUN TIME: 0 days 0 hours 51 minutes 55 seconds 732 msec
