                         Program Version 3.0.3 - RELEASE   -
|  1> ! NORI PBE0 def2-TZVP UseSym TightOPT Freq TightSCF Grid3 FinalGrid5 XYZFile
|  2> % pal
|  3>     nprocs 8
|  4> end
|  5> %method
|  6>     SymThresh 5.0e-2
|  7> end
|  8> % geom
|  9>     MaxIter 10
| 10> end
| 11> % maxcore 2000
| 12> % output
| 13>     printlevel mini
| 14>     print[ P_Basis ] 0
| 15>     print[ P_SCFInfo ] 1
| 16>     print[ P_SCFIterInfo ] 1
| 17>     print[ P_OrbEn ] 0
| 18>     print[ P_Cartesian ] 0
| 19> end
| 20> % elprop
| 21>     Dipole false
| 22> end
| 23> *xyz 1 1
| 24>  C        2.5478683183     1.5693060173     0.3053145109
| 25>  C        2.2076581848     0.1918182951    -0.2141368104
| 26>  N        2.8327329085    -0.0413661453    -1.5333598207
| 27>  C        2.3799620339    -1.0784307905    -2.5173517669
| 28>  C        1.2696910812    -2.0091130556    -2.1521218695
| 29>  C        2.1918883804     0.3543502657    -2.8197749584
| 30>  C        3.0197640441     1.0944604424    -3.8189502684
| 31>  H        2.0846322411     1.7077835034     1.2826302576
| 32>  H        2.1740932141     2.3535626163    -0.3554193738
| 33>  H        3.6249155160     1.6990796249     0.4329098198
| 34>  H        2.5677333105    -0.5944177031     0.4527597733
| 35>  H        1.1333321665     0.0628958374    -0.3359088921
| 36>  H        3.8383254848     0.1003274261    -1.5219846001
| 37>  H        3.2382141137    -1.5457444453    -2.9913565071
| 38>  H        0.3973019231    -1.4944902590    -1.7499661832
| 39>  H        1.6028422731    -2.7657131109    -1.4397136681
| 40>  H        0.9549804632    -2.5281641968    -3.0596110181
| 41>  H        1.1921411584     0.7398440452    -2.6404445666
| 42>  H        4.0197605507     0.6651035666    -3.9152456205
| 43>  H        3.1088721141     2.1501584562    -3.5573126822
| 44>  H        2.5377805196     1.0313296100    -4.7966757554
| 45> *
| 46>
| 47>                          ****END OF INPUT****
 Total Charge           Charge          ....    1
 Multiplicity           Mult            ....    1
 Number of Electrons    NEL             ....   56
FINAL SINGLE POINT ENERGY      -291.314734368645
FINAL SINGLE POINT ENERGY      -291.314736331751

CARTESIAN COORDINATES (ANGSTROEM)
---------------------------------
  C      2.417577   -0.002507    1.012582
  C      1.220781    0.833891    0.624220
  N      0.001107    0.001386    0.550282
  C     -1.244418    0.377776   -0.195156
  C     -1.333046    1.710210   -0.864865
  C     -0.406108   -0.737835   -0.678090
  C     -0.795635   -2.173020   -0.537664
  H      3.297862    0.638686    1.071072
  H      2.621168   -0.783020    0.277096
  H      2.285830   -0.467069    1.992524
  H      1.023945    1.623828    1.351939
  H      1.356686    1.300786   -0.350065
  H     -0.176265   -0.511844    1.408542
  H     -2.123429    0.086932    0.372991
  H     -0.467030    1.932566   -1.487244
  H     -1.471318    2.512454   -0.138207
  H     -2.210802    1.700938   -1.514282
  H      0.259479   -0.496334   -1.501959
  H     -1.436265   -2.335945    0.332122
  H      0.081706   -2.817176   -0.460190
  H     -1.357080   -2.477055   -1.423166

FINAL SINGLE POINT ENERGY      -291.314737085008
                    ***********************HURRAY********************
 Multiplicity           Mult            ....    1
 Number of Electrons    NEL             ....   56
 Basis Dimension        Dim             ....  301
FINAL SINGLE POINT ENERGY      -291.314737315139

VIBRATIONAL FREQUENCIES
-----------------------

   0:         0.00 cm**-1
   1:         0.00 cm**-1
   2:         0.00 cm**-1
   3:         0.00 cm**-1
   4:         0.00 cm**-1
   5:         0.00 cm**-1
   6:        67.48 cm**-1
   7:       141.15 cm**-1
   8:       190.34 cm**-1
   9:       200.90 cm**-1
  10:       222.50 cm**-1
  11:       241.41 cm**-1
  12:       280.19 cm**-1
  13:       316.72 cm**-1
  14:       376.71 cm**-1
  15:       462.00 cm**-1
  16:       528.35 cm**-1
  17:       753.63 cm**-1
  18:       776.75 cm**-1
  19:       821.93 cm**-1
  20:       848.39 cm**-1
  21:       961.50 cm**-1
  22:       970.36 cm**-1
  23:       975.46 cm**-1
  24:      1038.90 cm**-1
  25:      1072.49 cm**-1
  26:      1101.09 cm**-1
  27:      1107.83 cm**-1
  28:      1147.23 cm**-1
  29:      1157.09 cm**-1
  30:      1160.84 cm**-1
  31:      1220.83 cm**-1
  32:      1230.91 cm**-1
  33:      1277.36 cm**-1
  34:      1310.45 cm**-1
  35:      1365.92 cm**-1
  36:      1377.82 cm**-1
  37:      1419.51 cm**-1
  38:      1421.58 cm**-1
  39:      1425.17 cm**-1
  40:      1448.91 cm**-1
  41:      1472.58 cm**-1
  42:      1475.67 cm**-1
  43:      1478.14 cm**-1
  44:      1485.33 cm**-1
  45:      1487.40 cm**-1
  46:      1490.81 cm**-1
  47:      1502.26 cm**-1
  48:      1517.03 cm**-1
  49:      3062.24 cm**-1
  50:      3062.93 cm**-1
  51:      3072.47 cm**-1
  52:      3096.06 cm**-1
  53:      3134.71 cm**-1
  54:      3140.58 cm**-1
  55:      3146.50 cm**-1
  56:      3149.67 cm**-1
  57:      3154.45 cm**-1
  58:      3157.16 cm**-1
  59:      3166.21 cm**-1
  60:      3173.13 cm**-1
  61:      3181.74 cm**-1
  62:      3531.62 cm**-1

IR SPECTRUM
-----------

 Mode    freq (cm**-1)   T**2         TX         TY         TZ
-------------------------------------------------------------------
   6:        67.48    0.791407  ( -0.566846   0.312378   0.610338)
   7:       141.15    0.506558  (  0.579483   0.407705  -0.067335)
   8:       190.34    0.088425  (  0.102762   0.140618   0.241021)
   9:       200.90    0.023871  (  0.000964   0.149338  -0.039599)
  10:       222.50    0.368144  (  0.532942   0.016577  -0.289555)
  11:       241.41    0.084794  ( -0.101098   0.251380   0.106684)
  12:       280.19    0.068981  ( -0.011242   0.096172  -0.244142)
  13:       316.72    0.694833  ( -0.093679  -0.259801  -0.786486)
  14:       376.71    1.107632  ( -0.910579   0.444433   0.284531)
  15:       462.00    0.959407  ( -0.253836  -0.559021  -0.763197)
  16:       528.35    0.409912  (  0.584299   0.149854  -0.214596)
  17:       753.63    5.330779  ( -0.608941  -2.008875  -0.961453)
  18:       776.75    9.007867  ( -1.154713  -0.156276  -2.765878)
  19:       821.93    2.655361  (  1.616910  -0.055155  -0.194733)
  20:       848.39    5.834187  ( -2.048504   0.888834  -0.920757)
  21:       961.50    5.872517  (  1.268015   0.311980   2.041402)
  22:       970.36   12.669286  ( -0.957909   2.349240   2.496551)
  23:       975.46   14.422017  (  3.024584  -1.867174  -1.337001)
  24:      1038.90   11.678123  ( -0.819898  -2.804725  -1.771837)
  25:      1072.49    1.021785  ( -0.316469  -0.939642  -0.196734)
  26:      1101.09    3.335349  (  1.475685   0.865791   0.638833)
  27:      1107.83   67.773305  ( -7.339488   0.005935  -3.728965)
  28:      1147.23    8.033768  (  1.211637   1.991665   1.612133)
  29:      1157.09    3.005155  ( -1.391640  -0.113098  -1.027473)
  30:      1160.84    9.820363  (  0.592811   2.541059   1.735500)
  31:      1220.83    6.117795  (  2.332687  -0.063939  -0.819926)
  32:      1230.91    2.897272  ( -0.548137   1.581226   0.310712)
  33:      1277.36    3.608373  (  1.727019  -0.756924   0.229876)
  34:      1310.45    1.206410  ( -1.023084  -0.366815   0.158606)
  35:      1365.92    2.618861  (  0.278133   1.242422  -0.998945)
  36:      1377.82    0.443279  ( -0.544984  -0.344173   0.166783)
  37:      1419.51    2.520036  (  0.662020   0.493344  -1.355868)
  38:      1421.58   11.249279  (  2.906017   1.624524   0.406526)
  39:      1425.17   19.053848  ( -1.597239   3.548599  -1.977403)
  40:      1448.91    7.637330  (  1.517784   2.193801   0.721733)
  41:      1472.58   41.305058  (  5.296962   1.190750   3.439384)
  42:      1475.67    2.718889  (  1.085031  -1.180700  -0.384116)
  43:      1478.14    8.210436  (  1.722586   0.136472   2.285718)
  44:      1485.33   26.752945  (  2.224256  -1.241205  -4.501671)
  45:      1487.40   17.530547  ( -2.487003   1.461466   3.034713)
  46:      1490.81    3.659912  (  1.300715   0.686211  -1.223587)
  47:      1502.26   14.736313  ( -0.229415  -2.373150   3.008627)
  48:      1517.03   17.475554  (  2.726617   2.577096   1.843825)
  49:      3062.24    1.095076  (  0.140251  -0.061739  -1.035178)
  50:      3062.93    3.219390  (  0.019491   1.651756  -0.700510)
  51:      3072.47    1.035236  (  0.963347   0.281799   0.166695)
  52:      3096.06    3.121396  ( -0.401243   1.699141  -0.270778)
  53:      3134.71    3.263647  (  0.714525  -0.386295  -1.613654)
  54:      3140.58    2.627046  (  1.008148  -0.411470  -1.200573)
  55:      3146.50    0.523394  ( -0.004546  -0.716385  -0.100821)
  56:      3149.67    1.016799  (  0.550381  -0.795676  -0.284217)
  57:      3154.45    1.976621  ( -0.237390   1.373375   0.184682)
  58:      3157.16    1.809407  ( -1.210784   0.045699  -0.584227)
  59:      3166.21    3.303943  ( -0.530628   0.276742   1.716331)
  60:      3173.13    0.756815  ( -0.096178   0.302068   0.810136)
  61:      3181.74    1.481864  (  0.412763   1.001589  -0.555257)
  62:      3531.62   56.674765  ( -0.190722  -3.244205   6.790694)

--------------------------
THERMOCHEMISTRY AT 298.15K
--------------------------

Temperature         ... 298.15 K
Pressure            ... 1.00 atm
Total Mass          ... 100.18 AMU

Throughout the following assumptions are being made:
  (1) The electronic state is orbitally nondegenerate
  (2) There are no thermally accessible electronically excited states
  (3) Hindered rotations indicated by low frequency modes) are not
      treated as such but are treated as vibrations and this may
      case some error
  (4) All equations used are the standard statistical mechanics
      equations for an ideal gas
  (5) All vibrations are strinctly harmonic

------------
INNER ENERGY
------------

The inner energy is: U= E(el) + E(ZPE) + E(vib) + E(rot) + E(trans)
    E(el)   - is the total energy from the electronic structure calculation
              = E(kin-el) + E(nuc-el) + E(el-el) + E(nuc-nuc)
    E(ZPE)  - the the zero temperature vibrational energy from the frequency calculation
    E(vib)  - the the finite temperature correction to E(ZPE) due to population
              of excietd vibrational states
    E(rot)  - is the rotational thermal energy
    E(trans)- is the translational thermal energy

Summary of contributions to the inner energy U:
Electronic energy                ...   -291.31473732 Eh
Zero point energy                ...      0.19719456 Eh     123.74 kcal/mol
Thermal vibrational correction   ...      0.00600078 Eh       3.77 kcal/mol
Thermal rotational correction    ...      0.00141627 Eh       0.89 kcal/mol
Thermal translational correction ...      0.00141627 Eh       0.89 kcal/mol
-----------------------------------------------------------------------
Total thermal energy                   -291.10870944 Eh

Summary of corrections to the electronic energy:
(perhaps to be used in another calculation)
Total thermal correction                  0.00883332 Eh       5.54 kcal/mol
Non-thermal (ZPE) correction              0.19719456 Eh     123.74 kcal/mol
-----------------------------------------------------------------------
Total correction                          0.20602787 Eh     129.28 kcal/mol

--------
ENTHALPY
--------

The enthalpy is H = U + kB*T
                kB is Boltzmann's constant
Total free energy                 ...   -291.10870944 Eh
Thermal Enthalpy correction       ...      0.00094421 Eh       0.59 kcal/mol
-----------------------------------------------------------------------
Total Enthalpy                    ...   -291.10776523 Eh

-------
ENTROPY
-------

The entropy contributions are T*S = T*(S(el)+S(vib)+S(rot)+S(trans)
     S(el)   - electronic entropy
     S(vib)  - vibrational entropy
     S(rot)  - rotational entropy
     S(trans)- translational entropy
The entropies will be listed as mutliplied by the temperature to get
units of energy

Electronic entropy                ...      0.00000000 Eh      0.00 kcal/mol
Vibrational entropy               ...      0.01058010 Eh      6.64 kcal/mol
Rotational entropy                ...      0.01225820 Eh      7.69 kcal/mol
Translational entropy             ...      0.01887386 Eh     11.84 kcal/mol
-----------------------------------------------------------------------
Final entropy term                ...      0.04171216 Eh     26.17 kcal/mol

CAUTION: The rotational entropy is not quite correctly treated here
         because it includes a symmetry number that is not yet correctly
         implemented in ORCA!
For a nonlinear molecule the correct rotational entropy is:
    S(rot) = R*(ln(qrot/sn)+1.5)
    R    = 8.31441 J/mol/K = 1.987191683e-3 kcal/mol/K
    qrot = 291123.7372764
    sn is the rotational symmetry number. We have assumed 3 here
       if it is different for your molecule then you should correct
       the printed rotational entropy by manually evaluating the equation
       as given above

For convenience we print out the resulting values for sn=1 - 12:
 sn= 1  qrot/sn=  291123.7373 T*S(rot)=     8.34 kcal/mol T*S(tot)=    26.83 kcal/mol
 sn= 2  qrot/sn=  145561.8686 T*S(rot)=     7.93 kcal/mol T*S(tot)=    26.41 kcal/mol
 sn= 3  qrot/sn=   97041.2458 T*S(rot)=     7.69 kcal/mol T*S(tot)=    26.17 kcal/mol
 sn= 4  qrot/sn=   72780.9343 T*S(rot)=     7.52 kcal/mol T*S(tot)=    26.00 kcal/mol
 sn= 5  qrot/sn=   58224.7475 T*S(rot)=     7.39 kcal/mol T*S(tot)=    25.87 kcal/mol
 sn= 6  qrot/sn=   48520.6229 T*S(rot)=     7.28 kcal/mol T*S(tot)=    25.76 kcal/mol
 sn= 7  qrot/sn=   41589.1053 T*S(rot)=     7.19 kcal/mol T*S(tot)=    25.67 kcal/mol
 sn= 8  qrot/sn=   36390.4672 T*S(rot)=     7.11 kcal/mol T*S(tot)=    25.59 kcal/mol
 sn= 9  qrot/sn=   32347.0819 T*S(rot)=     7.04 kcal/mol T*S(tot)=    25.52 kcal/mol
 sn=10  qrot/sn=   29112.3737 T*S(rot)=     6.98 kcal/mol T*S(tot)=    25.46 kcal/mol
 sn=11  qrot/sn=   26465.7943 T*S(rot)=     6.92 kcal/mol T*S(tot)=    25.40 kcal/mol
 sn=12  qrot/sn=   24260.3114 T*S(rot)=     6.87 kcal/mol T*S(tot)=    25.35 kcal/mol

-------------------
GIBBS FREE ENTHALPY
-------------------

The Gibbs free enthalpy is G = H - T*S

Total enthalpy                    ...   -291.10776523 Eh
Total entropy correction          ...     -0.04171216 Eh    -26.17 kcal/mol
-----------------------------------------------------------------------
Final Gibbs free enthalpy         ...   -291.14947739 Eh

For completeness - the Gibbs free enthalpy minus the electronic energy
G-E(el)                           ...      0.16525993 Eh    103.70 kcal/mol

                             ****ORCA TERMINATED NORMALLY****
TOTAL RUN TIME: 0 days 0 hours 48 minutes 15 seconds 51 msec
