                         Program Version 3.0.3 - RELEASE   -
|  1> ! NORI PBE0 def2-TZVP UseSym TightOPT Freq TightSCF Grid3 FinalGrid5 XYZFile
|  2> % pal
|  3>     nprocs 8
|  4> end
|  5> %method
|  6>     SymThresh 5.0e-2
|  7> end
|  8> % geom
|  9>     MaxIter 10
| 10> end
| 11> % maxcore 2000
| 12> % output
| 13>     printlevel mini
| 14>     print[ P_Basis ] 0
| 15>     print[ P_SCFInfo ] 1
| 16>     print[ P_SCFIterInfo ] 1
| 17>     print[ P_OrbEn ] 0
| 18>     print[ P_Cartesian ] 0
| 19> end
| 20> % elprop
| 21>     Dipole false
| 22> end
| 23> *xyz 1 1
| 24>  C        2.5415626272    -1.3245152118     0.9624075932
| 25>  C        2.3504139635    -0.0532679032     0.1706387937
| 26>  N        2.7583235758     1.1665625624     0.9322075338
| 27>  C        2.7322943310     2.4301029569     0.1274114202
| 28>  C        2.8353767464     3.5409094509     1.1617316747
| 29>  C        2.2839161200     2.9337443712     2.4706140946
| 30>  C        1.9237724714     1.4910887994     2.1351917945
| 31>  H        2.2923209591    -2.1739218423     0.3250723072
| 32>  H        1.8944873380    -1.3729858075     1.8386447905
| 33>  H        3.5797251835    -1.4533956584     1.2793147909
| 34>  H        2.9516322861    -0.0607194878    -0.7400095626
| 35>  H        1.3077220625     0.0996624453    -0.1136917999
| 36>  H        3.7181607711     1.0215474291     1.2528867034
| 37>  H        1.7746465569     2.4363156993    -0.3956909781
| 38>  H        3.5351334430     2.4065267192    -0.6092188374
| 39>  H        2.2736235279     4.4153162198     0.8371651954
| 40>  H        3.8712984172     3.8565616041     1.2876830095
| 41>  H        1.4069346824     3.4640503915     2.8385240876
| 42>  H        3.0337043441     2.9715743052     3.2617655907
| 43>  H        2.1268736124     0.7753552484     2.9294536872
| 44>  H        0.8843569804     1.3830677085     1.8192481109
| 45> *
| 46>
| 47>                          ****END OF INPUT****
 Total Charge           Charge          ....    1
 Multiplicity           Mult            ....    1
 Number of Electrons    NEL             ....   56
FINAL SINGLE POINT ENERGY      -291.341780692027
FINAL SINGLE POINT ENERGY      -291.341783400572
FINAL SINGLE POINT ENERGY      -291.341784470930
FINAL SINGLE POINT ENERGY      -291.341784856418

CARTESIAN COORDINATES (ANGSTROEM)
---------------------------------
  C      2.093900    0.000153    1.782998
  C      0.923655    0.806883    1.274476
  N     -0.003270    0.000976    0.422870
  C     -1.248635    0.726572    0.011770
  C     -1.841058   -0.135599   -1.093102
  C     -0.647566   -0.914426   -1.689187
  C      0.568536   -0.491305   -0.873301
  H      2.689031    0.627311    2.447879
  H      2.748914   -0.336206    0.978616
  H      1.768202   -0.867217    2.363128
  H      0.322718    1.196135    2.098634
  H      1.243292    1.651667    0.661350
  H     -0.285264   -0.818465    0.965306
  H     -0.924011    1.703269   -0.350943
  H     -1.888060    0.869451    0.882058
  H     -2.344920    0.486314   -1.831499
  H     -2.588078   -0.820427   -0.690294
  H     -0.489106   -0.690131   -2.743031
  H     -0.809871   -1.989880   -1.613988
  H      1.286810   -1.285612   -0.680822
  H      1.091109    0.359192   -1.314814

FINAL SINGLE POINT ENERGY      -291.341785055365
                    ***********************HURRAY********************
 Multiplicity           Mult            ....    1
 Number of Electrons    NEL             ....   56
 Basis Dimension        Dim             ....  301
FINAL SINGLE POINT ENERGY      -291.341785140643

VIBRATIONAL FREQUENCIES
-----------------------

   0:         0.00 cm**-1
   1:         0.00 cm**-1
   2:         0.00 cm**-1
   3:         0.00 cm**-1
   4:         0.00 cm**-1
   5:         0.00 cm**-1
   6:       -39.51 cm**-1 ***imaginary mode***
   7:        96.89 cm**-1
   8:       148.55 cm**-1
   9:       226.77 cm**-1
  10:       255.89 cm**-1
  11:       394.47 cm**-1
  12:       433.87 cm**-1
  13:       559.05 cm**-1
  14:       642.73 cm**-1
  15:       764.82 cm**-1
  16:       805.54 cm**-1
  17:       837.11 cm**-1
  18:       876.53 cm**-1
  19:       921.84 cm**-1
  20:       953.26 cm**-1
  21:       971.26 cm**-1
  22:       983.12 cm**-1
  23:      1046.57 cm**-1
  24:      1062.81 cm**-1
  25:      1076.86 cm**-1
  26:      1088.02 cm**-1
  27:      1122.36 cm**-1
  28:      1162.52 cm**-1
  29:      1215.65 cm**-1
  30:      1242.30 cm**-1
  31:      1270.18 cm**-1
  32:      1279.33 cm**-1
  33:      1315.03 cm**-1
  34:      1329.49 cm**-1
  35:      1355.52 cm**-1
  36:      1360.55 cm**-1
  37:      1382.34 cm**-1
  38:      1402.50 cm**-1
  39:      1415.82 cm**-1
  40:      1428.06 cm**-1
  41:      1436.35 cm**-1
  42:      1482.29 cm**-1
  43:      1488.57 cm**-1
  44:      1488.94 cm**-1
  45:      1496.09 cm**-1
  46:      1498.33 cm**-1
  47:      1506.88 cm**-1
  48:      1522.91 cm**-1
  49:      3063.40 cm**-1
  50:      3087.69 cm**-1
  51:      3097.11 cm**-1
  52:      3100.50 cm**-1
  53:      3100.69 cm**-1
  54:      3107.53 cm**-1
  55:      3130.92 cm**-1
  56:      3144.05 cm**-1
  57:      3148.89 cm**-1
  58:      3157.21 cm**-1
  59:      3158.89 cm**-1
  60:      3166.85 cm**-1
  61:      3175.24 cm**-1
  62:      3446.10 cm**-1

IR SPECTRUM
-----------

 Mode    freq (cm**-1)   T**2         TX         TY         TZ
-------------------------------------------------------------------
   7:        96.89    1.116973  ( -0.723358  -0.268195   0.722356)
   8:       148.55    0.713917  (  0.183084  -0.719545   0.403302)
   9:       226.77    0.513007  (  0.011045   0.455374   0.552738)
  10:       255.89    0.479164  (  0.375494   0.139372   0.564574)
  11:       394.47    0.515247  ( -0.463475   0.419072   0.353295)
  12:       433.87    0.231375  ( -0.280696  -0.271642  -0.280706)
  13:       559.05    3.040849  (  1.509685   0.605953   0.628110)
  14:       642.73    0.680631  (  0.656161  -0.373660  -0.332356)
  15:       764.82    1.777309  ( -0.077078   1.329701   0.057119)
  16:       805.54    7.935564  ( -0.489357  -0.417682   2.742560)
  17:       837.11    1.783311  ( -1.118547   0.681469   0.260317)
  18:       876.53    4.658714  (  1.370924  -0.006591   1.667105)
  19:       921.84    3.284184  ( -1.072256  -0.412903  -1.401414)
  20:       953.26    1.693482  ( -0.371569   0.595508  -1.095805)
  21:       971.26    1.112874  ( -0.359828   0.243712  -0.961250)
  22:       983.12    0.556124  ( -0.383261  -0.434694  -0.469336)
  23:      1046.57   11.133661  ( -3.197108   0.840263  -0.454002)
  24:      1062.81    3.043000  (  1.509989  -0.699722  -0.522803)
  25:      1076.86    6.909143  ( -1.366861  -1.208812  -1.891985)
  26:      1088.02    1.030638  ( -0.677866  -0.237265  -0.717524)
  27:      1122.36   31.556490  ( -3.260218  -2.135371  -4.045697)
  28:      1162.52    2.364909  (  0.833609  -1.162540  -0.564363)
  29:      1215.65    0.325815  ( -0.543918   0.172487  -0.014718)
  30:      1242.30    0.678291  ( -0.310486  -0.584140  -0.490581)
  31:      1270.18    4.795123  ( -0.209296   0.915454   1.978197)
  32:      1279.33    5.105073  ( -1.777204   1.363947  -0.293713)
  33:      1315.03    0.224832  ( -0.333326  -0.110390   0.318654)
  34:      1329.49    0.108647  (  0.163523   0.284518   0.030935)
  35:      1355.52    2.136816  (  1.334509  -0.554964  -0.218900)
  36:      1360.55    5.582212  (  0.703936   2.253062   0.101976)
  37:      1382.34    3.125545  ( -0.670889  -0.518329   1.551383)
  38:      1402.50    7.017372  ( -2.359606   0.787426   0.910820)
  39:      1415.82    7.852437  ( -2.789337   0.264071  -0.047967)
  40:      1428.06   37.799129  (  4.674245  -1.350389   3.758592)
  41:      1436.35   27.852931  (  0.983181   1.574356   4.940414)
  42:      1482.29    2.153378  (  0.363757   0.015385   1.421556)
  43:      1488.57    7.926639  (  2.756454   0.491998  -0.294178)
  44:      1488.94   14.012046  ( -3.384560  -0.200500   1.586379)
  45:      1496.09    5.670275  ( -1.816200   0.937997   1.221415)
  46:      1498.33    4.949514  (  1.521383  -1.480302   0.666042)
  47:      1506.88   28.228294  (  1.729232   4.779785   1.546515)
  48:      1522.91    3.588942  ( -0.242094  -1.874488   0.128949)
  49:      3063.40    2.797168  ( -0.283740  -1.636648  -0.195043)
  50:      3087.69    3.188665  ( -1.115167   1.361317  -0.303122)
  51:      3097.11    2.828199  (  1.390328  -0.829160  -0.455719)
  52:      3100.50    1.688104  ( -1.196063   0.063029   0.503552)
  53:      3100.69    4.767027  ( -1.073646  -1.673381  -0.902278)
  54:      3107.53    4.111132  ( -1.030475  -1.666026  -0.523077)
  55:      3130.92    0.730406  ( -0.685561  -0.372453   0.348842)
  56:      3144.05    0.316777  ( -0.492066   0.253571   0.101732)
  57:      3148.89    2.771622  ( -0.507495  -1.067043   1.172813)
  58:      3157.21    0.650571  ( -0.027518   0.638322   0.492300)
  59:      3158.89    3.146750  ( -0.881560  -0.057897   1.538262)
  60:      3166.85    1.740598  ( -0.923450  -0.415815   0.845539)
  61:      3175.24    0.850832  ( -0.306783   0.863767  -0.103068)
  62:      3446.10   34.631949  ( -1.254820  -4.383500   3.720525)

--------------------------
THERMOCHEMISTRY AT 298.15K
--------------------------

Temperature         ... 298.15 K
Pressure            ... 1.00 atm
Total Mass          ... 100.18 AMU

Throughout the following assumptions are being made:
  (1) The electronic state is orbitally nondegenerate
  (2) There are no thermally accessible electronically excited states
  (3) Hindered rotations indicated by low frequency modes) are not
      treated as such but are treated as vibrations and this may
      case some error
  (4) All equations used are the standard statistical mechanics
      equations for an ideal gas
  (5) All vibrations are strinctly harmonic

------------
INNER ENERGY
------------

The inner energy is: U= E(el) + E(ZPE) + E(vib) + E(rot) + E(trans)
    E(el)   - is the total energy from the electronic structure calculation
              = E(kin-el) + E(nuc-el) + E(el-el) + E(nuc-nuc)
    E(ZPE)  - the the zero temperature vibrational energy from the frequency calculation
    E(vib)  - the the finite temperature correction to E(ZPE) due to population
              of excietd vibrational states
    E(rot)  - is the rotational thermal energy
    E(trans)- is the translational thermal energy

Summary of contributions to the inner energy U:
Electronic energy                ...   -291.34178514 Eh
Zero point energy                ...      0.20146528 Eh     126.42 kcal/mol
Thermal vibrational correction   ...      0.00408532 Eh       2.56 kcal/mol
Thermal rotational correction    ...      0.00141627 Eh       0.89 kcal/mol
Thermal translational correction ...      0.00141627 Eh       0.89 kcal/mol
-----------------------------------------------------------------------
Total thermal energy                   -291.13340200 Eh

Summary of corrections to the electronic energy:
(perhaps to be used in another calculation)
Total thermal correction                  0.00691786 Eh       4.34 kcal/mol
Non-thermal (ZPE) correction              0.20146528 Eh     126.42 kcal/mol
-----------------------------------------------------------------------
Total correction                          0.20838314 Eh     130.76 kcal/mol

--------
ENTHALPY
--------

The enthalpy is H = U + kB*T
                kB is Boltzmann's constant
Total free energy                 ...   -291.13340200 Eh
Thermal Enthalpy correction       ...      0.00094421 Eh       0.59 kcal/mol
-----------------------------------------------------------------------
Total Enthalpy                    ...   -291.13245779 Eh

-------
ENTROPY
-------

The entropy contributions are T*S = T*(S(el)+S(vib)+S(rot)+S(trans)
     S(el)   - electronic entropy
     S(vib)  - vibrational entropy
     S(rot)  - rotational entropy
     S(trans)- translational entropy
The entropies will be listed as mutliplied by the temperature to get
units of energy

Electronic entropy                ...      0.00000000 Eh      0.00 kcal/mol
Vibrational entropy               ...      0.00690926 Eh      4.34 kcal/mol
Rotational entropy                ...      0.01205770 Eh      7.57 kcal/mol
Translational entropy             ...      0.01887386 Eh     11.84 kcal/mol
-----------------------------------------------------------------------
Final entropy term                ...      0.03784082 Eh     23.75 kcal/mol

CAUTION: The rotational entropy is not quite correctly treated here
         because it includes a symmetry number that is not yet correctly
         implemented in ORCA!
For a nonlinear molecule the correct rotational entropy is:
    S(rot) = R*(ln(qrot/sn)+1.5)
    R    = 8.31441 J/mol/K = 1.987191683e-3 kcal/mol/K
    qrot = 235425.6566510
    sn is the rotational symmetry number. We have assumed 3 here
       if it is different for your molecule then you should correct
       the printed rotational entropy by manually evaluating the equation
       as given above

For convenience we print out the resulting values for sn=1 - 12:
 sn= 1  qrot/sn=  235425.6567 T*S(rot)=     8.22 kcal/mol T*S(tot)=    24.40 kcal/mol
 sn= 2  qrot/sn=  117712.8283 T*S(rot)=     7.81 kcal/mol T*S(tot)=    23.99 kcal/mol
 sn= 3  qrot/sn=   78475.2189 T*S(rot)=     7.57 kcal/mol T*S(tot)=    23.75 kcal/mol
 sn= 4  qrot/sn=   58856.4142 T*S(rot)=     7.40 kcal/mol T*S(tot)=    23.57 kcal/mol
 sn= 5  qrot/sn=   47085.1313 T*S(rot)=     7.26 kcal/mol T*S(tot)=    23.44 kcal/mol
 sn= 6  qrot/sn=   39237.6094 T*S(rot)=     7.16 kcal/mol T*S(tot)=    23.33 kcal/mol
 sn= 7  qrot/sn=   33632.2367 T*S(rot)=     7.06 kcal/mol T*S(tot)=    23.24 kcal/mol
 sn= 8  qrot/sn=   29428.2071 T*S(rot)=     6.99 kcal/mol T*S(tot)=    23.16 kcal/mol
 sn= 9  qrot/sn=   26158.4063 T*S(rot)=     6.92 kcal/mol T*S(tot)=    23.09 kcal/mol
 sn=10  qrot/sn=   23542.5657 T*S(rot)=     6.85 kcal/mol T*S(tot)=    23.03 kcal/mol
 sn=11  qrot/sn=   21402.3324 T*S(rot)=     6.80 kcal/mol T*S(tot)=    22.98 kcal/mol
 sn=12  qrot/sn=   19618.8047 T*S(rot)=     6.74 kcal/mol T*S(tot)=    22.92 kcal/mol

-------------------
GIBBS FREE ENTHALPY
-------------------

The Gibbs free enthalpy is G = H - T*S

Total enthalpy                    ...   -291.13245779 Eh
Total entropy correction          ...     -0.03784082 Eh    -23.75 kcal/mol
-----------------------------------------------------------------------
Final Gibbs free enthalpy         ...   -291.17029861 Eh

For completeness - the Gibbs free enthalpy minus the electronic energy
G-E(el)                           ...      0.17148653 Eh    107.61 kcal/mol

                             ****ORCA TERMINATED NORMALLY****
TOTAL RUN TIME: 0 days 0 hours 53 minutes 15 seconds 866 msec
