                         Program Version 3.0.3 - RELEASE   -
|  1> ! NORI PBE0 def2-TZVP UseSym TightOPT Freq TightSCF Grid3 FinalGrid5 XYZFile
|  2> % pal
|  3>     nprocs 8
|  4> end
|  5> %method
|  6>     SymThresh 5.0e-2
|  7> end
|  8> % geom
|  9>     MaxIter 10
| 10> end
| 11> % maxcore 2000
| 12> % output
| 13>     printlevel mini
| 14>     print[ P_Basis ] 0
| 15>     print[ P_SCFInfo ] 1
| 16>     print[ P_SCFIterInfo ] 1
| 17>     print[ P_OrbEn ] 0
| 18>     print[ P_Cartesian ] 0
| 19> end
| 20> % elprop
| 21>     Dipole false
| 22> end
| 23> *xyz 1 1
| 24>  C        3.3660974347     0.8213406276     0.9549604311
| 25>  C        2.5224436512    -0.1318001630     0.1454701742
| 26>  N        2.6409948867     0.1162774155    -1.3247005648
| 27>  C        1.9558253533    -0.9147980381    -2.1868939609
| 28>  C        1.5871379629    -0.1321027125    -3.4032374020
| 29>  C        1.6951179680     1.1701638961    -3.1908388962
| 30>  C        2.1551580249     1.4634258744    -1.8005782601
| 31>  H        3.2822420623     0.5552047573     2.0096282956
| 32>  H        3.0386463359     1.8572973967     0.8525649047
| 33>  H        4.4240928506     0.7555191812     0.6868818659
| 34>  H        2.8266641006    -1.1679497826     0.3068371543
| 35>  H        1.4610066130    -0.0490587256     0.3863136527
| 36>  H        3.6334865637     0.0746562791    -1.5610366356
| 37>  H        2.6392909768    -1.7479431101    -2.3582679274
| 38>  H        1.0825496422    -1.2912715369    -1.6462076742
| 39>  H        1.2433098646    -0.6083193530    -4.3109056504
| 40>  H        1.4562368027     1.9571155455    -3.8929069705
| 41>  H        1.3403590334     1.7902197098    -1.1468261796
| 42>  H        2.9659198726     2.1888627386    -1.7272963569
| 43> *
| 44>
| 45>                          ****END OF INPUT****
 Total Charge           Charge          ....    1
 Multiplicity           Mult            ....    1
 Number of Electrons    NEL             ....   54
FINAL SINGLE POINT ENERGY      -290.108770635589
FINAL SINGLE POINT ENERGY      -290.108772505058
FINAL SINGLE POINT ENERGY      -290.108773716990

CARTESIAN COORDINATES (ANGSTROEM)
---------------------------------
  C      2.282744   -0.000296    1.438045
  C      1.113285    0.836316    0.980335
  N      0.000829   -0.000512    0.431560
  C     -1.264161    0.764085    0.129815
  C     -1.861192   -0.018670   -0.992110
  C     -0.986496   -0.867630   -1.508507
  C      0.332531   -0.788169   -0.812795
  H      3.036892    0.657150    1.872031
  H      2.753862   -0.541024    0.616088
  H      1.991764   -0.715159    2.212117
  H      0.687104    1.410156    1.805557
  H      1.390521    1.535078    0.189394
  H     -0.242956   -0.688839    1.145128
  H     -1.871873    0.820096    1.034228
  H     -0.991372    1.781878   -0.164729
  H     -2.873915    0.146431   -1.333221
  H     -1.151270   -1.525896   -2.350371
  H      1.078936   -0.231295   -1.387160
  H      0.762920   -1.749284   -0.530050

FINAL SINGLE POINT ENERGY      -290.108774022141
                    ***********************HURRAY********************
 Multiplicity           Mult            ....    1
 Number of Electrons    NEL             ....   54
 Basis Dimension        Dim             ....  289
FINAL SINGLE POINT ENERGY      -290.108774203293

VIBRATIONAL FREQUENCIES
-----------------------

   0:         0.00 cm**-1
   1:         0.00 cm**-1
   2:         0.00 cm**-1
   3:         0.00 cm**-1
   4:         0.00 cm**-1
   5:         0.00 cm**-1
   6:        94.19 cm**-1
   7:       117.65 cm**-1
   8:       221.88 cm**-1
   9:       250.36 cm**-1
  10:       400.32 cm**-1
  11:       403.65 cm**-1
  12:       430.58 cm**-1
  13:       603.42 cm**-1
  14:       712.34 cm**-1
  15:       787.50 cm**-1
  16:       806.30 cm**-1
  17:       845.52 cm**-1
  18:       955.38 cm**-1
  19:       965.90 cm**-1
  20:       970.36 cm**-1
  21:       999.40 cm**-1
  22:      1015.30 cm**-1
  23:      1023.85 cm**-1
  24:      1053.83 cm**-1
  25:      1080.20 cm**-1
  26:      1125.98 cm**-1
  27:      1140.46 cm**-1
  28:      1166.97 cm**-1
  29:      1191.78 cm**-1
  30:      1257.92 cm**-1
  31:      1327.98 cm**-1
  32:      1335.45 cm**-1
  33:      1360.47 cm**-1
  34:      1380.06 cm**-1
  35:      1396.16 cm**-1
  36:      1417.76 cm**-1
  37:      1423.97 cm**-1
  38:      1431.32 cm**-1
  39:      1483.97 cm**-1
  40:      1487.40 cm**-1
  41:      1491.57 cm**-1
  42:      1495.77 cm**-1
  43:      1509.84 cm**-1
  44:      1713.34 cm**-1
  45:      3062.34 cm**-1
  46:      3072.84 cm**-1
  47:      3073.57 cm**-1
  48:      3089.95 cm**-1
  49:      3130.81 cm**-1
  50:      3133.73 cm**-1
  51:      3139.77 cm**-1
  52:      3150.59 cm**-1
  53:      3158.08 cm**-1
  54:      3240.28 cm**-1
  55:      3258.75 cm**-1
  56:      3463.22 cm**-1

IR SPECTRUM
-----------

 Mode    freq (cm**-1)   T**2         TX         TY         TZ
-------------------------------------------------------------------
   6:        94.19    1.768245  ( -0.337199  -0.689262   1.086029)
   7:       117.65    0.651957  ( -0.623067   0.392415   0.331294)
   8:       221.88    0.470600  ( -0.148119  -0.559334  -0.368519)
   9:       250.36    0.314247  (  0.383096   0.180152   0.367463)
  10:       400.32    0.590436  ( -0.336123   0.542072   0.428503)
  11:       403.65    0.085727  ( -0.187883   0.181216   0.132618)
  12:       430.58    0.339706  ( -0.319353   0.190112  -0.448973)
  13:       603.42    7.621550  (  2.300466   1.521918  -0.114758)
  14:       712.34   54.692096  (  2.501880   5.474946  -4.296238)
  15:       787.50    2.107943  ( -0.004261  -0.392080   1.397926)
  16:       806.30    8.026784  (  0.007687  -0.241763   2.822813)
  17:       845.52    1.749719  ( -1.150559   0.018169  -0.652383)
  18:       955.38    0.349230  (  0.212891   0.480060  -0.271017)
  19:       965.90    5.272163  ( -1.442004   1.444267   1.052083)
  20:       970.36    0.375873  (  0.425910  -0.066590   0.435935)
  21:       999.40    3.160818  ( -1.489026   0.831015   0.503024)
  22:      1015.30    2.055781  ( -0.682974  -0.044098  -1.259914)
  23:      1023.85    7.222091  (  0.249832  -0.615026   2.604115)
  24:      1053.83   17.286378  (  3.621935  -1.970657   0.533362)
  25:      1080.20   13.621864  (  2.012456   1.447415   2.734388)
  26:      1125.98   11.952690  (  2.523463   2.112663   1.059001)
  27:      1140.46   10.609633  (  2.263040   1.831256   1.461090)
  28:      1166.97    2.340818  (  0.617709  -1.141010  -0.810771)
  29:      1191.78    5.834129  ( -1.758035   1.420415   0.851976)
  30:      1257.92    0.630643  ( -0.178080   0.603441  -0.484550)
  31:      1327.98    3.316463  (  0.982526   1.519955   0.202094)
  32:      1335.45    2.908098  (  1.461696   0.849171  -0.224616)
  33:      1360.47    1.976849  (  1.050483  -0.926683  -0.120808)
  34:      1380.06    4.193764  (  0.579670  -1.314437  -1.459453)
  35:      1396.16    4.243216  ( -1.744749   1.073371   0.216664)
  36:      1417.76   14.568221  ( -3.432078  -0.105500  -1.666712)
  37:      1423.97   32.875830  ( -2.926169  -0.792003  -4.866837)
  38:      1431.32   27.483143  ( -4.302128   2.892425   0.780203)
  39:      1483.97    4.041520  (  1.118470   0.384933   1.625538)
  40:      1487.40   24.126757  ( -4.111856   1.207894   2.400081)
  41:      1491.57    1.792565  ( -0.514261  -1.212790   0.239251)
  42:      1495.77    5.674913  ( -0.677784   1.415585  -1.792105)
  43:      1509.84   18.179236  ( -1.232437  -4.007328  -0.775666)
  44:      1713.34    0.158208  ( -0.098198  -0.038910  -0.383473)
  45:      3062.34    2.952307  ( -0.634554  -1.596758  -0.003456)
  46:      3072.84    3.546220  ( -1.652875  -0.467144  -0.772011)
  47:      3073.57    2.028414  ( -0.857732   0.957138   0.613676)
  48:      3089.95    3.461985  ( -0.886562   1.618253  -0.239272)
  49:      3130.81    1.096876  (  0.601507   0.123654  -0.848395)
  50:      3133.73    0.190255  ( -0.085215   0.315556   0.288822)
  51:      3139.77    0.323260  (  0.560801  -0.037940   0.085575)
  52:      3150.59    2.480765  ( -0.189541  -0.731930   1.381708)
  53:      3158.08    2.928124  (  0.585697  -0.469288  -1.537808)
  54:      3240.28    4.778466  (  1.453984  -1.398746  -0.841372)
  55:      3258.75    5.821192  ( -1.688788  -0.676027  -1.584984)
  56:      3463.22   45.345146  (  1.153677   4.142704  -5.181909)

--------------------------
THERMOCHEMISTRY AT 298.15K
--------------------------

Temperature         ... 298.15 K
Pressure            ... 1.00 atm
Total Mass          ... 98.17 AMU

Throughout the following assumptions are being made:
  (1) The electronic state is orbitally nondegenerate
  (2) There are no thermally accessible electronically excited states
  (3) Hindered rotations indicated by low frequency modes) are not
      treated as such but are treated as vibrations and this may
      case some error
  (4) All equations used are the standard statistical mechanics
      equations for an ideal gas
  (5) All vibrations are strinctly harmonic

------------
INNER ENERGY
------------

The inner energy is: U= E(el) + E(ZPE) + E(vib) + E(rot) + E(trans)
    E(el)   - is the total energy from the electronic structure calculation
              = E(kin-el) + E(nuc-el) + E(el-el) + E(nuc-nuc)
    E(ZPE)  - the the zero temperature vibrational energy from the frequency calculation
    E(vib)  - the the finite temperature correction to E(ZPE) due to population
              of excietd vibrational states
    E(rot)  - is the rotational thermal energy
    E(trans)- is the translational thermal energy

Summary of contributions to the inner energy U:
Electronic energy                ...   -290.10877420 Eh
Zero point energy                ...      0.17735544 Eh     111.29 kcal/mol
Thermal vibrational correction   ...      0.00432120 Eh       2.71 kcal/mol
Thermal rotational correction    ...      0.00141627 Eh       0.89 kcal/mol
Thermal translational correction ...      0.00141627 Eh       0.89 kcal/mol
-----------------------------------------------------------------------
Total thermal energy                   -289.92426502 Eh

Summary of corrections to the electronic energy:
(perhaps to be used in another calculation)
Total thermal correction                  0.00715374 Eh       4.49 kcal/mol
Non-thermal (ZPE) correction              0.17735544 Eh     111.29 kcal/mol
-----------------------------------------------------------------------
Total correction                          0.18450918 Eh     115.78 kcal/mol

--------
ENTHALPY
--------

The enthalpy is H = U + kB*T
                kB is Boltzmann's constant
Total free energy                 ...   -289.92426502 Eh
Thermal Enthalpy correction       ...      0.00094421 Eh       0.59 kcal/mol
-----------------------------------------------------------------------
Total Enthalpy                    ...   -289.92332081 Eh

-------
ENTROPY
-------

The entropy contributions are T*S = T*(S(el)+S(vib)+S(rot)+S(trans)
     S(el)   - electronic entropy
     S(vib)  - vibrational entropy
     S(rot)  - rotational entropy
     S(trans)- translational entropy
The entropies will be listed as mutliplied by the temperature to get
units of energy

Electronic entropy                ...      0.00000000 Eh      0.00 kcal/mol
Vibrational entropy               ...      0.00744286 Eh      4.67 kcal/mol
Rotational entropy                ...      0.01196301 Eh      7.51 kcal/mol
Translational entropy             ...      0.01884507 Eh     11.83 kcal/mol
-----------------------------------------------------------------------
Final entropy term                ...      0.03825094 Eh     24.00 kcal/mol

CAUTION: The rotational entropy is not quite correctly treated here
         because it includes a symmetry number that is not yet correctly
         implemented in ORCA!
For a nonlinear molecule the correct rotational entropy is:
    S(rot) = R*(ln(qrot/sn)+1.5)
    R    = 8.31441 J/mol/K = 1.987191683e-3 kcal/mol/K
    qrot = 212961.7647220
    sn is the rotational symmetry number. We have assumed 3 here
       if it is different for your molecule then you should correct
       the printed rotational entropy by manually evaluating the equation
       as given above

For convenience we print out the resulting values for sn=1 - 12:
 sn= 1  qrot/sn=  212961.7647 T*S(rot)=     8.16 kcal/mol T*S(tot)=    24.65 kcal/mol
 sn= 2  qrot/sn=  106480.8824 T*S(rot)=     7.75 kcal/mol T*S(tot)=    24.24 kcal/mol
 sn= 3  qrot/sn=   70987.2549 T*S(rot)=     7.51 kcal/mol T*S(tot)=    24.00 kcal/mol
 sn= 4  qrot/sn=   53240.4412 T*S(rot)=     7.34 kcal/mol T*S(tot)=    23.83 kcal/mol
 sn= 5  qrot/sn=   42592.3529 T*S(rot)=     7.20 kcal/mol T*S(tot)=    23.70 kcal/mol
 sn= 6  qrot/sn=   35493.6275 T*S(rot)=     7.10 kcal/mol T*S(tot)=    23.59 kcal/mol
 sn= 7  qrot/sn=   30423.1092 T*S(rot)=     7.00 kcal/mol T*S(tot)=    23.50 kcal/mol
 sn= 8  qrot/sn=   26620.2206 T*S(rot)=     6.93 kcal/mol T*S(tot)=    23.42 kcal/mol
 sn= 9  qrot/sn=   23662.4183 T*S(rot)=     6.86 kcal/mol T*S(tot)=    23.35 kcal/mol
 sn=10  qrot/sn=   21296.1765 T*S(rot)=     6.79 kcal/mol T*S(tot)=    23.29 kcal/mol
 sn=11  qrot/sn=   19360.1604 T*S(rot)=     6.74 kcal/mol T*S(tot)=    23.23 kcal/mol
 sn=12  qrot/sn=   17746.8137 T*S(rot)=     6.69 kcal/mol T*S(tot)=    23.18 kcal/mol

-------------------
GIBBS FREE ENTHALPY
-------------------

The Gibbs free enthalpy is G = H - T*S

Total enthalpy                    ...   -289.92332081 Eh
Total entropy correction          ...     -0.03825094 Eh    -24.00 kcal/mol
-----------------------------------------------------------------------
Final Gibbs free enthalpy         ...   -289.96157175 Eh

For completeness - the Gibbs free enthalpy minus the electronic energy
G-E(el)                           ...      0.14720245 Eh     92.37 kcal/mol

                             ****ORCA TERMINATED NORMALLY****
TOTAL RUN TIME: 0 days 0 hours 47 minutes 4 seconds 949 msec
