                         Program Version 3.0.3 - RELEASE   -
|  1> ! NORI PBE0 def2-TZVP UseSym TightOPT Freq TightSCF Grid3 FinalGrid5 XYZFile
|  2> % pal
|  3>     nprocs 8
|  4> end
|  5> %method
|  6>     SymThresh 5.0e-2
|  7> end
|  8> % geom
|  9>     MaxIter 10
| 10> end
| 11> % maxcore 2000
| 12> % output
| 13>     printlevel mini
| 14>     print[ P_Basis ] 0
| 15>     print[ P_SCFInfo ] 1
| 16>     print[ P_SCFIterInfo ] 1
| 17>     print[ P_OrbEn ] 0
| 18>     print[ P_Cartesian ] 0
| 19> end
| 20> % elprop
| 21>     Dipole false
| 22> end
| 23> *xyz 1 1
| 24>  C        2.8803140025    -1.2503252343     0.1897421915
| 25>  C        2.6005740019     0.2327112237     0.2023564140
| 26>  N        3.0093593402     0.8758292895    -1.0719217330
| 27>  C        2.8644461159     2.3751259714    -1.2215177283
| 28>  C        4.2415341994     2.4478416259    -1.9050647635
| 29>  C        4.2046513191     2.5947974307    -3.4106717745
| 30>  C        4.4838021255     1.0151641216    -1.3953440741
| 31>  H        2.5717668097    -1.6808568075     1.1431031832
| 32>  H        3.9434093145    -1.4643748333     0.0617441526
| 33>  H        2.3194334843    -1.7618044455    -0.5959699253
| 34>  H        1.5368135634     0.4447164575     0.3324743417
| 35>  H        3.1475130755     0.7462650964     0.9955539781
| 36>  H        2.5345687989     0.4029204943    -1.8404666117
| 37>  H        1.9830909778     2.6585416233    -1.7955109519
| 38>  H        2.8270579130     2.8202025920    -0.2283265925
| 39>  H        4.9090960438     3.1859874117    -1.4625531342
| 40>  H        3.5410472340     1.8619801781    -3.8809312997
| 41>  H        5.2012362003     2.4615743400    -3.8354112637
| 42>  H        3.8539039533     3.5891897396    -3.6921321936
| 43>  H        5.0485256885     0.9539067503    -0.4661541229
| 44>  H        4.8362658384     0.2667069747    -2.1032580923
| 45> *
| 46>
| 47>                          ****END OF INPUT****
 Total Charge           Charge          ....    1
 Multiplicity           Mult            ....    1
 Number of Electrons    NEL             ....   56
FINAL SINGLE POINT ENERGY      -291.314554430023

CARTESIAN COORDINATES (ANGSTROEM)
---------------------------------
  C      1.931922    0.000005    2.099558
  C      0.748068    0.774879    1.573804
  N      0.000082    0.000337    0.551191
  C     -1.185100    0.640908   -0.138899
  C     -0.722067    0.062195   -1.487826
  C     -1.486189   -1.155732   -1.960412
  C      0.626912   -0.236921   -0.808560
  H      2.454244    0.604700    2.841652
  H      2.646471   -0.239804    1.309603
  H      1.624247   -0.926196    2.591063
  H      0.035581    1.015890    2.366246
  H      1.049207    1.708303    1.094101
  H     -0.276786   -0.891907    0.959616
  H     -2.139608    0.310625    0.268421
  H     -1.092269    1.722742   -0.053294
  H     -0.654436    0.805810   -2.280568
  H     -1.567291   -1.920240   -1.181096
  H     -0.992795   -1.609860   -2.821498
  H     -2.498182   -0.881769   -2.263574
  H      1.394377    0.518626   -0.972232
  H      1.049221   -1.234805   -0.914060

FINAL SINGLE POINT ENERGY      -291.314555376462
                    ***********************HURRAY********************
 Multiplicity           Mult            ....    1
 Number of Electrons    NEL             ....   56
 Basis Dimension        Dim             ....  301
FINAL SINGLE POINT ENERGY      -291.314555692051

VIBRATIONAL FREQUENCIES
-----------------------

   0:         0.00 cm**-1
   1:         0.00 cm**-1
   2:         0.00 cm**-1
   3:         0.00 cm**-1
   4:         0.00 cm**-1
   5:         0.00 cm**-1
   6:        62.76 cm**-1
   7:       112.63 cm**-1
   8:       181.28 cm**-1
   9:       239.14 cm**-1
  10:       247.83 cm**-1
  11:       322.34 cm**-1
  12:       331.61 cm**-1
  13:       422.35 cm**-1
  14:       441.02 cm**-1
  15:       671.02 cm**-1
  16:       805.97 cm**-1
  17:       821.68 cm**-1
  18:       849.92 cm**-1
  19:       889.75 cm**-1
  20:       927.58 cm**-1
  21:       935.03 cm**-1
  22:       953.25 cm**-1
  23:       994.46 cm**-1
  24:      1065.30 cm**-1
  25:      1068.44 cm**-1
  26:      1079.00 cm**-1
  27:      1131.25 cm**-1
  28:      1146.60 cm**-1
  29:      1164.28 cm**-1
  30:      1214.18 cm**-1
  31:      1259.26 cm**-1
  32:      1275.49 cm**-1
  33:      1300.14 cm**-1
  34:      1328.55 cm**-1
  35:      1331.06 cm**-1
  36:      1348.64 cm**-1
  37:      1384.03 cm**-1
  38:      1391.16 cm**-1
  39:      1420.75 cm**-1
  40:      1424.69 cm**-1
  41:      1436.86 cm**-1
  42:      1474.69 cm**-1
  43:      1482.66 cm**-1
  44:      1485.09 cm**-1
  45:      1489.25 cm**-1
  46:      1492.96 cm**-1
  47:      1496.08 cm**-1
  48:      1509.26 cm**-1
  49:      3048.20 cm**-1
  50:      3061.48 cm**-1
  51:      3083.04 cm**-1
  52:      3109.42 cm**-1
  53:      3112.08 cm**-1
  54:      3118.97 cm**-1
  55:      3125.73 cm**-1
  56:      3138.88 cm**-1
  57:      3147.04 cm**-1
  58:      3148.15 cm**-1
  59:      3154.88 cm**-1
  60:      3181.08 cm**-1
  61:      3182.19 cm**-1
  62:      3481.90 cm**-1

IR SPECTRUM
-----------

 Mode    freq (cm**-1)   T**2         TX         TY         TZ
-------------------------------------------------------------------
   6:        62.76    1.456499  (  0.044481  -0.614722   1.037612)
   7:       112.63    0.864282  ( -0.852854  -0.008742   0.369925)
   8:       181.28    0.724663  ( -0.076717   0.572922   0.624930)
   9:       239.14    0.667695  (  0.341214   0.422303   0.610679)
  10:       247.83    0.131485  (  0.168005  -0.184367  -0.263187)
  11:       322.34    0.609700  ( -0.077908  -0.776923   0.004652)
  12:       331.61    0.513143  ( -0.601588  -0.289478  -0.259688)
  13:       422.35    0.708017  (  0.787252  -0.272835  -0.117526)
  14:       441.02    0.132671  (  0.339577   0.051199  -0.121399)
  15:       671.02    1.799914  ( -1.212575  -0.324553  -0.473542)
  16:       805.97    7.727403  ( -0.604831  -0.348234   2.690784)
  17:       821.68    1.563149  ( -0.184207   0.835625  -0.911564)
  18:       849.92    0.349072  (  0.441835  -0.242880   0.307998)
  19:       889.75    4.109058  (  1.132734   1.144427   1.231364)
  20:       927.58    0.151808  (  0.365447  -0.128562   0.041575)
  21:       935.03    1.849597  (  0.219131  -0.183675  -1.329602)
  22:       953.25    3.929490  ( -1.931820   0.380214  -0.230215)
  23:       994.46    2.633846  ( -0.749877   1.407070  -0.302796)
  24:      1065.30   17.809909  ( -3.879957   0.410140  -1.608611)
  25:      1068.44   13.336776  (  0.078529   1.386591   3.377569)
  26:      1079.00    1.704222  (  0.522077   0.489009   1.092029)
  27:      1131.25   18.954890  (  2.535871   0.140622   3.536167)
  28:      1146.60    2.030018  ( -0.405296   0.830232   1.084651)
  29:      1164.28    6.757311  ( -0.888995   1.492954   1.933414)
  30:      1214.18    1.140187  (  0.606619   0.055646   0.876985)
  31:      1259.26    1.827982  ( -0.090520  -1.083973   0.802989)
  32:      1275.49    3.802004  ( -1.266702   1.334201   0.646048)
  33:      1300.14    0.883409  (  0.898925   0.267242   0.062656)
  34:      1328.55    6.529936  (  1.436971  -2.018039  -0.626553)
  35:      1331.06    2.043864  (  1.338369  -0.268999   0.424585)
  36:      1348.64   14.023058  ( -3.622638  -0.682335   0.658766)
  37:      1384.03    0.431772  ( -0.272354  -0.288150  -0.523990)
  38:      1391.16    1.751887  ( -1.274375   0.013754  -0.357304)
  39:      1420.75   14.016898  ( -2.272993  -2.243409  -1.953846)
  40:      1424.69   12.229825  (  2.721633  -1.780886   1.284905)
  41:      1436.86   37.701574  (  1.744004  -0.395998   5.873943)
  42:      1474.69   26.457802  (  4.624678  -1.969204  -1.091966)
  43:      1482.66    3.389185  ( -0.676411  -0.155760  -1.705107)
  44:      1485.09    0.951430  ( -0.619012   0.053514   0.751924)
  45:      1489.25   13.879219  (  2.716906   1.783221  -1.821473)
  46:      1492.96   10.409521  ( -1.583476   1.633914  -2.287455)
  47:      1496.08    7.201944  ( -0.124693   0.550102  -2.623696)
  48:      1509.26   16.174753  ( -0.148681  -3.780397  -1.364274)
  49:      3048.20    7.485982  ( -0.662552  -2.338412   1.256519)
  50:      3061.48    2.587638  (  0.031728   1.497641   0.586261)
  51:      3083.04    3.743054  ( -1.115798   1.557279  -0.270057)
  52:      3109.42    2.809174  ( -1.503578   0.684082   0.283654)
  53:      3112.08    0.438299  ( -0.204306  -0.395968  -0.489661)
  54:      3118.97    4.965825  ( -0.623621   0.266438  -2.122718)
  55:      3125.73    0.744307  ( -0.699818  -0.242999   0.442169)
  56:      3138.88    7.748170  (  0.185578  -1.408824   2.393522)
  57:      3147.04    2.955514  (  1.475415  -0.669739  -0.574555)
  58:      3148.15    5.147082  ( -0.931015  -1.141327   1.725591)
  59:      3154.88    1.179260  ( -0.628638   0.554801   0.690123)
  60:      3181.08    0.448888  ( -0.663233  -0.012245   0.094132)
  61:      3182.19    0.400687  (  0.051155   0.560063   0.290517)
  62:      3481.90   42.065464  (  1.495775   5.330810  -3.377956)

--------------------------
THERMOCHEMISTRY AT 298.15K
--------------------------

Temperature         ... 298.15 K
Pressure            ... 1.00 atm
Total Mass          ... 100.18 AMU

Throughout the following assumptions are being made:
  (1) The electronic state is orbitally nondegenerate
  (2) There are no thermally accessible electronically excited states
  (3) Hindered rotations indicated by low frequency modes) are not
      treated as such but are treated as vibrations and this may
      case some error
  (4) All equations used are the standard statistical mechanics
      equations for an ideal gas
  (5) All vibrations are strinctly harmonic

------------
INNER ENERGY
------------

The inner energy is: U= E(el) + E(ZPE) + E(vib) + E(rot) + E(trans)
    E(el)   - is the total energy from the electronic structure calculation
              = E(kin-el) + E(nuc-el) + E(el-el) + E(nuc-nuc)
    E(ZPE)  - the the zero temperature vibrational energy from the frequency calculation
    E(vib)  - the the finite temperature correction to E(ZPE) due to population
              of excietd vibrational states
    E(rot)  - is the rotational thermal energy
    E(trans)- is the translational thermal energy

Summary of contributions to the inner energy U:
Electronic energy                ...   -291.31455569 Eh
Zero point energy                ...      0.19934502 Eh     125.09 kcal/mol
Thermal vibrational correction   ...      0.00530832 Eh       3.33 kcal/mol
Thermal rotational correction    ...      0.00141627 Eh       0.89 kcal/mol
Thermal translational correction ...      0.00141627 Eh       0.89 kcal/mol
-----------------------------------------------------------------------
Total thermal energy                   -291.10706980 Eh

Summary of corrections to the electronic energy:
(perhaps to be used in another calculation)
Total thermal correction                  0.00814087 Eh       5.11 kcal/mol
Non-thermal (ZPE) correction              0.19934502 Eh     125.09 kcal/mol
-----------------------------------------------------------------------
Total correction                          0.20748589 Eh     130.20 kcal/mol

--------
ENTHALPY
--------

The enthalpy is H = U + kB*T
                kB is Boltzmann's constant
Total free energy                 ...   -291.10706980 Eh
Thermal Enthalpy correction       ...      0.00094421 Eh       0.59 kcal/mol
-----------------------------------------------------------------------
Total Enthalpy                    ...   -291.10612559 Eh

-------
ENTROPY
-------

The entropy contributions are T*S = T*(S(el)+S(vib)+S(rot)+S(trans)
     S(el)   - electronic entropy
     S(vib)  - vibrational entropy
     S(rot)  - rotational entropy
     S(trans)- translational entropy
The entropies will be listed as mutliplied by the temperature to get
units of energy

Electronic entropy                ...      0.00000000 Eh      0.00 kcal/mol
Vibrational entropy               ...      0.00948490 Eh      5.95 kcal/mol
Rotational entropy                ...      0.01210199 Eh      7.59 kcal/mol
Translational entropy             ...      0.01887386 Eh     11.84 kcal/mol
-----------------------------------------------------------------------
Final entropy term                ...      0.04046075 Eh     25.39 kcal/mol

CAUTION: The rotational entropy is not quite correctly treated here
         because it includes a symmetry number that is not yet correctly
         implemented in ORCA!
For a nonlinear molecule the correct rotational entropy is:
    S(rot) = R*(ln(qrot/sn)+1.5)
    R    = 8.31441 J/mol/K = 1.987191683e-3 kcal/mol/K
    qrot = 246731.5110110
    sn is the rotational symmetry number. We have assumed 3 here
       if it is different for your molecule then you should correct
       the printed rotational entropy by manually evaluating the equation
       as given above

For convenience we print out the resulting values for sn=1 - 12:
 sn= 1  qrot/sn=  246731.5110 T*S(rot)=     8.25 kcal/mol T*S(tot)=    26.04 kcal/mol
 sn= 2  qrot/sn=  123365.7555 T*S(rot)=     7.83 kcal/mol T*S(tot)=    25.63 kcal/mol
 sn= 3  qrot/sn=   82243.8370 T*S(rot)=     7.59 kcal/mol T*S(tot)=    25.39 kcal/mol
 sn= 4  qrot/sn=   61682.8778 T*S(rot)=     7.42 kcal/mol T*S(tot)=    25.22 kcal/mol
 sn= 5  qrot/sn=   49346.3022 T*S(rot)=     7.29 kcal/mol T*S(tot)=    25.09 kcal/mol
 sn= 6  qrot/sn=   41121.9185 T*S(rot)=     7.18 kcal/mol T*S(tot)=    24.98 kcal/mol
 sn= 7  qrot/sn=   35247.3587 T*S(rot)=     7.09 kcal/mol T*S(tot)=    24.89 kcal/mol
 sn= 8  qrot/sn=   30841.4389 T*S(rot)=     7.01 kcal/mol T*S(tot)=    24.81 kcal/mol
 sn= 9  qrot/sn=   27414.6123 T*S(rot)=     6.94 kcal/mol T*S(tot)=    24.74 kcal/mol
 sn=10  qrot/sn=   24673.1511 T*S(rot)=     6.88 kcal/mol T*S(tot)=    24.68 kcal/mol
 sn=11  qrot/sn=   22430.1374 T*S(rot)=     6.82 kcal/mol T*S(tot)=    24.62 kcal/mol
 sn=12  qrot/sn=   20560.9593 T*S(rot)=     6.77 kcal/mol T*S(tot)=    24.57 kcal/mol

-------------------
GIBBS FREE ENTHALPY
-------------------

The Gibbs free enthalpy is G = H - T*S

Total enthalpy                    ...   -291.10612559 Eh
Total entropy correction          ...     -0.04046075 Eh    -25.39 kcal/mol
-----------------------------------------------------------------------
Final Gibbs free enthalpy         ...   -291.14658634 Eh

For completeness - the Gibbs free enthalpy minus the electronic energy
G-E(el)                           ...      0.16796935 Eh    105.40 kcal/mol

                             ****ORCA TERMINATED NORMALLY****
TOTAL RUN TIME: 0 days 0 hours 47 minutes 9 seconds 775 msec
