                         Program Version 3.0.3 - RELEASE   -
|  1> ! NORI PBE0 def2-TZVP UseSym TightOPT Freq TightSCF Grid3 FinalGrid5 XYZFile
|  2> % pal
|  3>     nprocs 8
|  4> end
|  5> %method
|  6>     SymThresh 5.0e-2
|  7> end
|  8> % geom
|  9>     MaxIter 10
| 10> end
| 11> % maxcore 2000
| 12> % output
| 13>     printlevel mini
| 14>     print[ P_Basis ] 0
| 15>     print[ P_SCFInfo ] 1
| 16>     print[ P_SCFIterInfo ] 1
| 17>     print[ P_OrbEn ] 0
| 18>     print[ P_Cartesian ] 0
| 19> end
| 20> % elprop
| 21>     Dipole false
| 22> end
| 23> *xyz 1 1
| 24>  C        1.8385669804     2.5134769021     0.3712997152
| 25>  C        3.1327146527     2.3265909822    -0.3803725941
| 26>  N        3.7749829742     1.0123926032    -0.0362704238
| 27>  C        5.0603679069     0.7569552321    -0.7147379676
| 28>  C        6.3024192388     1.3027632652    -0.0966202797
| 29>  C        6.0427711206    -0.1760192402    -0.0867067233
| 30>  C        6.8387077059    -1.1188290225    -0.9439903189
| 31>  H        1.4020964208     3.4735829993     0.0933325293
| 32>  H        1.9922854533     2.5262917265     1.4532682557
| 33>  H        1.1067836597     1.7397376280     0.1258634017
| 34>  H        2.9850354834     2.3193699500    -1.4611008239
| 35>  H        3.8698912786     3.0936187227    -0.1418597605
| 36>  H        3.9204513800     0.9744467129     0.9752870884
| 37>  H        3.1191203058     0.2561969455    -0.2491871571
| 38>  H        4.9387394394     0.7673343067    -1.7911779628
| 39>  H        6.2199671658     1.8425375206     0.8408551662
| 40>  H        7.0531667390     1.6978311158    -0.7696410125
| 41>  H        5.7496419550    -0.5755950179     0.8817914610
| 42>  H        7.0974565208    -0.6605030653    -1.9006186492
| 43>  H        6.2846101559    -2.0375898116    -1.1440289461
| 44>  H        7.7696534631    -1.3884304551    -0.4431649980
| 45> *
| 46>
| 47>                          ****END OF INPUT****
 Total Charge           Charge          ....    1
 Multiplicity           Mult            ....    1
 Number of Electrons    NEL             ....   56
FINAL SINGLE POINT ENERGY      -291.309054892297

CARTESIAN COORDINATES (ANGSTROEM)
---------------------------------
  C      1.377070    0.000286    2.991584
  C      1.304149    0.416734    1.543690
  N      0.000219   -0.000502    0.924438
  C     -0.146420    0.350940   -0.501520
  C      0.410344   -0.586735   -1.517904
  C     -1.075931   -0.445861   -1.356508
  C     -1.916669    0.240576   -2.394944
  H      2.332772    0.322846    3.406189
  H      1.320788   -1.084691    3.108207
  H      0.589254    0.462780    3.590928
  H      1.366410    1.498831    1.421608
  H      2.085850   -0.040511    0.936581
  H     -0.102918   -1.012423    1.029327
  H     -0.768472    0.411870    1.459337
  H     -0.064482    1.421231   -0.646766
  H      0.876847   -1.504408   -1.175246
  H      0.886587   -0.145318   -2.384401
  H     -1.557351   -1.286563   -0.861144
  H     -1.379000    1.074987   -2.850417
  H     -2.843452    0.625113   -1.965097
  H     -2.178269   -0.459010   -3.190396

FINAL SINGLE POINT ENERGY      -291.309055879266
                    ***********************HURRAY********************
 Multiplicity           Mult            ....    1
 Number of Electrons    NEL             ....   56
 Basis Dimension        Dim             ....  301
FINAL SINGLE POINT ENERGY      -291.309056297609

VIBRATIONAL FREQUENCIES
-----------------------

   0:         0.00 cm**-1
   1:         0.00 cm**-1
   2:         0.00 cm**-1
   3:         0.00 cm**-1
   4:         0.00 cm**-1
   5:         0.00 cm**-1
   6:        76.29 cm**-1
   7:        82.01 cm**-1
   8:       127.60 cm**-1
   9:       212.64 cm**-1
  10:       241.58 cm**-1
  11:       258.00 cm**-1
  12:       305.64 cm**-1
  13:       347.77 cm**-1
  14:       420.62 cm**-1
  15:       481.03 cm**-1
  16:       777.29 cm**-1
  17:       803.80 cm**-1
  18:       823.68 cm**-1
  19:       860.29 cm**-1
  20:       883.81 cm**-1
  21:       905.96 cm**-1
  22:       925.86 cm**-1
  23:      1004.45 cm**-1
  24:      1045.11 cm**-1
  25:      1054.49 cm**-1
  26:      1075.79 cm**-1
  27:      1093.00 cm**-1
  28:      1108.38 cm**-1
  29:      1136.92 cm**-1
  30:      1164.71 cm**-1
  31:      1200.18 cm**-1
  32:      1214.17 cm**-1
  33:      1246.88 cm**-1
  34:      1275.79 cm**-1
  35:      1337.48 cm**-1
  36:      1374.55 cm**-1
  37:      1391.52 cm**-1
  38:      1418.29 cm**-1
  39:      1424.22 cm**-1
  40:      1426.84 cm**-1
  41:      1444.64 cm**-1
  42:      1481.08 cm**-1
  43:      1482.94 cm**-1
  44:      1487.80 cm**-1
  45:      1490.20 cm**-1
  46:      1503.83 cm**-1
  47:      1514.24 cm**-1
  48:      1645.72 cm**-1
  49:      3059.72 cm**-1
  50:      3060.82 cm**-1
  51:      3101.98 cm**-1
  52:      3130.13 cm**-1
  53:      3130.52 cm**-1
  54:      3143.04 cm**-1
  55:      3146.93 cm**-1
  56:      3150.63 cm**-1
  57:      3153.84 cm**-1
  58:      3162.78 cm**-1
  59:      3202.60 cm**-1
  60:      3240.88 cm**-1
  61:      3425.85 cm**-1
  62:      3477.69 cm**-1

IR SPECTRUM
-----------

 Mode    freq (cm**-1)   T**2         TX         TY         TZ
-------------------------------------------------------------------
   6:        76.29    3.977338  ( -0.882335   1.779477   0.179675)
   7:        82.01    0.051394  ( -0.141327   0.169523  -0.051792)
   8:       127.60    1.670339  (  0.648940   0.970406  -0.554552)
   9:       212.64    0.286655  (  0.275102   0.442976   0.121435)
  10:       241.58    0.728141  ( -0.741044   0.352566   0.233862)
  11:       258.00    4.027786  ( -1.415825   1.353061   0.438694)
  12:       305.64    0.803783  (  0.885744  -0.096915   0.099234)
  13:       347.77    3.830414  ( -0.931979  -0.604134  -1.611475)
  14:       420.62    3.305805  ( -1.290124   0.185406  -1.267679)
  15:       481.03    1.891313  ( -0.029887   0.005340  -1.374915)
  16:       777.29   14.667099  ( -0.647007   3.522263   1.357257)
  17:       803.80    4.048414  (  1.748525   0.922629   0.373936)
  18:       823.68    0.561103  ( -0.024149   0.748620  -0.009370)
  19:       860.29    4.784145  ( -2.003398   0.805739   0.348318)
  20:       883.81    2.304985  (  0.001022   0.707302   1.343394)
  21:       905.96    5.413805  (  1.334259   0.201235   1.895538)
  22:       925.86    4.510219  ( -1.618159   0.409198   1.313140)
  23:      1004.45    4.819938  (  1.269152   1.455471   1.044412)
  24:      1045.11   22.690009  (  3.187747   1.364051   3.266136)
  25:      1054.49    3.980118  (  1.477978   1.153370   0.682231)
  26:      1075.79    7.961510  (  0.105935   1.128279   2.584042)
  27:      1093.00   14.036922  (  1.761323   1.988680   2.641934)
  28:      1108.38   10.046570  ( -2.939660   0.721724  -0.940257)
  29:      1136.92    1.763164  (  0.764055   0.363156   1.023475)
  30:      1164.71    3.648259  ( -1.905220   0.129095  -0.041581)
  31:      1200.18    1.711693  ( -0.800652   0.352740  -0.972740)
  32:      1214.17    1.653847  ( -0.382754  -1.134661   0.468924)
  33:      1246.88    1.688798  (  0.466213   0.669142   1.011777)
  34:      1275.79    1.332228  (  0.714835   0.207438   0.882161)
  35:      1337.48    9.449704  (  1.948470  -1.680066   1.682423)
  36:      1374.55   14.310386  (  1.318040   1.035002   3.391449)
  37:      1391.52    1.439730  (  0.463142  -1.089072   0.197866)
  38:      1418.29   20.327811  (  2.794309   1.078291   3.370005)
  39:      1424.22   51.359775  (  3.005536  -1.511867   6.327779)
  40:      1426.84   10.681699  ( -2.130762   0.946674  -2.290276)
  41:      1444.64    3.242041  ( -1.702449   0.570583  -0.134695)
  42:      1481.08    5.440087  ( -0.112945   1.673181   1.621048)
  43:      1482.94    4.336901  ( -1.747827  -0.585364  -0.969202)
  44:      1487.80   11.476546  (  1.381777   2.995120  -0.772329)
  45:      1490.20   21.167417  (  3.647687  -1.338500  -2.463780)
  46:      1503.83    9.799120  (  1.940162   0.686930  -2.358605)
  47:      1514.24   10.177595  (  0.155283  -3.120131  -0.646732)
  48:      1645.72   44.430120  ( -3.949783  -3.887613   3.703484)
  49:      3059.72    3.334643  ( -1.453765  -0.944507   0.573689)
  50:      3060.82    6.258406  ( -1.406444   1.457218  -1.468618)
  51:      3101.98    2.515923  ( -0.306097  -0.661408   1.408818)
  52:      3130.13    3.094888  ( -0.305587   1.567887   0.737044)
  53:      3130.52    4.708852  ( -1.992734   0.353096  -0.783063)
  54:      3143.04    4.899239  ( -1.334561   0.664090   1.636206)
  55:      3146.93    5.257716  (  1.339515   1.802645  -0.462477)
  56:      3150.63    5.453660  ( -0.082445  -1.225475   1.986221)
  57:      3153.84    0.820555  (  0.307428   0.454732  -0.720598)
  58:      3162.78    1.941555  ( -0.613320   1.208961   0.322189)
  59:      3202.60    0.149443  ( -0.072634  -0.187947   0.329914)
  60:      3240.88    0.214861  ( -0.423677  -0.187768   0.010115)
  61:      3425.85   29.114934  (  4.357617   1.270656  -2.917455)
  62:      3477.69   50.394539  (  2.689373  -6.434936  -1.324166)

--------------------------
THERMOCHEMISTRY AT 298.15K
--------------------------

Temperature         ... 298.15 K
Pressure            ... 1.00 atm
Total Mass          ... 100.18 AMU

Throughout the following assumptions are being made:
  (1) The electronic state is orbitally nondegenerate
  (2) There are no thermally accessible electronically excited states
  (3) Hindered rotations indicated by low frequency modes) are not
      treated as such but are treated as vibrations and this may
      case some error
  (4) All equations used are the standard statistical mechanics
      equations for an ideal gas
  (5) All vibrations are strinctly harmonic

------------
INNER ENERGY
------------

The inner energy is: U= E(el) + E(ZPE) + E(vib) + E(rot) + E(trans)
    E(el)   - is the total energy from the electronic structure calculation
              = E(kin-el) + E(nuc-el) + E(el-el) + E(nuc-nuc)
    E(ZPE)  - the the zero temperature vibrational energy from the frequency calculation
    E(vib)  - the the finite temperature correction to E(ZPE) due to population
              of excietd vibrational states
    E(rot)  - is the rotational thermal energy
    E(trans)- is the translational thermal energy

Summary of contributions to the inner energy U:
Electronic energy                ...   -291.30905630 Eh
Zero point energy                ...      0.19857531 Eh     124.61 kcal/mol
Thermal vibrational correction   ...      0.00586934 Eh       3.68 kcal/mol
Thermal rotational correction    ...      0.00141627 Eh       0.89 kcal/mol
Thermal translational correction ...      0.00141627 Eh       0.89 kcal/mol
-----------------------------------------------------------------------
Total thermal energy                   -291.10177911 Eh

Summary of corrections to the electronic energy:
(perhaps to be used in another calculation)
Total thermal correction                  0.00870188 Eh       5.46 kcal/mol
Non-thermal (ZPE) correction              0.19857531 Eh     124.61 kcal/mol
-----------------------------------------------------------------------
Total correction                          0.20727719 Eh     130.07 kcal/mol

--------
ENTHALPY
--------

The enthalpy is H = U + kB*T
                kB is Boltzmann's constant
Total free energy                 ...   -291.10177911 Eh
Thermal Enthalpy correction       ...      0.00094421 Eh       0.59 kcal/mol
-----------------------------------------------------------------------
Total Enthalpy                    ...   -291.10083490 Eh

-------
ENTROPY
-------

The entropy contributions are T*S = T*(S(el)+S(vib)+S(rot)+S(trans)
     S(el)   - electronic entropy
     S(vib)  - vibrational entropy
     S(rot)  - rotational entropy
     S(trans)- translational entropy
The entropies will be listed as mutliplied by the temperature to get
units of energy

Electronic entropy                ...      0.00000000 Eh      0.00 kcal/mol
Vibrational entropy               ...      0.01070881 Eh      6.72 kcal/mol
Rotational entropy                ...      0.01223252 Eh      7.68 kcal/mol
Translational entropy             ...      0.01887386 Eh     11.84 kcal/mol
-----------------------------------------------------------------------
Final entropy term                ...      0.04181520 Eh     26.24 kcal/mol

CAUTION: The rotational entropy is not quite correctly treated here
         because it includes a symmetry number that is not yet correctly
         implemented in ORCA!
For a nonlinear molecule the correct rotational entropy is:
    S(rot) = R*(ln(qrot/sn)+1.5)
    R    = 8.31441 J/mol/K = 1.987191683e-3 kcal/mol/K
    qrot = 283313.9398214
    sn is the rotational symmetry number. We have assumed 3 here
       if it is different for your molecule then you should correct
       the printed rotational entropy by manually evaluating the equation
       as given above

For convenience we print out the resulting values for sn=1 - 12:
 sn= 1  qrot/sn=  283313.9398 T*S(rot)=     8.33 kcal/mol T*S(tot)=    26.89 kcal/mol
 sn= 2  qrot/sn=  141656.9699 T*S(rot)=     7.92 kcal/mol T*S(tot)=    26.48 kcal/mol
 sn= 3  qrot/sn=   94437.9799 T*S(rot)=     7.68 kcal/mol T*S(tot)=    26.24 kcal/mol
 sn= 4  qrot/sn=   70828.4850 T*S(rot)=     7.51 kcal/mol T*S(tot)=    26.07 kcal/mol
 sn= 5  qrot/sn=   56662.7880 T*S(rot)=     7.37 kcal/mol T*S(tot)=    25.94 kcal/mol
 sn= 6  qrot/sn=   47218.9900 T*S(rot)=     7.27 kcal/mol T*S(tot)=    25.83 kcal/mol
 sn= 7  qrot/sn=   40473.4200 T*S(rot)=     7.17 kcal/mol T*S(tot)=    25.74 kcal/mol
 sn= 8  qrot/sn=   35414.2425 T*S(rot)=     7.09 kcal/mol T*S(tot)=    25.66 kcal/mol
 sn= 9  qrot/sn=   31479.3266 T*S(rot)=     7.03 kcal/mol T*S(tot)=    25.59 kcal/mol
 sn=10  qrot/sn=   28331.3940 T*S(rot)=     6.96 kcal/mol T*S(tot)=    25.53 kcal/mol
 sn=11  qrot/sn=   25755.8127 T*S(rot)=     6.91 kcal/mol T*S(tot)=    25.47 kcal/mol
 sn=12  qrot/sn=   23609.4950 T*S(rot)=     6.85 kcal/mol T*S(tot)=    25.42 kcal/mol

-------------------
GIBBS FREE ENTHALPY
-------------------

The Gibbs free enthalpy is G = H - T*S

Total enthalpy                    ...   -291.10083490 Eh
Total entropy correction          ...     -0.04181520 Eh    -26.24 kcal/mol
-----------------------------------------------------------------------
Final Gibbs free enthalpy         ...   -291.14265010 Eh

For completeness - the Gibbs free enthalpy minus the electronic energy
G-E(el)                           ...      0.16640620 Eh    104.42 kcal/mol

                             ****ORCA TERMINATED NORMALLY****
TOTAL RUN TIME: 0 days 0 hours 43 minutes 30 seconds 937 msec
