                         Program Version 3.0.3 - RELEASE   -
|  1> ! NORI PBE0 def2-TZVP UseSym TightOPT Freq TightSCF Grid3 FinalGrid5 XYZFile
|  2> % pal
|  3>     nprocs 8
|  4> end
|  5> %method
|  6>     SymThresh 5.0e-2
|  7> end
|  8> % geom
|  9>     MaxIter 10
| 10> end
| 11> % maxcore 2000
| 12> % output
| 13>     printlevel mini
| 14>     print[ P_Basis ] 0
| 15>     print[ P_SCFInfo ] 1
| 16>     print[ P_SCFIterInfo ] 1
| 17>     print[ P_OrbEn ] 0
| 18>     print[ P_Cartesian ] 0
| 19> end
| 20> % elprop
| 21>     Dipole false
| 22> end
| 23> *xyz 1 1
| 24>  C        2.8214963992     1.3405262376     0.2660365846
| 25>  C        2.4084194456    -0.0841508106    -0.0340181863
| 26>  N        2.9061287299    -0.4423806758    -1.4185173390
| 27>  C        2.9168285634    -1.0829784112     0.9711793201
| 28>  C        3.1670731388    -2.5327310799     0.6811148076
| 29>  C        4.3170435754    -1.6202703163     0.9976625526
| 30>  C        5.0633505297    -1.7363427508     2.2964831650
| 31>  H        2.4202742436     2.0511092591    -0.4611412080
| 32>  H        3.9098647011     1.4372532918     0.3043582267
| 33>  H        2.4325540253     1.6231471498     1.2444605302
| 34>  H        1.3194698185    -0.1589082982    -0.1117255433
| 35>  H        3.9271224145    -0.3920751947    -1.4524939684
| 36>  H        2.5355487118     0.2019124856    -2.1182648129
| 37>  H        2.6288401006    -1.3926431274    -1.6713590284
| 38>  H        2.4872681869    -0.8794287703     1.9472044375
| 39>  H        2.8572930066    -3.2489936980     1.4315435206
| 40>  H        3.0801509239    -2.9232753718    -0.3291168522
| 41>  H        4.9558221108    -1.3790665746     0.1481882535
| 42>  H        4.3849765292    -2.0043910589     3.1094621519
| 43>  H        5.5503341203    -0.7957126180     2.5623759870
| 44>  H        5.8322207248    -2.5088896672     2.2343974012
| 45> *
| 46>
| 47>                          ****END OF INPUT****
 Total Charge           Charge          ....    1
 Multiplicity           Mult            ....    1
 Number of Electrons    NEL             ....   56
FINAL SINGLE POINT ENERGY      -291.309198979748
FINAL SINGLE POINT ENERGY      -291.309200142347

CARTESIAN COORDINATES (ANGSTROEM)
---------------------------------
  C      2.131103   -0.002576    0.789595
  C      0.768836   -0.654504    0.880580
  N      0.000579    0.002711    2.007852
  C     -0.023012   -0.577786   -0.397559
  C     -1.520375   -0.607964   -0.476253
  C     -0.772905    0.637020   -0.857978
  C     -0.692227    1.085623   -2.289545
  H      2.696714   -0.092178    1.720537
  H      2.048789    1.052691    0.517250
  H      2.709063   -0.498070    0.009040
  H      0.865022   -1.698668    1.193312
  H     -0.136599    0.996819    1.811538
  H      0.507321   -0.076771    2.890494
  H     -0.920021   -0.425893    2.121713
  H      0.487564   -1.124920   -1.184247
  H     -1.963149   -1.204359   -1.264340
  H     -2.127934   -0.590359    0.424292
  H     -0.864868    1.460009   -0.148831
  H     -0.627244    0.226492   -2.961124
  H      0.184168    1.713892   -2.461783
  H     -1.578664    1.658989   -2.566718

FINAL SINGLE POINT ENERGY      -291.309200830236
                    ***********************HURRAY********************
 Multiplicity           Mult            ....    1
 Number of Electrons    NEL             ....   56
 Basis Dimension        Dim             ....  301
FINAL SINGLE POINT ENERGY      -291.309200993359

VIBRATIONAL FREQUENCIES
-----------------------

   0:         0.00 cm**-1
   1:         0.00 cm**-1
   2:         0.00 cm**-1
   3:         0.00 cm**-1
   4:         0.00 cm**-1
   5:         0.00 cm**-1
   6:        53.85 cm**-1
   7:       151.64 cm**-1
   8:       192.45 cm**-1
   9:       199.73 cm**-1
  10:       227.18 cm**-1
  11:       255.05 cm**-1
  12:       313.69 cm**-1
  13:       347.18 cm**-1
  14:       387.70 cm**-1
  15:       468.89 cm**-1
  16:       537.25 cm**-1
  17:       730.95 cm**-1
  18:       808.35 cm**-1
  19:       849.18 cm**-1
  20:       877.72 cm**-1
  21:       910.54 cm**-1
  22:       935.21 cm**-1
  23:       953.32 cm**-1
  24:       975.82 cm**-1
  25:      1039.28 cm**-1
  26:      1052.08 cm**-1
  27:      1085.21 cm**-1
  28:      1105.95 cm**-1
  29:      1127.02 cm**-1
  30:      1148.82 cm**-1
  31:      1160.67 cm**-1
  32:      1208.97 cm**-1
  33:      1216.74 cm**-1
  34:      1252.98 cm**-1
  35:      1343.88 cm**-1
  36:      1365.08 cm**-1
  37:      1403.16 cm**-1
  38:      1417.68 cm**-1
  39:      1420.53 cm**-1
  40:      1447.05 cm**-1
  41:      1478.98 cm**-1
  42:      1480.42 cm**-1
  43:      1483.91 cm**-1
  44:      1488.95 cm**-1
  45:      1492.10 cm**-1
  46:      1521.48 cm**-1
  47:      1645.16 cm**-1
  48:      1656.29 cm**-1
  49:      3055.67 cm**-1
  50:      3057.50 cm**-1
  51:      3079.69 cm**-1
  52:      3100.88 cm**-1
  53:      3132.26 cm**-1
  54:      3133.56 cm**-1
  55:      3135.23 cm**-1
  56:      3139.10 cm**-1
  57:      3154.73 cm**-1
  58:      3170.80 cm**-1
  59:      3225.22 cm**-1
  60:      3420.37 cm**-1
  61:      3501.36 cm**-1
  62:      3518.91 cm**-1

IR SPECTRUM
-----------

 Mode    freq (cm**-1)   T**2         TX         TY         TZ
-------------------------------------------------------------------
   6:        53.85    4.642828  ( -0.123173  -2.031710   0.706975)
   7:       151.64    1.269265  ( -0.137380  -1.030202   0.434829)
   8:       192.45    3.563761  ( -1.027225   0.209878  -1.569879)
   9:       199.73    3.800089  (  0.836561  -0.176563   1.751879)
  10:       227.18    3.737767  ( -1.032569  -0.194764  -1.622848)
  11:       255.05    5.193777  (  0.662101  -0.924594   1.974975)
  12:       313.69    9.588409  ( -0.763442  -0.346328  -2.980876)
  13:       347.18    3.917655  (  1.828229   0.286463  -0.702263)
  14:       387.70    3.512167  (  1.671515   0.828379  -0.178860)
  15:       468.89    0.474248  (  0.670027  -0.159053  -0.003673)
  16:       537.25    8.691764  (  1.274975  -0.482546   2.614068)
  17:       730.95    1.741984  (  0.277851  -1.263928   0.259364)
  18:       808.35    4.866460  (  0.918489  -1.958999  -0.430302)
  19:       849.18    3.426853  ( -1.398929   0.587788   1.060357)
  20:       877.72    0.166648  ( -0.224200  -0.055344   0.336629)
  21:       910.54    8.708294  (  1.794856   2.266753  -0.590437)
  22:       935.21    4.799907  (  2.134199   0.493626   0.037903)
  23:       953.32    2.578175  ( -0.364384   0.865163  -1.302648)
  24:       975.82    8.380256  (  0.583674   0.771099   2.728550)
  25:      1039.28    1.537391  (  1.060706   0.321401  -0.555873)
  26:      1052.08    9.891743  (  0.529292   3.078125  -0.369783)
  27:      1085.21    6.071091  (  2.117622  -0.548720   1.133876)
  28:      1105.95    6.909422  ( -2.555895  -0.101695  -0.605375)
  29:      1127.02    6.271731  ( -2.185226   1.208971   0.186830)
  30:      1148.82   13.877343  ( -2.844656   1.512105  -1.870512)
  31:      1160.67    5.613641  (  0.740285  -0.180611  -2.243435)
  32:      1208.97    9.012205  (  1.514348   1.813628   1.851947)
  33:      1216.74    4.579159  (  1.074007   1.442586   1.159574)
  34:      1252.98    4.859055  (  1.574994   0.354668   1.500886)
  35:      1343.88    0.572401  (  0.044290   0.142936  -0.741626)
  36:      1365.08    9.311869  ( -2.246088   0.480793  -2.008929)
  37:      1403.16   18.116350  ( -0.686976   1.873078  -3.759786)
  38:      1417.68    0.519888  ( -0.020980   0.564743   0.447787)
  39:      1420.53   32.788461  ( -4.578508  -0.977661   3.296954)
  40:      1447.05   16.371865  ( -2.360376  -0.054434  -3.285959)
  41:      1478.98   10.390291  ( -1.851727   2.557747   0.647554)
  42:      1480.42   14.580772  (  2.979723  -0.950944  -2.190372)
  43:      1483.91  116.966025  (  3.738064  -5.650829  -8.429771)
  44:      1488.95   42.705193  ( -2.649329   0.124806   5.972493)
  45:      1492.10   13.810643  (  0.287265   2.907580   2.296541)
  46:      1521.48    4.476624  (  0.778328  -0.045733  -1.966911)
  47:      1645.16   56.014645  ( -2.808228  -6.546232   2.296813)
  48:      1656.29   53.282429  (  4.000728  -0.995150   6.023810)
  49:      3055.67    3.952770  ( -0.545444  -0.974557  -1.644840)
  50:      3057.50    8.366580  ( -0.349553  -1.054798   2.670542)
  51:      3079.69    3.544165  ( -0.106720   1.638806  -0.920375)
  52:      3100.88   18.558129  (  0.476220   1.682160   3.937217)
  53:      3132.26   13.806158  (  2.130735   0.936940  -2.896251)
  54:      3133.56   12.290392  (  1.073666  -1.835077   2.787494)
  55:      3135.23   12.888756  ( -1.443490  -2.314822  -2.333815)
  56:      3139.10   10.446210  ( -1.893966   2.307367   1.239015)
  57:      3154.73    1.284671  ( -0.823726  -0.609835  -0.483991)
  58:      3170.80    0.425516  ( -0.418953   0.343491  -0.363329)
  59:      3225.22    2.716059  ( -0.556255  -0.024731   1.551138)
  60:      3420.37   21.952584  ( -2.950237   2.030165   3.021111)
  61:      3501.36   67.046048  (  2.870487   6.995295  -3.142006)
  62:      3518.91  100.369192  (  6.756702  -0.425498   7.384789)

--------------------------
THERMOCHEMISTRY AT 298.15K
--------------------------

Temperature         ... 298.15 K
Pressure            ... 1.00 atm
Total Mass          ... 100.18 AMU

Throughout the following assumptions are being made:
  (1) The electronic state is orbitally nondegenerate
  (2) There are no thermally accessible electronically excited states
  (3) Hindered rotations indicated by low frequency modes) are not
      treated as such but are treated as vibrations and this may
      case some error
  (4) All equations used are the standard statistical mechanics
      equations for an ideal gas
  (5) All vibrations are strinctly harmonic

------------
INNER ENERGY
------------

The inner energy is: U= E(el) + E(ZPE) + E(vib) + E(rot) + E(trans)
    E(el)   - is the total energy from the electronic structure calculation
              = E(kin-el) + E(nuc-el) + E(el-el) + E(nuc-nuc)
    E(ZPE)  - the the zero temperature vibrational energy from the frequency calculation
    E(vib)  - the the finite temperature correction to E(ZPE) due to population
              of excietd vibrational states
    E(rot)  - is the rotational thermal energy
    E(trans)- is the translational thermal energy

Summary of contributions to the inner energy U:
Electronic energy                ...   -291.30920099 Eh
Zero point energy                ...      0.19829936 Eh     124.43 kcal/mol
Thermal vibrational correction   ...      0.00592169 Eh       3.72 kcal/mol
Thermal rotational correction    ...      0.00141627 Eh       0.89 kcal/mol
Thermal translational correction ...      0.00141627 Eh       0.89 kcal/mol
-----------------------------------------------------------------------
Total thermal energy                   -291.10214740 Eh

Summary of corrections to the electronic energy:
(perhaps to be used in another calculation)
Total thermal correction                  0.00875423 Eh       5.49 kcal/mol
Non-thermal (ZPE) correction              0.19829936 Eh     124.43 kcal/mol
-----------------------------------------------------------------------
Total correction                          0.20705360 Eh     129.93 kcal/mol

--------
ENTHALPY
--------

The enthalpy is H = U + kB*T
                kB is Boltzmann's constant
Total free energy                 ...   -291.10214740 Eh
Thermal Enthalpy correction       ...      0.00094421 Eh       0.59 kcal/mol
-----------------------------------------------------------------------
Total Enthalpy                    ...   -291.10120319 Eh

-------
ENTROPY
-------

The entropy contributions are T*S = T*(S(el)+S(vib)+S(rot)+S(trans)
     S(el)   - electronic entropy
     S(vib)  - vibrational entropy
     S(rot)  - rotational entropy
     S(trans)- translational entropy
The entropies will be listed as mutliplied by the temperature to get
units of energy

Electronic entropy                ...      0.00000000 Eh      0.00 kcal/mol
Vibrational entropy               ...      0.01050673 Eh      6.59 kcal/mol
Rotational entropy                ...      0.01218401 Eh      7.65 kcal/mol
Translational entropy             ...      0.01887386 Eh     11.84 kcal/mol
-----------------------------------------------------------------------
Final entropy term                ...      0.04156459 Eh     26.08 kcal/mol

CAUTION: The rotational entropy is not quite correctly treated here
         because it includes a symmetry number that is not yet correctly
         implemented in ORCA!
For a nonlinear molecule the correct rotational entropy is:
    S(rot) = R*(ln(qrot/sn)+1.5)
    R    = 8.31441 J/mol/K = 1.987191683e-3 kcal/mol/K
    qrot = 269123.3695207
    sn is the rotational symmetry number. We have assumed 3 here
       if it is different for your molecule then you should correct
       the printed rotational entropy by manually evaluating the equation
       as given above

For convenience we print out the resulting values for sn=1 - 12:
 sn= 1  qrot/sn=  269123.3695 T*S(rot)=     8.30 kcal/mol T*S(tot)=    26.73 kcal/mol
 sn= 2  qrot/sn=  134561.6848 T*S(rot)=     7.89 kcal/mol T*S(tot)=    26.32 kcal/mol
 sn= 3  qrot/sn=   89707.7898 T*S(rot)=     7.65 kcal/mol T*S(tot)=    26.08 kcal/mol
 sn= 4  qrot/sn=   67280.8424 T*S(rot)=     7.48 kcal/mol T*S(tot)=    25.91 kcal/mol
 sn= 5  qrot/sn=   53824.6739 T*S(rot)=     7.34 kcal/mol T*S(tot)=    25.78 kcal/mol
 sn= 6  qrot/sn=   44853.8949 T*S(rot)=     7.23 kcal/mol T*S(tot)=    25.67 kcal/mol
 sn= 7  qrot/sn=   38446.1956 T*S(rot)=     7.14 kcal/mol T*S(tot)=    25.58 kcal/mol
 sn= 8  qrot/sn=   33640.4212 T*S(rot)=     7.06 kcal/mol T*S(tot)=    25.50 kcal/mol
 sn= 9  qrot/sn=   29902.5966 T*S(rot)=     6.99 kcal/mol T*S(tot)=    25.43 kcal/mol
 sn=10  qrot/sn=   26912.3370 T*S(rot)=     6.93 kcal/mol T*S(tot)=    25.37 kcal/mol
 sn=11  qrot/sn=   24465.7609 T*S(rot)=     6.88 kcal/mol T*S(tot)=    25.31 kcal/mol
 sn=12  qrot/sn=   22426.9475 T*S(rot)=     6.82 kcal/mol T*S(tot)=    25.26 kcal/mol

-------------------
GIBBS FREE ENTHALPY
-------------------

The Gibbs free enthalpy is G = H - T*S

Total enthalpy                    ...   -291.10120319 Eh
Total entropy correction          ...     -0.04156459 Eh    -26.08 kcal/mol
-----------------------------------------------------------------------
Final Gibbs free enthalpy         ...   -291.14276778 Eh

For completeness - the Gibbs free enthalpy minus the electronic energy
G-E(el)                           ...      0.16643321 Eh    104.44 kcal/mol

                             ****ORCA TERMINATED NORMALLY****
TOTAL RUN TIME: 0 days 0 hours 49 minutes 21 seconds 639 msec
