                         Program Version 3.0.3 - RELEASE   -
|  1> ! NORI PBE0 def2-TZVP UseSym TightOPT Freq TightSCF Grid3 FinalGrid5 XYZFile
|  2> % pal
|  3>     nprocs 8
|  4> end
|  5> %method
|  6>     SymThresh 5.0e-2
|  7> end
|  8> % geom
|  9>     MaxIter 10
| 10> end
| 11> % maxcore 2000
| 12> % output
| 13>     printlevel mini
| 14>     print[ P_Basis ] 0
| 15>     print[ P_SCFInfo ] 1
| 16>     print[ P_SCFIterInfo ] 1
| 17>     print[ P_OrbEn ] 0
| 18>     print[ P_Cartesian ] 0
| 19> end
| 20> % elprop
| 21>     Dipole false
| 22> end
| 23> *xyz 1 1
| 24>  C        2.4554737211     2.5176432718     4.1392353322
| 25>  C        3.5946679919     2.5525382389     3.1503464229
| 26>  N        4.1113992081     1.1749336003     2.8646701454
| 27>  C        5.2611334336     1.1181359073     1.9083913630
| 28>  C        6.6044033106     1.6800948902     2.3787092451
| 29>  C        7.2647681669     0.5114007146     1.6159120939
| 30>  C        5.9187044257    -0.2429818418     1.6737995404
| 31>  H        2.1090021011     3.5355895982     4.3191787934
| 32>  H        2.7631067046     2.1031437385     5.1021216613
| 33>  H        1.6052001089     1.9444858513     3.7624364195
| 34>  H        3.2926622984     2.9720296485     2.1896014515
| 35>  H        4.4441336130     3.1270192474     3.5213601459
| 36>  H        4.3986247312     0.7390541028     3.7441284900
| 37>  H        3.3466124233     0.5984608278     2.5051773494
| 38>  H        4.9135647601     1.5807250265     0.9833146749
| 39>  H        6.8570207737     2.7013290829     2.0987224816
| 40>  H        6.7332320155     1.5624965814     3.4596603207
| 41>  H        7.5263149312     0.7923898724     0.5962464347
| 42>  H        8.1225192719     0.0347112124     2.0836777890
| 43>  H        5.8646734486    -0.8764097003     2.5645118779
| 44>  H        5.5973625605    -0.8190698709     0.8072979672
| 45> *
| 46>
| 47>                          ****END OF INPUT****
 Total Charge           Charge          ....    1
 Multiplicity           Mult            ....    1
 Number of Electrons    NEL             ....   56
FINAL SINGLE POINT ENERGY      -291.314542827065
FINAL SINGLE POINT ENERGY      -291.314544254133

CARTESIAN COORDINATES (ANGSTROEM)
---------------------------------
  C      1.798858   -0.001899    2.649191
  C      1.393100    0.446380    1.266705
  N      0.000139    0.001309    0.936770
  C     -0.475433    0.379636   -0.430415
  C      0.179861   -0.314789   -1.625624
  C     -1.219391   -0.325841   -2.279402
  C     -1.839465   -0.152798   -0.875692
  H      2.814029    0.341633    2.851536
  H      1.798064   -1.090584    2.741546
  H      1.151071    0.419512    3.421540
  H      1.399392    1.532830    1.168022
  H      2.038412    0.029819    0.492569
  H     -0.054329   -1.015763    1.028750
  H     -0.645633    0.379015    1.634269
  H     -0.409719    1.467329   -0.488177
  H      0.994267    0.199959   -2.132758
  H      0.499520   -1.330819   -1.373995
  H     -1.380644    0.553170   -2.903273
  H     -1.498842   -1.214569   -2.840149
  H     -2.059745   -1.125224   -0.424933
  H     -2.703144    0.499310   -0.755287

FINAL SINGLE POINT ENERGY      -291.314544891908
                    ***********************HURRAY********************
 Multiplicity           Mult            ....    1
 Number of Electrons    NEL             ....   56
 Basis Dimension        Dim             ....  301
FINAL SINGLE POINT ENERGY      -291.314545116270

VIBRATIONAL FREQUENCIES
-----------------------

   0:         0.00 cm**-1
   1:         0.00 cm**-1
   2:         0.00 cm**-1
   3:         0.00 cm**-1
   4:         0.00 cm**-1
   5:         0.00 cm**-1
   6:        76.19 cm**-1
   7:        92.39 cm**-1
   8:       132.95 cm**-1
   9:       192.47 cm**-1
  10:       251.39 cm**-1
  11:       322.64 cm**-1
  12:       381.54 cm**-1
  13:       440.62 cm**-1
  14:       632.19 cm**-1
  15:       768.52 cm**-1
  16:       785.46 cm**-1
  17:       790.18 cm**-1
  18:       865.36 cm**-1
  19:       892.31 cm**-1
  20:       922.54 cm**-1
  21:       949.26 cm**-1
  22:       968.29 cm**-1
  23:       977.09 cm**-1
  24:      1045.33 cm**-1
  25:      1051.85 cm**-1
  26:      1077.23 cm**-1
  27:      1096.99 cm**-1
  28:      1158.21 cm**-1
  29:      1189.88 cm**-1
  30:      1214.61 cm**-1
  31:      1250.78 cm**-1
  32:      1256.49 cm**-1
  33:      1265.09 cm**-1
  34:      1284.24 cm**-1
  35:      1286.85 cm**-1
  36:      1304.67 cm**-1
  37:      1357.45 cm**-1
  38:      1386.86 cm**-1
  39:      1418.66 cm**-1
  40:      1419.87 cm**-1
  41:      1429.12 cm**-1
  42:      1469.39 cm**-1
  43:      1483.01 cm**-1
  44:      1483.30 cm**-1
  45:      1489.46 cm**-1
  46:      1503.81 cm**-1
  47:      1509.14 cm**-1
  48:      1645.74 cm**-1
  49:      3059.29 cm**-1
  50:      3066.05 cm**-1
  51:      3070.10 cm**-1
  52:      3099.06 cm**-1
  53:      3110.21 cm**-1
  54:      3116.29 cm**-1
  55:      3129.44 cm**-1
  56:      3152.65 cm**-1
  57:      3152.79 cm**-1
  58:      3153.03 cm**-1
  59:      3160.05 cm**-1
  60:      3175.90 cm**-1
  61:      3427.23 cm**-1
  62:      3480.32 cm**-1

IR SPECTRUM
-----------

 Mode    freq (cm**-1)   T**2         TX         TY         TZ
-------------------------------------------------------------------
   6:        76.19    1.893877  ( -0.602998   1.231639   0.115482)
   7:        92.39    1.885350  ( -0.830663   1.045934   0.318387)
   8:       132.95    1.047501  ( -0.825518  -0.213460   0.566089)
   9:       192.47    2.477653  ( -0.179053  -1.548194  -0.220655)
  10:       251.39    0.558817  ( -0.127882   0.700916   0.226229)
  11:       322.64    1.501756  ( -1.085389   0.490902   0.287579)
  12:       381.54    3.564809  ( -1.684237   0.201104  -0.829285)
  13:       440.62    4.722041  ( -0.630721  -0.710648  -1.954280)
  14:       632.19    4.073788  (  0.436501  -1.431334   1.354451)
  15:       768.52    1.624554  ( -0.828157   0.501282   0.829111)
  16:       785.46    9.035227  (  0.527185  -2.586470  -1.437872)
  17:       790.18    2.007566  (  1.164063  -0.733124  -0.339194)
  18:       865.36    5.570464  ( -0.725940  -1.172502  -1.915389)
  19:       892.31    0.465111  (  0.651074  -0.195122   0.056046)
  20:       922.54    8.840175  (  1.576780   0.327650   2.499317)
  21:       949.26    2.492923  (  1.410863  -0.062955  -0.705992)
  22:       968.29    7.454357  ( -1.628072   0.590794  -2.110616)
  23:       977.09    1.498682  ( -0.406482   0.337039   1.104472)
  24:      1045.33   20.221579  (  3.715644   0.675691   2.441108)
  25:      1051.85    6.759647  ( -1.889233  -1.013337  -1.470916)
  26:      1077.23   16.382794  ( -2.505628  -0.796543  -3.077359)
  27:      1096.99    5.798343  ( -1.171208   0.591858  -2.018990)
  28:      1158.21    7.141617  (  2.571409   0.363022  -0.630626)
  29:      1189.88    2.953126  ( -0.867098   1.317782  -0.681701)
  30:      1214.61    0.112649  ( -0.206678  -0.209018  -0.162004)
  31:      1250.78    0.054445  (  0.203930   0.110090   0.027152)
  32:      1256.49    0.433744  (  0.353011   0.045728   0.554109)
  33:      1265.09    2.326654  (  0.857538  -0.052996   1.260347)
  34:      1284.24   19.383448  (  3.100807   0.380233   3.102236)
  35:      1286.85    2.737420  ( -1.106341   0.539481   1.105617)
  36:      1304.67    1.265433  ( -0.784937   0.661943   0.459498)
  37:      1357.45    8.065469  (  1.912132  -1.458174   1.510942)
  38:      1386.86   13.096492  (  0.758374   2.044632   2.888051)
  39:      1418.66   85.048589  (  5.754109  -0.181945   7.204562)
  40:      1419.87    3.764778  ( -1.867303  -0.173724  -0.497772)
  41:      1429.12    1.109183  (  0.033091  -0.984904   0.371553)
  42:      1469.39    7.277768  (  2.422380  -0.060235  -1.185840)
  43:      1483.01   11.857581  ( -1.766018   1.636799  -2.461636)
  44:      1483.30    3.704200  (  1.166598   1.513383  -0.230052)
  45:      1489.46   15.554634  ( -1.371648   3.119727   1.985075)
  46:      1503.81    9.424724  ( -1.025223  -0.930245   2.740125)
  47:      1509.14    5.400999  ( -0.871958  -2.146803  -0.178680)
  48:      1645.74   46.309675  ( -3.288158  -3.933779   4.474715)
  49:      3059.29    2.977699  (  1.192207   0.912701  -0.850480)
  50:      3066.05    7.811974  ( -2.573649   0.980345  -0.476687)
  51:      3070.10   12.167097  (  0.207932   2.054155  -2.811460)
  52:      3099.06    2.801670  ( -0.047218   0.613236  -1.556721)
  53:      3110.21    7.376303  (  0.926840  -0.286196   2.536801)
  54:      3116.29    1.857692  (  0.150645   1.340914   0.192221)
  55:      3129.44    2.927036  ( -0.628584   1.450964   0.653163)
  56:      3152.65    5.518067  ( -1.875044   1.335372  -0.468036)
  57:      3152.79    3.003919  ( -1.527733  -0.275951   0.770586)
  58:      3153.03    4.069159  (  1.266746   0.817432  -1.340269)
  59:      3160.05    2.613213  ( -0.659731   1.318982   0.662007)
  60:      3175.90    4.313420  ( -0.262581  -2.042153  -0.272178)
  61:      3427.23   27.726318  (  3.183632   2.035047  -3.667340)
  62:      3480.32   49.180373  ( -2.677090   5.834605   2.823288)

--------------------------
THERMOCHEMISTRY AT 298.15K
--------------------------

Temperature         ... 298.15 K
Pressure            ... 1.00 atm
Total Mass          ... 100.18 AMU

Throughout the following assumptions are being made:
  (1) The electronic state is orbitally nondegenerate
  (2) There are no thermally accessible electronically excited states
  (3) Hindered rotations indicated by low frequency modes) are not
      treated as such but are treated as vibrations and this may
      case some error
  (4) All equations used are the standard statistical mechanics
      equations for an ideal gas
  (5) All vibrations are strinctly harmonic

------------
INNER ENERGY
------------

The inner energy is: U= E(el) + E(ZPE) + E(vib) + E(rot) + E(trans)
    E(el)   - is the total energy from the electronic structure calculation
              = E(kin-el) + E(nuc-el) + E(el-el) + E(nuc-nuc)
    E(ZPE)  - the the zero temperature vibrational energy from the frequency calculation
    E(vib)  - the the finite temperature correction to E(ZPE) due to population
              of excietd vibrational states
    E(rot)  - is the rotational thermal energy
    E(trans)- is the translational thermal energy

Summary of contributions to the inner energy U:
Electronic energy                ...   -291.31454512 Eh
Zero point energy                ...      0.20018672 Eh     125.62 kcal/mol
Thermal vibrational correction   ...      0.00525382 Eh       3.30 kcal/mol
Thermal rotational correction    ...      0.00141627 Eh       0.89 kcal/mol
Thermal translational correction ...      0.00141627 Eh       0.89 kcal/mol
-----------------------------------------------------------------------
Total thermal energy                   -291.10627203 Eh

Summary of corrections to the electronic energy:
(perhaps to be used in another calculation)
Total thermal correction                  0.00808637 Eh       5.07 kcal/mol
Non-thermal (ZPE) correction              0.20018672 Eh     125.62 kcal/mol
-----------------------------------------------------------------------
Total correction                          0.20827309 Eh     130.69 kcal/mol

--------
ENTHALPY
--------

The enthalpy is H = U + kB*T
                kB is Boltzmann's constant
Total free energy                 ...   -291.10627203 Eh
Thermal Enthalpy correction       ...      0.00094421 Eh       0.59 kcal/mol
-----------------------------------------------------------------------
Total Enthalpy                    ...   -291.10532782 Eh

-------
ENTROPY
-------

The entropy contributions are T*S = T*(S(el)+S(vib)+S(rot)+S(trans)
     S(el)   - electronic entropy
     S(vib)  - vibrational entropy
     S(rot)  - rotational entropy
     S(trans)- translational entropy
The entropies will be listed as mutliplied by the temperature to get
units of energy

Electronic entropy                ...      0.00000000 Eh      0.00 kcal/mol
Vibrational entropy               ...      0.00958307 Eh      6.01 kcal/mol
Rotational entropy                ...      0.01217719 Eh      7.64 kcal/mol
Translational entropy             ...      0.01887386 Eh     11.84 kcal/mol
-----------------------------------------------------------------------
Final entropy term                ...      0.04063413 Eh     25.50 kcal/mol

CAUTION: The rotational entropy is not quite correctly treated here
         because it includes a symmetry number that is not yet correctly
         implemented in ORCA!
For a nonlinear molecule the correct rotational entropy is:
    S(rot) = R*(ln(qrot/sn)+1.5)
    R    = 8.31441 J/mol/K = 1.987191683e-3 kcal/mol/K
    qrot = 267188.3556680
    sn is the rotational symmetry number. We have assumed 3 here
       if it is different for your molecule then you should correct
       the printed rotational entropy by manually evaluating the equation
       as given above

For convenience we print out the resulting values for sn=1 - 12:
 sn= 1  qrot/sn=  267188.3557 T*S(rot)=     8.29 kcal/mol T*S(tot)=    26.15 kcal/mol
 sn= 2  qrot/sn=  133594.1778 T*S(rot)=     7.88 kcal/mol T*S(tot)=    25.74 kcal/mol
 sn= 3  qrot/sn=   89062.7852 T*S(rot)=     7.64 kcal/mol T*S(tot)=    25.50 kcal/mol
 sn= 4  qrot/sn=   66797.0889 T*S(rot)=     7.47 kcal/mol T*S(tot)=    25.33 kcal/mol
 sn= 5  qrot/sn=   53437.6711 T*S(rot)=     7.34 kcal/mol T*S(tot)=    25.20 kcal/mol
 sn= 6  qrot/sn=   44531.3926 T*S(rot)=     7.23 kcal/mol T*S(tot)=    25.09 kcal/mol
 sn= 7  qrot/sn=   38169.7651 T*S(rot)=     7.14 kcal/mol T*S(tot)=    25.00 kcal/mol
 sn= 8  qrot/sn=   33398.5445 T*S(rot)=     7.06 kcal/mol T*S(tot)=    24.92 kcal/mol
 sn= 9  qrot/sn=   29687.5951 T*S(rot)=     6.99 kcal/mol T*S(tot)=    24.85 kcal/mol
 sn=10  qrot/sn=   26718.8356 T*S(rot)=     6.93 kcal/mol T*S(tot)=    24.78 kcal/mol
 sn=11  qrot/sn=   24289.8505 T*S(rot)=     6.87 kcal/mol T*S(tot)=    24.73 kcal/mol
 sn=12  qrot/sn=   22265.6963 T*S(rot)=     6.82 kcal/mol T*S(tot)=    24.68 kcal/mol

-------------------
GIBBS FREE ENTHALPY
-------------------

The Gibbs free enthalpy is G = H - T*S

Total enthalpy                    ...   -291.10532782 Eh
Total entropy correction          ...     -0.04063413 Eh    -25.50 kcal/mol
-----------------------------------------------------------------------
Final Gibbs free enthalpy         ...   -291.14596195 Eh

For completeness - the Gibbs free enthalpy minus the electronic energy
G-E(el)                           ...      0.16858317 Eh    105.79 kcal/mol

                             ****ORCA TERMINATED NORMALLY****
TOTAL RUN TIME: 0 days 0 hours 45 minutes 7 seconds 32 msec
