                         Program Version 3.0.3 - RELEASE   -
|  1> ! NORI PBE0 def2-TZVP UseSym TightOPT Freq TightSCF Grid3 FinalGrid5 XYZFile
|  2> % pal
|  3>     nprocs 8
|  4> end
|  5> %method
|  6>     SymThresh 5.0e-2
|  7> end
|  8> % geom
|  9>     MaxIter 10
| 10> end
| 11> % maxcore 2000
| 12> % output
| 13>     printlevel mini
| 14>     print[ P_Basis ] 0
| 15>     print[ P_SCFInfo ] 1
| 16>     print[ P_SCFIterInfo ] 1
| 17>     print[ P_OrbEn ] 0
| 18>     print[ P_Cartesian ] 0
| 19> end
| 20> % elprop
| 21>     Dipole false
| 22> end
| 23> *xyz 1 1
| 24>  C        2.7559856977    -1.6135615570    -0.0652888679
| 25>  C        2.5331916995    -0.1183270611    -0.0595437730
| 26>  N        3.2084437612     0.4579640873     1.1711064221
| 27>  C        3.0582769952     0.5878944918    -1.2913858222
| 28>  C        3.0252526984     2.1241478499    -1.4267787537
| 29>  C        4.3256710443     2.0136384821    -2.2473423403
| 30>  C        4.5661968105     0.6237917840    -1.6241760782
| 31>  H        2.2281610725    -2.0487591083    -0.9141658376
| 32>  H        2.3719356673    -2.0949583517     0.8375081806
| 33>  H        3.8157898389    -1.8592426225    -0.1749819981
| 34>  H        1.4731573326     0.1154693751     0.0766523715
| 35>  H        4.2134970085     0.2721150638     1.1373248236
| 36>  H        2.8385708159     0.0456843961     2.0284311009
| 37>  H        3.0804327031     1.4711817214     1.2141173505
| 38>  H        2.5207180909     0.1509233134    -2.1373024143
| 39>  H        2.1480746312     2.5732469430    -1.8915995119
| 40>  H        3.2109702640     2.6509043203    -0.4821406933
| 41>  H        4.1139884268     1.9372870667    -3.3144817545
| 42>  H        5.0880440396     2.7754459741    -2.0938581045
| 43>  H        5.2042598710     0.7095223868    -0.7359804241
| 44>  H        4.9702615309    -0.1686385551    -2.2533838756
| 45> *
| 46>
| 47>                          ****END OF INPUT****
 Total Charge           Charge          ....    1
 Multiplicity           Mult            ....    1
 Number of Electrons    NEL             ....   56
FINAL SINGLE POINT ENERGY      -291.312357363788
FINAL SINGLE POINT ENERGY      -291.312359729548
FINAL SINGLE POINT ENERGY      -291.312361133702

CARTESIAN COORDINATES (ANGSTROEM)
---------------------------------
  C      2.201318    0.005726    0.826501
  C      0.811259   -0.586085    0.765827
  N     -0.002304   -0.005986    1.907956
  C      0.089215   -0.328559   -0.539558
  C     -1.381389   -0.743139   -0.753971
  C     -1.528541    0.492573   -1.663063
  C     -0.282597    1.101441   -0.990208
  H      2.815240   -0.447273    0.047612
  H      2.693848   -0.186891    1.782736
  H      2.183708    1.083962    0.646847
  H      0.837336   -1.660769    0.968664
  H     -0.069839    1.009376    1.808607
  H      0.425865   -0.208404    2.812148
  H     -0.952296   -0.382522    1.903712
  H      0.701183   -0.795666   -1.315996
  H     -1.573776   -1.729847   -1.173846
  H     -2.003120   -0.633154    0.143807
  H     -1.330308    0.240610   -2.705251
  H     -2.459005    1.054180   -1.609079
  H     -0.575625    1.754629   -0.158878
  H      0.431564    1.644403   -1.607854

FINAL SINGLE POINT ENERGY      -291.312361439023
                    ***********************HURRAY********************
 Multiplicity           Mult            ....    1
 Number of Electrons    NEL             ....   56
 Basis Dimension        Dim             ....  301
FINAL SINGLE POINT ENERGY      -291.312361546709

VIBRATIONAL FREQUENCIES
-----------------------

   0:         0.00 cm**-1
   1:         0.00 cm**-1
   2:         0.00 cm**-1
   3:         0.00 cm**-1
   4:         0.00 cm**-1
   5:         0.00 cm**-1
   6:        83.37 cm**-1
   7:       137.11 cm**-1
   8:       181.13 cm**-1
   9:       205.31 cm**-1
  10:       245.77 cm**-1
  11:       278.98 cm**-1
  12:       351.04 cm**-1
  13:       444.04 cm**-1
  14:       537.63 cm**-1
  15:       601.63 cm**-1
  16:       742.20 cm**-1
  17:       784.23 cm**-1
  18:       822.51 cm**-1
  19:       907.49 cm**-1
  20:       931.33 cm**-1
  21:       954.46 cm**-1
  22:       958.58 cm**-1
  23:       975.28 cm**-1
  24:       977.69 cm**-1
  25:      1006.51 cm**-1
  26:      1036.11 cm**-1
  27:      1084.61 cm**-1
  28:      1152.89 cm**-1
  29:      1167.67 cm**-1
  30:      1213.70 cm**-1
  31:      1215.87 cm**-1
  32:      1247.52 cm**-1
  33:      1255.19 cm**-1
  34:      1262.34 cm**-1
  35:      1280.01 cm**-1
  36:      1289.08 cm**-1
  37:      1351.89 cm**-1
  38:      1388.24 cm**-1
  39:      1403.98 cm**-1
  40:      1421.10 cm**-1
  41:      1470.39 cm**-1
  42:      1476.91 cm**-1
  43:      1482.16 cm**-1
  44:      1484.85 cm**-1
  45:      1489.13 cm**-1
  46:      1508.34 cm**-1
  47:      1643.30 cm**-1
  48:      1656.72 cm**-1
  49:      3025.99 cm**-1
  50:      3033.06 cm**-1
  51:      3056.20 cm**-1
  52:      3083.96 cm**-1
  53:      3090.92 cm**-1
  54:      3102.46 cm**-1
  55:      3132.55 cm**-1
  56:      3137.81 cm**-1
  57:      3139.70 cm**-1
  58:      3154.92 cm**-1
  59:      3164.69 cm**-1
  60:      3419.57 cm**-1
  61:      3499.49 cm**-1
  62:      3520.02 cm**-1

IR SPECTRUM
-----------

 Mode    freq (cm**-1)   T**2         TX         TY         TZ
-------------------------------------------------------------------
   6:        83.37    3.242777  ( -0.397132  -1.722219   0.344998)
   7:       137.11    5.325987  (  1.119127  -0.557762   1.939702)
   8:       181.13    0.672327  (  0.124723  -0.787921   0.189610)
   9:       205.31    0.279566  (  0.032014   0.443192   0.286569)
  10:       245.77    1.696790  ( -0.419242  -0.979554  -0.749333)
  11:       278.98   21.449345  ( -1.474514   0.513947  -4.360162)
  12:       351.04    5.563528  ( -2.255262  -0.678291   0.131314)
  13:       444.04    1.162090  (  0.929627   0.532061  -0.121633)
  14:       537.63    7.428339  ( -0.003909  -0.415829   2.693587)
  15:       601.63    2.664624  ( -1.027369   1.262208   0.126367)
  16:       742.20    1.294388  (  0.471887   0.193400  -1.017009)
  17:       784.23    0.975216  (  0.692549   0.668520   0.220620)
  18:       822.51    2.482631  (  0.736187   0.458425  -1.315487)
  19:       907.49    1.711158  ( -1.236933   0.368055  -0.213754)
  20:       931.33    8.105290  ( -2.594447  -1.084931  -0.443913)
  21:       954.46    2.894552  ( -0.462958  -0.485460   1.563506)
  22:       958.58    3.030440  ( -0.881636  -1.463329  -0.334403)
  23:       975.28    1.441268  (  0.387107   1.095157  -0.303392)
  24:       977.69   10.366947  ( -1.592964   0.138194  -2.794694)
  25:      1006.51    5.755094  (  0.941217  -0.544562   2.138377)
  26:      1036.11    2.279287  ( -1.047246   0.938908   0.548649)
  27:      1084.61    9.100225  ( -2.462288   0.094040  -1.740263)
  28:      1152.89    7.973387  (  1.927278  -1.469701  -1.448781)
  29:      1167.67    6.043689  (  1.506549  -0.508370   1.874983)
  30:      1213.70   11.618953  ( -1.645606  -1.481271  -2.591673)
  31:      1215.87    1.539950  (  0.514109   1.114583  -0.182609)
  32:      1247.52    1.465749  (  1.185973  -0.228134   0.084686)
  33:      1255.19    0.186395  (  0.115277   0.309417  -0.278150)
  34:      1262.34    0.418734  ( -0.164243   0.280856  -0.559355)
  35:      1280.01    5.689994  ( -1.935376   1.105511  -0.849799)
  36:      1289.08    4.805706  ( -0.083153   1.769749  -1.291038)
  37:      1351.89    2.236966  (  1.292445   0.192765   0.727595)
  38:      1388.24   11.719244  (  1.286874  -1.038820   2.997341)
  39:      1403.98    5.410691  ( -0.456541  -1.092877   2.001969)
  40:      1421.10   31.186893  ( -4.773735  -1.010725   2.716023)
  41:      1470.39    6.213973  (  0.259640   2.242583   1.057063)
  42:      1476.91   54.340738  (  3.529624  -2.583019  -5.933844)
  43:      1482.16    8.885586  ( -1.286496   2.387527   1.237025)
  44:      1484.85  109.297748  ( -3.487913   3.392392   9.253318)
  45:      1489.13   13.073140  ( -0.394134  -0.735077   3.518161)
  46:      1508.34    4.286314  ( -1.442086   1.356252   0.606039)
  47:      1643.30   51.274200  ( -3.094236  -6.273217   1.531880)
  48:      1656.72   53.933864  (  3.779267  -1.694295   6.064682)
  49:      3025.99   27.777116  ( -2.516307  -2.122366   4.115930)
  50:      3033.06   50.176548  ( -0.293657   3.045752   6.388561)
  51:      3056.20    4.666831  ( -0.342934  -1.047162  -1.858139)
  52:      3083.96    2.575232  (  1.033816   0.915107  -0.817945)
  53:      3090.92    3.255168  (  1.130300  -1.333175  -0.447477)
  54:      3102.46    9.835894  (  1.792508  -0.746404   2.462862)
  55:      3132.55    6.959915  (  1.308299  -1.504382   1.727745)
  56:      3137.81   10.114355  (  1.106489   2.325970   1.865449)
  57:      3139.70   10.444533  ( -1.337721  -2.047590   2.112442)
  58:      3154.92    1.305578  ( -0.746375  -0.581596  -0.640506)
  59:      3164.69   10.390696  (  2.494739  -1.592971  -1.276485)
  60:      3419.57   20.755440  (  3.305647  -1.773967  -2.584798)
  61:      3499.49   66.482647  (  4.077487   7.007009  -0.870959)
  62:      3520.02  103.036943  ( -5.803802   2.192935  -8.033920)

--------------------------
THERMOCHEMISTRY AT 298.15K
--------------------------

Temperature         ... 298.15 K
Pressure            ... 1.00 atm
Total Mass          ... 100.18 AMU

Throughout the following assumptions are being made:
  (1) The electronic state is orbitally nondegenerate
  (2) There are no thermally accessible electronically excited states
  (3) Hindered rotations indicated by low frequency modes) are not
      treated as such but are treated as vibrations and this may
      case some error
  (4) All equations used are the standard statistical mechanics
      equations for an ideal gas
  (5) All vibrations are strinctly harmonic

------------
INNER ENERGY
------------

The inner energy is: U= E(el) + E(ZPE) + E(vib) + E(rot) + E(trans)
    E(el)   - is the total energy from the electronic structure calculation
              = E(kin-el) + E(nuc-el) + E(el-el) + E(nuc-nuc)
    E(ZPE)  - the the zero temperature vibrational energy from the frequency calculation
    E(vib)  - the the finite temperature correction to E(ZPE) due to population
              of excietd vibrational states
    E(rot)  - is the rotational thermal energy
    E(trans)- is the translational thermal energy

Summary of contributions to the inner energy U:
Electronic energy                ...   -291.31236155 Eh
Zero point energy                ...      0.19972609 Eh     125.33 kcal/mol
Thermal vibrational correction   ...      0.00531939 Eh       3.34 kcal/mol
Thermal rotational correction    ...      0.00141627 Eh       0.89 kcal/mol
Thermal translational correction ...      0.00141627 Eh       0.89 kcal/mol
-----------------------------------------------------------------------
Total thermal energy                   -291.10448352 Eh

Summary of corrections to the electronic energy:
(perhaps to be used in another calculation)
Total thermal correction                  0.00815193 Eh       5.12 kcal/mol
Non-thermal (ZPE) correction              0.19972609 Eh     125.33 kcal/mol
-----------------------------------------------------------------------
Total correction                          0.20787802 Eh     130.45 kcal/mol

--------
ENTHALPY
--------

The enthalpy is H = U + kB*T
                kB is Boltzmann's constant
Total free energy                 ...   -291.10448352 Eh
Thermal Enthalpy correction       ...      0.00094421 Eh       0.59 kcal/mol
-----------------------------------------------------------------------
Total Enthalpy                    ...   -291.10353931 Eh

-------
ENTROPY
-------

The entropy contributions are T*S = T*(S(el)+S(vib)+S(rot)+S(trans)
     S(el)   - electronic entropy
     S(vib)  - vibrational entropy
     S(rot)  - rotational entropy
     S(trans)- translational entropy
The entropies will be listed as mutliplied by the temperature to get
units of energy

Electronic entropy                ...      0.00000000 Eh      0.00 kcal/mol
Vibrational entropy               ...      0.00923670 Eh      5.80 kcal/mol
Rotational entropy                ...      0.01208875 Eh      7.59 kcal/mol
Translational entropy             ...      0.01887386 Eh     11.84 kcal/mol
-----------------------------------------------------------------------
Final entropy term                ...      0.04019931 Eh     25.23 kcal/mol

CAUTION: The rotational entropy is not quite correctly treated here
         because it includes a symmetry number that is not yet correctly
         implemented in ORCA!
For a nonlinear molecule the correct rotational entropy is:
    S(rot) = R*(ln(qrot/sn)+1.5)
    R    = 8.31441 J/mol/K = 1.987191683e-3 kcal/mol/K
    qrot = 243297.1185378
    sn is the rotational symmetry number. We have assumed 3 here
       if it is different for your molecule then you should correct
       the printed rotational entropy by manually evaluating the equation
       as given above

For convenience we print out the resulting values for sn=1 - 12:
 sn= 1  qrot/sn=  243297.1185 T*S(rot)=     8.24 kcal/mol T*S(tot)=    25.88 kcal/mol
 sn= 2  qrot/sn=  121648.5593 T*S(rot)=     7.83 kcal/mol T*S(tot)=    25.47 kcal/mol
 sn= 3  qrot/sn=   81099.0395 T*S(rot)=     7.59 kcal/mol T*S(tot)=    25.23 kcal/mol
 sn= 4  qrot/sn=   60824.2796 T*S(rot)=     7.42 kcal/mol T*S(tot)=    25.05 kcal/mol
 sn= 5  qrot/sn=   48659.4237 T*S(rot)=     7.28 kcal/mol T*S(tot)=    24.92 kcal/mol
 sn= 6  qrot/sn=   40549.5198 T*S(rot)=     7.18 kcal/mol T*S(tot)=    24.81 kcal/mol
 sn= 7  qrot/sn=   34756.7312 T*S(rot)=     7.08 kcal/mol T*S(tot)=    24.72 kcal/mol
 sn= 8  qrot/sn=   30412.1398 T*S(rot)=     7.00 kcal/mol T*S(tot)=    24.64 kcal/mol
 sn= 9  qrot/sn=   27033.0132 T*S(rot)=     6.93 kcal/mol T*S(tot)=    24.57 kcal/mol
 sn=10  qrot/sn=   24329.7119 T*S(rot)=     6.87 kcal/mol T*S(tot)=    24.51 kcal/mol
 sn=11  qrot/sn=   22117.9199 T*S(rot)=     6.82 kcal/mol T*S(tot)=    24.46 kcal/mol
 sn=12  qrot/sn=   20274.7599 T*S(rot)=     6.76 kcal/mol T*S(tot)=    24.40 kcal/mol

-------------------
GIBBS FREE ENTHALPY
-------------------

The Gibbs free enthalpy is G = H - T*S

Total enthalpy                    ...   -291.10353931 Eh
Total entropy correction          ...     -0.04019931 Eh    -25.23 kcal/mol
-----------------------------------------------------------------------
Final Gibbs free enthalpy         ...   -291.14373863 Eh

For completeness - the Gibbs free enthalpy minus the electronic energy
G-E(el)                           ...      0.16862292 Eh    105.81 kcal/mol

                             ****ORCA TERMINATED NORMALLY****
TOTAL RUN TIME: 0 days 0 hours 50 minutes 32 seconds 219 msec
