                         Program Version 3.0.3 - RELEASE   -
|  1> ! NORI PBE0 def2-TZVP UseSym TightOPT Freq TightSCF Grid3 FinalGrid5 XYZFile
|  2> % pal
|  3>     nprocs 8
|  4> end
|  5> %method
|  6>     SymThresh 5.0e-2
|  7> end
|  8> % geom
|  9>     MaxIter 10
| 10> end
| 11> % maxcore 2000
| 12> % output
| 13>     printlevel mini
| 14>     print[ P_Basis ] 0
| 15>     print[ P_SCFInfo ] 1
| 16>     print[ P_SCFIterInfo ] 1
| 17>     print[ P_OrbEn ] 0
| 18>     print[ P_Cartesian ] 0
| 19> end
| 20> % elprop
| 21>     Dipole false
| 22> end
| 23> *xyz 1 1
| 24>  C        0.9985710399     0.3924634468     0.2250025018
| 25>  C        2.4664054613     0.0941330117     0.0281412143
| 26>  N        2.7130658183    -1.3497209736     0.4609017867
| 27>  C        3.0452661254     0.2272244278    -1.3605028782
| 28>  C        4.5551685332     0.2344602226    -1.3998013283
| 29>  C        2.3130441845    -0.4253223643    -2.5103436738
| 30>  C        2.3286122477     1.0623000670    -2.3782256149
| 31>  H        0.8198049902     1.4549435011     0.0656591066
| 32>  H        0.6839201281     0.1680801614     1.2473686728
| 33>  H        0.3611640835    -0.1667052409    -0.4636743532
| 34>  H        3.0607860930     0.6880832927     0.7285450126
| 35>  H        2.1985479288    -1.9792417401    -0.1590633219
| 36>  H        2.4140466449    -1.5225054150     1.4217554870
| 37>  H        3.7047696301    -1.5815787827     0.3812444895
| 38>  H        4.9098415014     0.3319654461    -2.4262883228
| 39>  H        5.0066164426    -0.6883791037    -1.0130795602
| 40>  H        4.9631141850     1.0723661759    -0.8282272918
| 41>  H        2.9160849536    -0.8862192554    -3.2825208588
| 42>  H        1.3656685307    -0.9241771012    -2.3336047943
| 43>  H        1.4021695059     1.5506607213    -2.1083995280
| 44>  H        2.9491819718     1.6319595026    -3.0578967451
| 45> *
| 46>
| 47>                          ****END OF INPUT****
 Total Charge           Charge          ....    1
 Multiplicity           Mult            ....    1
 Number of Electrons    NEL             ....   56
FINAL SINGLE POINT ENERGY      -291.311880608260
FINAL SINGLE POINT ENERGY      -291.311882686608

CARTESIAN COORDINATES (ANGSTROEM)
---------------------------------
  C      1.985873   -0.003356    0.498325
  C      0.569275   -0.513294    0.623374
  N      0.000967    0.002756    1.944029
  C     -0.427288   -0.136604   -0.447657
  C     -1.697204   -0.953903   -0.419845
  C     -0.531089    1.314377   -0.856538
  C      0.068378    0.313323   -1.788906
  H      2.465779   -0.473279   -0.358851
  H      2.579781   -0.266477    1.377139
  H      2.030896    1.079665    0.361855
  H      0.578888   -1.600811    0.743603
  H     -0.058353    1.023007    1.908967
  H      0.578004   -0.262926    2.743224
  H     -0.944270   -0.355533    2.091066
  H     -2.372871   -0.636266   -1.214361
  H     -2.263556   -0.849508    0.514548
  H     -1.487950   -2.016649   -0.568324
  H     -1.520944    1.697494   -1.070309
  H      0.142198    2.046888   -0.423485
  H      1.132852    0.372664   -1.970643
  H     -0.511259   -0.001051   -2.647264

FINAL SINGLE POINT ENERGY      -291.311883407820
                    ***********************HURRAY********************
 Multiplicity           Mult            ....    1
 Number of Electrons    NEL             ....   56
 Basis Dimension        Dim             ....  301
FINAL SINGLE POINT ENERGY      -291.311883649000

VIBRATIONAL FREQUENCIES
-----------------------

   0:         0.00 cm**-1
   1:         0.00 cm**-1
   2:         0.00 cm**-1
   3:         0.00 cm**-1
   4:         0.00 cm**-1
   5:         0.00 cm**-1
   6:        74.85 cm**-1
   7:       193.19 cm**-1
   8:       206.82 cm**-1
   9:       232.82 cm**-1
  10:       245.54 cm**-1
  11:       279.74 cm**-1
  12:       335.45 cm**-1
  13:       351.05 cm**-1
  14:       393.15 cm**-1
  15:       457.47 cm**-1
  16:       519.08 cm**-1
  17:       670.14 cm**-1
  18:       796.25 cm**-1
  19:       810.07 cm**-1
  20:       893.88 cm**-1
  21:       899.85 cm**-1
  22:       932.05 cm**-1
  23:       937.64 cm**-1
  24:       959.29 cm**-1
  25:       977.40 cm**-1
  26:      1039.83 cm**-1
  27:      1062.95 cm**-1
  28:      1092.42 cm**-1
  29:      1102.83 cm**-1
  30:      1108.45 cm**-1
  31:      1152.45 cm**-1
  32:      1192.78 cm**-1
  33:      1203.97 cm**-1
  34:      1275.53 cm**-1
  35:      1360.59 cm**-1
  36:      1387.52 cm**-1
  37:      1396.38 cm**-1
  38:      1422.72 cm**-1
  39:      1427.47 cm**-1
  40:      1458.79 cm**-1
  41:      1472.15 cm**-1
  42:      1477.83 cm**-1
  43:      1486.14 cm**-1
  44:      1495.17 cm**-1
  45:      1497.91 cm**-1
  46:      1514.45 cm**-1
  47:      1641.96 cm**-1
  48:      1656.61 cm**-1
  49:      3022.67 cm**-1
  50:      3062.28 cm**-1
  51:      3081.41 cm**-1
  52:      3097.73 cm**-1
  53:      3133.77 cm**-1
  54:      3143.49 cm**-1
  55:      3146.80 cm**-1
  56:      3165.25 cm**-1
  57:      3171.67 cm**-1
  58:      3232.02 cm**-1
  59:      3258.24 cm**-1
  60:      3419.82 cm**-1
  61:      3504.47 cm**-1
  62:      3520.07 cm**-1

IR SPECTRUM
-----------

 Mode    freq (cm**-1)   T**2         TX         TY         TZ
-------------------------------------------------------------------
   6:        74.85    4.892710  ( -0.274373  -2.149544   0.443720)
   7:       193.19    0.732471  (  0.437714  -0.387670   0.624972)
   8:       206.82    0.194276  (  0.175638  -0.048945   0.401287)
   9:       232.82    2.267314  ( -0.580887   0.411881  -1.326740)
  10:       245.54   13.321309  (  2.039565  -0.113733   3.024656)
  11:       279.74    1.096788  ( -0.453480  -0.943722  -0.023065)
  12:       335.45    3.756310  (  1.805240   0.605322   0.361947)
  13:       351.05    2.373714  (  0.840118  -0.028179   1.291171)
  14:       393.15    2.695584  ( -1.446852  -0.282218   0.722881)
  15:       457.47    3.325213  (  0.132941   1.383830   1.180065)
  16:       519.08    4.884831  (  0.502186   0.179836  -2.144831)
  17:       670.14    5.674227  (  0.466725  -1.415028   1.858518)
  18:       796.25    0.435213  ( -0.172245   0.319342  -0.550968)
  19:       810.07    3.327556  ( -1.134628  -0.083909   1.425880)
  20:       893.88    7.077612  ( -0.577825   0.502648   2.547759)
  21:       899.85    4.499798  (  1.077076  -1.078534   1.475286)
  22:       932.05    8.652611  ( -2.902502  -0.432831  -0.201869)
  23:       937.64    9.645545  (  0.032256   2.078335  -2.307602)
  24:       959.29    4.804748  (  0.960554   1.273968  -1.503027)
  25:       977.40    6.516992  (  1.707755   1.724787   0.790998)
  26:      1039.83    4.377732  ( -0.934902  -1.850386  -0.282420)
  27:      1062.95   12.346700  ( -0.021434   1.365037  -3.237733)
  28:      1092.42    7.833932  ( -1.829894   1.569045   1.422504)
  29:      1102.83    4.901118  (  0.228067  -0.991065  -1.966442)
  30:      1108.45    9.524807  (  1.878334  -1.741362   1.721722)
  31:      1152.45    8.682052  ( -2.077428   0.816753  -1.923346)
  32:      1192.78    1.708954  ( -1.146685   0.191367  -0.597867)
  33:      1203.97   17.324626  ( -2.878424  -0.725789  -2.917624)
  34:      1275.53    1.422037  (  0.302202  -0.884313   0.740744)
  35:      1360.59    9.842574  (  0.359750  -1.041476   2.937428)
  36:      1387.52    9.304765  ( -0.245069  -1.666017   2.543441)
  37:      1396.38   11.991049  ( -0.037078  -1.533363   3.104589)
  38:      1422.72   27.836581  ( -5.104921  -0.633098   1.172836)
  39:      1427.47   14.768322  ( -0.939716   0.901896   3.615500)
  40:      1458.79    1.157576  (  0.405459  -0.386400   0.918626)
  41:      1472.15  115.042506  (  1.281048  -2.193990 -10.420548)
  42:      1477.83    4.178849  (  1.849282  -0.813214   0.312548)
  43:      1486.14   23.589769  ( -2.197982   3.553262   2.476485)
  44:      1495.17   69.335310  ( -2.889700   4.213816   6.574853)
  45:      1497.91    3.312973  ( -0.652112   1.662839  -0.350273)
  46:      1514.45    2.218933  ( -0.426113  -1.426774   0.040946)
  47:      1641.96   39.586717  (  3.961767   4.817840  -0.824342)
  48:      1656.61   40.089568  (  3.331305  -3.602248   4.001973)
  49:      3022.67   31.664643  (  2.730728   1.271810  -4.752922)
  50:      3062.28    3.558609  (  0.613915   0.785469   1.601485)
  51:      3081.41    3.822274  (  0.342116   1.783394  -0.724387)
  52:      3097.73   12.785386  ( -0.675834   2.254999   2.691397)
  53:      3133.77    7.464665  (  1.173405  -1.608823   1.870688)
  54:      3143.49    4.583086  ( -0.692752  -1.299442  -1.553908)
  55:      3146.80    4.041043  (  0.458025  -1.801867   0.764547)
  56:      3165.25    1.222130  (  1.009579   0.445289  -0.067811)
  57:      3171.67    0.878543  ( -0.519306   0.413207   0.661910)
  58:      3232.02    1.197645  ( -0.783612  -0.409457  -0.644936)
  59:      3258.24    0.782454  ( -0.862080  -0.195371   0.033202)
  60:      3419.82   23.085982  ( -2.386466   1.666908   3.822588)
  61:      3504.47   71.633501  (  3.764104   7.390540  -1.686693)
  62:      3520.07   85.664834  ( -7.207257   1.937345  -5.474210)

--------------------------
THERMOCHEMISTRY AT 298.15K
--------------------------

Temperature         ... 298.15 K
Pressure            ... 1.00 atm
Total Mass          ... 100.18 AMU

Throughout the following assumptions are being made:
  (1) The electronic state is orbitally nondegenerate
  (2) There are no thermally accessible electronically excited states
  (3) Hindered rotations indicated by low frequency modes) are not
      treated as such but are treated as vibrations and this may
      case some error
  (4) All equations used are the standard statistical mechanics
      equations for an ideal gas
  (5) All vibrations are strinctly harmonic

------------
INNER ENERGY
------------

The inner energy is: U= E(el) + E(ZPE) + E(vib) + E(rot) + E(trans)
    E(el)   - is the total energy from the electronic structure calculation
              = E(kin-el) + E(nuc-el) + E(el-el) + E(nuc-nuc)
    E(ZPE)  - the the zero temperature vibrational energy from the frequency calculation
    E(vib)  - the the finite temperature correction to E(ZPE) due to population
              of excietd vibrational states
    E(rot)  - is the rotational thermal energy
    E(trans)- is the translational thermal energy

Summary of contributions to the inner energy U:
Electronic energy                ...   -291.31188365 Eh
Zero point energy                ...      0.19831978 Eh     124.45 kcal/mol
Thermal vibrational correction   ...      0.00572562 Eh       3.59 kcal/mol
Thermal rotational correction    ...      0.00141627 Eh       0.89 kcal/mol
Thermal translational correction ...      0.00141627 Eh       0.89 kcal/mol
-----------------------------------------------------------------------
Total thermal energy                   -291.10500571 Eh

Summary of corrections to the electronic energy:
(perhaps to be used in another calculation)
Total thermal correction                  0.00855816 Eh       5.37 kcal/mol
Non-thermal (ZPE) correction              0.19831978 Eh     124.45 kcal/mol
-----------------------------------------------------------------------
Total correction                          0.20687794 Eh     129.82 kcal/mol

--------
ENTHALPY
--------

The enthalpy is H = U + kB*T
                kB is Boltzmann's constant
Total free energy                 ...   -291.10500571 Eh
Thermal Enthalpy correction       ...      0.00094421 Eh       0.59 kcal/mol
-----------------------------------------------------------------------
Total Enthalpy                    ...   -291.10406150 Eh

-------
ENTROPY
-------

The entropy contributions are T*S = T*(S(el)+S(vib)+S(rot)+S(trans)
     S(el)   - electronic entropy
     S(vib)  - vibrational entropy
     S(rot)  - rotational entropy
     S(trans)- translational entropy
The entropies will be listed as mutliplied by the temperature to get
units of energy

Electronic entropy                ...      0.00000000 Eh      0.00 kcal/mol
Vibrational entropy               ...      0.00969225 Eh      6.08 kcal/mol
Rotational entropy                ...      0.01204965 Eh      7.56 kcal/mol
Translational entropy             ...      0.01887386 Eh     11.84 kcal/mol
-----------------------------------------------------------------------
Final entropy term                ...      0.04061575 Eh     25.49 kcal/mol

CAUTION: The rotational entropy is not quite correctly treated here
         because it includes a symmetry number that is not yet correctly
         implemented in ORCA!
For a nonlinear molecule the correct rotational entropy is:
    S(rot) = R*(ln(qrot/sn)+1.5)
    R    = 8.31441 J/mol/K = 1.987191683e-3 kcal/mol/K
    qrot = 233426.3026733
    sn is the rotational symmetry number. We have assumed 3 here
       if it is different for your molecule then you should correct
       the printed rotational entropy by manually evaluating the equation
       as given above

For convenience we print out the resulting values for sn=1 - 12:
 sn= 1  qrot/sn=  233426.3027 T*S(rot)=     8.21 kcal/mol T*S(tot)=    26.14 kcal/mol
 sn= 2  qrot/sn=  116713.1513 T*S(rot)=     7.80 kcal/mol T*S(tot)=    25.73 kcal/mol
 sn= 3  qrot/sn=   77808.7676 T*S(rot)=     7.56 kcal/mol T*S(tot)=    25.49 kcal/mol
 sn= 4  qrot/sn=   58356.5757 T*S(rot)=     7.39 kcal/mol T*S(tot)=    25.32 kcal/mol
 sn= 5  qrot/sn=   46685.2605 T*S(rot)=     7.26 kcal/mol T*S(tot)=    25.18 kcal/mol
 sn= 6  qrot/sn=   38904.3838 T*S(rot)=     7.15 kcal/mol T*S(tot)=    25.08 kcal/mol
 sn= 7  qrot/sn=   33346.6147 T*S(rot)=     7.06 kcal/mol T*S(tot)=    24.98 kcal/mol
 sn= 8  qrot/sn=   29178.2878 T*S(rot)=     6.98 kcal/mol T*S(tot)=    24.91 kcal/mol
 sn= 9  qrot/sn=   25936.2559 T*S(rot)=     6.91 kcal/mol T*S(tot)=    24.84 kcal/mol
 sn=10  qrot/sn=   23342.6303 T*S(rot)=     6.85 kcal/mol T*S(tot)=    24.77 kcal/mol
 sn=11  qrot/sn=   21220.5730 T*S(rot)=     6.79 kcal/mol T*S(tot)=    24.72 kcal/mol
 sn=12  qrot/sn=   19452.1919 T*S(rot)=     6.74 kcal/mol T*S(tot)=    24.67 kcal/mol

-------------------
GIBBS FREE ENTHALPY
-------------------

The Gibbs free enthalpy is G = H - T*S

Total enthalpy                    ...   -291.10406150 Eh
Total entropy correction          ...     -0.04061575 Eh    -25.49 kcal/mol
-----------------------------------------------------------------------
Final Gibbs free enthalpy         ...   -291.14467725 Eh

For completeness - the Gibbs free enthalpy minus the electronic energy
G-E(el)                           ...      0.16720640 Eh    104.92 kcal/mol

                             ****ORCA TERMINATED NORMALLY****
TOTAL RUN TIME: 0 days 0 hours 53 minutes 40 seconds 941 msec
