                         Program Version 3.0.3 - RELEASE   -
|  1> ! NORI PBE0 def2-TZVP UseSym TightOPT Freq TightSCF Grid3 FinalGrid5 XYZFile
|  2> % pal
|  3>     nprocs 8
|  4> end
|  5> %method
|  6>     SymThresh 5.0e-2
|  7> end
|  8> % geom
|  9>     MaxIter 10
| 10> end
| 11> % maxcore 2000
| 12> % output
| 13>     printlevel mini
| 14>     print[ P_Basis ] 0
| 15>     print[ P_SCFInfo ] 1
| 16>     print[ P_SCFIterInfo ] 1
| 17>     print[ P_OrbEn ] 0
| 18>     print[ P_Cartesian ] 0
| 19> end
| 20> % elprop
| 21>     Dipole false
| 22> end
| 23> *xyz 1 1
| 24>  C        1.3028309527    -2.7146369784    -0.3146210593
| 25>  C        2.7892530953    -2.9631507665    -0.3884074419
| 26>  N        3.5547001208    -1.7727977070     0.1129623953
| 27>  C        5.0381112591    -1.8409203218    -0.0085055901
| 28>  C        5.6496816600    -2.9277999418     0.8218586375
| 29>  C        5.5808241005    -1.4560277792    -1.3438570024
| 30>  C        5.7084536062    -0.5167967219    -0.1790077608
| 31>  H        0.7757462595    -3.5948411801    -0.6846014414
| 32>  H        0.9983595920    -1.8680699043    -0.9351877685
| 33>  H        0.9667916768    -2.5409645022     0.7103850676
| 34>  H        3.1323111178    -3.1358434551    -1.4086984611
| 35>  H        3.0908933452    -3.8111173117     0.2244522110
| 36>  H        3.3121238638    -1.6118027299     1.0942808817
| 37>  H        3.2249527185    -0.9465448106    -0.3903312972
| 38>  H        6.7356455978    -2.8555733186     0.7564380421
| 39>  H        5.3703458188    -3.9252983133     0.4770666631
| 40>  H        5.3826977053    -2.8288458830     1.8787028243
| 41>  H        6.4592202064    -1.9864164288    -1.6877867152
| 42>  H        4.8919571902    -1.1840394963    -2.1360549043
| 43>  H        5.1046446889     0.3848019308    -0.1906449134
| 44>  H        6.6740554243    -0.3924643804     0.2926576329
| 45> *
| 46>
| 47>                          ****END OF INPUT****
 Total Charge           Charge          ....    1
 Multiplicity           Mult            ....    1
 Number of Electrons    NEL             ....   56
FINAL SINGLE POINT ENERGY      -291.310478180031
FINAL SINGLE POINT ENERGY      -291.310479482068

CARTESIAN COORDINATES (ANGSTROEM)
---------------------------------
  C      2.039171   -0.002369    2.151828
  C      1.481385    0.244813    0.771492
  N     -0.000066    0.002162    0.744782
  C     -0.662378    0.096892   -0.586687
  C     -0.601412    1.471557   -1.180414
  C     -0.581005   -1.136698   -1.421358
  C     -1.869326   -0.769207   -0.743124
  H      3.113699    0.182919    2.140483
  H      1.890008   -1.036110    2.473700
  H      1.600951    0.666661    2.896359
  H      1.911333   -0.421715    0.023199
  H      1.637764    1.272833    0.447401
  H     -0.454742    0.657928    1.386131
  H     -0.177792   -0.927605    1.130659
  H     -1.184578    1.485851   -2.100907
  H      0.416148    1.771937   -1.436983
  H     -1.035651    2.220538   -0.511264
  H     -0.493401   -0.999526   -2.491288
  H     -0.041575   -1.997723   -1.041847
  H     -2.192339   -1.382876    0.091143
  H     -2.682256   -0.373519   -1.337771

FINAL SINGLE POINT ENERGY      -291.310480083305
                    ***********************HURRAY********************
 Multiplicity           Mult            ....    1
 Number of Electrons    NEL             ....   56
 Basis Dimension        Dim             ....  301
FINAL SINGLE POINT ENERGY      -291.310480369088

VIBRATIONAL FREQUENCIES
-----------------------

   0:         0.00 cm**-1
   1:         0.00 cm**-1
   2:         0.00 cm**-1
   3:         0.00 cm**-1
   4:         0.00 cm**-1
   5:         0.00 cm**-1
   6:        72.35 cm**-1
   7:        93.16 cm**-1
   8:       178.80 cm**-1
   9:       223.15 cm**-1
  10:       250.71 cm**-1
  11:       300.50 cm**-1
  12:       330.08 cm**-1
  13:       361.83 cm**-1
  14:       399.30 cm**-1
  15:       471.65 cm**-1
  16:       724.44 cm**-1
  17:       770.84 cm**-1
  18:       785.40 cm**-1
  19:       864.48 cm**-1
  20:       875.51 cm**-1
  21:       904.29 cm**-1
  22:       945.40 cm**-1
  23:       958.56 cm**-1
  24:       964.95 cm**-1
  25:      1044.12 cm**-1
  26:      1047.70 cm**-1
  27:      1072.75 cm**-1
  28:      1103.82 cm**-1
  29:      1111.47 cm**-1
  30:      1132.58 cm**-1
  31:      1177.68 cm**-1
  32:      1187.19 cm**-1
  33:      1267.89 cm**-1
  34:      1286.28 cm**-1
  35:      1344.31 cm**-1
  36:      1368.63 cm**-1
  37:      1411.88 cm**-1
  38:      1418.94 cm**-1
  39:      1425.02 cm**-1
  40:      1450.44 cm**-1
  41:      1466.32 cm**-1
  42:      1477.86 cm**-1
  43:      1483.90 cm**-1
  44:      1488.46 cm**-1
  45:      1491.52 cm**-1
  46:      1505.82 cm**-1
  47:      1522.51 cm**-1
  48:      1639.90 cm**-1
  49:      3055.27 cm**-1
  50:      3057.93 cm**-1
  51:      3107.88 cm**-1
  52:      3128.43 cm**-1
  53:      3130.53 cm**-1
  54:      3151.11 cm**-1
  55:      3154.07 cm**-1
  56:      3154.46 cm**-1
  57:      3157.79 cm**-1
  58:      3170.44 cm**-1
  59:      3239.30 cm**-1
  60:      3250.04 cm**-1
  61:      3421.51 cm**-1
  62:      3477.17 cm**-1

IR SPECTRUM
-----------

 Mode    freq (cm**-1)   T**2         TX         TY         TZ
-------------------------------------------------------------------
   6:        72.35    0.423858  ( -0.163376   0.606776   0.170264)
   7:        93.16    2.699988  ( -0.446543   1.572953   0.162497)
   8:       178.80    1.730135  ( -1.220884  -0.202960   0.445404)
   9:       223.15    0.165644  (  0.187143  -0.336544   0.131757)
  10:       250.71    0.345171  ( -0.223749   0.542019  -0.036379)
  11:       300.50    1.430459  (  0.081627  -0.041828   1.192496)
  12:       330.08    0.257126  (  0.344877  -0.134987   0.346360)
  13:       361.83    3.173038  (  0.503370   1.478860   0.855939)
  14:       399.30    8.411936  (  2.253970  -0.602377   1.722990)
  15:       471.65    3.454230  ( -1.712675   0.566470   0.447308)
  16:       724.44    3.611199  (  1.320105   1.345137   0.243162)
  17:       770.84    2.041828  ( -0.177189  -1.401535  -0.214783)
  18:       785.40    7.538175  ( -0.547419   2.662665   0.385646)
  19:       864.48    1.074574  ( -0.066239   0.535997  -0.884812)
  20:       875.51    2.787675  (  0.149285   1.648454   0.219063)
  21:       904.29    1.933432  ( -1.008814   0.819763   0.493673)
  22:       945.40    1.657047  (  0.213320   1.197728  -0.420702)
  23:       958.56    6.521022  (  1.000190   1.898979   1.383663)
  24:       964.95    0.825414  ( -0.263101   0.211041  -0.843596)
  25:      1044.12   13.228152  (  2.300164   2.462462   1.368823)
  26:      1047.70   10.369084  ( -3.077850   0.266694  -0.908183)
  27:      1072.75    9.416704  (  1.259405   2.176045   1.759384)
  28:      1103.82    3.205425  ( -1.759683   0.278819   0.176638)
  29:      1111.47    7.033398  (  1.917576   0.492574   1.764559)
  30:      1132.58   15.355522  (  3.219846   1.722609   1.421525)
  31:      1177.68    5.890024  (  1.854156  -1.171832  -1.038720)
  32:      1187.19    0.887876  (  0.746920  -0.474975  -0.323085)
  33:      1267.89    4.775253  (  0.973820   0.292830   1.934212)
  34:      1286.28   13.779416  (  1.960008  -0.686765   3.076709)
  35:      1344.31   24.383660  ( -4.027053   1.399661  -2.491476)
  36:      1368.63    9.371239  (  1.822775   0.595323   2.386278)
  37:      1411.88   20.253499  (  3.968269   1.442087   1.557795)
  38:      1418.94   40.945583  ( -4.745309   1.879008  -3.859657)
  39:      1425.02   11.829404  ( -1.764245   0.648963  -2.880224)
  40:      1450.44    7.088419  ( -2.478214  -0.722444   0.651881)
  41:      1466.32   10.318409  (  1.518091  -0.941950  -2.669558)
  42:      1477.86    2.353638  ( -1.157440   0.561986   0.835549)
  43:      1483.90    8.835189  (  2.906577   0.376479   0.495237)
  44:      1488.46   17.837803  ( -0.523044   3.387340   2.467824)
  45:      1491.52    4.561708  ( -0.235846   1.581226  -1.416265)
  46:      1505.82   10.418987  ( -0.545981  -0.373294   3.159358)
  47:      1522.51    8.900755  ( -0.830703  -2.861220   0.155256)
  48:      1639.90   52.086813  ( -2.731643  -2.176848   6.315558)
  49:      3055.27    6.863793  (  0.759926   2.147126   1.294665)
  50:      3057.93    3.456366  ( -1.211159  -0.657981   1.247606)
  51:      3107.88    1.900197  ( -0.263541   0.539626  -1.240785)
  52:      3128.43    2.539787  (  0.618789   1.468547  -0.016013)
  53:      3130.53    6.822782  (  1.841569  -1.294458  -1.325060)
  54:      3151.11    0.535967  (  0.221398  -0.091929  -0.691736)
  55:      3154.07    1.148775  (  0.045279  -0.078073   1.068003)
  56:      3154.46    3.675857  (  1.307812   0.221335   1.384375)
  57:      3157.79    1.169843  ( -0.583745  -0.810161   0.415601)
  58:      3170.44    1.765354  ( -0.053995  -1.327496  -0.013858)
  59:      3239.30    0.220857  (  0.425808  -0.042359  -0.194295)
  60:      3250.04    0.102658  (  0.107763   0.025932   0.300620)
  61:      3421.51   26.139280  ( -3.110532   0.293002   4.046977)
  62:      3477.17   41.108487  ( -0.924870   6.344415   0.038730)

--------------------------
THERMOCHEMISTRY AT 298.15K
--------------------------

Temperature         ... 298.15 K
Pressure            ... 1.00 atm
Total Mass          ... 100.18 AMU

Throughout the following assumptions are being made:
  (1) The electronic state is orbitally nondegenerate
  (2) There are no thermally accessible electronically excited states
  (3) Hindered rotations indicated by low frequency modes) are not
      treated as such but are treated as vibrations and this may
      case some error
  (4) All equations used are the standard statistical mechanics
      equations for an ideal gas
  (5) All vibrations are strinctly harmonic

------------
INNER ENERGY
------------

The inner energy is: U= E(el) + E(ZPE) + E(vib) + E(rot) + E(trans)
    E(el)   - is the total energy from the electronic structure calculation
              = E(kin-el) + E(nuc-el) + E(el-el) + E(nuc-nuc)
    E(ZPE)  - the the zero temperature vibrational energy from the frequency calculation
    E(vib)  - the the finite temperature correction to E(ZPE) due to population
              of excietd vibrational states
    E(rot)  - is the rotational thermal energy
    E(trans)- is the translational thermal energy

Summary of contributions to the inner energy U:
Electronic energy                ...   -291.31048037 Eh
Zero point energy                ...      0.19833344 Eh     124.46 kcal/mol
Thermal vibrational correction   ...      0.00573175 Eh       3.60 kcal/mol
Thermal rotational correction    ...      0.00141627 Eh       0.89 kcal/mol
Thermal translational correction ...      0.00141627 Eh       0.89 kcal/mol
-----------------------------------------------------------------------
Total thermal energy                   -291.10358264 Eh

Summary of corrections to the electronic energy:
(perhaps to be used in another calculation)
Total thermal correction                  0.00856429 Eh       5.37 kcal/mol
Non-thermal (ZPE) correction              0.19833344 Eh     124.46 kcal/mol
-----------------------------------------------------------------------
Total correction                          0.20689773 Eh     129.83 kcal/mol

--------
ENTHALPY
--------

The enthalpy is H = U + kB*T
                kB is Boltzmann's constant
Total free energy                 ...   -291.10358264 Eh
Thermal Enthalpy correction       ...      0.00094421 Eh       0.59 kcal/mol
-----------------------------------------------------------------------
Total Enthalpy                    ...   -291.10263843 Eh

-------
ENTROPY
-------

The entropy contributions are T*S = T*(S(el)+S(vib)+S(rot)+S(trans)
     S(el)   - electronic entropy
     S(vib)  - vibrational entropy
     S(rot)  - rotational entropy
     S(trans)- translational entropy
The entropies will be listed as mutliplied by the temperature to get
units of energy

Electronic entropy                ...      0.00000000 Eh      0.00 kcal/mol
Vibrational entropy               ...      0.01018405 Eh      6.39 kcal/mol
Rotational entropy                ...      0.01220087 Eh      7.66 kcal/mol
Translational entropy             ...      0.01887386 Eh     11.84 kcal/mol
-----------------------------------------------------------------------
Final entropy term                ...      0.04125878 Eh     25.89 kcal/mol

CAUTION: The rotational entropy is not quite correctly treated here
         because it includes a symmetry number that is not yet correctly
         implemented in ORCA!
For a nonlinear molecule the correct rotational entropy is:
    S(rot) = R*(ln(qrot/sn)+1.5)
    R    = 8.31441 J/mol/K = 1.987191683e-3 kcal/mol/K
    qrot = 273974.2010395
    sn is the rotational symmetry number. We have assumed 3 here
       if it is different for your molecule then you should correct
       the printed rotational entropy by manually evaluating the equation
       as given above

For convenience we print out the resulting values for sn=1 - 12:
 sn= 1  qrot/sn=  273974.2010 T*S(rot)=     8.31 kcal/mol T*S(tot)=    26.54 kcal/mol
 sn= 2  qrot/sn=  136987.1005 T*S(rot)=     7.90 kcal/mol T*S(tot)=    26.13 kcal/mol
 sn= 3  qrot/sn=   91324.7337 T*S(rot)=     7.66 kcal/mol T*S(tot)=    25.89 kcal/mol
 sn= 4  qrot/sn=   68493.5503 T*S(rot)=     7.49 kcal/mol T*S(tot)=    25.72 kcal/mol
 sn= 5  qrot/sn=   54794.8402 T*S(rot)=     7.35 kcal/mol T*S(tot)=    25.59 kcal/mol
 sn= 6  qrot/sn=   45662.3668 T*S(rot)=     7.25 kcal/mol T*S(tot)=    25.48 kcal/mol
 sn= 7  qrot/sn=   39139.1716 T*S(rot)=     7.15 kcal/mol T*S(tot)=    25.39 kcal/mol
 sn= 8  qrot/sn=   34246.7751 T*S(rot)=     7.08 kcal/mol T*S(tot)=    25.31 kcal/mol
 sn= 9  qrot/sn=   30441.5779 T*S(rot)=     7.01 kcal/mol T*S(tot)=    25.24 kcal/mol
 sn=10  qrot/sn=   27397.4201 T*S(rot)=     6.94 kcal/mol T*S(tot)=    25.18 kcal/mol
 sn=11  qrot/sn=   24906.7455 T*S(rot)=     6.89 kcal/mol T*S(tot)=    25.12 kcal/mol
 sn=12  qrot/sn=   22831.1834 T*S(rot)=     6.83 kcal/mol T*S(tot)=    25.07 kcal/mol

-------------------
GIBBS FREE ENTHALPY
-------------------

The Gibbs free enthalpy is G = H - T*S

Total enthalpy                    ...   -291.10263843 Eh
Total entropy correction          ...     -0.04125878 Eh    -25.89 kcal/mol
-----------------------------------------------------------------------
Final Gibbs free enthalpy         ...   -291.14389721 Eh

For completeness - the Gibbs free enthalpy minus the electronic energy
G-E(el)                           ...      0.16658316 Eh    104.53 kcal/mol

                             ****ORCA TERMINATED NORMALLY****
TOTAL RUN TIME: 0 days 0 hours 47 minutes 35 seconds 211 msec
