                         Program Version 3.0.3 - RELEASE   -
|  1> ! NORI PBE0 def2-TZVP UseSym TightOPT Freq TightSCF Grid3 FinalGrid5 XYZFile
|  2> % pal
|  3>     nprocs 8
|  4> end
|  5> %method
|  6>     SymThresh 5.0e-2
|  7> end
|  8> % geom
|  9>     MaxIter 10
| 10> end
| 11> % maxcore 2000
| 12> % output
| 13>     printlevel mini
| 14>     print[ P_Basis ] 0
| 15>     print[ P_SCFInfo ] 1
| 16>     print[ P_SCFIterInfo ] 1
| 17>     print[ P_OrbEn ] 0
| 18>     print[ P_Cartesian ] 0
| 19> end
| 20> % elprop
| 21>     Dipole false
| 22> end
| 23> *xyz 1 1
| 24>  C        1.1343436120    -0.2913694768     0.1709031628
| 25>  C        2.6042997943     0.0168497704     0.0246274036
| 26>  N        3.0385032050    -0.0790974264    -1.4043445565
| 27>  C        4.4958990357     0.1938537304    -1.6631498912
| 28>  C        4.7801513140     0.1466031662    -3.1255634444
| 29>  C        4.4174610813     1.3288226575    -3.9880353611
| 30>  C        5.8477620989     1.0365208131    -3.6876723749
| 31>  H        0.8554565558    -0.2105438828     1.2219858059
| 32>  H        0.8969931182    -1.3076093849    -0.1524904276
| 33>  H        0.5126502675     0.4118411467    -0.3876565126
| 34>  H        2.8460616346     1.0285468097     0.3530719968
| 35>  H        3.2282131426    -0.6805818576     0.5850815976
| 36>  H        2.8122911172    -1.0101336831    -1.7607025450
| 37>  H        2.4926546766     0.5696164073    -1.9766573321
| 38>  H        4.7035682635     1.1800504519    -1.2437710415
| 39>  H        5.0570666038    -0.5502678557    -1.0948370565
| 40>  H        4.6961019215    -0.8369540658    -3.5790509701
| 41>  H        4.0457597811     1.1315014418    -4.9846566260
| 42>  H        3.9785276535     2.1995741981    -3.5114120203
| 43>  H        6.3695472618     1.6971905203    -3.0060116895
| 44>  H        6.4666278612     0.6262765198    -4.4740281173
| 45> *
| 46>
| 47>                          ****END OF INPUT****
 Total Charge           Charge          ....    1
 Multiplicity           Mult            ....    1
 Number of Electrons    NEL             ....   56
FINAL SINGLE POINT ENERGY      -291.310952158304
FINAL SINGLE POINT ENERGY      -291.310954407075
FINAL SINGLE POINT ENERGY      -291.310955730593

CARTESIAN COORDINATES (ANGSTROEM)
---------------------------------
  C      0.887429   -0.001848    3.246999
  C      0.715329   -0.794641    1.974599
  N     -0.002373    0.002754    0.930390
  C     -0.242390   -0.704509   -0.376317
  C     -0.884204    0.216202   -1.357274
  C     -0.039987    1.241550   -2.071727
  C     -0.564622    0.059477   -2.813372
  H      1.414418   -0.613726    3.979870
  H     -0.073170    0.278070    3.685919
  H      1.480894    0.901492    3.087631
  H      1.672501   -1.083563    1.538020
  H      0.126352   -1.699445    2.131575
  H     -0.900954    0.313869    1.305538
  H      0.518888    0.860107    0.730543
  H      0.734097   -1.046471   -0.724252
  H     -0.855073   -1.578935   -0.148530
  H     -1.906415    0.498137   -1.122824
  H     -0.480310    2.211008   -2.264080
  H      1.025421    1.266673   -1.866882
  H      0.137697   -0.714100   -3.098539
  H     -1.374882    0.208167   -3.514170

FINAL SINGLE POINT ENERGY      -291.310955964914
                    ***********************HURRAY********************
 Multiplicity           Mult            ....    1
 Number of Electrons    NEL             ....   56
 Basis Dimension        Dim             ....  301
FINAL SINGLE POINT ENERGY      -291.310956100292

VIBRATIONAL FREQUENCIES
-----------------------

   0:         0.00 cm**-1
   1:         0.00 cm**-1
   2:         0.00 cm**-1
   3:         0.00 cm**-1
   4:         0.00 cm**-1
   5:         0.00 cm**-1
   6:        65.34 cm**-1
   7:        74.44 cm**-1
   8:       124.23 cm**-1
   9:       147.63 cm**-1
  10:       249.90 cm**-1
  11:       281.99 cm**-1
  12:       316.55 cm**-1
  13:       414.07 cm**-1
  14:       470.11 cm**-1
  15:       777.49 cm**-1
  16:       787.20 cm**-1
  17:       808.81 cm**-1
  18:       844.03 cm**-1
  19:       850.43 cm**-1
  20:       890.11 cm**-1
  21:       932.53 cm**-1
  22:       967.16 cm**-1
  23:       986.20 cm**-1
  24:      1019.97 cm**-1
  25:      1053.05 cm**-1
  26:      1065.06 cm**-1
  27:      1095.84 cm**-1
  28:      1102.35 cm**-1
  29:      1130.64 cm**-1
  30:      1149.29 cm**-1
  31:      1199.12 cm**-1
  32:      1228.08 cm**-1
  33:      1243.08 cm**-1
  34:      1259.98 cm**-1
  35:      1315.14 cm**-1
  36:      1358.95 cm**-1
  37:      1390.08 cm**-1
  38:      1392.27 cm**-1
  39:      1420.12 cm**-1
  40:      1424.70 cm**-1
  41:      1442.51 cm**-1
  42:      1465.33 cm**-1
  43:      1481.41 cm**-1
  44:      1488.38 cm**-1
  45:      1489.22 cm**-1
  46:      1506.55 cm**-1
  47:      1513.35 cm**-1
  48:      1654.76 cm**-1
  49:      3059.98 cm**-1
  50:      3087.51 cm**-1
  51:      3097.16 cm**-1
  52:      3129.32 cm**-1
  53:      3142.42 cm**-1
  54:      3145.27 cm**-1
  55:      3153.95 cm**-1
  56:      3157.62 cm**-1
  57:      3165.39 cm**-1
  58:      3165.91 cm**-1
  59:      3238.72 cm**-1
  60:      3257.39 cm**-1
  61:      3431.46 cm**-1
  62:      3482.51 cm**-1

IR SPECTRUM
-----------

 Mode    freq (cm**-1)   T**2         TX         TY         TZ
-------------------------------------------------------------------
   6:        65.34    1.954253  (  1.204406   0.570469   0.422166)
   7:        74.44    1.495897  (  1.212294   0.131733  -0.094272)
   8:       124.23    3.098690  (  1.137227  -0.447239  -1.267037)
   9:       147.63    4.657908  (  1.385932   1.235195  -1.100634)
  10:       249.90    0.700126  (  0.820327   0.114804  -0.118362)
  11:       281.99    3.258617  ( -0.624225   1.274371  -1.115768)
  12:       316.55    0.242716  ( -0.168114   0.287612  -0.362951)
  13:       414.07    0.377685  ( -0.399117  -0.171560   0.434692)
  14:       470.11   10.791692  ( -1.217911  -0.722269  -2.964239)
  15:       777.49   15.028246  ( -3.277228  -1.254985   1.647131)
  16:       787.20    1.785883  ( -0.318212  -0.713067   1.084509)
  17:       808.81    5.340648  (  0.991160   0.531116  -2.018952)
  18:       844.03    6.942662  ( -0.920308  -1.687549  -1.802186)
  19:       850.43    2.921485  ( -0.666928  -0.158537   1.565745)
  20:       890.11    3.601530  (  0.944458   0.849273   1.410058)
  21:       932.53    0.371533  (  0.193008   0.348197  -0.461562)
  22:       967.16    6.614386  (  1.471035   2.071939  -0.396872)
  23:       986.20   57.931041  ( -1.638981   0.826753  -7.386560)
  24:      1019.97    4.940796  ( -0.690584  -0.840434   1.938443)
  25:      1053.05    7.176544  ( -2.174725   0.896715  -1.281802)
  26:      1065.06   10.807413  (  1.383091   0.886809  -2.847462)
  27:      1095.84    1.583786  (  0.499472  -0.946718   0.661845)
  28:      1102.35    5.771007  (  1.177563   1.539319   1.419453)
  29:      1130.64    7.575857  (  1.166981  -0.420747   2.457027)
  30:      1149.29    7.232463  ( -0.852462   1.979577  -1.608429)
  31:      1199.12    0.477769  ( -0.453528  -0.394905  -0.340780)
  32:      1228.08    0.787988  ( -0.624407   0.548116   0.312526)
  33:      1243.08    6.783622  (  0.600000   0.382052  -2.505526)
  34:      1259.98    1.023531  (  0.589858   0.744142   0.349072)
  35:      1315.14   15.348962  ( -1.759830  -0.606627  -3.447312)
  36:      1358.95    7.894854  ( -2.438467  -1.353673   0.341032)
  37:      1390.08   14.530804  (  0.173823  -0.541515   3.769264)
  38:      1392.27    4.735116  (  1.703106   0.067504   1.352771)
  39:      1420.12  119.844289  (  2.959331  -0.750193  10.513033)
  40:      1424.70    4.103755  (  0.134580   1.317793   1.532666)
  41:      1442.51    7.184189  (  0.185837   1.196489  -2.391248)
  42:      1465.33    9.556145  (  0.846222   2.305997   1.876814)
  43:      1481.41    8.127805  ( -1.532115   1.210820  -2.077100)
  44:      1488.38    1.364107  (  0.904655  -0.581677   0.455367)
  45:      1489.22   15.769872  ( -3.432170  -1.434473   1.390097)
  46:      1506.55   13.481858  ( -0.896911   3.470743   0.794576)
  47:      1513.35    5.501286  ( -1.548127   1.541428   0.853573)
  48:      1654.76   36.980117  ( -1.447415   5.825801   0.972191)
  49:      3059.98    3.053518  ( -0.701075   1.597726  -0.096351)
  50:      3087.51    3.788565  ( -0.572362   1.256972  -1.371492)
  51:      3097.16    3.569158  ( -0.269015   1.626621   0.922438)
  52:      3129.32    2.683755  (  1.423358   0.607469  -0.537389)
  53:      3142.42    0.492297  ( -0.265351   0.461085  -0.457478)
  54:      3145.27    4.645494  ( -1.708541  -0.662206  -1.134842)
  55:      3153.95    0.787872  (  0.189582  -0.746159  -0.441790)
  56:      3157.62    3.029550  (  1.502225   0.652815  -0.588815)
  57:      3165.39    3.494672  ( -1.321924   0.560934   1.196889)
  58:      3165.91    1.264287  (  0.499863   0.813825  -0.593391)
  59:      3238.72    0.489777  ( -0.589342   0.063090  -0.372119)
  60:      3257.39    0.170580  ( -0.343819   0.228831   0.002141)
  61:      3431.46   26.734590  (  1.366360  -4.979285  -0.272711)
  62:      3482.51   53.645593  ( -6.213632  -1.805363   3.431768)

--------------------------
THERMOCHEMISTRY AT 298.15K
--------------------------

Temperature         ... 298.15 K
Pressure            ... 1.00 atm
Total Mass          ... 100.18 AMU

Throughout the following assumptions are being made:
  (1) The electronic state is orbitally nondegenerate
  (2) There are no thermally accessible electronically excited states
  (3) Hindered rotations indicated by low frequency modes) are not
      treated as such but are treated as vibrations and this may
      case some error
  (4) All equations used are the standard statistical mechanics
      equations for an ideal gas
  (5) All vibrations are strinctly harmonic

------------
INNER ENERGY
------------

The inner energy is: U= E(el) + E(ZPE) + E(vib) + E(rot) + E(trans)
    E(el)   - is the total energy from the electronic structure calculation
              = E(kin-el) + E(nuc-el) + E(el-el) + E(nuc-nuc)
    E(ZPE)  - the the zero temperature vibrational energy from the frequency calculation
    E(vib)  - the the finite temperature correction to E(ZPE) due to population
              of excietd vibrational states
    E(rot)  - is the rotational thermal energy
    E(trans)- is the translational thermal energy

Summary of contributions to the inner energy U:
Electronic energy                ...   -291.31095610 Eh
Zero point energy                ...      0.19954943 Eh     125.22 kcal/mol
Thermal vibrational correction   ...      0.00568919 Eh       3.57 kcal/mol
Thermal rotational correction    ...      0.00141627 Eh       0.89 kcal/mol
Thermal translational correction ...      0.00141627 Eh       0.89 kcal/mol
-----------------------------------------------------------------------
Total thermal energy                   -291.10288493 Eh

Summary of corrections to the electronic energy:
(perhaps to be used in another calculation)
Total thermal correction                  0.00852174 Eh       5.35 kcal/mol
Non-thermal (ZPE) correction              0.19954943 Eh     125.22 kcal/mol
-----------------------------------------------------------------------
Total correction                          0.20807117 Eh     130.57 kcal/mol

--------
ENTHALPY
--------

The enthalpy is H = U + kB*T
                kB is Boltzmann's constant
Total free energy                 ...   -291.10288493 Eh
Thermal Enthalpy correction       ...      0.00094421 Eh       0.59 kcal/mol
-----------------------------------------------------------------------
Total Enthalpy                    ...   -291.10194072 Eh

-------
ENTROPY
-------

The entropy contributions are T*S = T*(S(el)+S(vib)+S(rot)+S(trans)
     S(el)   - electronic entropy
     S(vib)  - vibrational entropy
     S(rot)  - rotational entropy
     S(trans)- translational entropy
The entropies will be listed as mutliplied by the temperature to get
units of energy

Electronic entropy                ...      0.00000000 Eh      0.00 kcal/mol
Vibrational entropy               ...      0.01072493 Eh      6.73 kcal/mol
Rotational entropy                ...      0.01228314 Eh      7.71 kcal/mol
Translational entropy             ...      0.01887386 Eh     11.84 kcal/mol
-----------------------------------------------------------------------
Final entropy term                ...      0.04188193 Eh     26.28 kcal/mol

CAUTION: The rotational entropy is not quite correctly treated here
         because it includes a symmetry number that is not yet correctly
         implemented in ORCA!
For a nonlinear molecule the correct rotational entropy is:
    S(rot) = R*(ln(qrot/sn)+1.5)
    R    = 8.31441 J/mol/K = 1.987191683e-3 kcal/mol/K
    qrot = 298917.3688027
    sn is the rotational symmetry number. We have assumed 3 here
       if it is different for your molecule then you should correct
       the printed rotational entropy by manually evaluating the equation
       as given above

For convenience we print out the resulting values for sn=1 - 12:
 sn= 1  qrot/sn=  298917.3688 T*S(rot)=     8.36 kcal/mol T*S(tot)=    26.93 kcal/mol
 sn= 2  qrot/sn=  149458.6844 T*S(rot)=     7.95 kcal/mol T*S(tot)=    26.52 kcal/mol
 sn= 3  qrot/sn=   99639.1229 T*S(rot)=     7.71 kcal/mol T*S(tot)=    26.28 kcal/mol
 sn= 4  qrot/sn=   74729.3422 T*S(rot)=     7.54 kcal/mol T*S(tot)=    26.11 kcal/mol
 sn= 5  qrot/sn=   59783.4738 T*S(rot)=     7.41 kcal/mol T*S(tot)=    25.98 kcal/mol
 sn= 6  qrot/sn=   49819.5615 T*S(rot)=     7.30 kcal/mol T*S(tot)=    25.87 kcal/mol
 sn= 7  qrot/sn=   42702.4813 T*S(rot)=     7.21 kcal/mol T*S(tot)=    25.78 kcal/mol
 sn= 8  qrot/sn=   37364.6711 T*S(rot)=     7.13 kcal/mol T*S(tot)=    25.70 kcal/mol
 sn= 9  qrot/sn=   33213.0410 T*S(rot)=     7.06 kcal/mol T*S(tot)=    25.63 kcal/mol
 sn=10  qrot/sn=   29891.7369 T*S(rot)=     6.99 kcal/mol T*S(tot)=    25.57 kcal/mol
 sn=11  qrot/sn=   27174.3063 T*S(rot)=     6.94 kcal/mol T*S(tot)=    25.51 kcal/mol
 sn=12  qrot/sn=   24909.7807 T*S(rot)=     6.89 kcal/mol T*S(tot)=    25.46 kcal/mol

-------------------
GIBBS FREE ENTHALPY
-------------------

The Gibbs free enthalpy is G = H - T*S

Total enthalpy                    ...   -291.10194072 Eh
Total entropy correction          ...     -0.04188193 Eh    -26.28 kcal/mol
-----------------------------------------------------------------------
Final Gibbs free enthalpy         ...   -291.14382265 Eh

For completeness - the Gibbs free enthalpy minus the electronic energy
G-E(el)                           ...      0.16713345 Eh    104.88 kcal/mol

                             ****ORCA TERMINATED NORMALLY****
TOTAL RUN TIME: 0 days 0 hours 45 minutes 24 seconds 963 msec
