                         Program Version 3.0.3 - RELEASE   -
|  1> ! NORI PBE0 def2-TZVP UseSym TightOPT Freq TightSCF Grid3 FinalGrid5 XYZFile
|  2> % pal
|  3>     nprocs 8
|  4> end
|  5> %method
|  6>     SymThresh 5.0e-2
|  7> end
|  8> % geom
|  9>     MaxIter 10
| 10> end
| 11> % maxcore 2000
| 12> % output
| 13>     printlevel mini
| 14>     print[ P_Basis ] 0
| 15>     print[ P_SCFInfo ] 1
| 16>     print[ P_SCFIterInfo ] 1
| 17>     print[ P_OrbEn ] 0
| 18>     print[ P_Cartesian ] 0
| 19> end
| 20> % elprop
| 21>     Dipole false
| 22> end
| 23> *xyz 1 1
| 24>  C        2.8580565653     0.2217567905     1.4901373051
| 25>  C        2.5561472593     0.0319918677     0.0229936379
| 26>  N        1.0517204726    -0.1318771107    -0.1345746569
| 27>  C        3.0000765441     1.1660798624    -0.8879674797
| 28>  C        4.4982336912     1.2833512868    -0.9714976079
| 29>  C        5.1071182757     2.5638955579    -1.4525962546
| 30>  C        5.2621407508     2.1623062452    -0.0220942648
| 31>  H        3.9366836340     0.3020635173     1.6194140455
| 32>  H        2.5135922646    -0.6211281709     2.0945154882
| 33>  H        2.4115218472     1.1429848170     1.8752216726
| 34>  H        2.9716478115    -0.9149012766    -0.3335599635
| 35>  H        0.5694826848     0.7156974651     0.1737994737
| 36>  H        0.6984671016    -0.9105631350     0.4248457879
| 37>  H        0.7972907950    -0.2959832283    -1.1105323833
| 38>  H        2.5970292894     0.9976097230    -1.8961076324
| 39>  H        2.5782537773     2.1127643045    -0.5273534702
| 40>  H        4.9978069127     0.3744662117    -1.2944625778
| 41>  H        4.4393616854     3.3876897008    -1.6756378389
| 42>  H        5.9697155132     2.5000055717    -2.1021586255
| 43>  H        4.7045822208     2.7242617751     0.7185893825
| 44>  H        6.2334109034     1.8236782249     0.3143059622
| 45> *
| 46>
| 47>                          ****END OF INPUT****
 Total Charge           Charge          ....    1
 Multiplicity           Mult            ....    1
 Number of Electrons    NEL             ....   56
FINAL SINGLE POINT ENERGY      -291.308959429603
FINAL SINGLE POINT ENERGY      -291.308961361279
FINAL SINGLE POINT ENERGY      -291.308963195430

CARTESIAN COORDINATES (ANGSTROEM)
---------------------------------
  C      1.768892   -0.008746    0.904755
  C      0.349065   -0.433926    1.193585
  N      0.000343    0.005378    2.608620
  C     -0.705956    0.132280    0.255670
  C     -0.574452   -0.401019   -1.145461
  C     -1.231274    0.332982   -2.273445
  C      0.258903    0.314524   -2.170454
  H      2.040625   -0.347253   -0.094287
  H      2.481227   -0.446238    1.608610
  H      1.872662    1.080078    0.922565
  H      0.274167   -1.524645    1.221480
  H      0.042444    1.024455    2.682854
  H      0.652549   -0.382666    3.292698
  H     -0.945353   -0.285517    2.864268
  H     -1.703436   -0.117695    0.642490
  H     -0.632384    1.227080    0.237950
  H     -0.596730   -1.485012   -1.213689
  H     -1.741975    1.260578   -2.043705
  H     -1.702182   -0.253984   -3.050702
  H      0.751425    1.234567   -1.877453
  H      0.816066   -0.282417   -2.881160

FINAL SINGLE POINT ENERGY      -291.308963447627
                    ***********************HURRAY********************
 Multiplicity           Mult            ....    1
 Number of Electrons    NEL             ....   56
 Basis Dimension        Dim             ....  301
FINAL SINGLE POINT ENERGY      -291.308963588726

VIBRATIONAL FREQUENCIES
-----------------------

   0:         0.00 cm**-1
   1:         0.00 cm**-1
   2:         0.00 cm**-1
   3:         0.00 cm**-1
   4:         0.00 cm**-1
   5:         0.00 cm**-1
   6:        71.62 cm**-1
   7:       107.84 cm**-1
   8:       163.83 cm**-1
   9:       208.22 cm**-1
  10:       253.13 cm**-1
  11:       301.60 cm**-1
  12:       319.77 cm**-1
  13:       389.52 cm**-1
  14:       435.79 cm**-1
  15:       452.96 cm**-1
  16:       782.50 cm**-1
  17:       801.32 cm**-1
  18:       822.18 cm**-1
  19:       849.47 cm**-1
  20:       888.31 cm**-1
  21:       913.56 cm**-1
  22:       945.52 cm**-1
  23:       959.69 cm**-1
  24:       967.13 cm**-1
  25:      1003.70 cm**-1
  26:      1059.65 cm**-1
  27:      1088.39 cm**-1
  28:      1094.98 cm**-1
  29:      1107.10 cm**-1
  30:      1135.47 cm**-1
  31:      1198.35 cm**-1
  32:      1212.39 cm**-1
  33:      1224.46 cm**-1
  34:      1246.13 cm**-1
  35:      1280.61 cm**-1
  36:      1333.60 cm**-1
  37:      1386.33 cm**-1
  38:      1395.61 cm**-1
  39:      1421.17 cm**-1
  40:      1427.92 cm**-1
  41:      1461.57 cm**-1
  42:      1467.72 cm**-1
  43:      1483.79 cm**-1
  44:      1488.12 cm**-1
  45:      1496.05 cm**-1
  46:      1514.37 cm**-1
  47:      1652.00 cm**-1
  48:      1657.46 cm**-1
  49:      3012.31 cm**-1
  50:      3053.57 cm**-1
  51:      3057.92 cm**-1
  52:      3091.64 cm**-1
  53:      3129.32 cm**-1
  54:      3151.07 cm**-1
  55:      3155.80 cm**-1
  56:      3159.32 cm**-1
  57:      3165.35 cm**-1
  58:      3235.67 cm**-1
  59:      3250.71 cm**-1
  60:      3418.12 cm**-1
  61:      3503.92 cm**-1
  62:      3512.83 cm**-1

IR SPECTRUM
-----------

 Mode    freq (cm**-1)   T**2         TX         TY         TZ
-------------------------------------------------------------------
   6:        71.62    2.909566  ( -0.179444  -1.689905   0.146919)
   7:       107.84    1.202453  (  0.597951   0.706815  -0.587640)
   8:       163.83    2.366834  ( -0.926335   1.073691  -0.596596)
   9:       208.22    0.187466  (  0.391432  -0.185019   0.003826)
  10:       253.13    1.392062  (  0.113467  -0.955809   0.682361)
  11:       301.60    3.165645  ( -0.271625   0.169523   1.750179)
  12:       319.77    7.245315  ( -2.403209  -0.301660  -1.174267)
  13:       389.52    2.850698  (  1.668440  -0.180913   0.185137)
  14:       435.79    2.744601  (  0.652758   1.083053  -1.070282)
  15:       452.96    3.508129  ( -0.345002  -0.105879   1.837904)
  16:       782.50    1.894839  (  0.022815   0.347506  -1.331750)
  17:       801.32    3.616057  ( -0.934963  -1.119850   1.219769)
  18:       822.18    2.328407  (  0.718951   1.253138  -0.491082)
  19:       849.47   13.592760  ( -2.560428   1.256272  -2.336397)
  20:       888.31    2.319357  (  0.546579  -0.911710   1.090593)
  21:       913.56    3.654446  (  0.414532  -0.184582  -1.857024)
  22:       945.52   16.136063  ( -2.981030  -1.379708   2.312126)
  23:       959.69    0.873281  (  0.224927   0.542417   0.726961)
  24:       967.13    5.797722  ( -2.238018  -0.534816  -0.709204)
  25:      1003.70   26.618712  (  1.119680  -2.307941   4.476431)
  26:      1059.65    5.666200  ( -0.267211  -1.782128   1.555255)
  27:      1088.39    4.243528  (  0.551752   1.713136   1.002129)
  28:      1094.98    3.469597  ( -1.709292   0.640313  -0.371372)
  29:      1107.10   14.857754  ( -1.370571   0.568079   3.557608)
  30:      1135.47    3.428126  (  0.741734   0.012493   1.696408)
  31:      1198.35    0.533752  (  0.661398   0.303732  -0.063647)
  32:      1212.39   11.325692  ( -2.576324  -1.134551  -1.844191)
  33:      1224.46    7.092925  (  1.850401  -0.923347   1.678205)
  34:      1246.13    4.061253  ( -0.687841   0.940849  -1.644059)
  35:      1280.61    4.001869  (  1.181593  -1.088476   1.192027)
  36:      1333.60    3.972680  (  0.352800   1.626146  -1.097206)
  37:      1386.33    6.457470  (  0.649533  -0.445167   2.416072)
  38:      1395.61    6.450728  ( -0.264269   0.515972  -2.472784)
  39:      1421.17   31.231098  (  4.762477   0.026556  -2.923903)
  40:      1427.92    3.714912  ( -0.170829   1.055644   1.603541)
  41:      1461.57    4.312306  (  1.692821  -0.349915   1.150749)
  42:      1467.72    5.558323  (  1.929239  -0.336111  -1.312780)
  43:      1483.79   26.420505  ( -0.356072  -1.314639   4.956354)
  44:      1488.12   25.434743  (  2.421514  -2.872036  -3.364881)
  45:      1496.05  122.404446  (  1.401080  -3.567018 -10.378719)
  46:      1514.37    4.767847  ( -0.412831   2.067626   0.567750)
  47:      1652.00   55.849511  (  0.919242   6.922822  -2.660648)
  48:      1657.46   35.287725  (  5.698299  -0.322178   1.647212)
  49:      3012.31   25.986719  ( -2.959058   1.167719   3.983356)
  50:      3053.57    6.166630  ( -1.110034  -1.115822  -1.920780)
  51:      3057.92    7.431826  ( -1.649481  -1.836906   1.156206)
  52:      3091.64    4.446836  ( -1.335287  -1.628799   0.104197)
  53:      3129.32    8.600360  ( -1.241886   2.166494  -1.537655)
  54:      3151.07    6.812970  (  2.348614   1.101181   0.290489)
  55:      3155.80    6.953725  ( -0.279432   2.511407  -0.753975)
  56:      3159.32    1.815057  (  1.049654  -0.843749   0.037027)
  57:      3165.35    0.462604  ( -0.533452  -0.344320   0.243878)
  58:      3235.67    0.542111  (  0.126131   0.522082   0.503620)
  59:      3250.71    2.452256  ( -0.025671  -1.298476  -0.874961)
  60:      3418.12   37.505197  ( -1.264149   1.398147   5.826861)
  61:      3503.92   75.260902  (  1.838057   8.101795  -2.498673)
  62:      3512.83   77.853752  ( -8.331759   1.167264  -2.659519)

--------------------------
THERMOCHEMISTRY AT 298.15K
--------------------------

Temperature         ... 298.15 K
Pressure            ... 1.00 atm
Total Mass          ... 100.18 AMU

Throughout the following assumptions are being made:
  (1) The electronic state is orbitally nondegenerate
  (2) There are no thermally accessible electronically excited states
  (3) Hindered rotations indicated by low frequency modes) are not
      treated as such but are treated as vibrations and this may
      case some error
  (4) All equations used are the standard statistical mechanics
      equations for an ideal gas
  (5) All vibrations are strinctly harmonic

------------
INNER ENERGY
------------

The inner energy is: U= E(el) + E(ZPE) + E(vib) + E(rot) + E(trans)
    E(el)   - is the total energy from the electronic structure calculation
              = E(kin-el) + E(nuc-el) + E(el-el) + E(nuc-nuc)
    E(ZPE)  - the the zero temperature vibrational energy from the frequency calculation
    E(vib)  - the the finite temperature correction to E(ZPE) due to population
              of excietd vibrational states
    E(rot)  - is the rotational thermal energy
    E(trans)- is the translational thermal energy

Summary of contributions to the inner energy U:
Electronic energy                ...   -291.30896359 Eh
Zero point energy                ...      0.19904006 Eh     124.90 kcal/mol
Thermal vibrational correction   ...      0.00568080 Eh       3.56 kcal/mol
Thermal rotational correction    ...      0.00141627 Eh       0.89 kcal/mol
Thermal translational correction ...      0.00141627 Eh       0.89 kcal/mol
-----------------------------------------------------------------------
Total thermal energy                   -291.10141019 Eh

Summary of corrections to the electronic energy:
(perhaps to be used in another calculation)
Total thermal correction                  0.00851334 Eh       5.34 kcal/mol
Non-thermal (ZPE) correction              0.19904006 Eh     124.90 kcal/mol
-----------------------------------------------------------------------
Total correction                          0.20755340 Eh     130.24 kcal/mol

--------
ENTHALPY
--------

The enthalpy is H = U + kB*T
                kB is Boltzmann's constant
Total free energy                 ...   -291.10141019 Eh
Thermal Enthalpy correction       ...      0.00094421 Eh       0.59 kcal/mol
-----------------------------------------------------------------------
Total Enthalpy                    ...   -291.10046598 Eh

-------
ENTROPY
-------

The entropy contributions are T*S = T*(S(el)+S(vib)+S(rot)+S(trans)
     S(el)   - electronic entropy
     S(vib)  - vibrational entropy
     S(rot)  - rotational entropy
     S(trans)- translational entropy
The entropies will be listed as mutliplied by the temperature to get
units of energy

Electronic entropy                ...      0.00000000 Eh      0.00 kcal/mol
Vibrational entropy               ...      0.01007772 Eh      6.32 kcal/mol
Rotational entropy                ...      0.01222839 Eh      7.67 kcal/mol
Translational entropy             ...      0.01887386 Eh     11.84 kcal/mol
-----------------------------------------------------------------------
Final entropy term                ...      0.04117996 Eh     25.84 kcal/mol

CAUTION: The rotational entropy is not quite correctly treated here
         because it includes a symmetry number that is not yet correctly
         implemented in ORCA!
For a nonlinear molecule the correct rotational entropy is:
    S(rot) = R*(ln(qrot/sn)+1.5)
    R    = 8.31441 J/mol/K = 1.987191683e-3 kcal/mol/K
    qrot = 282074.9626393
    sn is the rotational symmetry number. We have assumed 3 here
       if it is different for your molecule then you should correct
       the printed rotational entropy by manually evaluating the equation
       as given above

For convenience we print out the resulting values for sn=1 - 12:
 sn= 1  qrot/sn=  282074.9626 T*S(rot)=     8.32 kcal/mol T*S(tot)=    26.49 kcal/mol
 sn= 2  qrot/sn=  141037.4813 T*S(rot)=     7.91 kcal/mol T*S(tot)=    26.08 kcal/mol
 sn= 3  qrot/sn=   94024.9875 T*S(rot)=     7.67 kcal/mol T*S(tot)=    25.84 kcal/mol
 sn= 4  qrot/sn=   70518.7407 T*S(rot)=     7.50 kcal/mol T*S(tot)=    25.67 kcal/mol
 sn= 5  qrot/sn=   56414.9925 T*S(rot)=     7.37 kcal/mol T*S(tot)=    25.54 kcal/mol
 sn= 6  qrot/sn=   47012.4938 T*S(rot)=     7.26 kcal/mol T*S(tot)=    25.43 kcal/mol
 sn= 7  qrot/sn=   40296.4232 T*S(rot)=     7.17 kcal/mol T*S(tot)=    25.34 kcal/mol
 sn= 8  qrot/sn=   35259.3703 T*S(rot)=     7.09 kcal/mol T*S(tot)=    25.26 kcal/mol
 sn= 9  qrot/sn=   31341.6625 T*S(rot)=     7.02 kcal/mol T*S(tot)=    25.19 kcal/mol
 sn=10  qrot/sn=   28207.4963 T*S(rot)=     6.96 kcal/mol T*S(tot)=    25.13 kcal/mol
 sn=11  qrot/sn=   25643.1784 T*S(rot)=     6.90 kcal/mol T*S(tot)=    25.07 kcal/mol
 sn=12  qrot/sn=   23506.2469 T*S(rot)=     6.85 kcal/mol T*S(tot)=    25.02 kcal/mol

-------------------
GIBBS FREE ENTHALPY
-------------------

The Gibbs free enthalpy is G = H - T*S

Total enthalpy                    ...   -291.10046598 Eh
Total entropy correction          ...     -0.04117996 Eh    -25.84 kcal/mol
-----------------------------------------------------------------------
Final Gibbs free enthalpy         ...   -291.14164595 Eh

For completeness - the Gibbs free enthalpy minus the electronic energy
G-E(el)                           ...      0.16731764 Eh    104.99 kcal/mol

                             ****ORCA TERMINATED NORMALLY****
TOTAL RUN TIME: 0 days 0 hours 49 minutes 2 seconds 81 msec
