                         Program Version 3.0.3 - RELEASE   -
|  1> ! NORI PBE0 def2-TZVP UseSym TightOPT Freq TightSCF Grid3 FinalGrid5 XYZFile
|  2> % pal
|  3>     nprocs 8
|  4> end
|  5> %method
|  6>     SymThresh 5.0e-2
|  7> end
|  8> % geom
|  9>     MaxIter 10
| 10> end
| 11> % maxcore 2000
| 12> % output
| 13>     printlevel mini
| 14>     print[ P_Basis ] 0
| 15>     print[ P_SCFInfo ] 1
| 16>     print[ P_SCFIterInfo ] 1
| 17>     print[ P_OrbEn ] 0
| 18>     print[ P_Cartesian ] 0
| 19> end
| 20> % elprop
| 21>     Dipole false
| 22> end
| 23> *xyz 1 1
| 24>  C        2.5889985745     1.1139051227     1.2392851406
| 25>  C        2.3292397378     0.8647516249    -0.2249302484
| 26>  N        3.1466543861    -0.2638452708    -0.7993194507
| 27>  C        2.6872070515    -0.5991918019    -2.1756714818
| 28>  C        4.5997936238     0.0049615508    -0.7761840923
| 29>  C        5.4199668968    -0.4182205152     0.3928272692
| 30>  C        5.5450063131    -1.1389200133    -0.9133605491
| 31>  H        1.9044728733     1.8932607334     1.5776746185
| 32>  H        3.6041100377     1.4578772646     1.4315003126
| 33>  H        2.3914015747     0.2265347979     1.8458945162
| 34>  H        1.2860748016     0.5948565338    -0.3995164759
| 35>  H        2.5564272716     1.7394750757    -0.8371053369
| 36>  H        2.9816583870    -1.0814128720    -0.2083590205
| 37>  H        2.8419422239     0.2720773591    -2.8099328273
| 38>  H        1.6297739832    -0.8561148860    -2.1468912490
| 39>  H        3.2722899265    -1.4358070635    -2.5498387238
| 40>  H        4.8199937965     0.9399373297    -1.2771528630
| 41>  H        6.2113255566     0.2484891447     0.7091840879
| 42>  H        4.9321249587    -0.9437593267     1.2055733389
| 43>  H        6.4246518245    -0.9845000902    -1.5242571131
| 44>  H        5.1393262007    -2.1433046978    -0.9650898519
| 45> *
| 46>
| 47>                          ****END OF INPUT****
 Total Charge           Charge          ....    1
 Multiplicity           Mult            ....    1
 Number of Electrons    NEL             ....   56
FINAL SINGLE POINT ENERGY      -291.300206181011
FINAL SINGLE POINT ENERGY      -291.300208137395

CARTESIAN COORDINATES (ANGSTROEM)
---------------------------------
  C      2.345743   -0.000954   -0.230345
  C      1.380660    0.598044    0.761219
  N     -0.001005   -0.001313    0.696057
  C     -0.834963    0.475168    1.833781
  C     -0.675314    0.246419   -0.595352
  C     -0.538802   -0.733044   -1.709399
  C     -1.836936   -0.606774   -0.974203
  H      3.327559    0.443250   -0.059776
  H      2.064165    0.202248   -1.262434
  H      2.452897   -1.080181   -0.094780
  H      1.723044    0.446175    1.786133
  H      1.247077    1.670263    0.607100
  H      0.107479   -1.013520    0.791296
  H     -0.939882    1.555780    1.752362
  H     -0.342490    0.219355    2.770274
  H     -1.813691    0.004618    1.777232
  H     -0.700902    1.307735   -0.811736
  H     -0.455254   -0.334156   -2.711955
  H      0.042675   -1.631876   -1.539920
  H     -2.674957   -0.119211   -1.454358
  H     -2.115172   -1.423055   -0.316563

FINAL SINGLE POINT ENERGY      -291.300208836571
                    ***********************HURRAY********************
 Multiplicity           Mult            ....    1
 Number of Electrons    NEL             ....   56
 Basis Dimension        Dim             ....  301
FINAL SINGLE POINT ENERGY      -291.300209011281

VIBRATIONAL FREQUENCIES
-----------------------

   0:         0.00 cm**-1
   1:         0.00 cm**-1
   2:         0.00 cm**-1
   3:         0.00 cm**-1
   4:         0.00 cm**-1
   5:         0.00 cm**-1
   6:        80.88 cm**-1
   7:       115.10 cm**-1
   8:       200.62 cm**-1
   9:       216.23 cm**-1
  10:       243.49 cm**-1
  11:       278.56 cm**-1
  12:       322.15 cm**-1
  13:       384.31 cm**-1
  14:       453.02 cm**-1
  15:       513.88 cm**-1
  16:       733.63 cm**-1
  17:       788.15 cm**-1
  18:       826.49 cm**-1
  19:       838.49 cm**-1
  20:       872.75 cm**-1
  21:       970.28 cm**-1
  22:       990.69 cm**-1
  23:      1028.93 cm**-1
  24:      1034.83 cm**-1
  25:      1069.72 cm**-1
  26:      1077.48 cm**-1
  27:      1088.25 cm**-1
  28:      1104.81 cm**-1
  29:      1127.55 cm**-1
  30:      1167.52 cm**-1
  31:      1195.34 cm**-1
  32:      1209.09 cm**-1
  33:      1239.05 cm**-1
  34:      1251.02 cm**-1
  35:      1310.74 cm**-1
  36:      1375.56 cm**-1
  37:      1384.29 cm**-1
  38:      1408.26 cm**-1
  39:      1424.05 cm**-1
  40:      1444.57 cm**-1
  41:      1461.47 cm**-1
  42:      1464.05 cm**-1
  43:      1479.16 cm**-1
  44:      1485.84 cm**-1
  45:      1492.74 cm**-1
  46:      1494.38 cm**-1
  47:      1501.91 cm**-1
  48:      1517.59 cm**-1
  49:      3066.50 cm**-1
  50:      3089.00 cm**-1
  51:      3093.32 cm**-1
  52:      3135.75 cm**-1
  53:      3148.32 cm**-1
  54:      3155.45 cm**-1
  55:      3160.33 cm**-1
  56:      3170.06 cm**-1
  57:      3188.48 cm**-1
  58:      3198.22 cm**-1
  59:      3199.05 cm**-1
  60:      3242.65 cm**-1
  61:      3254.02 cm**-1
  62:      3445.53 cm**-1

IR SPECTRUM
-----------

 Mode    freq (cm**-1)   T**2         TX         TY         TZ
-------------------------------------------------------------------
   6:        80.88    0.188093  ( -0.018233   0.414117  -0.127543)
   7:       115.10    0.753865  ( -0.583999   0.137299   0.627662)
   8:       200.62    0.087514  ( -0.095455  -0.110592  -0.257239)
   9:       216.23    0.041097  (  0.030630  -0.036185   0.197103)
  10:       243.49    0.636979  ( -0.301939  -0.338259   0.656805)
  11:       278.56    0.759257  (  0.392537  -0.231014   0.742835)
  12:       322.15    1.374027  (  0.569713  -0.293766   0.981405)
  13:       384.31    0.138476  (  0.331182   0.073544   0.152924)
  14:       453.02    0.834082  (  0.874768  -0.135585   0.224677)
  15:       513.88    3.034042  ( -1.065560  -0.007247   1.377886)
  16:       733.63    3.276684  (  0.807030  -0.285203   1.595006)
  17:       788.15    2.532256  (  0.989792  -0.017368   1.245900)
  18:       826.49    6.117125  (  2.353180  -0.747598  -0.144108)
  19:       838.49    9.141502  (  2.501334   0.359762  -1.659940)
  20:       872.75    9.594167  ( -1.555667  -1.912754  -1.874951)
  21:       970.28   11.589737  ( -1.063946  -2.756363  -1.691218)
  22:       990.69    0.554315  ( -0.213579   0.686555  -0.193237)
  23:      1028.93    7.908529  ( -2.376385  -1.497920  -0.132513)
  24:      1034.83   28.382371  (  5.293564   0.600077   0.021376)
  25:      1069.72    3.224118  (  1.463769   0.993994  -0.305738)
  26:      1077.48   19.479667  (  1.233050   2.792224   3.187905)
  27:      1088.25    6.615209  (  0.827440  -0.004787   2.435268)
  28:      1104.81    5.473265  (  2.158805   0.032919  -0.900966)
  29:      1127.55    1.781299  (  1.161788  -0.085921  -0.651280)
  30:      1167.52    8.117311  (  0.988135  -0.627848  -2.597442)
  31:      1195.34    1.039954  (  0.559857  -0.470934  -0.710447)
  32:      1209.09    3.055013  (  1.323523   0.988093   0.571816)
  33:      1239.05    1.578979  (  1.185151   0.210451   0.360704)
  34:      1251.02    1.623110  ( -0.004755   1.196859   0.436595)
  35:      1310.74    0.906463  ( -0.932106  -0.172775  -0.088270)
  36:      1375.56    9.762755  ( -1.681505  -0.503574   2.584901)
  37:      1384.29    2.840186  (  0.601024  -1.483048  -0.528702)
  38:      1408.26   14.821332  ( -3.818871   0.484108  -0.056525)
  39:      1424.05   18.358395  (  3.968953  -1.012036  -1.257614)
  40:      1444.57   11.768617  (  2.492959  -0.718956   2.244298)
  41:      1461.47   11.197203  (  2.053430   0.014073  -2.642051)
  42:      1464.05    3.917213  (  1.883953  -0.014199  -0.606411)
  43:      1479.16   12.379487  ( -3.500243  -0.211525   0.288177)
  44:      1485.84    9.323963  (  0.986448   1.734398  -2.311438)
  45:      1492.74    6.339050  ( -0.732010  -2.357685   0.494503)
  46:      1494.38   29.474663  ( -0.595778   4.367844  -3.168856)
  47:      1501.91    6.733638  ( -1.412266  -0.454058  -2.129078)
  48:      1517.59   28.005872  ( -1.935432  -3.710956  -3.238639)
  49:      3066.50    2.726176  (  0.425539   1.528236   0.457806)
  50:      3089.00    1.170982  (  0.267965  -0.759747  -0.722469)
  51:      3093.32    3.345577  ( -0.434872   0.879215   1.543841)
  52:      3135.75    0.867656  ( -0.490376  -0.790078  -0.054449)
  53:      3148.32    1.910778  (  0.250164  -1.346298   0.188890)
  54:      3155.45    0.834411  (  0.121938  -0.004103   0.905276)
  55:      3160.33    3.482646  ( -1.131093   0.306943  -1.452261)
  56:      3170.06    4.204363  ( -0.536513   0.809866  -1.805723)
  57:      3188.48    0.417772  ( -0.072484   0.012108  -0.642161)
  58:      3198.22    0.132293  (  0.281023   0.096151  -0.209938)
  59:      3199.05    0.604720  (  0.438425  -0.173977   0.618252)
  60:      3242.65    0.124016  (  0.334279  -0.045367  -0.101070)
  61:      3254.02    0.578093  (  0.227367  -0.583500   0.431190)
  62:      3445.53   31.409255  ( -0.674095   5.501728  -0.828156)

--------------------------
THERMOCHEMISTRY AT 298.15K
--------------------------

Temperature         ... 298.15 K
Pressure            ... 1.00 atm
Total Mass          ... 100.18 AMU

Throughout the following assumptions are being made:
  (1) The electronic state is orbitally nondegenerate
  (2) There are no thermally accessible electronically excited states
  (3) Hindered rotations indicated by low frequency modes) are not
      treated as such but are treated as vibrations and this may
      case some error
  (4) All equations used are the standard statistical mechanics
      equations for an ideal gas
  (5) All vibrations are strinctly harmonic

------------
INNER ENERGY
------------

The inner energy is: U= E(el) + E(ZPE) + E(vib) + E(rot) + E(trans)
    E(el)   - is the total energy from the electronic structure calculation
              = E(kin-el) + E(nuc-el) + E(el-el) + E(nuc-nuc)
    E(ZPE)  - the the zero temperature vibrational energy from the frequency calculation
    E(vib)  - the the finite temperature correction to E(ZPE) due to population
              of excietd vibrational states
    E(rot)  - is the rotational thermal energy
    E(trans)- is the translational thermal energy

Summary of contributions to the inner energy U:
Electronic energy                ...   -291.30020901 Eh
Zero point energy                ...      0.19868723 Eh     124.68 kcal/mol
Thermal vibrational correction   ...      0.00553297 Eh       3.47 kcal/mol
Thermal rotational correction    ...      0.00141627 Eh       0.89 kcal/mol
Thermal translational correction ...      0.00141627 Eh       0.89 kcal/mol
-----------------------------------------------------------------------
Total thermal energy                   -291.09315626 Eh

Summary of corrections to the electronic energy:
(perhaps to be used in another calculation)
Total thermal correction                  0.00836552 Eh       5.25 kcal/mol
Non-thermal (ZPE) correction              0.19868723 Eh     124.68 kcal/mol
-----------------------------------------------------------------------
Total correction                          0.20705275 Eh     129.93 kcal/mol

--------
ENTHALPY
--------

The enthalpy is H = U + kB*T
                kB is Boltzmann's constant
Total free energy                 ...   -291.09315626 Eh
Thermal Enthalpy correction       ...      0.00094421 Eh       0.59 kcal/mol
-----------------------------------------------------------------------
Total Enthalpy                    ...   -291.09221205 Eh

-------
ENTROPY
-------

The entropy contributions are T*S = T*(S(el)+S(vib)+S(rot)+S(trans)
     S(el)   - electronic entropy
     S(vib)  - vibrational entropy
     S(rot)  - rotational entropy
     S(trans)- translational entropy
The entropies will be listed as mutliplied by the temperature to get
units of energy

Electronic entropy                ...      0.00000000 Eh      0.00 kcal/mol
Vibrational entropy               ...      0.00965789 Eh      6.06 kcal/mol
Rotational entropy                ...      0.01215883 Eh      7.63 kcal/mol
Translational entropy             ...      0.01887386 Eh     11.84 kcal/mol
-----------------------------------------------------------------------
Final entropy term                ...      0.04069058 Eh     25.53 kcal/mol

CAUTION: The rotational entropy is not quite correctly treated here
         because it includes a symmetry number that is not yet correctly
         implemented in ORCA!
For a nonlinear molecule the correct rotational entropy is:
    S(rot) = R*(ln(qrot/sn)+1.5)
    R    = 8.31441 J/mol/K = 1.987191683e-3 kcal/mol/K
    qrot = 262041.6975729
    sn is the rotational symmetry number. We have assumed 3 here
       if it is different for your molecule then you should correct
       the printed rotational entropy by manually evaluating the equation
       as given above

For convenience we print out the resulting values for sn=1 - 12:
 sn= 1  qrot/sn=  262041.6976 T*S(rot)=     8.28 kcal/mol T*S(tot)=    26.18 kcal/mol
 sn= 2  qrot/sn=  131020.8488 T*S(rot)=     7.87 kcal/mol T*S(tot)=    25.77 kcal/mol
 sn= 3  qrot/sn=   87347.2325 T*S(rot)=     7.63 kcal/mol T*S(tot)=    25.53 kcal/mol
 sn= 4  qrot/sn=   65510.4244 T*S(rot)=     7.46 kcal/mol T*S(tot)=    25.36 kcal/mol
 sn= 5  qrot/sn=   52408.3395 T*S(rot)=     7.33 kcal/mol T*S(tot)=    25.23 kcal/mol
 sn= 6  qrot/sn=   43673.6163 T*S(rot)=     7.22 kcal/mol T*S(tot)=    25.12 kcal/mol
 sn= 7  qrot/sn=   37434.5282 T*S(rot)=     7.13 kcal/mol T*S(tot)=    25.03 kcal/mol
 sn= 8  qrot/sn=   32755.2122 T*S(rot)=     7.05 kcal/mol T*S(tot)=    24.95 kcal/mol
 sn= 9  qrot/sn=   29115.7442 T*S(rot)=     6.98 kcal/mol T*S(tot)=    24.88 kcal/mol
 sn=10  qrot/sn=   26204.1698 T*S(rot)=     6.92 kcal/mol T*S(tot)=    24.82 kcal/mol
 sn=11  qrot/sn=   23821.9725 T*S(rot)=     6.86 kcal/mol T*S(tot)=    24.76 kcal/mol
 sn=12  qrot/sn=   21836.8081 T*S(rot)=     6.81 kcal/mol T*S(tot)=    24.71 kcal/mol

-------------------
GIBBS FREE ENTHALPY
-------------------

The Gibbs free enthalpy is G = H - T*S

Total enthalpy                    ...   -291.09221205 Eh
Total entropy correction          ...     -0.04069058 Eh    -25.53 kcal/mol
-----------------------------------------------------------------------
Final Gibbs free enthalpy         ...   -291.13290264 Eh

For completeness - the Gibbs free enthalpy minus the electronic energy
G-E(el)                           ...      0.16730638 Eh    104.99 kcal/mol

                             ****ORCA TERMINATED NORMALLY****
TOTAL RUN TIME: 0 days 0 hours 51 minutes 53 seconds 473 msec
