                         Program Version 3.0.3 - RELEASE   -
|  1> ! NORI PBE0 def2-TZVP UseSym TightOPT Freq TightSCF Grid3 FinalGrid5 XYZFile
|  2> % pal
|  3>     nprocs 8
|  4> end
|  5> %method
|  6>     SymThresh 5.0e-2
|  7> end
|  8> % geom
|  9>     MaxIter 10
| 10> end
| 11> % maxcore 2000
| 12> % output
| 13>     printlevel mini
| 14>     print[ P_Basis ] 0
| 15>     print[ P_SCFInfo ] 1
| 16>     print[ P_SCFIterInfo ] 1
| 17>     print[ P_OrbEn ] 0
| 18>     print[ P_Cartesian ] 0
| 19> end
| 20> % elprop
| 21>     Dipole false
| 22> end
| 23> *xyz 1 1
| 24>  C        0.8617400988     0.3606719634     0.0784454584
| 25>  C        2.3556275177     0.0872469110     0.0511259909
| 26>  N        3.0177511213     1.3207447945    -0.5550727213
| 27>  C        2.8984976688    -0.1026783969     1.4402638455
| 28>  C        3.8325396403     0.6104792224     2.0504556998
| 29>  C        2.7730105246    -1.0709038893    -0.8206805891
| 30>  C        1.9492997047    -1.8653362033    -1.4866547915
| 31>  H        0.4540483384     0.5020146329    -0.9254203020
| 32>  H        0.6382797880     1.2408387505     0.6855297314
| 33>  H        0.3473655093    -0.4849928825     0.5341917119
| 34>  H        2.6559054009     1.4810039969    -1.4966407132
| 35>  H        4.0297395900     1.1917972137    -0.6200502862
| 36>  H        2.8370822679     2.1492548658     0.0166357310
| 37>  H        2.4455119507    -0.9468471646     1.9515983087
| 38>  H        4.3430456812     1.4646397942     1.6134696444
| 39>  H        4.1413979568     0.3626677463     3.0580187020
| 40>  H        3.8439518365    -1.2685255625    -0.8340303167
| 41>  H        0.8725839920    -1.7400618151    -1.4760691729
| 42>  H        2.3352414121    -2.6970939773    -2.0634759310
| 43> *
| 44>
| 45>                          ****END OF INPUT****
 Total Charge           Charge          ....    1
 Multiplicity           Mult            ....    1
 Number of Electrons    NEL             ....   54
FINAL SINGLE POINT ENERGY      -290.076349247287
FINAL SINGLE POINT ENERGY      -290.076352267222
FINAL SINGLE POINT ENERGY      -290.076353642904

CARTESIAN COORDINATES (ANGSTROEM)
---------------------------------
  C      1.700617    0.001353   -0.171106
  C      0.201086    0.003698    0.071791
  N      0.001650   -0.000556    1.584490
  C     -0.434527    1.248188   -0.483754
  C     -1.120329    2.171580    0.172428
  C     -0.528112   -1.214054   -0.439270
  C      0.022985   -2.213647   -1.110276
  H      2.177682   -0.896844    0.227925
  H      2.166999    0.884201    0.271625
  H      1.893752    0.037389   -1.242896
  H      0.432144   -0.834342    1.987633
  H     -0.993350   -0.011068    1.818292
  H      0.421605    0.829087    2.010107
  H     -0.292680    1.343539   -1.556205
  H     -1.317195    2.154131    1.240989
  H     -1.533158    3.024145   -0.352033
  H     -1.602975   -1.206854   -0.265627
  H      1.079900   -2.253273   -1.346854
  H     -0.584921   -3.035938   -1.467726

FINAL SINGLE POINT ENERGY      -290.076353955689
                    ***********************HURRAY********************
 Multiplicity           Mult            ....    1
 Number of Electrons    NEL             ....   54
 Basis Dimension        Dim             ....  289
FINAL SINGLE POINT ENERGY      -290.076354044650

VIBRATIONAL FREQUENCIES
-----------------------

   0:         0.00 cm**-1
   1:         0.00 cm**-1
   2:         0.00 cm**-1
   3:         0.00 cm**-1
   4:         0.00 cm**-1
   5:         0.00 cm**-1
   6:        83.69 cm**-1
   7:       104.19 cm**-1
   8:       233.38 cm**-1
   9:       266.50 cm**-1
  10:       284.86 cm**-1
  11:       290.04 cm**-1
  12:       300.49 cm**-1
  13:       367.14 cm**-1
  14:       382.20 cm**-1
  15:       428.26 cm**-1
  16:       573.96 cm**-1
  17:       661.21 cm**-1
  18:       693.10 cm**-1
  19:       714.85 cm**-1
  20:       887.96 cm**-1
  21:       894.50 cm**-1
  22:       953.58 cm**-1
  23:       974.67 cm**-1
  24:      1012.69 cm**-1
  25:      1014.48 cm**-1
  26:      1021.71 cm**-1
  27:      1029.67 cm**-1
  28:      1035.88 cm**-1
  29:      1083.89 cm**-1
  30:      1163.76 cm**-1
  31:      1255.33 cm**-1
  32:      1293.44 cm**-1
  33:      1324.16 cm**-1
  34:      1343.97 cm**-1
  35:      1412.11 cm**-1
  36:      1446.01 cm**-1
  37:      1461.00 cm**-1
  38:      1478.32 cm**-1
  39:      1483.60 cm**-1
  40:      1495.91 cm**-1
  41:      1637.77 cm**-1
  42:      1650.68 cm**-1
  43:      1717.52 cm**-1
  44:      1724.36 cm**-1
  45:      3061.10 cm**-1
  46:      3138.63 cm**-1
  47:      3150.64 cm**-1
  48:      3153.22 cm**-1
  49:      3161.94 cm**-1
  50:      3175.08 cm**-1
  51:      3188.77 cm**-1
  52:      3247.38 cm**-1
  53:      3262.89 cm**-1
  54:      3414.16 cm**-1
  55:      3502.99 cm**-1
  56:      3515.87 cm**-1

IR SPECTRUM
-----------

 Mode    freq (cm**-1)   T**2         TX         TY         TZ
-------------------------------------------------------------------
   6:        83.69    1.071545  ( -0.536723  -0.801042  -0.376570)
   7:       104.19    1.563073  ( -0.151410   1.149659   0.467366)
   8:       233.38    0.105293  ( -0.286671   0.090333  -0.122280)
   9:       266.50    2.901183  ( -0.423394   1.554216  -0.553472)
  10:       284.86    0.593519  ( -0.080810   0.766055  -0.012142)
  11:       290.04    6.286412  ( -0.632852   1.930269  -1.469684)
  12:       300.49    3.848667  ( -1.210193   0.885335  -1.265022)
  13:       367.14    6.164933  (  1.054628   2.236886   0.221438)
  14:       382.20    5.839759  ( -2.391454   0.152871   0.311989)
  15:       428.26    0.760698  (  0.389776  -0.360738  -0.691838)
  16:       573.96    1.331662  (  0.146177  -0.657645   0.936908)
  17:       661.21   12.704989  ( -1.033541  -2.751983   2.015780)
  18:       693.10    3.638820  (  1.087798  -0.001301   1.567008)
  19:       714.85   10.796429  (  2.444684   0.186525   2.187501)
  20:       887.96    9.453900  ( -1.142250   0.579434  -2.795250)
  21:       894.50    9.565933  (  0.687891  -2.324635  -1.920628)
  22:       953.58    3.215911  ( -1.627577   0.451977   0.602181)
  23:       974.67   51.789140  ( -5.955557  -3.873653  -1.146862)
  24:      1012.69    7.898939  ( -1.334824  -1.904091  -1.578488)
  25:      1014.48   11.218909  ( -0.605888   2.162728  -2.484837)
  26:      1021.71   43.502006  (  0.582429  -3.546237   5.530550)
  27:      1029.67    5.998178  ( -1.714926  -1.180292   1.290007)
  28:      1035.88   11.999235  ( -2.268449  -0.207262  -2.609677)
  29:      1083.89    5.949912  ( -2.176281   1.002889  -0.455991)
  30:      1163.76   29.469607  ( -0.708165   3.313422   4.241385)
  31:      1255.33   23.687936  ( -0.541401   4.170815  -2.449311)
  32:      1293.44   15.365524  ( -3.047315  -2.120614  -1.257931)
  33:      1324.16    0.385627  (  0.242771  -0.571470   0.010565)
  34:      1343.97    2.541796  ( -0.359378  -1.025024  -1.167034)
  35:      1412.11   19.713638  ( -3.671119  -1.341802   2.106203)
  36:      1446.01   51.399049  ( -2.119418   3.525811   5.871608)
  37:      1461.00   30.802649  ( -1.763361   3.559218  -3.876232)
  38:      1478.32   23.301353  (  0.777050  -1.332718  -4.573993)
  39:      1483.60  116.796504  (  0.727444   0.347715 -10.777125)
  40:      1495.91    2.609639  ( -1.556275  -0.426838   0.073865)
  41:      1637.77   47.089259  (  6.401368   2.094249   1.313724)
  42:      1650.68   43.584569  ( -1.232379   6.208340  -1.876784)
  43:      1717.52    1.561167  ( -0.570049   1.111086   0.041221)
  44:      1724.36    2.174072  (  0.802585  -0.775125  -0.963904)
  45:      3061.10    2.847677  (  0.845690  -0.431192   1.395191)
  46:      3138.63    4.425571  ( -0.129039   2.087627   0.225245)
  47:      3150.64    1.178203  (  0.965683   0.156370  -0.470328)
  48:      3153.22    9.606233  (  0.287182  -1.488782   2.703200)
  49:      3161.94    1.101412  (  0.937710  -0.164036   0.441818)
  50:      3175.08    0.938857  ( -0.451565  -0.758248  -0.400007)
  51:      3188.77    1.485831  (  0.001044   0.225412  -1.197923)
  52:      3247.38    1.611965  ( -0.656186   0.947797   0.532039)
  53:      3262.89    0.257786  ( -0.057187  -0.422960  -0.274991)
  54:      3414.16   31.921176  (  0.584134  -0.472996  -5.599664)
  55:      3502.99   64.234784  ( -6.826848  -4.175600  -0.439657)
  56:      3515.87   74.577097  ( -4.318349   7.237117  -1.884967)

--------------------------
THERMOCHEMISTRY AT 298.15K
--------------------------

Temperature         ... 298.15 K
Pressure            ... 1.00 atm
Total Mass          ... 98.17 AMU

Throughout the following assumptions are being made:
  (1) The electronic state is orbitally nondegenerate
  (2) There are no thermally accessible electronically excited states
  (3) Hindered rotations indicated by low frequency modes) are not
      treated as such but are treated as vibrations and this may
      case some error
  (4) All equations used are the standard statistical mechanics
      equations for an ideal gas
  (5) All vibrations are strinctly harmonic

------------
INNER ENERGY
------------

The inner energy is: U= E(el) + E(ZPE) + E(vib) + E(rot) + E(trans)
    E(el)   - is the total energy from the electronic structure calculation
              = E(kin-el) + E(nuc-el) + E(el-el) + E(nuc-nuc)
    E(ZPE)  - the the zero temperature vibrational energy from the frequency calculation
    E(vib)  - the the finite temperature correction to E(ZPE) due to population
              of excietd vibrational states
    E(rot)  - is the rotational thermal energy
    E(trans)- is the translational thermal energy

Summary of contributions to the inner energy U:
Electronic energy                ...   -290.07635404 Eh
Zero point energy                ...      0.17349040 Eh     108.87 kcal/mol
Thermal vibrational correction   ...      0.00573732 Eh       3.60 kcal/mol
Thermal rotational correction    ...      0.00141627 Eh       0.89 kcal/mol
Thermal translational correction ...      0.00141627 Eh       0.89 kcal/mol
-----------------------------------------------------------------------
Total thermal energy                   -289.89429378 Eh

Summary of corrections to the electronic energy:
(perhaps to be used in another calculation)
Total thermal correction                  0.00856986 Eh       5.38 kcal/mol
Non-thermal (ZPE) correction              0.17349040 Eh     108.87 kcal/mol
-----------------------------------------------------------------------
Total correction                          0.18206026 Eh     114.24 kcal/mol

--------
ENTHALPY
--------

The enthalpy is H = U + kB*T
                kB is Boltzmann's constant
Total free energy                 ...   -289.89429378 Eh
Thermal Enthalpy correction       ...      0.00094421 Eh       0.59 kcal/mol
-----------------------------------------------------------------------
Total Enthalpy                    ...   -289.89334957 Eh

-------
ENTROPY
-------

The entropy contributions are T*S = T*(S(el)+S(vib)+S(rot)+S(trans)
     S(el)   - electronic entropy
     S(vib)  - vibrational entropy
     S(rot)  - rotational entropy
     S(trans)- translational entropy
The entropies will be listed as mutliplied by the temperature to get
units of energy

Electronic entropy                ...      0.00000000 Eh      0.00 kcal/mol
Vibrational entropy               ...      0.00985597 Eh      6.18 kcal/mol
Rotational entropy                ...      0.01208795 Eh      7.59 kcal/mol
Translational entropy             ...      0.01884507 Eh     11.83 kcal/mol
-----------------------------------------------------------------------
Final entropy term                ...      0.04078899 Eh     25.60 kcal/mol

CAUTION: The rotational entropy is not quite correctly treated here
         because it includes a symmetry number that is not yet correctly
         implemented in ORCA!
For a nonlinear molecule the correct rotational entropy is:
    S(rot) = R*(ln(qrot/sn)+1.5)
    R    = 8.31441 J/mol/K = 1.987191683e-3 kcal/mol/K
    qrot = 243090.4093536
    sn is the rotational symmetry number. We have assumed 3 here
       if it is different for your molecule then you should correct
       the printed rotational entropy by manually evaluating the equation
       as given above

For convenience we print out the resulting values for sn=1 - 12:
 sn= 1  qrot/sn=  243090.4094 T*S(rot)=     8.24 kcal/mol T*S(tot)=    26.25 kcal/mol
 sn= 2  qrot/sn=  121545.2047 T*S(rot)=     7.83 kcal/mol T*S(tot)=    25.84 kcal/mol
 sn= 3  qrot/sn=   81030.1365 T*S(rot)=     7.59 kcal/mol T*S(tot)=    25.60 kcal/mol
 sn= 4  qrot/sn=   60772.6023 T*S(rot)=     7.41 kcal/mol T*S(tot)=    25.42 kcal/mol
 sn= 5  qrot/sn=   48618.0819 T*S(rot)=     7.28 kcal/mol T*S(tot)=    25.29 kcal/mol
 sn= 6  qrot/sn=   40515.0682 T*S(rot)=     7.17 kcal/mol T*S(tot)=    25.18 kcal/mol
 sn= 7  qrot/sn=   34727.2013 T*S(rot)=     7.08 kcal/mol T*S(tot)=    25.09 kcal/mol
 sn= 8  qrot/sn=   30386.3012 T*S(rot)=     7.00 kcal/mol T*S(tot)=    25.01 kcal/mol
 sn= 9  qrot/sn=   27010.0455 T*S(rot)=     6.93 kcal/mol T*S(tot)=    24.94 kcal/mol
 sn=10  qrot/sn=   24309.0409 T*S(rot)=     6.87 kcal/mol T*S(tot)=    24.88 kcal/mol
 sn=11  qrot/sn=   22099.1281 T*S(rot)=     6.82 kcal/mol T*S(tot)=    24.83 kcal/mol
 sn=12  qrot/sn=   20257.5341 T*S(rot)=     6.76 kcal/mol T*S(tot)=    24.77 kcal/mol

-------------------
GIBBS FREE ENTHALPY
-------------------

The Gibbs free enthalpy is G = H - T*S

Total enthalpy                    ...   -289.89334957 Eh
Total entropy correction          ...     -0.04078899 Eh    -25.60 kcal/mol
-----------------------------------------------------------------------
Final Gibbs free enthalpy         ...   -289.93413856 Eh

For completeness - the Gibbs free enthalpy minus the electronic energy
G-E(el)                           ...      0.14221548 Eh     89.24 kcal/mol

                             ****ORCA TERMINATED NORMALLY****
TOTAL RUN TIME: 0 days 0 hours 45 minutes 52 seconds 542 msec
