                         Program Version 3.0.3 - RELEASE   -
|  1> ! NORI PBE0 def2-TZVP UseSym TightOPT Freq TightSCF Grid3 FinalGrid5 XYZFile
|  2> % pal
|  3>     nprocs 8
|  4> end
|  5> %method
|  6>     SymThresh 5.0e-2
|  7> end
|  8> % geom
|  9>     MaxIter 10
| 10> end
| 11> % maxcore 2000
| 12> % output
| 13>     printlevel mini
| 14>     print[ P_Basis ] 0
| 15>     print[ P_SCFInfo ] 1
| 16>     print[ P_SCFIterInfo ] 1
| 17>     print[ P_OrbEn ] 0
| 18>     print[ P_Cartesian ] 0
| 19> end
| 20> % elprop
| 21>     Dipole false
| 22> end
| 23> *xyz 1 1
| 24>  C        1.0214626513     0.0194504084     0.0371325575
| 25>  C        2.5465015620     0.0785884984     0.1086049855
| 26>  N        3.0987109222    -0.7094618477    -1.1003475111
| 27>  C        3.0551843623     1.4362325515    -0.0321369518
| 28>  C        3.4595159959     2.5563736891    -0.1602957100
| 29>  C        3.0686042373    -0.5881156046     1.2937659423
| 30>  C        3.4822375282    -1.1501861989     2.2671317410
| 31>  H        0.6580119489     0.4862816221    -0.8804844534
| 32>  H        0.6172385424     0.5727019013     0.8835966237
| 33>  H        0.6717927706    -1.0124407071     0.1056547381
| 34>  H        2.7808142279    -0.2853526937    -1.9750867047
| 35>  H        2.7868206611    -1.6827171271    -1.0616096395
| 36>  H        4.1213769722    -0.6942066885    -1.0839861835
| 37>  H        3.8198545829     3.5569382860    -0.2607043724
| 38>  H        3.8501530349    -1.6396560892     3.1423649380
| 39> *
| 40>
| 41>                          ****END OF INPUT****
 Total Charge           Charge          ....    1
 Multiplicity           Mult            ....    1
 Number of Electrons    NEL             ....   50
FINAL SINGLE POINT ENERGY      -287.558178007833
                    ***********************HURRAY********************
 Multiplicity           Mult            ....    1
 Number of Electrons    NEL             ....   50
 Basis Dimension        Dim             ....  265
FINAL SINGLE POINT ENERGY      -287.558178131798

VIBRATIONAL FREQUENCIES
-----------------------

   0:         0.00 cm**-1
   1:         0.00 cm**-1
   2:         0.00 cm**-1
   3:         0.00 cm**-1
   4:         0.00 cm**-1
   5:         0.00 cm**-1
   6:       123.43 cm**-1
   7:       168.88 cm**-1
   8:       169.61 cm**-1
   9:       216.06 cm**-1
  10:       234.23 cm**-1
  11:       277.39 cm**-1
  12:       350.86 cm**-1
  13:       455.80 cm**-1
  14:       477.29 cm**-1
  15:       549.65 cm**-1
  16:       571.55 cm**-1
  17:       661.41 cm**-1
  18:       734.10 cm**-1
  19:       735.21 cm**-1
  20:       773.01 cm**-1
  21:       773.20 cm**-1
  22:       862.75 cm**-1
  23:       922.89 cm**-1
  24:       965.76 cm**-1
  25:      1035.41 cm**-1
  26:      1088.54 cm**-1
  27:      1247.49 cm**-1
  28:      1289.50 cm**-1
  29:      1411.33 cm**-1
  30:      1465.73 cm**-1
  31:      1480.96 cm**-1
  32:      1485.69 cm**-1
  33:      1632.80 cm**-1
  34:      1643.16 cm**-1
  35:      2251.72 cm**-1
  36:      2253.50 cm**-1
  37:      3065.33 cm**-1
  38:      3152.77 cm**-1
  39:      3173.77 cm**-1
  40:      3405.69 cm**-1
  41:      3450.86 cm**-1
  42:      3451.86 cm**-1
  43:      3504.93 cm**-1
  44:      3507.90 cm**-1

IR SPECTRUM
-----------

 Mode    freq (cm**-1)   T**2         TX         TY         TZ
-------------------------------------------------------------------
   6:       123.43    0.176849  ( -0.335095  -0.254088  -0.000064)
   7:       168.88    7.691558  ( -0.591642   2.709521  -0.003330)
   8:       169.61    4.303715  ( -0.000971   0.004372   2.074535)
   9:       216.06    4.021197  (  0.000023  -0.000061   2.005292)
  10:       234.23    3.145233  (  0.000009   0.000008   1.773480)
  11:       277.39    3.738438  (  0.000024  -0.000032  -1.933504)
  12:       350.86   11.343177  ( -0.540500  -3.324310   0.000012)
  13:       455.80    1.292462  ( -0.000001   0.000006   1.136865)
  14:       477.29    0.864869  (  0.000001   0.000005   0.929983)
  15:       549.65   21.290959  (  3.994465   2.309807   0.000001)
  16:       571.55   26.901913  (  4.199952  -3.043406  -0.000001)
  17:       661.41    1.174246  ( -0.005892  -1.083610   0.000003)
  18:       734.10   19.272603  ( -0.000015  -0.000063  -4.390057)
  19:       735.21   54.736455  ( -0.960217  -7.335832   0.000035)
  20:       773.01    7.269501  (  0.000966  -0.000401   2.696201)
  21:       773.20   47.331215  ( -6.371331   2.595642   0.000415)
  22:       862.75   40.745187  (  6.274828   1.171205  -0.000001)
  23:       922.89    0.385358  ( -0.000008  -0.000001  -0.620772)
  24:       965.76    5.582442  ( -1.374178   1.921998   0.000002)
  25:      1035.41    5.978473  ( -0.000004   0.000001  -2.445092)
  26:      1088.54   49.150413  (  6.853830  -1.474934  -0.000001)
  27:      1247.49   46.945079  (  3.223013   6.046260  -0.000003)
  28:      1289.50  110.447098  (  0.000003   0.000001  10.509381)
  29:      1411.33   21.610953  ( -3.124957   3.441744   0.000001)
  30:      1465.73    3.280639  (  1.664027  -0.715300   0.000003)
  31:      1480.96  164.883998  ( 12.783239  -1.213593   0.000000)
  32:      1485.69    1.158522  ( -0.000012   0.000000  -1.076347)
  33:      1632.80   41.391213  ( -1.188725  -6.322827  -0.000002)
  34:      1643.16   40.460273  ( -0.000003   0.000001  -6.360839)
  35:      2251.72   53.762892  ( -0.000050  -0.000035  -7.332318)
  36:      2253.50   28.280834  (  4.351653   3.056787  -0.000082)
  37:      3065.33    3.650954  (  1.910700   0.013370  -0.000001)
  38:      3152.77    2.135126  (  0.000008  -0.000001   1.461207)
  39:      3173.77    2.009800  (  0.857825  -1.128688   0.000001)
  40:      3405.69   52.608389  ( -7.207253   0.814798  -0.000000)
  41:      3450.86  146.749877  (  0.000030   0.000038  12.114036)
  42:      3451.86   53.331906  ( -4.497852  -5.753367   0.000082)
  43:      3504.93   89.739840  ( -1.224803  -9.393599  -0.000000)
  44:      3507.90   78.021336  ( -0.000000  -0.000000   8.832969)

--------------------------
THERMOCHEMISTRY AT 298.15K
--------------------------

Temperature         ... 298.15 K
Pressure            ... 1.00 atm
Total Mass          ... 94.14 AMU

Throughout the following assumptions are being made:
  (1) The electronic state is orbitally nondegenerate
  (2) There are no thermally accessible electronically excited states
  (3) Hindered rotations indicated by low frequency modes) are not
      treated as such but are treated as vibrations and this may
      case some error
  (4) All equations used are the standard statistical mechanics
      equations for an ideal gas
  (5) All vibrations are strinctly harmonic

------------
INNER ENERGY
------------

The inner energy is: U= E(el) + E(ZPE) + E(vib) + E(rot) + E(trans)
    E(el)   - is the total energy from the electronic structure calculation
              = E(kin-el) + E(nuc-el) + E(el-el) + E(nuc-nuc)
    E(ZPE)  - the the zero temperature vibrational energy from the frequency calculation
    E(vib)  - the the finite temperature correction to E(ZPE) due to population
              of excietd vibrational states
    E(rot)  - is the rotational thermal energy
    E(trans)- is the translational thermal energy

Summary of contributions to the inner energy U:
Electronic energy                ...   -287.55817813 Eh
Zero point energy                ...      0.12534932 Eh      78.66 kcal/mol
Thermal vibrational correction   ...      0.00540098 Eh       3.39 kcal/mol
Thermal rotational correction    ...      0.00141627 Eh       0.89 kcal/mol
Thermal translational correction ...      0.00141627 Eh       0.89 kcal/mol
-----------------------------------------------------------------------
Total thermal energy                   -287.42459529 Eh

Summary of corrections to the electronic energy:
(perhaps to be used in another calculation)
Total thermal correction                  0.00823353 Eh       5.17 kcal/mol
Non-thermal (ZPE) correction              0.12534932 Eh      78.66 kcal/mol
-----------------------------------------------------------------------
Total correction                          0.13358285 Eh      83.82 kcal/mol

--------
ENTHALPY
--------

The enthalpy is H = U + kB*T
                kB is Boltzmann's constant
Total free energy                 ...   -287.42459529 Eh
Thermal Enthalpy correction       ...      0.00094421 Eh       0.59 kcal/mol
-----------------------------------------------------------------------
Total Enthalpy                    ...   -287.42365108 Eh

-------
ENTROPY
-------

The entropy contributions are T*S = T*(S(el)+S(vib)+S(rot)+S(trans)
     S(el)   - electronic entropy
     S(vib)  - vibrational entropy
     S(rot)  - rotational entropy
     S(trans)- translational entropy
The entropies will be listed as mutliplied by the temperature to get
units of energy

Electronic entropy                ...      0.00000000 Eh      0.00 kcal/mol
Vibrational entropy               ...      0.00905275 Eh      5.68 kcal/mol
Rotational entropy                ...      0.01206335 Eh      7.57 kcal/mol
Translational entropy             ...      0.01878567 Eh     11.79 kcal/mol
-----------------------------------------------------------------------
Final entropy term                ...      0.03990177 Eh     25.04 kcal/mol

CAUTION: The rotational entropy is not quite correctly treated here
         because it includes a symmetry number that is not yet correctly
         implemented in ORCA!
For a nonlinear molecule the correct rotational entropy is:
    S(rot) = R*(ln(qrot/sn)+1.5)
    R    = 8.31441 J/mol/K = 1.987191683e-3 kcal/mol/K
    qrot = 236839.7455025
    sn is the rotational symmetry number. We have assumed 3 here
       if it is different for your molecule then you should correct
       the printed rotational entropy by manually evaluating the equation
       as given above

For convenience we print out the resulting values for sn=1 - 12:
 sn= 1  qrot/sn=  236839.7455 T*S(rot)=     8.22 kcal/mol T*S(tot)=    25.69 kcal/mol
 sn= 2  qrot/sn=  118419.8728 T*S(rot)=     7.81 kcal/mol T*S(tot)=    25.28 kcal/mol
 sn= 3  qrot/sn=   78946.5818 T*S(rot)=     7.57 kcal/mol T*S(tot)=    25.04 kcal/mol
 sn= 4  qrot/sn=   59209.9364 T*S(rot)=     7.40 kcal/mol T*S(tot)=    24.87 kcal/mol
 sn= 5  qrot/sn=   47367.9491 T*S(rot)=     7.27 kcal/mol T*S(tot)=    24.74 kcal/mol
 sn= 6  qrot/sn=   39473.2909 T*S(rot)=     7.16 kcal/mol T*S(tot)=    24.63 kcal/mol
 sn= 7  qrot/sn=   33834.2494 T*S(rot)=     7.07 kcal/mol T*S(tot)=    24.54 kcal/mol
 sn= 8  qrot/sn=   29604.9682 T*S(rot)=     6.99 kcal/mol T*S(tot)=    24.46 kcal/mol
 sn= 9  qrot/sn=   26315.5273 T*S(rot)=     6.92 kcal/mol T*S(tot)=    24.39 kcal/mol
 sn=10  qrot/sn=   23683.9746 T*S(rot)=     6.86 kcal/mol T*S(tot)=    24.33 kcal/mol
 sn=11  qrot/sn=   21530.8860 T*S(rot)=     6.80 kcal/mol T*S(tot)=    24.27 kcal/mol
 sn=12  qrot/sn=   19736.6455 T*S(rot)=     6.75 kcal/mol T*S(tot)=    24.22 kcal/mol

-------------------
GIBBS FREE ENTHALPY
-------------------

The Gibbs free enthalpy is G = H - T*S

Total enthalpy                    ...   -287.42365108 Eh
Total entropy correction          ...     -0.03990177 Eh    -25.04 kcal/mol
-----------------------------------------------------------------------
Final Gibbs free enthalpy         ...   -287.46355285 Eh

For completeness - the Gibbs free enthalpy minus the electronic energy
G-E(el)                           ...      0.09462528 Eh     59.38 kcal/mol

                             ****ORCA TERMINATED NORMALLY****
TOTAL RUN TIME: 0 days 0 hours 26 minutes 29 seconds 135 msec
