                         Program Version 3.0.3 - RELEASE   -
|  1> ! NORI PBE0 def2-TZVP UseSym TightOPT Freq TightSCF Grid3 FinalGrid5 XYZFile
|  2> % pal
|  3>     nprocs 8
|  4> end
|  5> %method
|  6>     SymThresh 5.0e-2
|  7> end
|  8> % geom
|  9>     MaxIter 10
| 10> end
| 11> % maxcore 2000
| 12> % output
| 13>     printlevel mini
| 14>     print[ P_Basis ] 0
| 15>     print[ P_SCFInfo ] 1
| 16>     print[ P_SCFIterInfo ] 1
| 17>     print[ P_OrbEn ] 0
| 18>     print[ P_Cartesian ] 0
| 19> end
| 20> % elprop
| 21>     Dipole false
| 22> end
| 23> *xyz 1 1
| 24>  C        1.9236329404    -0.9366995172     1.3836528173
| 25>  C        2.8352417984    -0.3956659526     0.3033333506
| 26>  N        2.0724899289    -0.4726912422    -1.0319029265
| 27>  C        3.2521380356     1.0165642644     0.5121253629
| 28>  C        4.4850147942     1.5163084832     0.3523461878
| 29>  C        5.6793608992     0.7389714729    -0.0951785535
| 30>  C        4.7538753296     2.9539041111     0.6535417459
| 31>  H        1.5923956497    -1.9573171771     1.1770177346
| 32>  H        1.0475770243    -0.2974806929     1.5216265060
| 33>  H        2.4693605092    -0.9507255964     2.3273063838
| 34>  H        3.6910351533    -1.0545283944     0.1552736664
| 35>  H        1.2463720193     0.1277665985    -0.9936720802
| 36>  H        1.7635887585    -1.4232522060    -1.2458214145
| 37>  H        2.6612159705    -0.1350492704    -1.7947365720
| 38>  H        2.4686098040     1.6781297774     0.8773671524
| 39>  H        5.4821326841    -0.3047458091    -0.3384352792
| 40>  H        6.4464132875     0.7608929642     0.6850322102
| 41>  H        6.1265436224     1.2145293555    -0.9726930869
| 42>  H        5.1657372478     3.4575502649    -0.2260491311
| 43>  H        5.5102965792     3.0385950526     1.4399946772
| 44>  H        3.8591979641     3.4863835136     0.9749512490
| 45> *
| 46>
| 47>                          ****END OF INPUT****
 Total Charge           Charge          ....    1
 Multiplicity           Mult            ....    1
 Number of Electrons    NEL             ....   56
FINAL SINGLE POINT ENERGY      -291.324236293483
FINAL SINGLE POINT ENERGY      -291.324237845397

CARTESIAN COORDINATES (ANGSTROEM)
---------------------------------
  C      2.212273   -0.002008    1.144431
  C      0.744462   -0.292282    0.916711
  N      0.000395    0.003333    2.231380
  C      0.121761    0.527401   -0.156123
  C     -0.707601    0.091161   -1.114166
  C     -1.185113   -1.315855   -1.268300
  C     -1.208109    1.036431   -2.155839
  H      2.629419   -0.585161    1.969449
  H      2.384013    1.060820    1.335714
  H      2.764261   -0.264370    0.241908
  H      0.584233   -1.358741    0.757601
  H      0.087056    0.995287    2.462172
  H      0.371272   -0.537999    3.015248
  H     -0.994665   -0.200499    2.127811
  H      0.425502    1.572877   -0.170901
  H     -0.837411   -2.005570   -0.499527
  H     -0.865722   -1.708686   -2.237937
  H     -2.278658   -1.339639   -1.277648
  H     -2.301862    1.056435   -2.159857
  H     -0.902570    0.696501   -3.149923
  H     -0.839448    2.051041   -2.008846

FINAL SINGLE POINT ENERGY      -291.324238797985
                    ***********************HURRAY********************
 Multiplicity           Mult            ....    1
 Number of Electrons    NEL             ....   56
 Basis Dimension        Dim             ....  301
FINAL SINGLE POINT ENERGY      -291.324239175147

VIBRATIONAL FREQUENCIES
-----------------------

   0:         0.00 cm**-1
   1:         0.00 cm**-1
   2:         0.00 cm**-1
   3:         0.00 cm**-1
   4:         0.00 cm**-1
   5:         0.00 cm**-1
   6:        46.05 cm**-1
   7:       123.13 cm**-1
   8:       130.10 cm**-1
   9:       189.98 cm**-1
  10:       201.79 cm**-1
  11:       217.46 cm**-1
  12:       254.70 cm**-1
  13:       303.80 cm**-1
  14:       401.95 cm**-1
  15:       411.81 cm**-1
  16:       451.07 cm**-1
  17:       505.12 cm**-1
  18:       519.60 cm**-1
  19:       772.82 cm**-1
  20:       827.66 cm**-1
  21:       843.42 cm**-1
  22:       922.60 cm**-1
  23:       943.59 cm**-1
  24:       958.03 cm**-1
  25:       976.21 cm**-1
  26:       991.75 cm**-1
  27:      1079.70 cm**-1
  28:      1090.26 cm**-1
  29:      1096.63 cm**-1
  30:      1151.20 cm**-1
  31:      1206.13 cm**-1
  32:      1258.28 cm**-1
  33:      1334.02 cm**-1
  34:      1374.04 cm**-1
  35:      1395.07 cm**-1
  36:      1411.53 cm**-1
  37:      1414.98 cm**-1
  38:      1418.70 cm**-1
  39:      1453.49 cm**-1
  40:      1470.25 cm**-1
  41:      1475.27 cm**-1
  42:      1478.20 cm**-1
  43:      1479.16 cm**-1
  44:      1488.75 cm**-1
  45:      1489.11 cm**-1
  46:      1645.62 cm**-1
  47:      1654.14 cm**-1
  48:      1724.73 cm**-1
  49:      3049.43 cm**-1
  50:      3053.82 cm**-1
  51:      3055.10 cm**-1
  52:      3108.87 cm**-1
  53:      3113.66 cm**-1
  54:      3118.43 cm**-1
  55:      3134.31 cm**-1
  56:      3145.88 cm**-1
  57:      3150.54 cm**-1
  58:      3155.67 cm**-1
  59:      3157.75 cm**-1
  60:      3415.49 cm**-1
  61:      3508.01 cm**-1
  62:      3519.96 cm**-1

IR SPECTRUM
-----------

 Mode    freq (cm**-1)   T**2         TX         TY         TZ
-------------------------------------------------------------------
   6:        46.05    5.574412  ( -1.174647  -1.627382  -1.243481)
   7:       123.13    5.904047  (  1.769339  -1.509173   0.704189)
   8:       130.10    0.254523  ( -0.186645  -0.034555  -0.467432)
   9:       189.98    1.965050  (  0.035507   0.813385   1.141137)
  10:       201.79    1.864995  ( -0.282295  -0.648345   1.168312)
  11:       217.46    0.331014  ( -0.524024  -0.150010  -0.184146)
  12:       254.70    1.980478  ( -0.842795  -1.038487  -0.437859)
  13:       303.80    3.938914  (  1.681169  -0.483400   0.937501)
  14:       401.95    1.861823  (  0.940243   0.478828   0.865153)
  15:       411.81    8.237323  ( -1.872505   0.288318   2.155904)
  16:       451.07    5.596344  ( -1.377842  -1.241823   1.468254)
  17:       505.12    0.915787  (  0.436335  -0.669336   0.526677)
  18:       519.60    1.299126  (  0.111108  -0.652291  -0.928061)
  19:       772.82   19.062749  ( -0.461185   1.073800  -4.206781)
  20:       827.66    2.822277  (  0.403026   0.349440  -1.593028)
  21:       843.42   26.858890  (  2.424910  -0.854466  -4.499843)
  22:       922.60    6.472982  (  1.908287   1.105867   1.268258)
  23:       943.59    6.660481  ( -1.018877  -0.388464   2.339116)
  24:       958.03    1.240924  ( -0.647235   0.219883  -0.879581)
  25:       976.21   11.346922  ( -2.704274   0.507226  -1.943334)
  26:       991.75    6.296567  (  2.006326  -0.669745  -1.350061)
  27:      1079.70   30.677741  ( -2.809583   1.865046   4.393812)
  28:      1090.26   14.561689  ( -2.402507   0.347318  -2.944320)
  29:      1096.63    1.642313  ( -1.007095   0.443318   0.656919)
  30:      1151.20    1.265225  ( -0.751546  -0.822810  -0.152929)
  31:      1206.13   41.808967  (  3.963627  -0.553536   5.078605)
  32:      1258.28    9.518356  (  1.273900  -1.636775   2.283966)
  33:      1334.02   10.449320  ( -1.891361   0.558891  -2.561194)
  34:      1374.04   15.463278  (  1.600508   1.589030  -3.221279)
  35:      1395.07    0.958872  ( -0.601989   0.075889   0.768585)
  36:      1411.53   15.254673  ( -1.721919   2.156903  -2.763591)
  37:      1414.98   17.897249  (  0.857706   3.607661   2.036265)
  38:      1418.70   35.051369  (  5.122896   1.810511  -2.351458)
  39:      1453.49    0.124868  (  0.155249   0.258840  -0.183761)
  40:      1470.25    9.514400  ( -0.193409   2.830558   1.210345)
  41:      1475.27  125.082659  (  4.149043  -1.866474 -10.216867)
  42:      1478.20   48.514775  (  1.010558  -2.693550  -6.343369)
  43:      1479.16   14.237451  (  3.439432  -1.192310  -0.993054)
  44:      1488.75   11.170362  (  2.849595   1.388803  -1.058961)
  45:      1489.11   15.543694  ( -2.862921   2.206466  -1.574447)
  46:      1645.62   48.578264  ( -3.233386  -6.174258   0.044943)
  47:      1654.14   38.900962  ( -4.497261   2.444757  -3.563534)
  48:      1724.73   66.741097  (  4.266303   1.158839   6.869996)
  49:      3049.43    2.926822  ( -0.572800   1.092212  -1.185662)
  50:      3053.82    5.322392  (  0.617836   0.574906   2.147127)
  51:      3055.10    1.923596  ( -0.831767  -1.098205  -0.160332)
  52:      3108.87    0.467559  ( -0.558985   0.254986   0.300128)
  53:      3113.66    2.464268  (  1.405637  -0.271775  -0.643888)
  54:      3118.43    1.817971  (  0.699462  -0.937036   0.671333)
  55:      3134.31    2.032313  (  0.386675  -1.196543   0.671625)
  56:      3145.88    7.610003  ( -1.070833   1.238675  -2.220136)
  57:      3150.54   17.804718  ( -1.434193   2.940291  -2.665051)
  58:      3155.67    9.781327  (  0.660693   3.053135  -0.152237)
  59:      3157.75    2.939943  (  1.100993   1.270813   0.335846)
  60:      3415.49   30.852787  (  1.851387  -0.862719  -5.165353)
  61:      3508.01   69.805586  ( -0.503826   8.229322  -1.352779)
  62:      3519.96   65.629892  (  7.397329   1.670765   2.849202)

--------------------------
THERMOCHEMISTRY AT 298.15K
--------------------------

Temperature         ... 298.15 K
Pressure            ... 1.00 atm
Total Mass          ... 100.18 AMU

Throughout the following assumptions are being made:
  (1) The electronic state is orbitally nondegenerate
  (2) There are no thermally accessible electronically excited states
  (3) Hindered rotations indicated by low frequency modes) are not
      treated as such but are treated as vibrations and this may
      case some error
  (4) All equations used are the standard statistical mechanics
      equations for an ideal gas
  (5) All vibrations are strinctly harmonic

------------
INNER ENERGY
------------

The inner energy is: U= E(el) + E(ZPE) + E(vib) + E(rot) + E(trans)
    E(el)   - is the total energy from the electronic structure calculation
              = E(kin-el) + E(nuc-el) + E(el-el) + E(nuc-nuc)
    E(ZPE)  - the the zero temperature vibrational energy from the frequency calculation
    E(vib)  - the the finite temperature correction to E(ZPE) due to population
              of excietd vibrational states
    E(rot)  - is the rotational thermal energy
    E(trans)- is the translational thermal energy

Summary of contributions to the inner energy U:
Electronic energy                ...   -291.32423918 Eh
Zero point energy                ...      0.19653487 Eh     123.33 kcal/mol
Thermal vibrational correction   ...      0.00673701 Eh       4.23 kcal/mol
Thermal rotational correction    ...      0.00141627 Eh       0.89 kcal/mol
Thermal translational correction ...      0.00141627 Eh       0.89 kcal/mol
-----------------------------------------------------------------------
Total thermal energy                   -291.11813476 Eh

Summary of corrections to the electronic energy:
(perhaps to be used in another calculation)
Total thermal correction                  0.00956955 Eh       6.00 kcal/mol
Non-thermal (ZPE) correction              0.19653487 Eh     123.33 kcal/mol
-----------------------------------------------------------------------
Total correction                          0.20610442 Eh     129.33 kcal/mol

--------
ENTHALPY
--------

The enthalpy is H = U + kB*T
                kB is Boltzmann's constant
Total free energy                 ...   -291.11813476 Eh
Thermal Enthalpy correction       ...      0.00094421 Eh       0.59 kcal/mol
-----------------------------------------------------------------------
Total Enthalpy                    ...   -291.11719055 Eh

-------
ENTROPY
-------

The entropy contributions are T*S = T*(S(el)+S(vib)+S(rot)+S(trans)
     S(el)   - electronic entropy
     S(vib)  - vibrational entropy
     S(rot)  - rotational entropy
     S(trans)- translational entropy
The entropies will be listed as mutliplied by the temperature to get
units of energy

Electronic entropy                ...      0.00000000 Eh      0.00 kcal/mol
Vibrational entropy               ...      0.01235628 Eh      7.75 kcal/mol
Rotational entropy                ...      0.01233850 Eh      7.74 kcal/mol
Translational entropy             ...      0.01887386 Eh     11.84 kcal/mol
-----------------------------------------------------------------------
Final entropy term                ...      0.04356864 Eh     27.34 kcal/mol

CAUTION: The rotational entropy is not quite correctly treated here
         because it includes a symmetry number that is not yet correctly
         implemented in ORCA!
For a nonlinear molecule the correct rotational entropy is:
    S(rot) = R*(ln(qrot/sn)+1.5)
    R    = 8.31441 J/mol/K = 1.987191683e-3 kcal/mol/K
    qrot = 316968.3750986
    sn is the rotational symmetry number. We have assumed 3 here
       if it is different for your molecule then you should correct
       the printed rotational entropy by manually evaluating the equation
       as given above

For convenience we print out the resulting values for sn=1 - 12:
 sn= 1  qrot/sn=  316968.3751 T*S(rot)=     8.39 kcal/mol T*S(tot)=    27.99 kcal/mol
 sn= 2  qrot/sn=  158484.1875 T*S(rot)=     7.98 kcal/mol T*S(tot)=    27.58 kcal/mol
 sn= 3  qrot/sn=  105656.1250 T*S(rot)=     7.74 kcal/mol T*S(tot)=    27.34 kcal/mol
 sn= 4  qrot/sn=   79242.0938 T*S(rot)=     7.57 kcal/mol T*S(tot)=    27.17 kcal/mol
 sn= 5  qrot/sn=   63393.6750 T*S(rot)=     7.44 kcal/mol T*S(tot)=    27.04 kcal/mol
 sn= 6  qrot/sn=   52828.0625 T*S(rot)=     7.33 kcal/mol T*S(tot)=    26.93 kcal/mol
 sn= 7  qrot/sn=   45281.1964 T*S(rot)=     7.24 kcal/mol T*S(tot)=    26.84 kcal/mol
 sn= 8  qrot/sn=   39621.0469 T*S(rot)=     7.16 kcal/mol T*S(tot)=    26.76 kcal/mol
 sn= 9  qrot/sn=   35218.7083 T*S(rot)=     7.09 kcal/mol T*S(tot)=    26.69 kcal/mol
 sn=10  qrot/sn=   31696.8375 T*S(rot)=     7.03 kcal/mol T*S(tot)=    26.63 kcal/mol
 sn=11  qrot/sn=   28815.3068 T*S(rot)=     6.97 kcal/mol T*S(tot)=    26.57 kcal/mol
 sn=12  qrot/sn=   26414.0313 T*S(rot)=     6.92 kcal/mol T*S(tot)=    26.52 kcal/mol

-------------------
GIBBS FREE ENTHALPY
-------------------

The Gibbs free enthalpy is G = H - T*S

Total enthalpy                    ...   -291.11719055 Eh
Total entropy correction          ...     -0.04356864 Eh    -27.34 kcal/mol
-----------------------------------------------------------------------
Final Gibbs free enthalpy         ...   -291.16075919 Eh

For completeness - the Gibbs free enthalpy minus the electronic energy
G-E(el)                           ...      0.16347999 Eh    102.59 kcal/mol

                             ****ORCA TERMINATED NORMALLY****
TOTAL RUN TIME: 0 days 0 hours 46 minutes 45 seconds 314 msec
