                         Program Version 3.0.3 - RELEASE   -
|  1> ! NORI PBE0 def2-TZVP UseSym TightOPT Freq TightSCF Grid3 FinalGrid5 XYZFile
|  2> % pal
|  3>     nprocs 8
|  4> end
|  5> %method
|  6>     SymThresh 5.0e-2
|  7> end
|  8> % geom
|  9>     MaxIter 10
| 10> end
| 11> % maxcore 2000
| 12> % output
| 13>     printlevel mini
| 14>     print[ P_Basis ] 0
| 15>     print[ P_SCFInfo ] 1
| 16>     print[ P_SCFIterInfo ] 1
| 17>     print[ P_OrbEn ] 0
| 18>     print[ P_Cartesian ] 0
| 19> end
| 20> % elprop
| 21>     Dipole false
| 22> end
| 23> *xyz 1 1
| 24>  C        0.9135943437     0.5658230630     0.2229125581
| 25>  C        2.3445560950     0.1359828096     0.0018716180
| 26>  N        2.9958521060    -0.0499581031     1.3831307575
| 27>  C        2.5733117689    -1.1191528515    -0.7677283233
| 28>  C        1.6096309342    -1.9438852059    -1.1948482307
| 29>  C        1.8485427804    -3.1403844575    -1.9668484108
| 30>  C        0.8604851817    -3.9327855113    -2.3821412948
| 31>  H        0.4487019929     0.7736891453    -0.7407123098
| 32>  H        0.8601839306     1.4835557103     0.8132571849
| 33>  H        0.3249534954    -0.2067577893     0.7231337330
| 34>  H        2.9182715278     0.9574853100    -0.4395206604
| 35>  H        2.5199651333    -0.8030842562     1.8849393571
| 36>  H        2.9425401208     0.8010395598     1.9472159094
| 37>  H        3.9777264589    -0.3156568307     1.2910891195
| 38>  H        3.6083971159    -1.3362530790    -1.0266217871
| 39>  H        0.5680008519    -1.7182652257    -0.9782398019
| 40>  H        2.8796393164    -3.3826275115    -2.2087517886
| 41>  H       -0.1776162590    -3.7103323277    -2.1573172506
| 42>  H        1.0569231050    -4.8268824487    -2.9605003795
| 43> *
| 44>
| 45>                          ****END OF INPUT****
 Total Charge           Charge          ....    1
 Multiplicity           Mult            ....    1
 Number of Electrons    NEL             ....   54
FINAL SINGLE POINT ENERGY      -290.089489430675
FINAL SINGLE POINT ENERGY      -290.089491141137

CARTESIAN COORDINATES (ANGSTROEM)
---------------------------------
  C      1.965987    0.002245    1.093264
  C      0.623967   -0.649839    1.327227
  N      0.000100   -0.003061    2.575487
  C     -0.383830   -0.561423    0.233439
  C     -0.225938    0.126655   -0.903828
  C     -1.202691    0.172725   -1.966156
  C     -1.003618    0.858905   -3.091631
  H      2.458663   -0.483051    0.250990
  H      2.620138   -0.110540    1.960809
  H      1.871979    1.065960    0.862780
  H      0.762500   -1.694122    1.625916
  H     -0.164021    0.990447    2.397887
  H      0.605642   -0.091096    3.394415
  H     -0.902304   -0.428360    2.794460
  H     -1.290794   -1.146936    0.375151
  H      0.692115    0.683048   -1.078506
  H     -2.125366   -0.382863   -1.822526
  H     -0.088993    1.417740   -3.261197
  H     -1.745896    0.881710   -3.879637

FINAL SINGLE POINT ENERGY      -290.089491830188
                    ***********************HURRAY********************
 Multiplicity           Mult            ....    1
 Number of Electrons    NEL             ....   54
 Basis Dimension        Dim             ....  289
FINAL SINGLE POINT ENERGY      -290.089491885102

VIBRATIONAL FREQUENCIES
-----------------------

   0:         0.00 cm**-1
   1:         0.00 cm**-1
   2:         0.00 cm**-1
   3:         0.00 cm**-1
   4:         0.00 cm**-1
   5:         0.00 cm**-1
   6:        70.17 cm**-1
   7:       140.89 cm**-1
   8:       167.22 cm**-1
   9:       189.23 cm**-1
  10:       221.72 cm**-1
  11:       272.70 cm**-1
  12:       313.52 cm**-1
  13:       357.15 cm**-1
  14:       428.07 cm**-1
  15:       494.79 cm**-1
  16:       568.98 cm**-1
  17:       662.95 cm**-1
  18:       766.60 cm**-1
  19:       876.68 cm**-1
  20:       907.54 cm**-1
  21:       942.01 cm**-1
  22:       957.45 cm**-1
  23:       985.06 cm**-1
  24:       991.56 cm**-1
  25:      1011.53 cm**-1
  26:      1046.76 cm**-1
  27:      1072.62 cm**-1
  28:      1119.03 cm**-1
  29:      1209.38 cm**-1
  30:      1226.68 cm**-1
  31:      1293.60 cm**-1
  32:      1322.62 cm**-1
  33:      1340.44 cm**-1
  34:      1375.34 cm**-1
  35:      1392.49 cm**-1
  36:      1423.20 cm**-1
  37:      1456.84 cm**-1
  38:      1480.01 cm**-1
  39:      1484.28 cm**-1
  40:      1493.01 cm**-1
  41:      1646.56 cm**-1
  42:      1653.88 cm**-1
  43:      1680.07 cm**-1
  44:      1721.89 cm**-1
  45:      3061.60 cm**-1
  46:      3071.18 cm**-1
  47:      3136.30 cm**-1
  48:      3148.71 cm**-1
  49:      3160.90 cm**-1
  50:      3163.30 cm**-1
  51:      3168.09 cm**-1
  52:      3179.49 cm**-1
  53:      3260.79 cm**-1
  54:      3413.07 cm**-1
  55:      3505.49 cm**-1
  56:      3515.28 cm**-1

IR SPECTRUM
-----------

 Mode    freq (cm**-1)   T**2         TX         TY         TZ
-------------------------------------------------------------------
   6:        70.17    9.993892  (  1.184885  -2.661855   1.226568)
   7:       140.89    1.179640  ( -0.920611  -0.515080   0.258474)
   8:       167.22    2.011908  (  0.819146  -1.104345  -0.348323)
   9:       189.23    4.565666  (  0.856169  -0.319398   1.931483)
  10:       221.72    0.534522  ( -0.028846  -0.330405   0.651554)
  11:       272.70    1.014325  (  0.098153  -0.952930   0.310829)
  12:       313.52    1.509863  ( -1.046367  -0.320908   0.558566)
  13:       357.15    6.743601  ( -1.827280  -1.421423  -1.176523)
  14:       428.07    7.943675  ( -1.469934   0.569596   2.336350)
  15:       494.79    0.652258  ( -0.555253   0.514889   0.280789)
  16:       568.98    2.583180  (  0.481286  -0.460682   1.462640)
  17:       662.95    3.052427  ( -0.969779   1.420042  -0.308928)
  18:       766.60   21.278149  ( -0.115020  -0.827839   4.536475)
  19:       876.68   22.123971  (  0.899230  -2.495081  -3.884575)
  20:       907.54   22.007234  ( -1.318670  -1.190560  -4.341763)
  21:       942.01   13.759697  ( -1.612724  -0.763133   3.252145)
  22:       957.45    0.581212  ( -0.640627  -0.377534  -0.168158)
  23:       985.06    5.715766  (  1.401685  -1.928310  -0.180733)
  24:       991.56   13.311277  (  2.981067  -0.814404   1.939398)
  25:      1011.53   31.515978  (  2.195250  -4.478994  -2.575941)
  26:      1046.76   57.213279  (  2.788846  -5.764317  -4.025949)
  27:      1072.62    7.285523  ( -0.189421  -0.510982  -2.643585)
  28:      1119.03   12.063186  (  2.449988  -2.309753  -0.851930)
  29:      1209.38    6.200048  (  1.887211   1.271279   1.011104)
  30:      1226.68   12.204102  (  1.954394   0.060714   2.894954)
  31:      1293.60   17.269395  (  1.258496  -0.952780   3.844190)
  32:      1322.62   31.684018  (  0.704823  -1.748458   5.303785)
  33:      1340.44    5.775676  (  1.750818   0.291790   1.620238)
  34:      1375.34   84.725591  (  1.560473  -2.672435   8.668830)
  35:      1392.49    6.797345  ( -1.270336   0.393967  -2.242405)
  36:      1423.20   32.318711  ( -5.382039  -0.514180   1.757268)
  37:      1456.84    6.499905  ( -0.315612   2.172535  -1.296297)
  38:      1480.01  107.959310  ( -2.873454   2.973797   9.532004)
  39:      1484.28   62.833588  (  2.888615  -4.739014  -5.659615)
  40:      1493.01    4.175736  ( -0.573051  -0.040984  -1.961038)
  41:      1646.56   43.298845  ( -3.467559  -5.497255   1.027162)
  42:      1653.88   50.915382  (  4.248445  -3.153227   4.787823)
  43:      1680.07    8.729239  ( -0.697354  -1.060735   2.667916)
  44:      1721.89   84.788470  (  2.194443  -2.176735   8.673795)
  45:      3061.60    3.556433  ( -0.264339  -0.994531  -1.580337)
  46:      3071.18    3.001371  (  0.068228  -1.338323   1.098002)
  47:      3136.30    7.771300  ( -1.489688   1.371018  -1.916361)
  48:      3148.71    2.535069  ( -1.481167  -0.583797   0.019870)
  49:      3160.90    0.864160  (  0.796922   0.397187   0.267053)
  50:      3163.30    0.697018  ( -0.698820  -0.441052   0.118922)
  51:      3168.09    1.972657  (  1.294767   0.432936   0.329854)
  52:      3179.49    4.598897  ( -1.921297  -0.645426  -0.700671)
  53:      3260.79    0.844040  (  0.605475   0.520062  -0.454946)
  54:      3413.07   33.162065  ( -1.891832   1.948255   5.078123)
  55:      3505.49   65.997677  (  2.588208  -6.432141   4.233961)
  56:      3515.28   75.160219  ( -7.460588  -4.387659   0.498287)

--------------------------
THERMOCHEMISTRY AT 298.15K
--------------------------

Temperature         ... 298.15 K
Pressure            ... 1.00 atm
Total Mass          ... 98.17 AMU

Throughout the following assumptions are being made:
  (1) The electronic state is orbitally nondegenerate
  (2) There are no thermally accessible electronically excited states
  (3) Hindered rotations indicated by low frequency modes) are not
      treated as such but are treated as vibrations and this may
      case some error
  (4) All equations used are the standard statistical mechanics
      equations for an ideal gas
  (5) All vibrations are strinctly harmonic

------------
INNER ENERGY
------------

The inner energy is: U= E(el) + E(ZPE) + E(vib) + E(rot) + E(trans)
    E(el)   - is the total energy from the electronic structure calculation
              = E(kin-el) + E(nuc-el) + E(el-el) + E(nuc-nuc)
    E(ZPE)  - the the zero temperature vibrational energy from the frequency calculation
    E(vib)  - the the finite temperature correction to E(ZPE) due to population
              of excietd vibrational states
    E(rot)  - is the rotational thermal energy
    E(trans)- is the translational thermal energy

Summary of contributions to the inner energy U:
Electronic energy                ...   -290.08949189 Eh
Zero point energy                ...      0.17439082 Eh     109.43 kcal/mol
Thermal vibrational correction   ...      0.00580133 Eh       3.64 kcal/mol
Thermal rotational correction    ...      0.00141627 Eh       0.89 kcal/mol
Thermal translational correction ...      0.00141627 Eh       0.89 kcal/mol
-----------------------------------------------------------------------
Total thermal energy                   -289.90646719 Eh

Summary of corrections to the electronic energy:
(perhaps to be used in another calculation)
Total thermal correction                  0.00863388 Eh       5.42 kcal/mol
Non-thermal (ZPE) correction              0.17439082 Eh     109.43 kcal/mol
-----------------------------------------------------------------------
Total correction                          0.18302470 Eh     114.85 kcal/mol

--------
ENTHALPY
--------

The enthalpy is H = U + kB*T
                kB is Boltzmann's constant
Total free energy                 ...   -289.90646719 Eh
Thermal Enthalpy correction       ...      0.00094421 Eh       0.59 kcal/mol
-----------------------------------------------------------------------
Total Enthalpy                    ...   -289.90552298 Eh

-------
ENTROPY
-------

The entropy contributions are T*S = T*(S(el)+S(vib)+S(rot)+S(trans)
     S(el)   - electronic entropy
     S(vib)  - vibrational entropy
     S(rot)  - rotational entropy
     S(trans)- translational entropy
The entropies will be listed as mutliplied by the temperature to get
units of energy

Electronic entropy                ...      0.00000000 Eh      0.00 kcal/mol
Vibrational entropy               ...      0.01024690 Eh      6.43 kcal/mol
Rotational entropy                ...      0.01234475 Eh      7.75 kcal/mol
Translational entropy             ...      0.01884507 Eh     11.83 kcal/mol
-----------------------------------------------------------------------
Final entropy term                ...      0.04143672 Eh     26.00 kcal/mol

CAUTION: The rotational entropy is not quite correctly treated here
         because it includes a symmetry number that is not yet correctly
         implemented in ORCA!
For a nonlinear molecule the correct rotational entropy is:
    S(rot) = R*(ln(qrot/sn)+1.5)
    R    = 8.31441 J/mol/K = 1.987191683e-3 kcal/mol/K
    qrot = 319071.2677400
    sn is the rotational symmetry number. We have assumed 3 here
       if it is different for your molecule then you should correct
       the printed rotational entropy by manually evaluating the equation
       as given above

For convenience we print out the resulting values for sn=1 - 12:
 sn= 1  qrot/sn=  319071.2677 T*S(rot)=     8.40 kcal/mol T*S(tot)=    26.65 kcal/mol
 sn= 2  qrot/sn=  159535.6339 T*S(rot)=     7.99 kcal/mol T*S(tot)=    26.24 kcal/mol
 sn= 3  qrot/sn=  106357.0892 T*S(rot)=     7.75 kcal/mol T*S(tot)=    26.00 kcal/mol
 sn= 4  qrot/sn=   79767.8169 T*S(rot)=     7.58 kcal/mol T*S(tot)=    25.83 kcal/mol
 sn= 5  qrot/sn=   63814.2535 T*S(rot)=     7.44 kcal/mol T*S(tot)=    25.70 kcal/mol
 sn= 6  qrot/sn=   53178.5446 T*S(rot)=     7.34 kcal/mol T*S(tot)=    25.59 kcal/mol
 sn= 7  qrot/sn=   45581.6097 T*S(rot)=     7.24 kcal/mol T*S(tot)=    25.50 kcal/mol
 sn= 8  qrot/sn=   39883.9085 T*S(rot)=     7.17 kcal/mol T*S(tot)=    25.42 kcal/mol
 sn= 9  qrot/sn=   35452.3631 T*S(rot)=     7.10 kcal/mol T*S(tot)=    25.35 kcal/mol
 sn=10  qrot/sn=   31907.1268 T*S(rot)=     7.03 kcal/mol T*S(tot)=    25.29 kcal/mol
 sn=11  qrot/sn=   29006.4789 T*S(rot)=     6.98 kcal/mol T*S(tot)=    25.23 kcal/mol
 sn=12  qrot/sn=   26589.2723 T*S(rot)=     6.93 kcal/mol T*S(tot)=    25.18 kcal/mol

-------------------
GIBBS FREE ENTHALPY
-------------------

The Gibbs free enthalpy is G = H - T*S

Total enthalpy                    ...   -289.90552298 Eh
Total entropy correction          ...     -0.04143672 Eh    -26.00 kcal/mol
-----------------------------------------------------------------------
Final Gibbs free enthalpy         ...   -289.94695970 Eh

For completeness - the Gibbs free enthalpy minus the electronic energy
G-E(el)                           ...      0.14253219 Eh     89.44 kcal/mol

                             ****ORCA TERMINATED NORMALLY****
TOTAL RUN TIME: 0 days 0 hours 40 minutes 39 seconds 958 msec
