                         Program Version 3.0.3 - RELEASE   -
|  1> ! NORI PBE0 def2-TZVP UseSym TightOPT Freq TightSCF Grid3 FinalGrid5 XYZFile
|  2> % pal
|  3>     nprocs 8
|  4> end
|  5> %method
|  6>     SymThresh 5.0e-2
|  7> end
|  8> % geom
|  9>     MaxIter 10
| 10> end
| 11> % maxcore 2000
| 12> % output
| 13>     printlevel mini
| 14>     print[ P_Basis ] 0
| 15>     print[ P_SCFInfo ] 1
| 16>     print[ P_SCFIterInfo ] 1
| 17>     print[ P_OrbEn ] 0
| 18>     print[ P_Cartesian ] 0
| 19> end
| 20> % elprop
| 21>     Dipole false
| 22> end
| 23> *xyz 1 1
| 24>  C        0.7685505720    -0.0371709268     0.1632250691
| 25>  C        2.2454112463     0.1150649940    -0.1298530442
| 26>  N        3.0252200392    -0.6306511848     0.9634398050
| 27>  C        2.6701338790    -0.4232716618    -1.4499691758
| 28>  C        3.4286689754     0.2793371433    -2.2994709817
| 29>  C        3.8278441841    -0.1735964883    -3.5733642760
| 30>  C        4.1876453314    -0.5243812234    -4.6654820182
| 31>  H        0.2042960588     0.5311969788    -0.5759472971
| 32>  H        0.5015303689     0.3461424677     1.1510568763
| 33>  H        0.4522832393    -1.0809233424     0.0874449204
| 34>  H        2.5624405506     1.1551464065    -0.0234461906
| 35>  H        2.8048461090    -1.6288052760     0.9367916227
| 36>  H        2.7943865956    -0.2834029011     1.8970162533
| 37>  H        4.0316292805    -0.5328779500     0.8147888937
| 38>  H        2.3014820279    -1.4066786325    -1.7310321153
| 39>  H        3.7621229152     1.2785977802    -2.0217775089
| 40>  H        4.5046186269    -0.8376461835    -5.6345708327
| 41> *
| 42>
| 43>                          ****END OF INPUT****
 Total Charge           Charge          ....    1
 Multiplicity           Mult            ....    1
 Number of Electrons    NEL             ....   52
FINAL SINGLE POINT ENERGY      -288.831633464656
FINAL SINGLE POINT ENERGY      -288.831634881646

CARTESIAN COORDINATES (ANGSTROEM)
---------------------------------
  C      2.222352   -0.000097    1.344369
  C      0.775063   -0.398506    1.150140
  N      0.000047    0.001303    2.414551
  C      0.112027    0.239662   -0.018485
  C     -0.591333   -0.460708   -0.916149
  C     -1.209148    0.096383   -2.054213
  C     -1.748780    0.534088   -3.035073
  H      2.795131   -0.327424    0.476551
  H      2.663997   -0.466579    2.228547
  H      2.331859    1.085115    1.419930
  H      0.669683   -1.484774    1.101987
  H      0.032422    1.015219    2.542794
  H      0.392669   -0.433305    3.252676
  H     -0.982283   -0.267715    2.333012
  H      0.254579    1.309635   -0.151499
  H     -0.697315   -1.538546   -0.794428
  H     -2.225395    0.925367   -3.905563

FINAL SINGLE POINT ENERGY      -288.831635708962
                    ***********************HURRAY********************
 Multiplicity           Mult            ....    1
 Number of Electrons    NEL             ....   52
 Basis Dimension        Dim             ....  277
FINAL SINGLE POINT ENERGY      -288.831635868178

VIBRATIONAL FREQUENCIES
-----------------------

   0:         0.00 cm**-1
   1:         0.00 cm**-1
   2:         0.00 cm**-1
   3:         0.00 cm**-1
   4:         0.00 cm**-1
   5:         0.00 cm**-1
   6:        83.40 cm**-1
   7:       129.47 cm**-1
   8:       133.31 cm**-1
   9:       211.21 cm**-1
  10:       245.16 cm**-1
  11:       303.94 cm**-1
  12:       327.46 cm**-1
  13:       342.72 cm**-1
  14:       470.20 cm**-1
  15:       497.75 cm**-1
  16:       550.71 cm**-1
  17:       718.95 cm**-1
  18:       735.77 cm**-1
  19:       784.21 cm**-1
  20:       874.32 cm**-1
  21:       924.77 cm**-1
  22:       942.73 cm**-1
  23:       970.08 cm**-1
  24:       994.83 cm**-1
  25:      1049.89 cm**-1
  26:      1079.47 cm**-1
  27:      1176.02 cm**-1
  28:      1207.12 cm**-1
  29:      1288.08 cm**-1
  30:      1324.75 cm**-1
  31:      1372.94 cm**-1
  32:      1387.40 cm**-1
  33:      1419.39 cm**-1
  34:      1476.91 cm**-1
  35:      1484.40 cm**-1
  36:      1488.69 cm**-1
  37:      1647.83 cm**-1
  38:      1654.80 cm**-1
  39:      1703.09 cm**-1
  40:      2231.87 cm**-1
  41:      3055.26 cm**-1
  42:      3102.15 cm**-1
  43:      3133.79 cm**-1
  44:      3141.46 cm**-1
  45:      3157.90 cm**-1
  46:      3170.39 cm**-1
  47:      3412.90 cm**-1
  48:      3462.22 cm**-1
  49:      3504.47 cm**-1
  50:      3512.04 cm**-1

IR SPECTRUM
-----------

 Mode    freq (cm**-1)   T**2         TX         TY         TZ
-------------------------------------------------------------------
   6:        83.40    7.460307  ( -2.162857   0.249768  -1.649234)
   7:       129.47    5.426846  (  0.277052  -2.188468  -0.748795)
   8:       133.31    1.749046  (  0.940095  -0.094013  -0.925434)
   9:       211.21    0.179377  (  0.394311  -0.064976   0.140264)
  10:       245.16    1.823028  ( -0.405719  -1.256871  -0.280527)
  11:       303.94    3.009350  ( -0.803383   0.396034  -1.485625)
  12:       327.46    9.573677  ( -2.915477  -0.691290   0.771874)
  13:       342.72    6.526321  ( -0.698915   0.547389   2.395455)
  14:       470.20    4.016732  ( -0.962046  -0.681434   1.620755)
  15:       497.75    1.177736  (  0.859241   0.264898   0.607676)
  16:       550.71    9.126543  ( -0.521282  -2.972442   0.139264)
  17:       718.95   41.094215  ( -1.891578  -5.932550  -1.523481)
  18:       735.77   33.590901  ( -4.949943   0.834007   2.897136)
  19:       784.21   24.059806  ( -0.211256   0.917889  -4.813799)
  20:       874.32   14.062088  (  1.372660  -0.157997  -3.486105)
  21:       924.77    6.477988  ( -1.019270  -1.391828  -1.871335)
  22:       942.73    6.493905  (  1.621526   0.418148  -1.920862)
  23:       970.08   13.947192  ( -1.745257   0.433886  -3.273074)
  24:       994.83   45.175456  (  5.398246  -0.992910  -3.879242)
  25:      1049.89   17.548763  ( -3.150432   0.333416  -2.740871)
  26:      1079.47   31.785168  ( -2.135484   1.886585   4.864738)
  27:      1176.02   14.241902  ( -1.187307   1.599228  -3.205413)
  28:      1207.12   53.549602  (  4.186967  -0.427795   5.986309)
  29:      1288.08   15.020169  ( -2.012024   1.586414  -2.907786)
  30:      1324.75    4.082976  ( -0.102538  -2.017103   0.061305)
  31:      1372.94    6.597748  ( -1.859359  -1.402228   1.083646)
  32:      1387.40   24.660488  (  1.138932  -0.154847   4.831081)
  33:      1419.39   26.679099  (  4.778004   0.674117  -1.842646)
  34:      1476.91    3.699773  (  0.794548  -1.238791   1.238492)
  35:      1484.40  157.709713  (  5.032779  -3.864072 -10.837426)
  36:      1488.69   12.478788  (  1.149738   1.867678  -2.769236)
  37:      1647.83   51.147731  (  2.679739   6.546477  -1.053740)
  38:      1654.80   45.692630  (  4.830914  -2.139444   4.216359)
  39:      1703.09   70.041991  ( -3.813890   0.145473  -7.448159)
  40:      2231.87   63.594598  (  3.777087  -1.614808   6.835247)
  41:      3055.26    4.421178  ( -0.142993  -0.749495  -1.959334)
  42:      3102.15    0.731430  ( -0.524717  -0.667567   0.102253)
  43:      3133.79    6.595430  ( -0.716207   1.981981  -1.467730)
  44:      3141.46    5.410961  ( -1.075546   0.600831  -1.973110)
  45:      3157.90    2.231801  ( -1.344308  -0.203760  -0.618965)
  46:      3170.39    0.730638  ( -0.467509   0.413258  -0.584201)
  47:      3412.90   41.377334  (  2.263947  -1.115803  -5.916660)
  48:      3462.22   93.749088  ( -4.518093   3.074792  -7.992595)
  49:      3504.47   75.111655  (  0.305580  -8.383056   2.177763)
  50:      3512.04   72.455318  (  7.689659   1.909025   3.111283)

--------------------------
THERMOCHEMISTRY AT 298.15K
--------------------------

Temperature         ... 298.15 K
Pressure            ... 1.00 atm
Total Mass          ... 96.15 AMU

Throughout the following assumptions are being made:
  (1) The electronic state is orbitally nondegenerate
  (2) There are no thermally accessible electronically excited states
  (3) Hindered rotations indicated by low frequency modes) are not
      treated as such but are treated as vibrations and this may
      case some error
  (4) All equations used are the standard statistical mechanics
      equations for an ideal gas
  (5) All vibrations are strinctly harmonic

------------
INNER ENERGY
------------

The inner energy is: U= E(el) + E(ZPE) + E(vib) + E(rot) + E(trans)
    E(el)   - is the total energy from the electronic structure calculation
              = E(kin-el) + E(nuc-el) + E(el-el) + E(nuc-nuc)
    E(ZPE)  - the the zero temperature vibrational energy from the frequency calculation
    E(vib)  - the the finite temperature correction to E(ZPE) due to population
              of excietd vibrational states
    E(rot)  - is the rotational thermal energy
    E(trans)- is the translational thermal energy

Summary of contributions to the inner energy U:
Electronic energy                ...   -288.83163587 Eh
Zero point energy                ...      0.15009994 Eh      94.19 kcal/mol
Thermal vibrational correction   ...      0.00567134 Eh       3.56 kcal/mol
Thermal rotational correction    ...      0.00141627 Eh       0.89 kcal/mol
Thermal translational correction ...      0.00141627 Eh       0.89 kcal/mol
-----------------------------------------------------------------------
Total thermal energy                   -288.67303205 Eh

Summary of corrections to the electronic energy:
(perhaps to be used in another calculation)
Total thermal correction                  0.00850388 Eh       5.34 kcal/mol
Non-thermal (ZPE) correction              0.15009994 Eh      94.19 kcal/mol
-----------------------------------------------------------------------
Total correction                          0.15860382 Eh      99.53 kcal/mol

--------
ENTHALPY
--------

The enthalpy is H = U + kB*T
                kB is Boltzmann's constant
Total free energy                 ...   -288.67303205 Eh
Thermal Enthalpy correction       ...      0.00094421 Eh       0.59 kcal/mol
-----------------------------------------------------------------------
Total Enthalpy                    ...   -288.67208784 Eh

-------
ENTROPY
-------

The entropy contributions are T*S = T*(S(el)+S(vib)+S(rot)+S(trans)
     S(el)   - electronic entropy
     S(vib)  - vibrational entropy
     S(rot)  - rotational entropy
     S(trans)- translational entropy
The entropies will be listed as mutliplied by the temperature to get
units of energy

Electronic entropy                ...      0.00000000 Eh      0.00 kcal/mol
Vibrational entropy               ...      0.00999498 Eh      6.27 kcal/mol
Rotational entropy                ...      0.01230495 Eh      7.72 kcal/mol
Translational entropy             ...      0.01881568 Eh     11.81 kcal/mol
-----------------------------------------------------------------------
Final entropy term                ...      0.04111562 Eh     25.80 kcal/mol

CAUTION: The rotational entropy is not quite correctly treated here
         because it includes a symmetry number that is not yet correctly
         implemented in ORCA!
For a nonlinear molecule the correct rotational entropy is:
    S(rot) = R*(ln(qrot/sn)+1.5)
    R    = 8.31441 J/mol/K = 1.987191683e-3 kcal/mol/K
    qrot = 305902.1398795
    sn is the rotational symmetry number. We have assumed 3 here
       if it is different for your molecule then you should correct
       the printed rotational entropy by manually evaluating the equation
       as given above

For convenience we print out the resulting values for sn=1 - 12:
 sn= 1  qrot/sn=  305902.1399 T*S(rot)=     8.37 kcal/mol T*S(tot)=    26.45 kcal/mol
 sn= 2  qrot/sn=  152951.0699 T*S(rot)=     7.96 kcal/mol T*S(tot)=    26.04 kcal/mol
 sn= 3  qrot/sn=  101967.3800 T*S(rot)=     7.72 kcal/mol T*S(tot)=    25.80 kcal/mol
 sn= 4  qrot/sn=   76475.5350 T*S(rot)=     7.55 kcal/mol T*S(tot)=    25.63 kcal/mol
 sn= 5  qrot/sn=   61180.4280 T*S(rot)=     7.42 kcal/mol T*S(tot)=    25.50 kcal/mol
 sn= 6  qrot/sn=   50983.6900 T*S(rot)=     7.31 kcal/mol T*S(tot)=    25.39 kcal/mol
 sn= 7  qrot/sn=   43700.3057 T*S(rot)=     7.22 kcal/mol T*S(tot)=    25.30 kcal/mol
 sn= 8  qrot/sn=   38237.7675 T*S(rot)=     7.14 kcal/mol T*S(tot)=    25.22 kcal/mol
 sn= 9  qrot/sn=   33989.1267 T*S(rot)=     7.07 kcal/mol T*S(tot)=    25.15 kcal/mol
 sn=10  qrot/sn=   30590.2140 T*S(rot)=     7.01 kcal/mol T*S(tot)=    25.09 kcal/mol
 sn=11  qrot/sn=   27809.2854 T*S(rot)=     6.95 kcal/mol T*S(tot)=    25.03 kcal/mol
 sn=12  qrot/sn=   25491.8450 T*S(rot)=     6.90 kcal/mol T*S(tot)=    24.98 kcal/mol

-------------------
GIBBS FREE ENTHALPY
-------------------

The Gibbs free enthalpy is G = H - T*S

Total enthalpy                    ...   -288.67208784 Eh
Total entropy correction          ...     -0.04111562 Eh    -25.80 kcal/mol
-----------------------------------------------------------------------
Final Gibbs free enthalpy         ...   -288.71320346 Eh

For completeness - the Gibbs free enthalpy minus the electronic energy
G-E(el)                           ...      0.11843241 Eh     74.32 kcal/mol

                             ****ORCA TERMINATED NORMALLY****
TOTAL RUN TIME: 0 days 0 hours 32 minutes 25 seconds 313 msec
