                         Program Version 3.0.3 - RELEASE   -
|  1> ! NORI PBE0 def2-TZVP UseSym TightOPT Freq TightSCF Grid3 FinalGrid5 XYZFile
|  2> % pal
|  3>     nprocs 8
|  4> end
|  5> %method
|  6>     SymThresh 5.0e-2
|  7> end
|  8> % geom
|  9>     MaxIter 10
| 10> end
| 11> % maxcore 2000
| 12> % output
| 13>     printlevel mini
| 14>     print[ P_Basis ] 0
| 15>     print[ P_SCFInfo ] 1
| 16>     print[ P_SCFIterInfo ] 1
| 17>     print[ P_OrbEn ] 0
| 18>     print[ P_Cartesian ] 0
| 19> end
| 20> % elprop
| 21>     Dipole false
| 22> end
| 23> *xyz 1 1
| 24>  C        1.0035597541    -0.3070830505     0.1602993340
| 25>  C        2.4393027338     0.1725207582     0.0726236651
| 26>  N        3.2257216482    -0.8003816978    -0.7720593257
| 27>  C        2.5831381573     1.5707913733    -0.4710980538
| 28>  C        3.0467044549     1.8403316566    -1.6913345996
| 29>  C        2.1585961327     2.6090561991     0.4767578391
| 30>  C        1.5032394143     3.7132548541     0.1356869685
| 31>  H        0.9297131385    -1.3008174139     0.6084605949
| 32>  H        0.5317474050    -0.3129195806    -0.8256290680
| 33>  H        0.4392729945     0.3833140226     0.7871293064
| 34>  H        2.9108621141     0.1278798916     1.0595561131
| 35>  H        2.8053310936    -0.8861444405    -1.7000284856
| 36>  H        3.2394223680    -1.7291605007    -0.3480765309
| 37>  H        4.1878812474    -0.4753450234    -0.8949706313
| 38>  H        3.3249696264     1.0902568494    -2.4249913633
| 39>  H        3.1683311053     2.8652897212    -2.0172702594
| 40>  H        2.3921612038     2.4319229846     1.5250643658
| 41>  H        1.2047826386     3.9086166790    -0.8883949083
| 42>  H        1.2348627695     4.4544667176     0.8781250388
| 43> *
| 44>
| 45>                          ****END OF INPUT****
 Total Charge           Charge          ....    1
 Multiplicity           Mult            ....    1
 Number of Electrons    NEL             ....   54
FINAL SINGLE POINT ENERGY      -290.080416651791
FINAL SINGLE POINT ENERGY      -290.080418379080
FINAL SINGLE POINT ENERGY      -290.080419121517

CARTESIAN COORDINATES (ANGSTROEM)
---------------------------------
  C      1.901595    0.005054    0.671118
  C      0.467267   -0.447633    0.862716
  N     -0.002273   -0.006653    2.227978
  C     -0.477157    0.048766   -0.201606
  C     -1.372814    1.014383    0.003368
  C     -0.310463   -0.634980   -1.490415
  C     -0.403215   -0.037807   -2.673479
  H      2.569525   -0.417621    1.425502
  H      1.973832    1.095742    0.687329
  H      2.249238   -0.329233   -0.306270
  H      0.420151   -1.540862    0.893479
  H      0.082782    1.007574    2.324103
  H      0.556320   -0.437851    2.965970
  H     -0.985776   -0.251324    2.367528
  H     -1.483661    1.565550    0.932155
  H     -2.055531    1.304935   -0.784743
  H     -0.080566   -1.698018   -1.448266
  H     -0.581349    1.028202   -2.764627
  H     -0.292861   -0.600243   -3.592244

FINAL SINGLE POINT ENERGY      -290.080419359175
                    ***********************HURRAY********************
 Multiplicity           Mult            ....    1
 Number of Electrons    NEL             ....   54
 Basis Dimension        Dim             ....  289
FINAL SINGLE POINT ENERGY      -290.080419422276

VIBRATIONAL FREQUENCIES
-----------------------

   0:         0.00 cm**-1
   1:         0.00 cm**-1
   2:         0.00 cm**-1
   3:         0.00 cm**-1
   4:         0.00 cm**-1
   5:         0.00 cm**-1
   6:        56.57 cm**-1
   7:       101.56 cm**-1
   8:       213.25 cm**-1
   9:       220.82 cm**-1
  10:       240.53 cm**-1
  11:       269.12 cm**-1
  12:       337.91 cm**-1
  13:       352.48 cm**-1
  14:       424.24 cm**-1
  15:       505.19 cm**-1
  16:       567.89 cm**-1
  17:       704.49 cm**-1
  18:       759.63 cm**-1
  19:       783.31 cm**-1
  20:       869.97 cm**-1
  21:       931.09 cm**-1
  22:       942.77 cm**-1
  23:       949.77 cm**-1
  24:       970.08 cm**-1
  25:      1004.62 cm**-1
  26:      1018.49 cm**-1
  27:      1082.03 cm**-1
  28:      1088.64 cm**-1
  29:      1131.07 cm**-1
  30:      1195.12 cm**-1
  31:      1241.61 cm**-1
  32:      1334.59 cm**-1
  33:      1352.72 cm**-1
  34:      1406.85 cm**-1
  35:      1416.49 cm**-1
  36:      1445.59 cm**-1
  37:      1465.87 cm**-1
  38:      1477.16 cm**-1
  39:      1488.79 cm**-1
  40:      1493.94 cm**-1
  41:      1639.87 cm**-1
  42:      1659.06 cm**-1
  43:      1696.58 cm**-1
  44:      1715.26 cm**-1
  45:      3055.61 cm**-1
  46:      3077.57 cm**-1
  47:      3135.84 cm**-1
  48:      3152.05 cm**-1
  49:      3159.66 cm**-1
  50:      3160.13 cm**-1
  51:      3168.21 cm**-1
  52:      3250.68 cm**-1
  53:      3261.72 cm**-1
  54:      3417.11 cm**-1
  55:      3497.46 cm**-1
  56:      3516.28 cm**-1

IR SPECTRUM
-----------

 Mode    freq (cm**-1)   T**2         TX         TY         TZ
-------------------------------------------------------------------
   6:        56.57    4.659566  ( -0.884683  -1.965187  -0.122229)
   7:       101.56    0.953812  (  0.931426  -0.220540   0.193960)
   8:       213.25    1.354568  (  0.025785   0.820186  -0.825346)
   9:       220.82    0.868863  ( -0.689178   0.587652  -0.220369)
  10:       240.53    0.145137  (  0.232784  -0.159489   0.255954)
  11:       269.12    1.887398  (  0.172940   1.343451  -0.229409)
  12:       337.91   17.830511  (  1.975435  -0.780916   3.649430)
  13:       352.48    4.726286  (  1.852803   1.097141   0.299482)
  14:       424.24   19.174288  (  2.707107   0.850432  -3.335060)
  15:       505.19    2.854854  (  1.650405   0.281542   0.227491)
  16:       567.89    7.433066  ( -1.952837  -1.882651  -0.274074)
  17:       704.49    1.259614  (  0.914693  -0.423356  -0.493679)
  18:       759.63    3.065115  (  0.586606  -0.953882   1.345778)
  19:       783.31    9.550020  (  1.946977  -1.098475   2.133695)
  20:       869.97    2.604953  ( -1.584401   0.242420   0.189363)
  21:       931.09    0.847759  (  0.831517   0.029227   0.394315)
  22:       942.77   28.670979  (  3.875432   3.244549  -1.767741)
  23:       949.77   17.725107  ( -3.391051  -2.130455   1.298861)
  24:       970.08    8.912971  (  0.717617  -0.689556   2.814695)
  25:      1004.62   53.736077  ( -7.217533  -1.138077   0.589979)
  26:      1018.49    4.433495  (  2.004914   0.641997   0.040698)
  27:      1082.03    3.670062  (  0.831820  -0.600902   1.617731)
  28:      1088.64   13.426959  (  0.572735  -0.673289  -3.556067)
  29:      1131.07   19.398396  (  1.786421  -2.597330   3.075870)
  30:      1195.12   17.850598  (  3.314071   1.016486   2.415428)
  31:      1241.61    1.094634  ( -0.127020  -1.002003  -0.272928)
  32:      1334.59    3.892926  ( -0.305395  -1.249895   1.495801)
  33:      1352.72    3.171801  ( -1.723054  -0.350635  -0.282737)
  34:      1406.85    9.355413  ( -1.290776   1.201221  -2.499276)
  35:      1416.49   28.171923  ( -3.727749  -1.281977   3.554201)
  36:      1445.59    0.761181  ( -0.603469   0.442312   0.448738)
  37:      1465.87   38.132184  (  2.117495  -2.760300   5.101876)
  38:      1477.16    7.768355  ( -1.121828   2.365390   0.956445)
  39:      1488.79   14.405165  ( -1.768953   2.484704   2.258808)
  40:      1493.94  155.903100  ( -3.381112   3.288827  11.560917)
  41:      1639.87   57.992323  ( -2.816499  -6.712529   2.236427)
  42:      1659.06   41.614001  ( -4.619551   0.810503  -4.429089)
  43:      1696.58   10.857929  ( -0.783363   2.362050   2.159859)
  44:      1715.26    4.682472  (  1.911379  -1.004101  -0.144506)
  45:      3055.61    4.295459  (  0.905256   0.306825   1.838975)
  46:      3077.57    1.233632  ( -0.411266  -1.009652  -0.212356)
  47:      3135.84    5.272611  ( -1.206210   1.627741  -1.080799)
  48:      3152.05    4.085653  ( -0.729285   1.876538   0.180001)
  49:      3159.66    1.130220  (  0.577692  -0.001041  -0.892463)
  50:      3160.13    9.345984  (  1.175643   0.320143   2.803811)
  51:      3168.21    0.242339  (  0.017665   0.378714   0.314011)
  52:      3250.68    2.983688  ( -0.806044   1.037975   1.120976)
  53:      3261.72    0.102352  (  0.052050   0.274760  -0.155402)
  54:      3417.11   34.370019  ( -2.521620   0.845038   5.224688)
  55:      3497.46   76.237911  ( -5.788662  -6.531408  -0.264602)
  56:      3516.28   92.414267  ( -6.033521   4.900484  -5.656513)

--------------------------
THERMOCHEMISTRY AT 298.15K
--------------------------

Temperature         ... 298.15 K
Pressure            ... 1.00 atm
Total Mass          ... 98.17 AMU

Throughout the following assumptions are being made:
  (1) The electronic state is orbitally nondegenerate
  (2) There are no thermally accessible electronically excited states
  (3) Hindered rotations indicated by low frequency modes) are not
      treated as such but are treated as vibrations and this may
      case some error
  (4) All equations used are the standard statistical mechanics
      equations for an ideal gas
  (5) All vibrations are strinctly harmonic

------------
INNER ENERGY
------------

The inner energy is: U= E(el) + E(ZPE) + E(vib) + E(rot) + E(trans)
    E(el)   - is the total energy from the electronic structure calculation
              = E(kin-el) + E(nuc-el) + E(el-el) + E(nuc-nuc)
    E(ZPE)  - the the zero temperature vibrational energy from the frequency calculation
    E(vib)  - the the finite temperature correction to E(ZPE) due to population
              of excietd vibrational states
    E(rot)  - is the rotational thermal energy
    E(trans)- is the translational thermal energy

Summary of contributions to the inner energy U:
Electronic energy                ...   -290.08041942 Eh
Zero point energy                ...      0.17406876 Eh     109.23 kcal/mol
Thermal vibrational correction   ...      0.00577292 Eh       3.62 kcal/mol
Thermal rotational correction    ...      0.00141627 Eh       0.89 kcal/mol
Thermal translational correction ...      0.00141627 Eh       0.89 kcal/mol
-----------------------------------------------------------------------
Total thermal energy                   -289.89774520 Eh

Summary of corrections to the electronic energy:
(perhaps to be used in another calculation)
Total thermal correction                  0.00860546 Eh       5.40 kcal/mol
Non-thermal (ZPE) correction              0.17406876 Eh     109.23 kcal/mol
-----------------------------------------------------------------------
Total correction                          0.18267423 Eh     114.63 kcal/mol

--------
ENTHALPY
--------

The enthalpy is H = U + kB*T
                kB is Boltzmann's constant
Total free energy                 ...   -289.89774520 Eh
Thermal Enthalpy correction       ...      0.00094421 Eh       0.59 kcal/mol
-----------------------------------------------------------------------
Total Enthalpy                    ...   -289.89680099 Eh

-------
ENTROPY
-------

The entropy contributions are T*S = T*(S(el)+S(vib)+S(rot)+S(trans)
     S(el)   - electronic entropy
     S(vib)  - vibrational entropy
     S(rot)  - rotational entropy
     S(trans)- translational entropy
The entropies will be listed as mutliplied by the temperature to get
units of energy

Electronic entropy                ...      0.00000000 Eh      0.00 kcal/mol
Vibrational entropy               ...      0.01034326 Eh      6.49 kcal/mol
Rotational entropy                ...      0.01215862 Eh      7.63 kcal/mol
Translational entropy             ...      0.01884507 Eh     11.83 kcal/mol
-----------------------------------------------------------------------
Final entropy term                ...      0.04134695 Eh     25.95 kcal/mol

CAUTION: The rotational entropy is not quite correctly treated here
         because it includes a symmetry number that is not yet correctly
         implemented in ORCA!
For a nonlinear molecule the correct rotational entropy is:
    S(rot) = R*(ln(qrot/sn)+1.5)
    R    = 8.31441 J/mol/K = 1.987191683e-3 kcal/mol/K
    qrot = 261984.6163693
    sn is the rotational symmetry number. We have assumed 3 here
       if it is different for your molecule then you should correct
       the printed rotational entropy by manually evaluating the equation
       as given above

For convenience we print out the resulting values for sn=1 - 12:
 sn= 1  qrot/sn=  261984.6164 T*S(rot)=     8.28 kcal/mol T*S(tot)=    26.60 kcal/mol
 sn= 2  qrot/sn=  130992.3082 T*S(rot)=     7.87 kcal/mol T*S(tot)=    26.19 kcal/mol
 sn= 3  qrot/sn=   87328.2055 T*S(rot)=     7.63 kcal/mol T*S(tot)=    25.95 kcal/mol
 sn= 4  qrot/sn=   65496.1541 T*S(rot)=     7.46 kcal/mol T*S(tot)=    25.78 kcal/mol
 sn= 5  qrot/sn=   52396.9233 T*S(rot)=     7.33 kcal/mol T*S(tot)=    25.64 kcal/mol
 sn= 6  qrot/sn=   43664.1027 T*S(rot)=     7.22 kcal/mol T*S(tot)=    25.53 kcal/mol
 sn= 7  qrot/sn=   37426.3738 T*S(rot)=     7.13 kcal/mol T*S(tot)=    25.44 kcal/mol
 sn= 8  qrot/sn=   32748.0770 T*S(rot)=     7.05 kcal/mol T*S(tot)=    25.36 kcal/mol
 sn= 9  qrot/sn=   29109.4018 T*S(rot)=     6.98 kcal/mol T*S(tot)=    25.29 kcal/mol
 sn=10  qrot/sn=   26198.4616 T*S(rot)=     6.92 kcal/mol T*S(tot)=    25.23 kcal/mol
 sn=11  qrot/sn=   23816.7833 T*S(rot)=     6.86 kcal/mol T*S(tot)=    25.18 kcal/mol
 sn=12  qrot/sn=   21832.0514 T*S(rot)=     6.81 kcal/mol T*S(tot)=    25.12 kcal/mol

-------------------
GIBBS FREE ENTHALPY
-------------------

The Gibbs free enthalpy is G = H - T*S

Total enthalpy                    ...   -289.89680099 Eh
Total entropy correction          ...     -0.04134695 Eh    -25.95 kcal/mol
-----------------------------------------------------------------------
Final Gibbs free enthalpy         ...   -289.93814794 Eh

For completeness - the Gibbs free enthalpy minus the electronic energy
G-E(el)                           ...      0.14227149 Eh     89.28 kcal/mol

                             ****ORCA TERMINATED NORMALLY****
TOTAL RUN TIME: 0 days 0 hours 47 minutes 47 seconds 980 msec
