                         Program Version 3.0.3 - RELEASE   -
|  1> ! NORI PBE0 def2-TZVP UseSym TightOPT Freq TightSCF Grid3 FinalGrid5 XYZFile
|  2> % pal
|  3>     nprocs 8
|  4> end
|  5> %method
|  6>     SymThresh 5.0e-2
|  7> end
|  8> % geom
|  9>     MaxIter 10
| 10> end
| 11> % maxcore 2000
| 12> % output
| 13>     printlevel mini
| 14>     print[ P_Basis ] 0
| 15>     print[ P_SCFInfo ] 1
| 16>     print[ P_SCFIterInfo ] 1
| 17>     print[ P_OrbEn ] 0
| 18>     print[ P_Cartesian ] 0
| 19> end
| 20> % elprop
| 21>     Dipole false
| 22> end
| 23> *xyz 1 1
| 24>  C        0.9820366840     0.0840430047     0.0658946304
| 25>  C        2.4799569732     0.1178191521    -0.1521332037
| 26>  N        3.1639818488    -0.0344857818     1.1938965140
| 27>  C        2.9974335758    -0.9964146489    -1.0323338187
| 28>  C        3.4645490463    -0.7618167002    -2.2583340134
| 29>  C        2.9241258313    -2.2906040140    -0.4427869451
| 30>  C        2.8607389516    -3.3315827118     0.1594834290
| 31>  H        0.4835231048     0.2183102993    -0.8937680544
| 32>  H        0.6530959610     0.8888814171     0.7284046415
| 33>  H        0.6627139769    -0.8765453939     0.4764385015
| 34>  H        2.8001915629     1.0827875033    -0.5475351832
| 35>  H        3.0509787932    -1.0134103754     1.4936583653
| 36>  H        2.7590287879     0.5816888696     1.8997746319
| 37>  H        4.1664325102     0.1516753983     1.1280979651
| 38>  H        3.7920405659    -1.5720097504    -2.8970301750
| 39>  H        3.5145333245     0.2447082066    -2.6578732113
| 40>  H        2.8050485014    -4.2850944746     0.6366959260
| 41> *
| 42>
| 43>                          ****END OF INPUT****
 Total Charge           Charge          ....    1
 Multiplicity           Mult            ....    1
 Number of Electrons    NEL             ....   52
FINAL SINGLE POINT ENERGY      -288.834794670628

CARTESIAN COORDINATES (ANGSTROEM)
---------------------------------
  C      1.988400    0.000005    0.361896
  C      0.643103   -0.652960    0.599467
  N     -0.000070    0.000030    1.809070
  C     -0.327044   -0.495008   -0.548500
  C     -0.684751   -1.527826   -1.311303
  C     -0.796701    0.835684   -0.739362
  C     -1.166984    1.980516   -0.789008
  H      2.467824   -0.481505   -0.490245
  H      2.649599   -0.113891    1.224763
  H      1.878305    1.061316    0.127278
  H      0.754963   -1.709151    0.848766
  H     -0.307618    0.942622    1.529911
  H      0.650210    0.077314    2.592235
  H     -0.828184   -0.513528    2.116230
  H     -1.346272   -1.395861   -2.157780
  H     -0.310726   -2.526519   -1.116700
  H     -1.510549    2.985955   -0.894934

FINAL SINGLE POINT ENERGY      -288.834794868678
                    ***********************HURRAY********************
 Multiplicity           Mult            ....    1
 Number of Electrons    NEL             ....   52
 Basis Dimension        Dim             ....  277
FINAL SINGLE POINT ENERGY      -288.834794914967

VIBRATIONAL FREQUENCIES
-----------------------

   0:         0.00 cm**-1
   1:         0.00 cm**-1
   2:         0.00 cm**-1
   3:         0.00 cm**-1
   4:         0.00 cm**-1
   5:         0.00 cm**-1
   6:        73.50 cm**-1
   7:       143.96 cm**-1
   8:       197.22 cm**-1
   9:       234.41 cm**-1
  10:       254.27 cm**-1
  11:       315.10 cm**-1
  12:       330.23 cm**-1
  13:       356.75 cm**-1
  14:       472.83 cm**-1
  15:       626.84 cm**-1
  16:       657.84 cm**-1
  17:       701.63 cm**-1
  18:       725.98 cm**-1
  19:       749.79 cm**-1
  20:       753.53 cm**-1
  21:       858.09 cm**-1
  22:       935.69 cm**-1
  23:       954.97 cm**-1
  24:       973.08 cm**-1
  25:      1002.04 cm**-1
  26:      1085.82 cm**-1
  27:      1093.17 cm**-1
  28:      1213.95 cm**-1
  29:      1293.90 cm**-1
  30:      1344.51 cm**-1
  31:      1374.72 cm**-1
  32:      1417.18 cm**-1
  33:      1450.44 cm**-1
  34:      1477.04 cm**-1
  35:      1487.57 cm**-1
  36:      1489.76 cm**-1
  37:      1636.10 cm**-1
  38:      1656.96 cm**-1
  39:      1699.92 cm**-1
  40:      2214.09 cm**-1
  41:      3058.39 cm**-1
  42:      3118.28 cm**-1
  43:      3139.98 cm**-1
  44:      3160.79 cm**-1
  45:      3173.88 cm**-1
  46:      3273.17 cm**-1
  47:      3337.34 cm**-1
  48:      3450.13 cm**-1
  49:      3468.57 cm**-1
  50:      3522.33 cm**-1

IR SPECTRUM
-----------

 Mode    freq (cm**-1)   T**2         TX         TY         TZ
-------------------------------------------------------------------
   6:        73.50    5.152392  ( -0.262868  -2.092632   0.839156)
   7:       143.96    3.814625  ( -0.732572   1.169176  -1.382386)
   8:       197.22    6.770703  ( -2.411367  -0.480945  -0.851296)
   9:       234.41    0.816302  ( -0.121465   0.469126  -0.762541)
  10:       254.27    1.824946  (  0.833330   0.441914   0.967067)
  11:       315.10    5.000292  ( -0.235537  -1.053837   1.958122)
  12:       330.23   12.407102  ( -3.057415  -0.483590   1.680910)
  13:       356.75   14.705400  (  1.944994  -0.282121   3.292842)
  14:       472.83   21.745434  ( -1.106466   1.512715  -4.269995)
  15:       626.84    3.490980  ( -1.275281  -0.616859  -1.218246)
  16:       657.84   10.125141  ( -1.934599   0.086037   2.524889)
  17:       701.63   36.778348  (  5.218565   0.943552  -2.941877)
  18:       725.98    1.509038  ( -0.391362  -1.011738  -0.576420)
  19:       749.79    5.158969  (  1.227745   1.020638   1.615521)
  20:       753.53   34.824632  ( -2.111368  -1.929947  -5.161595)
  21:       858.09    4.781014  (  0.748462   1.157388  -1.697431)
  22:       935.69    3.567411  ( -0.360291   1.844694   0.186292)
  23:       954.97    8.703641  (  1.709408   1.268282  -2.042798)
  24:       973.08    9.713388  (  1.802740  -0.223185   2.532530)
  25:      1002.04   36.075385  (  4.583925   1.318560  -3.650263)
  26:      1085.82   35.466758  ( -3.084718   0.723998  -5.042529)
  27:      1093.17   26.632835  (  4.294304  -2.857915  -0.155264)
  28:      1213.95    7.262925  ( -1.855191  -1.911321  -0.409931)
  29:      1293.90    6.469898  (  0.265452   2.299437   1.054524)
  30:      1344.51    8.268939  (  2.336220  -0.490045   1.603393)
  31:      1374.72    8.893135  ( -0.046801  -1.803348   2.374633)
  32:      1417.18   26.368384  (  4.033169   0.895142  -3.049697)
  33:      1450.44   15.123778  (  1.036611   2.541124   2.755342)
  34:      1477.04    6.560337  (  1.211826  -2.184350  -0.566065)
  35:      1487.57  121.499361  ( -2.525097   4.941509   9.523903)
  36:      1489.76   57.682423  ( -1.296725   0.863566   7.433383)
  37:      1636.10   33.691648  ( -3.804473  -4.329169   0.689878)
  38:      1656.96   45.337641  (  3.953625  -2.594621   4.793165)
  39:      1699.92    1.033042  ( -0.480329  -0.799267  -0.404350)
  40:      2214.09    7.872090  (  1.121898  -2.178884   1.365979)
  41:      3058.39    3.603196  (  0.413797   0.727331   1.703807)
  42:      3118.28    0.443429  ( -0.475336  -0.455601   0.099562)
  43:      3139.98    4.263719  (  1.083557  -1.083916   1.383745)
  44:      3160.79    0.753992  (  0.759280   0.401393  -0.127942)
  45:      3173.88    3.112619  ( -0.774555  -0.851357  -1.337114)
  46:      3273.17    1.255735  (  0.703709  -0.115692   0.864375)
  47:      3337.34   68.028747  (  4.198863  -6.154552   3.538331)
  48:      3450.13  116.903482  ( -3.504934  10.182079  -0.971689)
  49:      3468.57  108.398361  (  0.475104   4.878181  -9.185640)
  50:      3522.33   85.823716  ( -8.202343  -2.862769  -3.217118)

--------------------------
THERMOCHEMISTRY AT 298.15K
--------------------------

Temperature         ... 298.15 K
Pressure            ... 1.00 atm
Total Mass          ... 96.15 AMU

Throughout the following assumptions are being made:
  (1) The electronic state is orbitally nondegenerate
  (2) There are no thermally accessible electronically excited states
  (3) Hindered rotations indicated by low frequency modes) are not
      treated as such but are treated as vibrations and this may
      case some error
  (4) All equations used are the standard statistical mechanics
      equations for an ideal gas
  (5) All vibrations are strinctly harmonic

------------
INNER ENERGY
------------

The inner energy is: U= E(el) + E(ZPE) + E(vib) + E(rot) + E(trans)
    E(el)   - is the total energy from the electronic structure calculation
              = E(kin-el) + E(nuc-el) + E(el-el) + E(nuc-nuc)
    E(ZPE)  - the the zero temperature vibrational energy from the frequency calculation
    E(vib)  - the the finite temperature correction to E(ZPE) due to population
              of excietd vibrational states
    E(rot)  - is the rotational thermal energy
    E(trans)- is the translational thermal energy

Summary of contributions to the inner energy U:
Electronic energy                ...   -288.83479491 Eh
Zero point energy                ...      0.15025824 Eh      94.29 kcal/mol
Thermal vibrational correction   ...      0.00542252 Eh       3.40 kcal/mol
Thermal rotational correction    ...      0.00141627 Eh       0.89 kcal/mol
Thermal translational correction ...      0.00141627 Eh       0.89 kcal/mol
-----------------------------------------------------------------------
Total thermal energy                   -288.67628161 Eh

Summary of corrections to the electronic energy:
(perhaps to be used in another calculation)
Total thermal correction                  0.00825507 Eh       5.18 kcal/mol
Non-thermal (ZPE) correction              0.15025824 Eh      94.29 kcal/mol
-----------------------------------------------------------------------
Total correction                          0.15851331 Eh      99.47 kcal/mol

--------
ENTHALPY
--------

The enthalpy is H = U + kB*T
                kB is Boltzmann's constant
Total free energy                 ...   -288.67628161 Eh
Thermal Enthalpy correction       ...      0.00094421 Eh       0.59 kcal/mol
-----------------------------------------------------------------------
Total Enthalpy                    ...   -288.67533740 Eh

-------
ENTROPY
-------

The entropy contributions are T*S = T*(S(el)+S(vib)+S(rot)+S(trans)
     S(el)   - electronic entropy
     S(vib)  - vibrational entropy
     S(rot)  - rotational entropy
     S(trans)- translational entropy
The entropies will be listed as mutliplied by the temperature to get
units of energy

Electronic entropy                ...      0.00000000 Eh      0.00 kcal/mol
Vibrational entropy               ...      0.00938058 Eh      5.89 kcal/mol
Rotational entropy                ...      0.01209265 Eh      7.59 kcal/mol
Translational entropy             ...      0.01881568 Eh     11.81 kcal/mol
-----------------------------------------------------------------------
Final entropy term                ...      0.04028892 Eh     25.28 kcal/mol

CAUTION: The rotational entropy is not quite correctly treated here
         because it includes a symmetry number that is not yet correctly
         implemented in ORCA!
For a nonlinear molecule the correct rotational entropy is:
    S(rot) = R*(ln(qrot/sn)+1.5)
    R    = 8.31441 J/mol/K = 1.987191683e-3 kcal/mol/K
    qrot = 244304.2680064
    sn is the rotational symmetry number. We have assumed 3 here
       if it is different for your molecule then you should correct
       the printed rotational entropy by manually evaluating the equation
       as given above

For convenience we print out the resulting values for sn=1 - 12:
 sn= 1  qrot/sn=  244304.2680 T*S(rot)=     8.24 kcal/mol T*S(tot)=    25.93 kcal/mol
 sn= 2  qrot/sn=  122152.1340 T*S(rot)=     7.83 kcal/mol T*S(tot)=    25.52 kcal/mol
 sn= 3  qrot/sn=   81434.7560 T*S(rot)=     7.59 kcal/mol T*S(tot)=    25.28 kcal/mol
 sn= 4  qrot/sn=   61076.0670 T*S(rot)=     7.42 kcal/mol T*S(tot)=    25.11 kcal/mol
 sn= 5  qrot/sn=   48860.8536 T*S(rot)=     7.29 kcal/mol T*S(tot)=    24.98 kcal/mol
 sn= 6  qrot/sn=   40717.3780 T*S(rot)=     7.18 kcal/mol T*S(tot)=    24.87 kcal/mol
 sn= 7  qrot/sn=   34900.6097 T*S(rot)=     7.09 kcal/mol T*S(tot)=    24.78 kcal/mol
 sn= 8  qrot/sn=   30538.0335 T*S(rot)=     7.01 kcal/mol T*S(tot)=    24.70 kcal/mol
 sn= 9  qrot/sn=   27144.9187 T*S(rot)=     6.94 kcal/mol T*S(tot)=    24.63 kcal/mol
 sn=10  qrot/sn=   24430.4268 T*S(rot)=     6.87 kcal/mol T*S(tot)=    24.57 kcal/mol
 sn=11  qrot/sn=   22209.4789 T*S(rot)=     6.82 kcal/mol T*S(tot)=    24.51 kcal/mol
 sn=12  qrot/sn=   20358.6890 T*S(rot)=     6.77 kcal/mol T*S(tot)=    24.46 kcal/mol

-------------------
GIBBS FREE ENTHALPY
-------------------

The Gibbs free enthalpy is G = H - T*S

Total enthalpy                    ...   -288.67533740 Eh
Total entropy correction          ...     -0.04028892 Eh    -25.28 kcal/mol
-----------------------------------------------------------------------
Final Gibbs free enthalpy         ...   -288.71562632 Eh

For completeness - the Gibbs free enthalpy minus the electronic energy
G-E(el)                           ...      0.11916860 Eh     74.78 kcal/mol

                             ****ORCA TERMINATED NORMALLY****
TOTAL RUN TIME: 0 days 0 hours 36 minutes 16 seconds 12 msec
