                         Program Version 3.0.3 - RELEASE   -
|  1> ! NORI PBE0 def2-TZVP UseSym TightOPT Freq TightSCF Grid3 FinalGrid5 XYZFile
|  2> % pal
|  3>     nprocs 8
|  4> end
|  5> %method
|  6>     SymThresh 5.0e-2
|  7> end
|  8> % geom
|  9>     MaxIter 10
| 10> end
| 11> % maxcore 2000
| 12> % output
| 13>     printlevel mini
| 14>     print[ P_Basis ] 0
| 15>     print[ P_SCFInfo ] 1
| 16>     print[ P_SCFIterInfo ] 1
| 17>     print[ P_OrbEn ] 0
| 18>     print[ P_Cartesian ] 0
| 19> end
| 20> % elprop
| 21>     Dipole false
| 22> end
| 23> *xyz 1 1
| 24>  C        2.9370034677    -1.2666954138    -0.5404225050
| 25>  C        2.5906968621     0.0923574439     0.0271897163
| 26>  N        1.0778666025     0.2252229651    -0.0123180839
| 27>  C        3.0885289879     0.4160495159     1.4504927573
| 28>  C        2.5782685734     1.7996761267     1.8671636224
| 29>  C        2.6324968491    -0.6295610191     2.4675609303
| 30>  C        4.6166098439     0.4567613233     1.4061435572
| 31>  H        2.5646925363    -1.3779394066    -1.5619222206
| 32>  H        2.5354971219    -2.0817023289     0.0656321750
| 33>  H        4.0182555022    -1.3861500722    -0.5842575733
| 34>  H        2.9445300880     0.8783252174    -0.6463555420
| 35>  H        0.6484647442    -0.4570966430     0.6160470279
| 36>  H        0.7164151725     0.0591573214    -0.9521496697
| 37>  H        0.7877542394     1.1559999718     0.2920222923
| 38>  H        2.8039451297     2.5626131073     1.1154119921
| 39>  H        3.0666164567     2.1089004596     2.7918429271
| 40>  H        1.5035971994     1.8191261765     2.0846825867
| 41>  H        3.0421807368    -1.6188555823     2.2583682062
| 42>  H        1.5418525902    -0.7172818490     2.5444871887
| 43>  H        2.9777825082    -0.3430458372     3.4624123390
| 44>  H        4.9798722552     1.1780077093     0.6694325246
| 45>  H        5.0495434094    -0.5180119440     1.1782661612
| 46>  H        5.0007791232     0.7607127579     2.3811095902
| 47> *
| 48>
| 49>                          ****END OF INPUT****
 Total Charge           Charge          ....    1
 Multiplicity           Mult            ....    1
 Number of Electrons    NEL             ....   58
FINAL SINGLE POINT ENERGY      -292.544767428079
FINAL SINGLE POINT ENERGY      -292.544772725396
FINAL SINGLE POINT ENERGY      -292.544776716291
FINAL SINGLE POINT ENERGY      -292.544779472418
FINAL SINGLE POINT ENERGY      -292.544781555789
FINAL SINGLE POINT ENERGY      -292.544782936817

CARTESIAN COORDINATES (ANGSTROEM)
---------------------------------
  C      1.994417   -0.022551    0.506489
  C      0.547955   -0.457871    0.589589
  N      0.009086    0.023606    1.926360
  C     -0.400752    0.006208   -0.534147
  C     -1.814274   -0.512926   -0.252645
  C     -0.427319    1.528371   -0.671014
  C      0.093670   -0.617925   -1.840237
  H      2.578788   -0.427062    1.336968
  H      2.098896    1.064619    0.505613
  H      2.443550   -0.402352   -0.409532
  H      0.490250   -1.548350    0.655130
  H      0.012682    1.045302    1.958692
  H      0.580044   -0.318135    2.700267
  H     -0.953048   -0.290697    2.064572
  H     -1.823787   -1.591529   -0.067812
  H     -2.454749   -0.330383   -1.116574
  H     -2.306741   -0.004956    0.585317
  H      0.551616    1.941024   -0.920335
  H     -0.801309    2.038826    0.224686
  H     -1.108557    1.808067   -1.476460
  H      0.167238   -1.706197   -1.764886
  H      1.065440   -0.226226   -2.143482
  H     -0.611492   -0.390868   -2.641236

FINAL SINGLE POINT ENERGY      -292.544783646412
                    ***********************HURRAY********************
 Multiplicity           Mult            ....    1
 Number of Electrons    NEL             ....   58
 Basis Dimension        Dim             ....  313
FINAL SINGLE POINT ENERGY      -292.544783913437

VIBRATIONAL FREQUENCIES
-----------------------

   0:         0.00 cm**-1
   1:         0.00 cm**-1
   2:         0.00 cm**-1
   3:         0.00 cm**-1
   4:         0.00 cm**-1
   5:         0.00 cm**-1
   6:        51.40 cm**-1
   7:       181.22 cm**-1
   8:       207.98 cm**-1
   9:       233.85 cm**-1
  10:       248.07 cm**-1
  11:       262.55 cm**-1
  12:       282.98 cm**-1
  13:       289.98 cm**-1
  14:       346.82 cm**-1
  15:       363.06 cm**-1
  16:       378.54 cm**-1
  17:       429.27 cm**-1
  18:       459.75 cm**-1
  19:       524.02 cm**-1
  20:       699.87 cm**-1
  21:       828.78 cm**-1
  22:       888.24 cm**-1
  23:       934.02 cm**-1
  24:       941.27 cm**-1
  25:       949.71 cm**-1
  26:       960.73 cm**-1
  27:       965.71 cm**-1
  28:      1009.15 cm**-1
  29:      1022.19 cm**-1
  30:      1095.93 cm**-1
  31:      1107.91 cm**-1
  32:      1201.84 cm**-1
  33:      1242.06 cm**-1
  34:      1256.55 cm**-1
  35:      1293.17 cm**-1
  36:      1366.84 cm**-1
  37:      1393.41 cm**-1
  38:      1401.91 cm**-1
  39:      1404.44 cm**-1
  40:      1419.97 cm**-1
  41:      1435.74 cm**-1
  42:      1466.88 cm**-1
  43:      1468.49 cm**-1
  44:      1474.38 cm**-1
  45:      1476.98 cm**-1
  46:      1489.95 cm**-1
  47:      1494.48 cm**-1
  48:      1505.00 cm**-1
  49:      1509.27 cm**-1
  50:      1518.47 cm**-1
  51:      1643.80 cm**-1
  52:      1657.75 cm**-1
  53:      3026.61 cm**-1
  54:      3034.46 cm**-1
  55:      3057.69 cm**-1
  56:      3062.92 cm**-1
  57:      3083.07 cm**-1
  58:      3097.69 cm**-1
  59:      3113.14 cm**-1
  60:      3132.72 cm**-1
  61:      3134.42 cm**-1
  62:      3139.04 cm**-1
  63:      3144.06 cm**-1
  64:      3148.11 cm**-1
  65:      3171.59 cm**-1
  66:      3422.22 cm**-1
  67:      3503.10 cm**-1
  68:      3519.79 cm**-1

IR SPECTRUM
-----------

 Mode    freq (cm**-1)   T**2         TX         TY         TZ
-------------------------------------------------------------------
   6:        51.40    4.108125  ( -0.604636  -1.929518   0.139651)
   7:       181.22    0.500075  ( -0.064350  -0.689150   0.144936)
   8:       207.98    1.911387  ( -0.704806   0.592373  -1.031373)
   9:       233.85    2.868647  ( -0.408799   1.058060  -1.257791)
  10:       248.07    1.266916  (  0.654520   0.910515   0.097379)
  11:       262.55    0.197342  (  0.174310  -0.397051  -0.096480)
  12:       282.98    8.401662  (  1.683365  -0.390853   2.327054)
  13:       289.98    0.962503  (  0.428742  -0.663856   0.581358)
  14:       346.82    5.016731  ( -0.597923   0.186364  -2.150462)
  15:       363.06    7.230609  ( -2.442964  -0.429417  -1.038333)
  16:       378.54    3.457858  ( -1.016927   0.372887  -1.511513)
  17:       429.27    3.683936  ( -1.153099  -0.337943   1.496695)
  18:       459.75    0.846652  (  0.071873   0.154719   0.904184)
  19:       524.02    3.364105  (  0.035745  -1.129047   1.445019)
  20:       699.87    2.301446  ( -0.745653   0.935358  -0.933034)
  21:       828.78    2.350240  ( -1.297905  -0.510707   0.636286)
  22:       888.24    2.320320  ( -0.480538   0.534040   1.343207)
  23:       934.02    9.130123  ( -2.837119  -0.966985   0.381862)
  24:       941.27    1.149296  ( -0.255217  -0.539707   0.890436)
  25:       949.71    2.607590  (  0.230956   0.503944   1.516671)
  26:       960.73    0.912059  (  0.566176   0.594272  -0.488205)
  27:       965.71    9.040857  ( -2.085452   0.295858  -2.145743)
  28:      1009.15    5.101124  (  0.570775  -1.311744   1.747761)
  29:      1022.19    1.444428  (  0.756993  -0.675807  -0.643952)
  30:      1095.93   10.572816  ( -1.245582   1.425971   2.643473)
  31:      1107.91   20.504851  ( -2.960658   1.749385  -2.946015)
  32:      1201.84   25.484194  (  3.928489   0.962707   3.020656)
  33:      1242.06    3.970235  (  1.534495  -0.708360   1.055360)
  34:      1256.55    0.881041  (  0.208161  -0.742886   0.534631)
  35:      1293.17    0.971898  (  0.421767   0.601496   0.657429)
  36:      1366.84    0.388641  (  0.028688   0.411117  -0.467761)
  37:      1393.41    7.880603  ( -0.776085  -1.800063   2.009494)
  38:      1401.91    5.091311  (  1.757959   1.281161  -0.599599)
  39:      1404.44   10.106617  (  0.006027  -3.118424  -0.618071)
  40:      1419.97   31.413341  (  5.321038   0.148374  -1.754389)
  41:      1435.74   30.995090  (  0.287456  -0.734604   5.511154)
  42:      1466.88    0.631339  (  0.014620   0.202376   0.768225)
  43:      1468.49   45.102291  ( -0.985216   1.591130   6.449802)
  44:      1474.38    4.019606  ( -0.416734   1.378405  -1.394969)
  45:      1476.98   80.338869  ( -0.967830   2.564830   8.533688)
  46:      1489.95   31.220873  (  0.510829  -0.560862  -5.535825)
  47:      1494.48    9.885680  (  1.099335  -2.905353   0.485864)
  48:      1505.00   12.086949  (  3.223993   1.287634   0.186596)
  49:      1509.27   21.991987  ( -2.377583   0.502053   4.010864)
  50:      1518.47   27.497343  ( -2.914860   4.105205   1.465683)
  51:      1643.80   38.323201  (  2.593452   5.414245  -1.511013)
  52:      1657.75   42.618835  ( -4.183772   1.943629  -4.619219)
  53:      3026.61   12.727056  (  1.907380   0.979663  -2.851179)
  54:      3034.46   35.592053  ( -1.239438   2.938764   5.041777)
  55:      3057.69    4.872090  ( -0.970852   1.570488   1.209589)
  56:      3062.92    5.037118  ( -0.964200  -0.410919  -1.984586)
  57:      3083.07    2.758776  ( -0.836488  -1.353061   0.477798)
  58:      3097.69   17.424555  ( -0.573832   3.476683   2.237844)
  59:      3113.14   13.112388  (  1.700267  -0.656629  -3.128948)
  60:      3132.72    2.848415  (  1.399714  -0.518662   0.787531)
  61:      3134.42    8.503566  (  0.197585  -2.641579   1.219258)
  62:      3139.04   10.344349  ( -0.053806  -2.449208   2.083947)
  63:      3144.06    0.574860  (  0.195182   0.482865  -0.551003)
  64:      3148.11   14.957237  (  3.741012   0.885768   0.421285)
  65:      3171.59    0.344640  (  0.140300   0.457148   0.340546)
  66:      3422.22   22.991888  ( -2.672644   1.637182   3.628842)
  67:      3503.10   75.607936  (  4.616574   7.303956  -0.973347)
  68:      3519.79   96.534332  ( -7.059454   3.162509  -6.057802)

--------------------------
THERMOCHEMISTRY AT 298.15K
--------------------------

Temperature         ... 298.15 K
Pressure            ... 1.00 atm
Total Mass          ... 102.20 AMU

Throughout the following assumptions are being made:
  (1) The electronic state is orbitally nondegenerate
  (2) There are no thermally accessible electronically excited states
  (3) Hindered rotations indicated by low frequency modes) are not
      treated as such but are treated as vibrations and this may
      case some error
  (4) All equations used are the standard statistical mechanics
      equations for an ideal gas
  (5) All vibrations are strinctly harmonic

------------
INNER ENERGY
------------

The inner energy is: U= E(el) + E(ZPE) + E(vib) + E(rot) + E(trans)
    E(el)   - is the total energy from the electronic structure calculation
              = E(kin-el) + E(nuc-el) + E(el-el) + E(nuc-nuc)
    E(ZPE)  - the the zero temperature vibrational energy from the frequency calculation
    E(vib)  - the the finite temperature correction to E(ZPE) due to population
              of excietd vibrational states
    E(rot)  - is the rotational thermal energy
    E(trans)- is the translational thermal energy

Summary of contributions to the inner energy U:
Electronic energy                ...   -292.54478391 Eh
Zero point energy                ...      0.22001403 Eh     138.06 kcal/mol
Thermal vibrational correction   ...      0.00683430 Eh       4.29 kcal/mol
Thermal rotational correction    ...      0.00141627 Eh       0.89 kcal/mol
Thermal translational correction ...      0.00141627 Eh       0.89 kcal/mol
-----------------------------------------------------------------------
Total thermal energy                   -292.31510303 Eh

Summary of corrections to the electronic energy:
(perhaps to be used in another calculation)
Total thermal correction                  0.00966685 Eh       6.07 kcal/mol
Non-thermal (ZPE) correction              0.22001403 Eh     138.06 kcal/mol
-----------------------------------------------------------------------
Total correction                          0.22968088 Eh     144.13 kcal/mol

--------
ENTHALPY
--------

The enthalpy is H = U + kB*T
                kB is Boltzmann's constant
Total free energy                 ...   -292.31510303 Eh
Thermal Enthalpy correction       ...      0.00094421 Eh       0.59 kcal/mol
-----------------------------------------------------------------------
Total Enthalpy                    ...   -292.31415883 Eh

-------
ENTROPY
-------

The entropy contributions are T*S = T*(S(el)+S(vib)+S(rot)+S(trans)
     S(el)   - electronic entropy
     S(vib)  - vibrational entropy
     S(rot)  - rotational entropy
     S(trans)- translational entropy
The entropies will be listed as mutliplied by the temperature to get
units of energy

Electronic entropy                ...      0.00000000 Eh      0.00 kcal/mol
Vibrational entropy               ...      0.01178673 Eh      7.40 kcal/mol
Rotational entropy                ...      0.01212468 Eh      7.61 kcal/mol
Translational entropy             ...      0.01890208 Eh     11.86 kcal/mol
-----------------------------------------------------------------------
Final entropy term                ...      0.04281348 Eh     26.87 kcal/mol

CAUTION: The rotational entropy is not quite correctly treated here
         because it includes a symmetry number that is not yet correctly
         implemented in ORCA!
For a nonlinear molecule the correct rotational entropy is:
    S(rot) = R*(ln(qrot/sn)+1.5)
    R    = 8.31441 J/mol/K = 1.987191683e-3 kcal/mol/K
    qrot = 252733.9916125
    sn is the rotational symmetry number. We have assumed 3 here
       if it is different for your molecule then you should correct
       the printed rotational entropy by manually evaluating the equation
       as given above

For convenience we print out the resulting values for sn=1 - 12:
 sn= 1  qrot/sn=  252733.9916 T*S(rot)=     8.26 kcal/mol T*S(tot)=    27.52 kcal/mol
 sn= 2  qrot/sn=  126366.9958 T*S(rot)=     7.85 kcal/mol T*S(tot)=    27.11 kcal/mol
 sn= 3  qrot/sn=   84244.6639 T*S(rot)=     7.61 kcal/mol T*S(tot)=    26.87 kcal/mol
 sn= 4  qrot/sn=   63183.4979 T*S(rot)=     7.44 kcal/mol T*S(tot)=    26.70 kcal/mol
 sn= 5  qrot/sn=   50546.7983 T*S(rot)=     7.31 kcal/mol T*S(tot)=    26.56 kcal/mol
 sn= 6  qrot/sn=   42122.3319 T*S(rot)=     7.20 kcal/mol T*S(tot)=    26.46 kcal/mol
 sn= 7  qrot/sn=   36104.8559 T*S(rot)=     7.11 kcal/mol T*S(tot)=    26.36 kcal/mol
 sn= 8  qrot/sn=   31591.7490 T*S(rot)=     7.03 kcal/mol T*S(tot)=    26.28 kcal/mol
 sn= 9  qrot/sn=   28081.5546 T*S(rot)=     6.96 kcal/mol T*S(tot)=    26.21 kcal/mol
 sn=10  qrot/sn=   25273.3992 T*S(rot)=     6.90 kcal/mol T*S(tot)=    26.15 kcal/mol
 sn=11  qrot/sn=   22975.8174 T*S(rot)=     6.84 kcal/mol T*S(tot)=    26.10 kcal/mol
 sn=12  qrot/sn=   21061.1660 T*S(rot)=     6.79 kcal/mol T*S(tot)=    26.04 kcal/mol

-------------------
GIBBS FREE ENTHALPY
-------------------

The Gibbs free enthalpy is G = H - T*S

Total enthalpy                    ...   -292.31415883 Eh
Total entropy correction          ...     -0.04281348 Eh    -26.87 kcal/mol
-----------------------------------------------------------------------
Final Gibbs free enthalpy         ...   -292.35697231 Eh

For completeness - the Gibbs free enthalpy minus the electronic energy
G-E(el)                           ...      0.18781160 Eh    117.85 kcal/mol

                             ****ORCA TERMINATED NORMALLY****
TOTAL RUN TIME: 0 days 1 hours 10 minutes 25 seconds 987 msec
