                         Program Version 3.0.3 - RELEASE   -
|  1> ! NORI PBE0 def2-TZVP UseSym TightOPT Freq TightSCF Grid3 FinalGrid5 XYZFile
|  2> % pal
|  3>     nprocs 8
|  4> end
|  5> %method
|  6>     SymThresh 5.0e-2
|  7> end
|  8> % geom
|  9>     MaxIter 10
| 10> end
| 11> % maxcore 2000
| 12> % output
| 13>     printlevel mini
| 14>     print[ P_Basis ] 0
| 15>     print[ P_SCFInfo ] 1
| 16>     print[ P_SCFIterInfo ] 1
| 17>     print[ P_OrbEn ] 0
| 18>     print[ P_Cartesian ] 0
| 19> end
| 20> % elprop
| 21>     Dipole false
| 22> end
| 23> *xyz 1 1
| 24>  C        3.5301241786     1.0196889787     0.8046019960
| 25>  C        2.7475489045     0.6346256475    -0.4276669365
| 26>  N        2.7505211982     1.8207972633    -1.3720698540
| 27>  C        3.2858515283    -0.5916294417    -1.1846949835
| 28>  C        2.2565042587    -1.1471681991    -2.1637610235
| 29>  C        4.5914181912    -0.3003134742    -1.8757165098
| 30>  C        5.7967985785    -0.5411915903    -1.3769516894
| 31>  H        3.1214022308     1.9130686777     1.2837650742
| 32>  H        4.5840088975     1.1904396277     0.5725118226
| 33>  H        3.4735333724     0.2089958148     1.5322145847
| 34>  H        1.6952274835     0.4746100672    -0.1792939248
| 35>  H        3.7148365897     2.0100666069    -1.6623409267
| 36>  H        2.3784646952     2.6583863602    -0.9228388507
| 37>  H        2.1995485342     1.6322701512    -2.2114666079
| 38>  H        3.4642056799    -1.3386670810    -0.4055216646
| 39>  H        2.0444037994    -0.4530350579    -2.9859448031
| 40>  H        1.3141063067    -1.3868883389    -1.6671382931
| 41>  H        2.6316138861    -2.0596677413    -2.6276712636
| 42>  H        4.5207087910     0.0955439374    -2.8904434555
| 43>  H        5.9334017592    -0.9903381891    -0.3985114993
| 44>  H        6.6947611363    -0.3248540191    -1.9433911914
| 45> *
| 46>
| 47>                          ****END OF INPUT****
 Total Charge           Charge          ....    1
 Multiplicity           Mult            ....    1
 Number of Electrons    NEL             ....   56
FINAL SINGLE POINT ENERGY      -291.311803661343
FINAL SINGLE POINT ENERGY      -291.311805496557

CARTESIAN COORDINATES (ANGSTROEM)
---------------------------------
  C      2.017041    0.001135    0.452420
  C      0.661349   -0.639019    0.632258
  N     -0.001248   -0.001104    1.837955
  C     -0.288621   -0.504952   -0.570345
  C     -1.458599   -1.478950   -0.476548
  C     -0.770149    0.909500   -0.754063
  C     -0.220516    1.810676   -1.557569
  H      2.638269   -0.100383    1.346158
  H      1.928838    1.059938    0.198030
  H      2.541891   -0.497297   -0.363007
  H      0.767775   -1.694750    0.894680
  H     -0.154202    0.993550    1.643543
  H      0.581070   -0.081826    2.672299
  H     -0.908821   -0.427412    2.034051
  H      0.322699   -0.778692   -1.435546
  H     -2.127463   -1.252424    0.362873
  H     -1.116451   -2.510582   -0.371179
  H     -2.071987   -1.419886   -1.376258
  H     -1.677390    1.183510   -0.212354
  H      0.646342    1.580621   -2.169490
  H     -0.636473    2.806441   -1.656368

FINAL SINGLE POINT ENERGY      -291.311806341615
                    ***********************HURRAY********************
 Multiplicity           Mult            ....    1
 Number of Electrons    NEL             ....   56
 Basis Dimension        Dim             ....  301
FINAL SINGLE POINT ENERGY      -291.311806534511

VIBRATIONAL FREQUENCIES
-----------------------

   0:         0.00 cm**-1
   1:         0.00 cm**-1
   2:         0.00 cm**-1
   3:         0.00 cm**-1
   4:         0.00 cm**-1
   5:         0.00 cm**-1
   6:        52.40 cm**-1
   7:       100.09 cm**-1
   8:       222.13 cm**-1
   9:       224.42 cm**-1
  10:       231.41 cm**-1
  11:       250.16 cm**-1
  12:       273.56 cm**-1
  13:       306.71 cm**-1
  14:       359.19 cm**-1
  15:       392.23 cm**-1
  16:       487.41 cm**-1
  17:       542.20 cm**-1
  18:       701.39 cm**-1
  19:       762.71 cm**-1
  20:       856.79 cm**-1
  21:       915.97 cm**-1
  22:       936.91 cm**-1
  23:       964.38 cm**-1
  24:       992.51 cm**-1
  25:      1012.88 cm**-1
  26:      1030.07 cm**-1
  27:      1042.62 cm**-1
  28:      1057.64 cm**-1
  29:      1102.91 cm**-1
  30:      1158.89 cm**-1
  31:      1210.98 cm**-1
  32:      1223.42 cm**-1
  33:      1305.74 cm**-1
  34:      1324.37 cm**-1
  35:      1330.94 cm**-1
  36:      1369.00 cm**-1
  37:      1397.06 cm**-1
  38:      1417.68 cm**-1
  39:      1420.91 cm**-1
  40:      1456.22 cm**-1
  41:      1473.85 cm**-1
  42:      1479.08 cm**-1
  43:      1481.89 cm**-1
  44:      1491.55 cm**-1
  45:      1501.54 cm**-1
  46:      1643.49 cm**-1
  47:      1656.80 cm**-1
  48:      1717.21 cm**-1
  49:      3031.06 cm**-1
  50:      3057.55 cm**-1
  51:      3077.30 cm**-1
  52:      3093.82 cm**-1
  53:      3112.09 cm**-1
  54:      3116.72 cm**-1
  55:      3134.22 cm**-1
  56:      3149.98 cm**-1
  57:      3154.85 cm**-1
  58:      3157.74 cm**-1
  59:      3249.96 cm**-1
  60:      3401.48 cm**-1
  61:      3485.98 cm**-1
  62:      3520.26 cm**-1

IR SPECTRUM
-----------

 Mode    freq (cm**-1)   T**2         TX         TY         TZ
-------------------------------------------------------------------
   6:        52.40    7.651037  ( -0.147220  -2.557116   1.044280)
   7:       100.09    0.771049  (  0.236608   0.768182   0.353500)
   8:       222.13    3.887146  ( -0.885746  -1.031961  -1.427465)
   9:       224.42    0.206090  (  0.066559   0.086921  -0.440573)
  10:       231.41    1.905322  (  0.234420   0.140287   1.353030)
  11:       250.16    7.069596  (  1.238498  -0.060274   2.352039)
  12:       273.56   11.345522  ( -1.136201   1.339823  -2.873925)
  13:       306.71    1.343385  ( -1.034881  -0.314952  -0.416188)
  14:       359.19    4.606096  ( -1.836522  -0.453896   1.013538)
  15:       392.23    5.054752  (  1.530330   0.431335   1.589589)
  16:       487.41   13.580655  ( -0.504511   1.306533  -3.408680)
  17:       542.20    8.276248  (  0.791039  -0.001683   2.765954)
  18:       701.39    7.949630  (  1.312643   2.060454   1.407525)
  19:       762.71    2.763232  (  0.881502  -0.444168   1.337498)
  20:       856.79    2.880431  ( -1.194262  -0.160773   1.195124)
  21:       915.97    1.222307  (  1.061997   0.023541  -0.306456)
  22:       936.91   11.463430  ( -2.713894  -1.739665   1.035266)
  23:       964.38    7.908947  ( -1.532602   0.056158  -2.357313)
  24:       992.51    4.306757  ( -0.526641  -1.717480  -1.039071)
  25:      1012.88   37.203318  (  3.878171   1.864292   4.322907)
  26:      1030.07    6.339784  (  0.451213   0.255178   2.463955)
  27:      1042.62   23.047901  ( -2.391840  -0.474781  -4.135406)
  28:      1057.64    5.862153  (  1.615086  -0.682456   1.669702)
  29:      1102.91   28.358316  ( -4.102455   1.432796  -3.078193)
  30:      1158.89    6.934002  (  0.500038  -1.779759  -1.875213)
  31:      1210.98    1.479565  (  0.499312   1.003472  -0.472542)
  32:      1223.42    8.145642  ( -1.727055  -1.836137  -1.338478)
  33:      1305.74    3.275739  (  1.531694  -0.643900   0.717667)
  34:      1324.37    0.332203  (  0.533561   0.097878  -0.194771)
  35:      1330.94    6.666878  ( -0.342417  -0.986844   2.361307)
  36:      1369.00    5.331516  ( -0.974719   1.616561  -1.329725)
  37:      1397.06    3.955216  ( -0.019395   1.298625  -1.506126)
  38:      1417.68    8.559656  ( -2.357056  -1.644145  -0.548390)
  39:      1420.91   31.346537  (  4.538771   0.771384  -3.186073)
  40:      1456.22   25.190469  (  1.175270   1.498738  -4.643597)
  41:      1473.85   93.944588  ( -1.181160   3.277317   9.044813)
  42:      1479.08   46.038285  ( -2.921311   3.411189   5.086061)
  43:      1481.89    5.365095  (  1.030650   1.304052  -1.613166)
  44:      1491.55    8.843939  ( -0.177018  -0.389245  -2.942973)
  45:      1501.54   50.061238  (  3.189014  -3.922109  -4.950604)
  46:      1643.49   29.454796  (  3.633737   3.987797  -0.590107)
  47:      1656.80   48.455438  ( -3.177371   2.954194  -5.443573)
  48:      1717.21    0.362773  ( -0.450403  -0.303102   0.260844)
  49:      3031.06   19.066400  (  2.151092   0.417904  -3.776845)
  50:      3057.55    4.006103  (  0.887377   0.757331   1.626381)
  51:      3077.30    1.771179  ( -1.224766  -0.517053  -0.061508)
  52:      3093.82    3.007229  (  0.226236   1.568205  -0.704827)
  53:      3112.09    5.488055  (  0.301626  -2.097663  -0.998442)
  54:      3116.72   15.217070  ( -2.622598   1.739536   2.305008)
  55:      3134.22    5.098270  (  0.949099  -1.163311   1.686472)
  56:      3149.98    3.450346  ( -0.786307   1.345443  -1.010866)
  57:      3154.85    1.181448  (  0.552879   0.883304   0.309107)
  58:      3157.74    0.594289  ( -0.631676   0.359824   0.256516)
  59:      3249.96    0.524864  (  0.570819  -0.403698  -0.189888)
  60:      3401.48   26.886835  (  2.660857  -4.351899  -0.931477)
  61:      3485.98   97.269862  ( -1.904923  -7.481017   6.138038)
  62:      3520.26   93.113484  (  7.521522   0.764278   5.996338)

--------------------------
THERMOCHEMISTRY AT 298.15K
--------------------------

Temperature         ... 298.15 K
Pressure            ... 1.00 atm
Total Mass          ... 100.18 AMU

Throughout the following assumptions are being made:
  (1) The electronic state is orbitally nondegenerate
  (2) There are no thermally accessible electronically excited states
  (3) Hindered rotations indicated by low frequency modes) are not
      treated as such but are treated as vibrations and this may
      case some error
  (4) All equations used are the standard statistical mechanics
      equations for an ideal gas
  (5) All vibrations are strinctly harmonic

------------
INNER ENERGY
------------

The inner energy is: U= E(el) + E(ZPE) + E(vib) + E(rot) + E(trans)
    E(el)   - is the total energy from the electronic structure calculation
              = E(kin-el) + E(nuc-el) + E(el-el) + E(nuc-nuc)
    E(ZPE)  - the the zero temperature vibrational energy from the frequency calculation
    E(vib)  - the the finite temperature correction to E(ZPE) due to population
              of excietd vibrational states
    E(rot)  - is the rotational thermal energy
    E(trans)- is the translational thermal energy

Summary of contributions to the inner energy U:
Electronic energy                ...   -291.31180653 Eh
Zero point energy                ...      0.19734020 Eh     123.83 kcal/mol
Thermal vibrational correction   ...      0.00632443 Eh       3.97 kcal/mol
Thermal rotational correction    ...      0.00141627 Eh       0.89 kcal/mol
Thermal translational correction ...      0.00141627 Eh       0.89 kcal/mol
-----------------------------------------------------------------------
Total thermal energy                   -291.10530936 Eh

Summary of corrections to the electronic energy:
(perhaps to be used in another calculation)
Total thermal correction                  0.00915697 Eh       5.75 kcal/mol
Non-thermal (ZPE) correction              0.19734020 Eh     123.83 kcal/mol
-----------------------------------------------------------------------
Total correction                          0.20649717 Eh     129.58 kcal/mol

--------
ENTHALPY
--------

The enthalpy is H = U + kB*T
                kB is Boltzmann's constant
Total free energy                 ...   -291.10530936 Eh
Thermal Enthalpy correction       ...      0.00094421 Eh       0.59 kcal/mol
-----------------------------------------------------------------------
Total Enthalpy                    ...   -291.10436515 Eh

-------
ENTROPY
-------

The entropy contributions are T*S = T*(S(el)+S(vib)+S(rot)+S(trans)
     S(el)   - electronic entropy
     S(vib)  - vibrational entropy
     S(rot)  - rotational entropy
     S(trans)- translational entropy
The entropies will be listed as mutliplied by the temperature to get
units of energy

Electronic entropy                ...      0.00000000 Eh      0.00 kcal/mol
Vibrational entropy               ...      0.01134662 Eh      7.12 kcal/mol
Rotational entropy                ...      0.01219956 Eh      7.66 kcal/mol
Translational entropy             ...      0.01887386 Eh     11.84 kcal/mol
-----------------------------------------------------------------------
Final entropy term                ...      0.04242004 Eh     26.62 kcal/mol

CAUTION: The rotational entropy is not quite correctly treated here
         because it includes a symmetry number that is not yet correctly
         implemented in ORCA!
For a nonlinear molecule the correct rotational entropy is:
    S(rot) = R*(ln(qrot/sn)+1.5)
    R    = 8.31441 J/mol/K = 1.987191683e-3 kcal/mol/K
    qrot = 273593.3576183
    sn is the rotational symmetry number. We have assumed 3 here
       if it is different for your molecule then you should correct
       the printed rotational entropy by manually evaluating the equation
       as given above

For convenience we print out the resulting values for sn=1 - 12:
 sn= 1  qrot/sn=  273593.3576 T*S(rot)=     8.31 kcal/mol T*S(tot)=    27.27 kcal/mol
 sn= 2  qrot/sn=  136796.6788 T*S(rot)=     7.90 kcal/mol T*S(tot)=    26.86 kcal/mol
 sn= 3  qrot/sn=   91197.7859 T*S(rot)=     7.66 kcal/mol T*S(tot)=    26.62 kcal/mol
 sn= 4  qrot/sn=   68398.3394 T*S(rot)=     7.48 kcal/mol T*S(tot)=    26.45 kcal/mol
 sn= 5  qrot/sn=   54718.6715 T*S(rot)=     7.35 kcal/mol T*S(tot)=    26.32 kcal/mol
 sn= 6  qrot/sn=   45598.8929 T*S(rot)=     7.24 kcal/mol T*S(tot)=    26.21 kcal/mol
 sn= 7  qrot/sn=   39084.7654 T*S(rot)=     7.15 kcal/mol T*S(tot)=    26.12 kcal/mol
 sn= 8  qrot/sn=   34199.1697 T*S(rot)=     7.07 kcal/mol T*S(tot)=    26.04 kcal/mol
 sn= 9  qrot/sn=   30399.2620 T*S(rot)=     7.00 kcal/mol T*S(tot)=    25.97 kcal/mol
 sn=10  qrot/sn=   27359.3358 T*S(rot)=     6.94 kcal/mol T*S(tot)=    25.91 kcal/mol
 sn=11  qrot/sn=   24872.1234 T*S(rot)=     6.89 kcal/mol T*S(tot)=    25.85 kcal/mol
 sn=12  qrot/sn=   22799.4465 T*S(rot)=     6.83 kcal/mol T*S(tot)=    25.80 kcal/mol

-------------------
GIBBS FREE ENTHALPY
-------------------

The Gibbs free enthalpy is G = H - T*S

Total enthalpy                    ...   -291.10436515 Eh
Total entropy correction          ...     -0.04242004 Eh    -26.62 kcal/mol
-----------------------------------------------------------------------
Final Gibbs free enthalpy         ...   -291.14678519 Eh

For completeness - the Gibbs free enthalpy minus the electronic energy
G-E(el)                           ...      0.16502134 Eh    103.55 kcal/mol

                             ****ORCA TERMINATED NORMALLY****
TOTAL RUN TIME: 0 days 0 hours 52 minutes 0 seconds 632 msec
