                         Program Version 3.0.3 - RELEASE   -
|  1> ! NORI PBE0 def2-TZVP UseSym TightOPT Freq TightSCF Grid3 FinalGrid5 XYZFile
|  2> % pal
|  3>     nprocs 8
|  4> end
|  5> %method
|  6>     SymThresh 5.0e-2
|  7> end
|  8> % geom
|  9>     MaxIter 10
| 10> end
| 11> % maxcore 2000
| 12> % output
| 13>     printlevel mini
| 14>     print[ P_Basis ] 0
| 15>     print[ P_SCFInfo ] 1
| 16>     print[ P_SCFIterInfo ] 1
| 17>     print[ P_OrbEn ] 0
| 18>     print[ P_Cartesian ] 0
| 19> end
| 20> % elprop
| 21>     Dipole false
| 22> end
| 23> *xyz 1 1
| 24>  C        0.9993478867     0.0150318404    -0.2303179875
| 25>  C        2.4902614887    -0.0753863263    -0.0072977665
| 26>  N        2.8345989472     0.6885600654     1.2509732781
| 27>  C        3.0182126336    -1.5113947384     0.1709400975
| 28>  C        4.5401856254    -1.6090161125     0.0527488187
| 29>  C        2.5382009379    -2.0356385084     1.4450924030
| 30>  C        2.1679597782    -2.3791900623     2.5357128111
| 31>  H        0.7446712733    -0.4898946143    -1.1627056289
| 32>  H        0.6654265799     1.0512600822    -0.3220052082
| 33>  H        0.4456355081    -0.4709033489     0.5764461242
| 34>  H        3.0386818153     0.4132102871    -0.8153535102
| 35>  H        2.4995474721     0.1281356610     2.0507421407
| 36>  H        2.3930028461     1.6077122107     1.2700156552
| 37>  H        3.8426794056     0.8083620688     1.3595292428
| 38>  H        2.5701997227    -2.0950468881    -0.6402755693
| 39>  H        5.0560230977    -1.0669693275     0.8503907757
| 40>  H        4.8763698919    -1.2231382362    -0.9116741465
| 41>  H        4.8544208822    -2.6492118264     0.1301561046
| 42>  H        1.8361542072    -2.7460822261     3.4817623655
| 43> *
| 44>
| 45>                          ****END OF INPUT****
 Total Charge           Charge          ....    1
 Multiplicity           Mult            ....    1
 Number of Electrons    NEL             ....   54
FINAL SINGLE POINT ENERGY      -290.063796300348
FINAL SINGLE POINT ENERGY      -290.063797329401

CARTESIAN COORDINATES (ANGSTROEM)
---------------------------------
  C      2.091870   -0.001144    0.400621
  C      0.734473   -0.650371    0.533287
  N     -0.000290    0.000971    1.682384
  C     -0.156437   -0.513368   -0.715931
  C     -1.363400   -1.452996   -0.696759
  C     -0.556789    0.882277   -0.858827
  C     -0.905646    2.032096   -0.877837
  H      2.649492   -0.496268   -0.395013
  H      2.679176   -0.098359    1.317085
  H      2.004433    1.056586    0.140939
  H      0.828543   -1.706117    0.796286
  H     -0.286044    0.942597    1.369071
  H      0.587567    0.081666    2.512397
  H     -0.847656   -0.511438    1.931767
  H      0.479600   -0.785467   -1.565046
  H     -2.059719   -1.220570    0.114572
  H     -1.040013   -2.491207   -0.599690
  H     -1.926003   -1.357695   -1.624904
  H     -1.217299    3.050014   -0.960384

FINAL SINGLE POINT ENERGY      -290.063797870123
                    ***********************HURRAY********************
 Multiplicity           Mult            ....    1
 Number of Electrons    NEL             ....   54
 Basis Dimension        Dim             ....  289
FINAL SINGLE POINT ENERGY      -290.063798023050

VIBRATIONAL FREQUENCIES
-----------------------

   0:         0.00 cm**-1
   1:         0.00 cm**-1
   2:         0.00 cm**-1
   3:         0.00 cm**-1
   4:         0.00 cm**-1
   5:         0.00 cm**-1
   6:        89.75 cm**-1
   7:       149.04 cm**-1
   8:       194.88 cm**-1
   9:       228.50 cm**-1
  10:       231.45 cm**-1
  11:       242.46 cm**-1
  12:       267.71 cm**-1
  13:       351.39 cm**-1
  14:       397.08 cm**-1
  15:       449.68 cm**-1
  16:       552.99 cm**-1
  17:       632.75 cm**-1
  18:       712.94 cm**-1
  19:       743.06 cm**-1
  20:       759.43 cm**-1
  21:       857.78 cm**-1
  22:       921.68 cm**-1
  23:       951.80 cm**-1
  24:       975.71 cm**-1
  25:      1019.67 cm**-1
  26:      1047.33 cm**-1
  27:      1102.95 cm**-1
  28:      1119.55 cm**-1
  29:      1168.51 cm**-1
  30:      1223.60 cm**-1
  31:      1309.45 cm**-1
  32:      1326.14 cm**-1
  33:      1365.28 cm**-1
  34:      1392.27 cm**-1
  35:      1416.72 cm**-1
  36:      1422.90 cm**-1
  37:      1474.46 cm**-1
  38:      1481.61 cm**-1
  39:      1483.53 cm**-1
  40:      1489.77 cm**-1
  41:      1499.92 cm**-1
  42:      1632.60 cm**-1
  43:      1656.73 cm**-1
  44:      2227.59 cm**-1
  45:      3051.74 cm**-1
  46:      3059.04 cm**-1
  47:      3070.86 cm**-1
  48:      3107.09 cm**-1
  49:      3129.10 cm**-1
  50:      3138.03 cm**-1
  51:      3155.08 cm**-1
  52:      3160.62 cm**-1
  53:      3295.74 cm**-1
  54:      3451.31 cm**-1
  55:      3471.63 cm**-1
  56:      3527.05 cm**-1

IR SPECTRUM
-----------

 Mode    freq (cm**-1)   T**2         TX         TY         TZ
-------------------------------------------------------------------
   6:        89.75    5.772776  (  0.229786   2.314352  -0.603118)
   7:       149.04    3.217159  (  0.387819  -1.275581   1.199853)
   8:       194.88    3.677260  (  1.625995   0.074880   1.013802)
   9:       228.50    1.149643  (  0.399031   0.984498  -0.145536)
  10:       231.45    5.264738  ( -1.057466  -0.213669  -2.025055)
  11:       242.46    0.410407  ( -0.623895   0.000943  -0.145467)
  12:       267.71    1.518731  ( -0.134374  -0.478358  -1.127763)
  13:       351.39    9.601033  ( -3.027005  -0.213362  -0.626699)
  14:       397.08   32.894524  (  0.613125  -1.499182   5.501914)
  15:       449.68    9.227482  ( -0.897314   1.360882  -2.563262)
  16:       552.99    8.660143  ( -2.421986  -1.628323  -0.377743)
  17:       632.75    1.258599  (  0.152634   1.050841   0.361987)
  18:       712.94   42.177149  (  5.954561   1.243944  -2.274414)
  19:       743.06   29.775277  (  1.476504   2.167630   4.785038)
  20:       759.43   12.443384  ( -0.456018  -0.396307  -3.475395)
  21:       857.78    1.952129  ( -0.611066  -0.520767   1.143472)
  22:       921.68    1.419502  ( -1.123171   0.389996  -0.076760)
  23:       951.80   10.540297  ( -2.381572  -1.921709   1.084179)
  24:       975.71    7.950272  ( -1.142346   0.464588  -2.535641)
  25:      1019.67    5.811308  (  0.140172  -1.421731  -1.941737)
  26:      1047.33   10.897005  ( -1.253134   1.485524  -2.668310)
  27:      1102.95   26.706350  (  4.030555  -1.796406   2.689591)
  28:      1119.55   17.615346  (  2.978436  -1.968473   2.206667)
  29:      1168.51    4.449915  ( -0.324345   1.434064   1.512671)
  30:      1223.60    7.244663  (  1.188457   2.331881   0.628143)
  31:      1309.45    0.079413  (  0.252866   0.119274  -0.035286)
  32:      1326.14    5.032575  (  1.477185   0.154788   1.681232)
  33:      1365.28    9.887894  (  1.254737  -2.575310   1.296652)
  34:      1392.27    6.212369  ( -0.265982  -2.292177   0.942097)
  35:      1416.72    4.611463  (  1.934379   0.496678   0.789274)
  36:      1422.90   28.902110  (  4.540938   1.130034  -2.646698)
  37:      1474.46   55.603002  (  0.217373  -1.281016  -7.342666)
  38:      1481.61   47.190149  ( -2.011019   3.569183   5.514244)
  39:      1483.53   41.050838  (  1.538509  -0.999479  -6.138800)
  40:      1489.77   18.200751  ( -0.542011  -0.197370   4.227058)
  41:      1499.92   48.814487  (  3.076643  -3.629620  -5.116113)
  42:      1632.60   27.421629  (  4.083802   3.176825  -0.807451)
  43:      1656.73   46.443998  (  3.187234  -2.122220   5.637528)
  44:      2227.59    2.829073  (  0.576689  -1.013233   1.212378)
  45:      3051.74   11.151400  ( -1.365152  -1.155138   2.820180)
  46:      3059.04    2.529417  (  0.332526   0.528771   1.462616)
  47:      3070.86    1.117743  (  0.796449   0.476275   0.506531)
  48:      3107.09    1.969498  ( -0.449910  -1.265921   0.405613)
  49:      3129.10    9.881471  ( -1.526388   2.065640   1.812386)
  50:      3138.03    4.532907  ( -1.031619   1.071507  -1.523333)
  51:      3155.08    0.731605  (  0.469695   0.692878   0.175818)
  52:      3160.62    1.328100  (  0.377522  -0.919515   0.583155)
  53:      3295.74  109.702123  ( -4.134625   7.542506  -5.976421)
  54:      3451.31  107.740555  ( -3.065431   9.847565  -1.170106)
  55:      3471.63   90.542630  ( -1.213605  -4.693538   8.187826)
  56:      3527.05   89.366537  ( -7.609869  -2.881397  -4.811859)

--------------------------
THERMOCHEMISTRY AT 298.15K
--------------------------

Temperature         ... 298.15 K
Pressure            ... 1.00 atm
Total Mass          ... 98.17 AMU

Throughout the following assumptions are being made:
  (1) The electronic state is orbitally nondegenerate
  (2) There are no thermally accessible electronically excited states
  (3) Hindered rotations indicated by low frequency modes) are not
      treated as such but are treated as vibrations and this may
      case some error
  (4) All equations used are the standard statistical mechanics
      equations for an ideal gas
  (5) All vibrations are strinctly harmonic

------------
INNER ENERGY
------------

The inner energy is: U= E(el) + E(ZPE) + E(vib) + E(rot) + E(trans)
    E(el)   - is the total energy from the electronic structure calculation
              = E(kin-el) + E(nuc-el) + E(el-el) + E(nuc-nuc)
    E(ZPE)  - the the zero temperature vibrational energy from the frequency calculation
    E(vib)  - the the finite temperature correction to E(ZPE) due to population
              of excietd vibrational states
    E(rot)  - is the rotational thermal energy
    E(trans)- is the translational thermal energy

Summary of contributions to the inner energy U:
Electronic energy                ...   -290.06379802 Eh
Zero point energy                ...      0.17356897 Eh     108.92 kcal/mol
Thermal vibrational correction   ...      0.00594698 Eh       3.73 kcal/mol
Thermal rotational correction    ...      0.00141627 Eh       0.89 kcal/mol
Thermal translational correction ...      0.00141627 Eh       0.89 kcal/mol
-----------------------------------------------------------------------
Total thermal energy                   -289.88144954 Eh

Summary of corrections to the electronic energy:
(perhaps to be used in another calculation)
Total thermal correction                  0.00877952 Eh       5.51 kcal/mol
Non-thermal (ZPE) correction              0.17356897 Eh     108.92 kcal/mol
-----------------------------------------------------------------------
Total correction                          0.18234849 Eh     114.43 kcal/mol

--------
ENTHALPY
--------

The enthalpy is H = U + kB*T
                kB is Boltzmann's constant
Total free energy                 ...   -289.88144954 Eh
Thermal Enthalpy correction       ...      0.00094421 Eh       0.59 kcal/mol
-----------------------------------------------------------------------
Total Enthalpy                    ...   -289.88050533 Eh

-------
ENTROPY
-------

The entropy contributions are T*S = T*(S(el)+S(vib)+S(rot)+S(trans)
     S(el)   - electronic entropy
     S(vib)  - vibrational entropy
     S(rot)  - rotational entropy
     S(trans)- translational entropy
The entropies will be listed as mutliplied by the temperature to get
units of energy

Electronic entropy                ...      0.00000000 Eh      0.00 kcal/mol
Vibrational entropy               ...      0.01017712 Eh      6.39 kcal/mol
Rotational entropy                ...      0.01212558 Eh      7.61 kcal/mol
Translational entropy             ...      0.01884507 Eh     11.83 kcal/mol
-----------------------------------------------------------------------
Final entropy term                ...      0.04114777 Eh     25.82 kcal/mol

CAUTION: The rotational entropy is not quite correctly treated here
         because it includes a symmetry number that is not yet correctly
         implemented in ORCA!
For a nonlinear molecule the correct rotational entropy is:
    S(rot) = R*(ln(qrot/sn)+1.5)
    R    = 8.31441 J/mol/K = 1.987191683e-3 kcal/mol/K
    qrot = 252974.8088326
    sn is the rotational symmetry number. We have assumed 3 here
       if it is different for your molecule then you should correct
       the printed rotational entropy by manually evaluating the equation
       as given above

For convenience we print out the resulting values for sn=1 - 12:
 sn= 1  qrot/sn=  252974.8088 T*S(rot)=     8.26 kcal/mol T*S(tot)=    26.47 kcal/mol
 sn= 2  qrot/sn=  126487.4044 T*S(rot)=     7.85 kcal/mol T*S(tot)=    26.06 kcal/mol
 sn= 3  qrot/sn=   84324.9363 T*S(rot)=     7.61 kcal/mol T*S(tot)=    25.82 kcal/mol
 sn= 4  qrot/sn=   63243.7022 T*S(rot)=     7.44 kcal/mol T*S(tot)=    25.65 kcal/mol
 sn= 5  qrot/sn=   50594.9618 T*S(rot)=     7.31 kcal/mol T*S(tot)=    25.52 kcal/mol
 sn= 6  qrot/sn=   42162.4681 T*S(rot)=     7.20 kcal/mol T*S(tot)=    25.41 kcal/mol
 sn= 7  qrot/sn=   36139.2584 T*S(rot)=     7.11 kcal/mol T*S(tot)=    25.32 kcal/mol
 sn= 8  qrot/sn=   31621.8511 T*S(rot)=     7.03 kcal/mol T*S(tot)=    25.24 kcal/mol
 sn= 9  qrot/sn=   28108.3121 T*S(rot)=     6.96 kcal/mol T*S(tot)=    25.17 kcal/mol
 sn=10  qrot/sn=   25297.4809 T*S(rot)=     6.90 kcal/mol T*S(tot)=    25.11 kcal/mol
 sn=11  qrot/sn=   22997.7099 T*S(rot)=     6.84 kcal/mol T*S(tot)=    25.05 kcal/mol
 sn=12  qrot/sn=   21081.2341 T*S(rot)=     6.79 kcal/mol T*S(tot)=    25.00 kcal/mol

-------------------
GIBBS FREE ENTHALPY
-------------------

The Gibbs free enthalpy is G = H - T*S

Total enthalpy                    ...   -289.88050533 Eh
Total entropy correction          ...     -0.04114777 Eh    -25.82 kcal/mol
-----------------------------------------------------------------------
Final Gibbs free enthalpy         ...   -289.92165309 Eh

For completeness - the Gibbs free enthalpy minus the electronic energy
G-E(el)                           ...      0.14214493 Eh     89.20 kcal/mol

                             ****ORCA TERMINATED NORMALLY****
TOTAL RUN TIME: 0 days 0 hours 44 minutes 26 seconds 985 msec
