                         Program Version 3.0.3 - RELEASE   -
|  1> ! NORI PBE0 def2-TZVP UseSym TightOPT Freq TightSCF Grid3 FinalGrid5 XYZFile
|  2> % pal
|  3>     nprocs 8
|  4> end
|  5> %method
|  6>     SymThresh 5.0e-2
|  7> end
|  8> % geom
|  9>     MaxIter 10
| 10> end
| 11> % maxcore 2000
| 12> % output
| 13>     printlevel mini
| 14>     print[ P_Basis ] 0
| 15>     print[ P_SCFInfo ] 1
| 16>     print[ P_SCFIterInfo ] 1
| 17>     print[ P_OrbEn ] 0
| 18>     print[ P_Cartesian ] 0
| 19> end
| 20> % elprop
| 21>     Dipole false
| 22> end
| 23> *xyz 1 1
| 24>  C        1.0193642974     0.2642331708    -0.0906938058
| 25>  C        2.4725553882    -0.1477080684     0.0518084850
| 26>  N        2.6828653985    -0.7122164820     1.4630228282
| 27>  C        2.9074793968    -1.1515221427    -0.8894725782
| 28>  C        3.2653132044    -1.9723582569    -1.6988664301
| 29>  C        3.6413592554    -2.9427097072    -2.6591586859
| 30>  C        4.8991609586    -3.1164214348    -3.0646897508
| 31>  H        0.8775758212     0.7015805012    -1.0785139545
| 32>  H        0.7418654668     1.0151838653     0.6530171867
| 33>  H        0.3543951053    -0.5981395980    -0.0107125652
| 34>  H        3.1249719481     0.7301730153     0.0113342470
| 35>  H        2.1030243495    -1.5452624820     1.5865348132
| 36>  H        2.4326210580    -0.0315790694     2.1838897720
| 37>  H        3.6569159386    -0.9919928843     1.5939394988
| 38>  H        2.8388988684    -3.5496729531    -3.0677964023
| 39>  H        5.7135992856    -2.5187151630    -2.6736919034
| 40>  H        5.1399942592    -3.8665823107    -3.8076507548
| 41> *
| 42>
| 43>                          ****END OF INPUT****
 Total Charge           Charge          ....    1
 Multiplicity           Mult            ....    1
 Number of Electrons    NEL             ....   52
FINAL SINGLE POINT ENERGY      -288.835329623112
FINAL SINGLE POINT ENERGY      -288.835336372517
FINAL SINGLE POINT ENERGY      -288.835348759096
FINAL SINGLE POINT ENERGY      -288.835350071498
FINAL SINGLE POINT ENERGY      -288.835350455658

CARTESIAN COORDINATES (ANGSTROEM)
---------------------------------
  C      2.239775   -0.034727    1.369233
  C      0.806997   -0.522581    1.263268
  N      0.012771    0.031836    2.453559
  C      0.122528   -0.121090    0.057811
  C     -0.432255    0.202732   -0.963964
  C     -1.055975    0.613569   -2.167106
  C     -1.962896   -0.126551   -2.804641
  H      2.812951   -0.463468    0.547766
  H      2.703686   -0.353722    2.305700
  H      2.295065    1.052169    1.280945
  H      0.761834   -1.608812    1.390365
  H     -0.000721    1.053449    2.409078
  H      0.423347   -0.249542    3.346683
  H     -0.956074   -0.291128    2.416510
  H     -0.749237    1.577165   -2.563275
  H     -2.277654   -1.092856   -2.429237
  H     -2.408758    0.222239   -3.727687

FINAL SINGLE POINT ENERGY      -288.835350583906
                    ***********************HURRAY********************
 Multiplicity           Mult            ....    1
 Number of Electrons    NEL             ....   52
 Basis Dimension        Dim             ....  277
FINAL SINGLE POINT ENERGY      -288.835350717453

VIBRATIONAL FREQUENCIES
-----------------------

   0:         0.00 cm**-1
   1:         0.00 cm**-1
   2:         0.00 cm**-1
   3:         0.00 cm**-1
   4:         0.00 cm**-1
   5:         0.00 cm**-1
   6:        30.52 cm**-1
   7:        96.19 cm**-1
   8:       113.02 cm**-1
   9:       209.72 cm**-1
  10:       220.44 cm**-1
  11:       261.77 cm**-1
  12:       315.43 cm**-1
  13:       357.87 cm**-1
  14:       501.54 cm**-1
  15:       506.93 cm**-1
  16:       553.33 cm**-1
  17:       703.57 cm**-1
  18:       708.79 cm**-1
  19:       801.58 cm**-1
  20:       933.84 cm**-1
  21:       952.63 cm**-1
  22:      1002.17 cm**-1
  23:      1017.67 cm**-1
  24:      1025.52 cm**-1
  25:      1080.27 cm**-1
  26:      1106.34 cm**-1
  27:      1178.63 cm**-1
  28:      1230.90 cm**-1
  29:      1319.27 cm**-1
  30:      1361.66 cm**-1
  31:      1379.41 cm**-1
  32:      1415.70 cm**-1
  33:      1450.66 cm**-1
  34:      1473.73 cm**-1
  35:      1485.26 cm**-1
  36:      1488.92 cm**-1
  37:      1641.50 cm**-1
  38:      1653.50 cm**-1
  39:      1682.53 cm**-1
  40:      2339.56 cm**-1
  41:      3061.11 cm**-1
  42:      3077.29 cm**-1
  43:      3143.93 cm**-1
  44:      3165.41 cm**-1
  45:      3173.82 cm**-1
  46:      3182.26 cm**-1
  47:      3272.29 cm**-1
  48:      3411.83 cm**-1
  49:      3504.78 cm**-1
  50:      3512.26 cm**-1

IR SPECTRUM
-----------

 Mode    freq (cm**-1)   T**2         TX         TY         TZ
-------------------------------------------------------------------
   7:        96.19    6.324213  (  2.374700  -0.146100   0.814658)
   8:       113.02   10.057366  ( -0.336091   3.136122  -0.330373)
   9:       209.72    1.449656  ( -0.972928   0.128584  -0.697520)
  10:       220.44    0.163050  (  0.325883  -0.084238   0.223057)
  11:       261.77    2.328912  (  0.203962  -1.502454   0.173044)
  12:       315.43    8.022681  ( -0.777290   0.591592   2.658669)
  13:       357.87    9.029056  (  2.814160   0.932223  -0.490428)
  14:       501.54    9.107931  ( -1.481262  -0.553637   2.570463)
  15:       506.93    5.650617  ( -0.087211  -0.795287  -2.238421)
  16:       553.33    0.734503  ( -0.497889   0.646193   0.262764)
  17:       703.57    2.578809  (  0.316728  -0.502382   1.492014)
  18:       708.79   12.555376  (  2.113327  -1.352943  -2.501754)
  19:       801.58   28.863057  (  0.016500  -0.172894   5.369627)
  20:       933.84   11.294875  ( -2.689162  -1.179550  -1.634608)
  21:       952.63   11.872556  ( -0.373608  -0.418286   3.399707)
  22:      1002.17   44.400099  (  4.838756  -2.971581  -3.486581)
  23:      1017.67   10.561836  ( -2.559970   1.395242   1.435859)
  24:      1025.52    9.374992  ( -2.270356   0.818055  -1.884479)
  25:      1080.27   28.775317  (  2.359354  -1.709049  -4.504211)
  26:      1106.34   14.545214  ( -2.555120   1.665219  -2.289896)
  27:      1178.63    8.129311  (  1.739684   2.199642   0.514184)
  28:      1230.90   23.181021  (  2.696170   0.794021   3.909120)
  29:      1319.27    6.025647  (  1.299017   0.279358   2.064016)
  30:      1361.66   14.641000  ( -3.527801  -0.834713  -1.224286)
  31:      1379.41  108.494392  ( -3.708383   1.980499  -9.529948)
  32:      1415.70   23.039823  ( -4.429986  -0.464611   1.788627)
  33:      1450.66    8.615274  (  1.634626   2.426352  -0.236824)
  34:      1473.73    6.456151  (  1.304228  -1.924446   1.025500)
  35:      1485.26  158.356955  ( -4.904050   4.845680  10.527423)
  36:      1488.92    6.044675  (  1.416448   0.695672  -1.885309)
  37:      1641.50   48.133694  (  3.681868   5.855917  -0.534577)
  38:      1653.50   39.195039  (  3.617898  -2.919385   4.193214)
  39:      1682.53    4.189476  (  0.791802  -0.647287   1.773004)
  40:      2339.56  221.022907  ( -6.952576   1.079961 -13.096499)
  41:      3061.11    5.982849  ( -0.239587  -0.539328  -2.373726)
  42:      3077.29    1.169324  (  0.252288  -0.279922   1.013567)
  43:      3143.93    5.470073  (  1.118610  -1.319616   1.573975)
  44:      3165.41    1.616939  (  1.254872   0.093169   0.183179)
  45:      3173.82    0.376577  ( -0.296968   0.058925  -0.533774)
  46:      3182.26    1.107845  (  0.653639   0.795657   0.218014)
  47:      3272.29    0.294517  (  0.305618   0.022465   0.447895)
  48:      3411.83   40.534706  ( -2.541742   1.885441   5.524434)
  49:      3504.78   82.694249  ( -1.125616  -8.477875   3.090773)
  50:      3512.26   71.485254  (  7.765140   1.307335   3.078754)

--------------------------
THERMOCHEMISTRY AT 298.15K
--------------------------

Temperature         ... 298.15 K
Pressure            ... 1.00 atm
Total Mass          ... 96.15 AMU

Throughout the following assumptions are being made:
  (1) The electronic state is orbitally nondegenerate
  (2) There are no thermally accessible electronically excited states
  (3) Hindered rotations indicated by low frequency modes) are not
      treated as such but are treated as vibrations and this may
      case some error
  (4) All equations used are the standard statistical mechanics
      equations for an ideal gas
  (5) All vibrations are strinctly harmonic

------------
INNER ENERGY
------------

The inner energy is: U= E(el) + E(ZPE) + E(vib) + E(rot) + E(trans)
    E(el)   - is the total energy from the electronic structure calculation
              = E(kin-el) + E(nuc-el) + E(el-el) + E(nuc-nuc)
    E(ZPE)  - the the zero temperature vibrational energy from the frequency calculation
    E(vib)  - the the finite temperature correction to E(ZPE) due to population
              of excietd vibrational states
    E(rot)  - is the rotational thermal energy
    E(trans)- is the translational thermal energy

Summary of contributions to the inner energy U:
Electronic energy                ...   -288.83535072 Eh
Zero point energy                ...      0.15052953 Eh      94.46 kcal/mol
Thermal vibrational correction   ...      0.00502325 Eh       3.15 kcal/mol
Thermal rotational correction    ...      0.00141627 Eh       0.89 kcal/mol
Thermal translational correction ...      0.00141627 Eh       0.89 kcal/mol
-----------------------------------------------------------------------
Total thermal energy                   -288.67696539 Eh

Summary of corrections to the electronic energy:
(perhaps to be used in another calculation)
Total thermal correction                  0.00785580 Eh       4.93 kcal/mol
Non-thermal (ZPE) correction              0.15052953 Eh      94.46 kcal/mol
-----------------------------------------------------------------------
Total correction                          0.15838533 Eh      99.39 kcal/mol

--------
ENTHALPY
--------

The enthalpy is H = U + kB*T
                kB is Boltzmann's constant
Total free energy                 ...   -288.67696539 Eh
Thermal Enthalpy correction       ...      0.00094421 Eh       0.59 kcal/mol
-----------------------------------------------------------------------
Total Enthalpy                    ...   -288.67602118 Eh

-------
ENTROPY
-------

The entropy contributions are T*S = T*(S(el)+S(vib)+S(rot)+S(trans)
     S(el)   - electronic entropy
     S(vib)  - vibrational entropy
     S(rot)  - rotational entropy
     S(trans)- translational entropy
The entropies will be listed as mutliplied by the temperature to get
units of energy

Electronic entropy                ...      0.00000000 Eh      0.00 kcal/mol
Vibrational entropy               ...      0.00872471 Eh      5.47 kcal/mol
Rotational entropy                ...      0.01235354 Eh      7.75 kcal/mol
Translational entropy             ...      0.01881568 Eh     11.81 kcal/mol
-----------------------------------------------------------------------
Final entropy term                ...      0.03989393 Eh     25.03 kcal/mol

CAUTION: The rotational entropy is not quite correctly treated here
         because it includes a symmetry number that is not yet correctly
         implemented in ORCA!
For a nonlinear molecule the correct rotational entropy is:
    S(rot) = R*(ln(qrot/sn)+1.5)
    R    = 8.31441 J/mol/K = 1.987191683e-3 kcal/mol/K
    qrot = 322055.5787679
    sn is the rotational symmetry number. We have assumed 3 here
       if it is different for your molecule then you should correct
       the printed rotational entropy by manually evaluating the equation
       as given above

For convenience we print out the resulting values for sn=1 - 12:
 sn= 1  qrot/sn=  322055.5788 T*S(rot)=     8.40 kcal/mol T*S(tot)=    25.68 kcal/mol
 sn= 2  qrot/sn=  161027.7894 T*S(rot)=     7.99 kcal/mol T*S(tot)=    25.27 kcal/mol
 sn= 3  qrot/sn=  107351.8596 T*S(rot)=     7.75 kcal/mol T*S(tot)=    25.03 kcal/mol
 sn= 4  qrot/sn=   80513.8947 T*S(rot)=     7.58 kcal/mol T*S(tot)=    24.86 kcal/mol
 sn= 5  qrot/sn=   64411.1158 T*S(rot)=     7.45 kcal/mol T*S(tot)=    24.73 kcal/mol
 sn= 6  qrot/sn=   53675.9298 T*S(rot)=     7.34 kcal/mol T*S(tot)=    24.62 kcal/mol
 sn= 7  qrot/sn=   46007.9398 T*S(rot)=     7.25 kcal/mol T*S(tot)=    24.53 kcal/mol
 sn= 8  qrot/sn=   40256.9473 T*S(rot)=     7.17 kcal/mol T*S(tot)=    24.45 kcal/mol
 sn= 9  qrot/sn=   35783.9532 T*S(rot)=     7.10 kcal/mol T*S(tot)=    24.38 kcal/mol
 sn=10  qrot/sn=   32205.5579 T*S(rot)=     7.04 kcal/mol T*S(tot)=    24.32 kcal/mol
 sn=11  qrot/sn=   29277.7799 T*S(rot)=     6.98 kcal/mol T*S(tot)=    24.26 kcal/mol
 sn=12  qrot/sn=   26837.9649 T*S(rot)=     6.93 kcal/mol T*S(tot)=    24.21 kcal/mol

-------------------
GIBBS FREE ENTHALPY
-------------------

The Gibbs free enthalpy is G = H - T*S

Total enthalpy                    ...   -288.67602118 Eh
Total entropy correction          ...     -0.03989393 Eh    -25.03 kcal/mol
-----------------------------------------------------------------------
Final Gibbs free enthalpy         ...   -288.71591511 Eh

For completeness - the Gibbs free enthalpy minus the electronic energy
G-E(el)                           ...      0.11943561 Eh     74.95 kcal/mol

                             ****ORCA TERMINATED NORMALLY****
TOTAL RUN TIME: 0 days 0 hours 33 minutes 55 seconds 102 msec
