                         Program Version 3.0.3 - RELEASE   -
|  1> ! NORI PBE0 def2-TZVP UseSym TightOPT Freq TightSCF Grid3 FinalGrid5 XYZFile
|  2> % pal
|  3>     nprocs 8
|  4> end
|  5> %method
|  6>     SymThresh 5.0e-2
|  7> end
|  8> % geom
|  9>     MaxIter 10
| 10> end
| 11> % maxcore 2000
| 12> % output
| 13>     printlevel mini
| 14>     print[ P_Basis ] 0
| 15>     print[ P_SCFInfo ] 1
| 16>     print[ P_SCFIterInfo ] 1
| 17>     print[ P_OrbEn ] 0
| 18>     print[ P_Cartesian ] 0
| 19> end
| 20> % elprop
| 21>     Dipole false
| 22> end
| 23> *xyz 1 1
| 24>  C        1.0261184141    -0.0740797289    -0.0259090257
| 25>  C        2.5410549293     0.0077839025    -0.0686963299
| 26>  N        3.1082312981    -1.3996423490    -0.2737522749
| 27>  C        3.0629219485     0.8450812284    -1.1220793481
| 28>  C        3.4739911128     1.5578901499    -2.0067570833
| 29>  C        3.9393208553     2.3644126595    -2.9970151258
| 30>  C        4.3493535219     3.0811540563    -3.8735210485
| 31>  H        0.6305375918     0.9243808802     0.1580960795
| 32>  H        0.6851827594    -0.7252315403     0.7823748340
| 33>  H        0.6206290711    -0.4218148316    -0.9781940772
| 34>  H        2.9349319677     0.3236232474     0.9030082975
| 35>  H        2.7907466316    -1.7721538929    -1.1721117334
| 36>  H        2.8058166347    -2.0374858784     0.4662278986
| 37>  H        4.1302312089    -1.3759061373    -0.2926219665
| 38>  H        4.7118720549     3.7188082342    -4.6488490964
| 39> *
| 40>
| 41>                          ****END OF INPUT****
 Total Charge           Charge          ....    1
 Multiplicity           Mult            ....    1
 Number of Electrons    NEL             ....   50
FINAL SINGLE POINT ENERGY      -287.580525242763
FINAL SINGLE POINT ENERGY      -287.580525697423
FINAL SINGLE POINT ENERGY      -287.580526060706

CARTESIAN COORDINATES (ANGSTROEM)
---------------------------------
  C      2.200845   -0.000261    1.292480
  C      0.793020   -0.566746    1.254693
  N     -0.000117    0.000671    2.435386
  C      0.058486   -0.262039    0.050080
  C     -0.533380    0.000069   -0.969954
  C     -1.200018    0.288651   -2.118875
  C     -1.788164    0.543387   -3.138272
  H      2.771779   -0.435585    0.472769
  H      2.706738   -0.254115    2.227051
  H      2.195299    1.082937    1.156120
  H      0.810308   -1.647551    1.429881
  H     -0.070286    1.017519    2.347305
  H      0.450047   -0.216616    3.327450
  H     -0.950729   -0.375550    2.444498
  H     -2.307791    0.767170   -4.043292

FINAL SINGLE POINT ENERGY      -287.580526211987
                    ***********************HURRAY********************
 Multiplicity           Mult            ....    1
 Number of Electrons    NEL             ....   50
 Basis Dimension        Dim             ....  265
FINAL SINGLE POINT ENERGY      -287.580526413762

VIBRATIONAL FREQUENCIES
-----------------------

   0:         0.00 cm**-1
   1:         0.00 cm**-1
   2:         0.00 cm**-1
   3:         0.00 cm**-1
   4:         0.00 cm**-1
   5:         0.00 cm**-1
   6:        82.79 cm**-1
   7:       102.13 cm**-1
   8:       217.16 cm**-1
   9:       229.41 cm**-1
  10:       235.99 cm**-1
  11:       269.08 cm**-1
  12:       344.75 cm**-1
  13:       468.50 cm**-1
  14:       478.07 cm**-1
  15:       541.17 cm**-1
  16:       565.74 cm**-1
  17:       672.58 cm**-1
  18:       717.77 cm**-1
  19:       738.36 cm**-1
  20:       809.46 cm**-1
  21:       937.59 cm**-1
  22:       956.17 cm**-1
  23:      1075.53 cm**-1
  24:      1082.29 cm**-1
  25:      1171.83 cm**-1
  26:      1231.89 cm**-1
  27:      1359.93 cm**-1
  28:      1383.00 cm**-1
  29:      1415.60 cm**-1
  30:      1473.38 cm**-1
  31:      1487.86 cm**-1
  32:      1491.17 cm**-1
  33:      1642.87 cm**-1
  34:      1653.85 cm**-1
  35:      2192.99 cm**-1
  36:      2365.93 cm**-1
  37:      3061.66 cm**-1
  38:      3073.12 cm**-1
  39:      3145.71 cm**-1
  40:      3165.40 cm**-1
  41:      3410.11 cm**-1
  42:      3457.70 cm**-1
  43:      3500.65 cm**-1
  44:      3508.44 cm**-1

IR SPECTRUM
-----------

 Mode    freq (cm**-1)   T**2         TX         TY         TZ
-------------------------------------------------------------------
   6:        82.79    9.304815  (  2.831672  -0.936280   0.640179)
   7:       102.13   11.511817  (  0.153069   3.371796  -0.345516)
   8:       217.16    0.518965  ( -0.594205  -0.317955  -0.254538)
   9:       229.41    7.297989  (  1.419537   0.023424  -2.298337)
  10:       235.99    3.421966  (  0.695429   1.458618   0.900432)
  11:       269.08    1.553722  ( -0.562924   0.406876  -1.035032)
  12:       344.75    6.893300  ( -2.441904  -0.873790  -0.408529)
  13:       468.50    1.891102  (  0.275827  -0.121599  -1.341729)
  14:       478.07    6.958585  ( -0.345800  -0.361173   2.590089)
  15:       541.17    4.630160  ( -0.887871  -1.773500  -0.834591)
  16:       565.74   12.823135  ( -1.910161   0.614957   2.965847)
  17:       672.58    0.658648  ( -0.114877  -0.036019   0.802592)
  18:       717.77   39.350386  ( -3.395136  -5.234975   0.646902)
  19:       738.36   35.382816  ( -4.120830   3.045901   3.020606)
  20:       809.46   23.503639  ( -0.237015  -0.403804   4.825392)
  21:       937.59   10.884112  (  2.733377   1.232136   1.376446)
  22:       956.17   11.574182  ( -0.407762  -0.496823   3.340820)
  23:      1075.53   30.577098  ( -2.228489   0.757256  -5.003748)
  24:      1082.29   24.611053  (  3.778979  -2.165214  -2.375335)
  25:      1171.83    8.059345  (  1.553315   2.284514   0.653877)
  26:      1231.89   13.172791  (  2.121009   1.200214   2.689535)
  27:      1359.93    8.546049  (  2.793453   0.796350   0.329386)
  28:      1383.00  114.843759  (  3.626935  -2.582657   9.747768)
  29:      1415.60   20.736330  (  4.017568   0.621578  -2.051613)
  30:      1473.38    7.862874  ( -1.722973   2.111887  -0.658917)
  31:      1487.86   14.876562  (  0.686294  -2.662019  -2.705405)
  32:      1491.17  151.819742  ( -5.051491   3.934910  10.527045)
  33:      1642.87   48.335484  ( -3.366915  -6.026067   0.828179)
  34:      1653.85   41.302703  ( -3.927265   2.687786  -4.319155)
  35:      2192.99    0.280006  ( -0.418390   0.311524  -0.088931)
  36:      2365.93  233.688580  ( -6.686337   2.435662 -13.529561)
  37:      3061.66    6.125298  (  0.081116   0.575657   2.405689)
  38:      3073.12    0.707844  ( -0.271230  -0.009728  -0.796356)
  39:      3145.71    4.618840  (  1.149977  -1.072240   1.465160)
  40:      3165.40    1.641914  ( -1.280416   0.041157  -0.027470)
  41:      3410.11   47.811284  (  2.694291  -1.832791  -6.098603)
  42:      3457.70  122.634929  ( -5.473341   2.233360  -9.364271)
  43:      3500.65   91.378461  ( -1.897167  -8.772772   3.289027)
  44:      3508.44   77.921380  ( -7.918731  -0.720462  -3.833538)

--------------------------
THERMOCHEMISTRY AT 298.15K
--------------------------

Temperature         ... 298.15 K
Pressure            ... 1.00 atm
Total Mass          ... 94.14 AMU

Throughout the following assumptions are being made:
  (1) The electronic state is orbitally nondegenerate
  (2) There are no thermally accessible electronically excited states
  (3) Hindered rotations indicated by low frequency modes) are not
      treated as such but are treated as vibrations and this may
      case some error
  (4) All equations used are the standard statistical mechanics
      equations for an ideal gas
  (5) All vibrations are strinctly harmonic

------------
INNER ENERGY
------------

The inner energy is: U= E(el) + E(ZPE) + E(vib) + E(rot) + E(trans)
    E(el)   - is the total energy from the electronic structure calculation
              = E(kin-el) + E(nuc-el) + E(el-el) + E(nuc-nuc)
    E(ZPE)  - the the zero temperature vibrational energy from the frequency calculation
    E(vib)  - the the finite temperature correction to E(ZPE) due to population
              of excietd vibrational states
    E(rot)  - is the rotational thermal energy
    E(trans)- is the translational thermal energy

Summary of contributions to the inner energy U:
Electronic energy                ...   -287.58052641 Eh
Zero point energy                ...      0.12693412 Eh      79.65 kcal/mol
Thermal vibrational correction   ...      0.00537470 Eh       3.37 kcal/mol
Thermal rotational correction    ...      0.00141627 Eh       0.89 kcal/mol
Thermal translational correction ...      0.00141627 Eh       0.89 kcal/mol
-----------------------------------------------------------------------
Total thermal energy                   -287.44538505 Eh

Summary of corrections to the electronic energy:
(perhaps to be used in another calculation)
Total thermal correction                  0.00820725 Eh       5.15 kcal/mol
Non-thermal (ZPE) correction              0.12693412 Eh      79.65 kcal/mol
-----------------------------------------------------------------------
Total correction                          0.13514137 Eh      84.80 kcal/mol

--------
ENTHALPY
--------

The enthalpy is H = U + kB*T
                kB is Boltzmann's constant
Total free energy                 ...   -287.44538505 Eh
Thermal Enthalpy correction       ...      0.00094421 Eh       0.59 kcal/mol
-----------------------------------------------------------------------
Total Enthalpy                    ...   -287.44444084 Eh

-------
ENTROPY
-------

The entropy contributions are T*S = T*(S(el)+S(vib)+S(rot)+S(trans)
     S(el)   - electronic entropy
     S(vib)  - vibrational entropy
     S(rot)  - rotational entropy
     S(trans)- translational entropy
The entropies will be listed as mutliplied by the temperature to get
units of energy

Electronic entropy                ...      0.00000000 Eh      0.00 kcal/mol
Vibrational entropy               ...      0.00945955 Eh      5.94 kcal/mol
Rotational entropy                ...      0.01229047 Eh      7.71 kcal/mol
Translational entropy             ...      0.01878567 Eh     11.79 kcal/mol
-----------------------------------------------------------------------
Final entropy term                ...      0.04053569 Eh     25.44 kcal/mol

CAUTION: The rotational entropy is not quite correctly treated here
         because it includes a symmetry number that is not yet correctly
         implemented in ORCA!
For a nonlinear molecule the correct rotational entropy is:
    S(rot) = R*(ln(qrot/sn)+1.5)
    R    = 8.31441 J/mol/K = 1.987191683e-3 kcal/mol/K
    qrot = 301247.1078567
    sn is the rotational symmetry number. We have assumed 3 here
       if it is different for your molecule then you should correct
       the printed rotational entropy by manually evaluating the equation
       as given above

For convenience we print out the resulting values for sn=1 - 12:
 sn= 1  qrot/sn=  301247.1079 T*S(rot)=     8.36 kcal/mol T*S(tot)=    26.09 kcal/mol
 sn= 2  qrot/sn=  150623.5539 T*S(rot)=     7.95 kcal/mol T*S(tot)=    25.68 kcal/mol
 sn= 3  qrot/sn=  100415.7026 T*S(rot)=     7.71 kcal/mol T*S(tot)=    25.44 kcal/mol
 sn= 4  qrot/sn=   75311.7770 T*S(rot)=     7.54 kcal/mol T*S(tot)=    25.27 kcal/mol
 sn= 5  qrot/sn=   60249.4216 T*S(rot)=     7.41 kcal/mol T*S(tot)=    25.13 kcal/mol
 sn= 6  qrot/sn=   50207.8513 T*S(rot)=     7.30 kcal/mol T*S(tot)=    25.03 kcal/mol
 sn= 7  qrot/sn=   43035.3011 T*S(rot)=     7.21 kcal/mol T*S(tot)=    24.93 kcal/mol
 sn= 8  qrot/sn=   37655.8885 T*S(rot)=     7.13 kcal/mol T*S(tot)=    24.86 kcal/mol
 sn= 9  qrot/sn=   33471.9009 T*S(rot)=     7.06 kcal/mol T*S(tot)=    24.79 kcal/mol
 sn=10  qrot/sn=   30124.7108 T*S(rot)=     7.00 kcal/mol T*S(tot)=    24.72 kcal/mol
 sn=11  qrot/sn=   27386.1007 T*S(rot)=     6.94 kcal/mol T*S(tot)=    24.67 kcal/mol
 sn=12  qrot/sn=   25103.9257 T*S(rot)=     6.89 kcal/mol T*S(tot)=    24.62 kcal/mol

-------------------
GIBBS FREE ENTHALPY
-------------------

The Gibbs free enthalpy is G = H - T*S

Total enthalpy                    ...   -287.44444084 Eh
Total entropy correction          ...     -0.04053569 Eh    -25.44 kcal/mol
-----------------------------------------------------------------------
Final Gibbs free enthalpy         ...   -287.48497653 Eh

For completeness - the Gibbs free enthalpy minus the electronic energy
G-E(el)                           ...      0.09554988 Eh     59.96 kcal/mol

                             ****ORCA TERMINATED NORMALLY****
TOTAL RUN TIME: 0 days 0 hours 27 minutes 5 seconds 873 msec
