                         Program Version 3.0.3 - RELEASE   -
|  1> ! NORI PBE0 def2-TZVP UseSym TightOPT Freq TightSCF Grid3 FinalGrid5 XYZFile
|  2> % pal
|  3>     nprocs 8
|  4> end
|  5> %method
|  6>     SymThresh 5.0e-2
|  7> end
|  8> % geom
|  9>     MaxIter 10
| 10> end
| 11> % maxcore 2000
| 12> % output
| 13>     printlevel mini
| 14>     print[ P_Basis ] 0
| 15>     print[ P_SCFInfo ] 1
| 16>     print[ P_SCFIterInfo ] 1
| 17>     print[ P_OrbEn ] 0
| 18>     print[ P_Cartesian ] 0
| 19> end
| 20> % elprop
| 21>     Dipole false
| 22> end
| 23> *xyz 1 1
| 24>  C        2.7139152306    -0.4239412914    -1.6235920531
| 25>  C        2.6445339151     0.2417920089    -0.2703093520
| 26>  N        1.1832316615     0.3607108625     0.1306174125
| 27>  C        3.3688814517    -0.5065333071     0.8426577744
| 28>  C        4.8589407041    -0.5702476897     0.6297719398
| 29>  C        5.6042591255     0.7260571980     0.6908109661
| 30>  C        5.4575311350    -1.7394333327     0.4336844953
| 31>  H        2.1824521902     0.1429619565    -2.3916819732
| 32>  H        2.3145847309    -1.4416610280    -1.5883556780
| 33>  H        3.7583826273    -0.4980592915    -1.9265303600
| 34>  H        2.9959268731     1.2747155749    -0.3286044022
| 35>  H        0.7632540924    -0.5680521834     0.2148459234
| 36>  H        0.6456604244     0.8825632010    -0.5641337823
| 37>  H        1.0831755157     0.8298721500     1.0330020572
| 38>  H        2.9663303083    -1.5231808820     0.9120120108
| 39>  H        3.1682052975    -0.0051128401     1.8000955174
| 40>  H        6.6773510674     0.5643433851     0.5939611506
| 41>  H        5.4245751292     1.2402236610     1.6412888506
| 42>  H        5.3067537871     1.4169558465    -0.1064217104
| 43>  H        6.5313412507    -1.8063786258     0.3011689658
| 44>  H        4.9040334823    -2.6718753727     0.4133822472
| 45> *
| 46>
| 47>                          ****END OF INPUT****
 Total Charge           Charge          ....    1
 Multiplicity           Mult            ....    1
 Number of Electrons    NEL             ....   56
FINAL SINGLE POINT ENERGY      -291.315080243957
FINAL SINGLE POINT ENERGY      -291.315082109450
FINAL SINGLE POINT ENERGY      -291.315083556732

CARTESIAN COORDINATES (ANGSTROEM)
---------------------------------
  C      1.781158    0.010420    0.810594
  C      0.326836   -0.314646    1.049268
  N     -0.001192   -0.005975    2.501360
  C     -0.648562    0.468308    0.178229
  C     -0.523787    0.131418   -1.285305
  C     -0.915336   -1.254503   -1.692587
  C     -0.117722    1.051967   -2.152280
  H      2.446902   -0.577190    1.447179
  H      1.983022    1.074558    0.965159
  H      2.025921   -0.215643   -0.227277
  H      0.149040   -1.388360    0.953050
  H      0.133225    0.990471    2.689459
  H      0.602652   -0.526686    3.140300
  H     -0.973061   -0.234465    2.719855
  H     -0.476556    1.540737    0.321745
  H     -1.675242    0.249348    0.504641
  H     -0.857826   -1.375149   -2.773490
  H     -1.940349   -1.480730   -1.380902
  H     -0.269790   -2.018377   -1.245438
  H     -0.045555    0.833385   -3.211176
  H      0.141228    2.058439   -1.842112

FINAL SINGLE POINT ENERGY      -291.315084082838
                    ***********************HURRAY********************
 Multiplicity           Mult            ....    1
 Number of Electrons    NEL             ....   56
 Basis Dimension        Dim             ....  301
FINAL SINGLE POINT ENERGY      -291.315084318254

VIBRATIONAL FREQUENCIES
-----------------------

   0:         0.00 cm**-1
   1:         0.00 cm**-1
   2:         0.00 cm**-1
   3:         0.00 cm**-1
   4:         0.00 cm**-1
   5:         0.00 cm**-1
   6:        46.36 cm**-1
   7:        89.34 cm**-1
   8:       165.45 cm**-1
   9:       183.70 cm**-1
  10:       207.82 cm**-1
  11:       238.76 cm**-1
  12:       313.18 cm**-1
  13:       362.99 cm**-1
  14:       391.04 cm**-1
  15:       426.74 cm**-1
  16:       460.79 cm**-1
  17:       534.12 cm**-1
  18:       718.05 cm**-1
  19:       822.43 cm**-1
  20:       839.03 cm**-1
  21:       899.21 cm**-1
  22:       920.33 cm**-1
  23:       944.91 cm**-1
  24:       966.48 cm**-1
  25:       972.97 cm**-1
  26:      1000.81 cm**-1
  27:      1018.94 cm**-1
  28:      1057.68 cm**-1
  29:      1102.66 cm**-1
  30:      1134.92 cm**-1
  31:      1210.68 cm**-1
  32:      1267.58 cm**-1
  33:      1299.47 cm**-1
  34:      1343.11 cm**-1
  35:      1381.46 cm**-1
  36:      1396.13 cm**-1
  37:      1413.46 cm**-1
  38:      1421.83 cm**-1
  39:      1447.02 cm**-1
  40:      1460.90 cm**-1
  41:      1475.92 cm**-1
  42:      1480.85 cm**-1
  43:      1483.94 cm**-1
  44:      1488.54 cm**-1
  45:      1495.93 cm**-1
  46:      1652.31 cm**-1
  47:      1656.88 cm**-1
  48:      1736.05 cm**-1
  49:      3010.77 cm**-1
  50:      3036.14 cm**-1
  51:      3052.88 cm**-1
  52:      3073.30 cm**-1
  53:      3088.68 cm**-1
  54:      3103.70 cm**-1
  55:      3131.87 cm**-1
  56:      3154.75 cm**-1
  57:      3157.79 cm**-1
  58:      3161.38 cm**-1
  59:      3249.87 cm**-1
  60:      3416.84 cm**-1
  61:      3501.48 cm**-1
  62:      3512.00 cm**-1

IR SPECTRUM
-----------

 Mode    freq (cm**-1)   T**2         TX         TY         TZ
-------------------------------------------------------------------
   6:        46.36    1.320976  ( -0.137474  -1.128106  -0.171619)
   7:        89.34    3.007417  ( -0.895968  -1.459991  -0.270338)
   8:       165.45    2.218759  ( -0.589571   1.358549   0.159714)
   9:       183.70    0.332473  ( -0.365636  -0.445440  -0.019133)
  10:       207.82    0.311382  ( -0.461833   0.307659  -0.058632)
  11:       238.76    0.972551  ( -0.323953  -0.925231  -0.107481)
  12:       313.18   10.395451  (  1.823422  -0.434460   2.623324)
  13:       362.99    7.316608  (  2.428125  -0.635757  -1.008280)
  14:       391.04    0.712139  (  0.642614   0.546932  -0.007182)
  15:       426.74    3.401255  ( -0.878502  -0.204422   1.608633)
  16:       460.79    3.420063  ( -1.642127  -0.814773   0.244187)
  17:       534.12    7.804048  ( -2.091595   1.141392  -1.458254)
  18:       718.05    0.596219  ( -0.114300  -0.471998   0.600310)
  19:       822.43    2.969529  ( -0.068857   1.121834  -1.306245)
  20:       839.03    6.434036  ( -1.315108   1.140226  -1.845105)
  21:       899.21    2.692237  ( -0.437237   0.771356   1.380605)
  22:       920.33    0.747569  ( -0.225484   0.809209   0.204710)
  23:       944.91   10.700385  (  2.853306   0.640648  -1.465811)
  24:       966.48    8.200666  ( -1.481697   0.778991  -2.323449)
  25:       972.97   40.368649  ( -6.083926   1.671475  -0.748775)
  26:      1000.81    3.264486  (  1.401859  -0.787660   0.823935)
  27:      1018.94    0.506979  (  0.148222  -0.561544   0.411920)
  28:      1057.68    2.858506  ( -0.127008  -0.024767   1.685752)
  29:      1102.66   15.113300  (  0.268416  -0.607253  -3.830470)
  30:      1134.92   11.728605  (  0.171991  -2.540160   2.290548)
  31:      1210.68   19.813911  ( -2.953064  -0.205346  -3.324328)
  32:      1267.58    0.557919  (  0.370559  -0.639405  -0.108474)
  33:      1299.47    2.606720  (  0.957110   0.232176   1.279357)
  34:      1343.11    4.162483  (  0.154372   1.776519   0.991278)
  35:      1381.46    7.006142  (  0.389609  -1.463354   2.170931)
  36:      1396.13    4.416194  ( -0.262016  -1.412640   1.533620)
  37:      1413.46   11.946936  (  1.536488   2.457509   1.883292)
  38:      1421.83   33.963547  ( -4.776780   0.166920   3.334375)
  39:      1447.02    0.318120  (  0.340372   0.301997   0.333264)
  40:      1460.90    0.800569  ( -0.785134  -0.367455   0.221611)
  41:      1475.92   10.446395  (  3.139705  -0.728629   0.240305)
  42:      1480.85    1.651229  (  0.954776  -0.462287  -0.725206)
  43:      1483.94   21.062177  (  1.314239  -3.484536   2.681970)
  44:      1488.54   39.058667  (  1.845519  -0.236043  -5.966323)
  45:      1495.93  138.109441  ( -1.921973   3.354113  11.097990)
  46:      1652.31   53.001652  ( -1.206356  -6.954346   1.784218)
  47:      1656.88   36.513572  (  5.769693  -0.784011   1.615409)
  48:      1736.05   11.129533  ( -1.216308  -2.845618   1.246029)
  49:      3010.77   22.618263  (  2.878668  -0.593416  -3.738902)
  50:      3036.14   15.143029  (  0.390524   3.299914  -2.025115)
  51:      3052.88    5.702593  (  0.863042   0.695813   2.115088)
  52:      3073.30    6.277334  (  1.146922   2.105837   0.726193)
  53:      3088.68   12.297473  (  3.385313  -0.507894   0.761036)
  54:      3103.70    3.609107  ( -0.968785  -1.630134  -0.115008)
  55:      3131.87    7.720704  ( -0.721857   2.480536  -1.023018)
  56:      3154.75    4.606606  (  0.062533   0.042803  -2.144962)
  57:      3157.79    0.672399  (  0.806748   0.111642  -0.095352)
  58:      3161.38    0.970443  (  0.217655   0.957621   0.077655)
  59:      3249.87    2.718181  ( -0.369412  -1.258504  -0.998941)
  60:      3416.84   38.088876  ( -1.202917   1.053046   5.960953)
  61:      3501.48   75.099664  ( -2.617232  -8.076574   1.737445)
  62:      3512.00   80.113870  (  8.164408  -2.365692   2.803536)

--------------------------
THERMOCHEMISTRY AT 298.15K
--------------------------

Temperature         ... 298.15 K
Pressure            ... 1.00 atm
Total Mass          ... 100.18 AMU

Throughout the following assumptions are being made:
  (1) The electronic state is orbitally nondegenerate
  (2) There are no thermally accessible electronically excited states
  (3) Hindered rotations indicated by low frequency modes) are not
      treated as such but are treated as vibrations and this may
      case some error
  (4) All equations used are the standard statistical mechanics
      equations for an ideal gas
  (5) All vibrations are strinctly harmonic

------------
INNER ENERGY
------------

The inner energy is: U= E(el) + E(ZPE) + E(vib) + E(rot) + E(trans)
    E(el)   - is the total energy from the electronic structure calculation
              = E(kin-el) + E(nuc-el) + E(el-el) + E(nuc-nuc)
    E(ZPE)  - the the zero temperature vibrational energy from the frequency calculation
    E(vib)  - the the finite temperature correction to E(ZPE) due to population
              of excietd vibrational states
    E(rot)  - is the rotational thermal energy
    E(trans)- is the translational thermal energy

Summary of contributions to the inner energy U:
Electronic energy                ...   -291.31508432 Eh
Zero point energy                ...      0.19724875 Eh     123.78 kcal/mol
Thermal vibrational correction   ...      0.00640989 Eh       4.02 kcal/mol
Thermal rotational correction    ...      0.00141627 Eh       0.89 kcal/mol
Thermal translational correction ...      0.00141627 Eh       0.89 kcal/mol
-----------------------------------------------------------------------
Total thermal energy                   -291.10859314 Eh

Summary of corrections to the electronic energy:
(perhaps to be used in another calculation)
Total thermal correction                  0.00924243 Eh       5.80 kcal/mol
Non-thermal (ZPE) correction              0.19724875 Eh     123.78 kcal/mol
-----------------------------------------------------------------------
Total correction                          0.20649118 Eh     129.57 kcal/mol

--------
ENTHALPY
--------

The enthalpy is H = U + kB*T
                kB is Boltzmann's constant
Total free energy                 ...   -291.10859314 Eh
Thermal Enthalpy correction       ...      0.00094421 Eh       0.59 kcal/mol
-----------------------------------------------------------------------
Total Enthalpy                    ...   -291.10764893 Eh

-------
ENTROPY
-------

The entropy contributions are T*S = T*(S(el)+S(vib)+S(rot)+S(trans)
     S(el)   - electronic entropy
     S(vib)  - vibrational entropy
     S(rot)  - rotational entropy
     S(trans)- translational entropy
The entropies will be listed as mutliplied by the temperature to get
units of energy

Electronic entropy                ...      0.00000000 Eh      0.00 kcal/mol
Vibrational entropy               ...      0.01181924 Eh      7.42 kcal/mol
Rotational entropy                ...      0.01226925 Eh      7.70 kcal/mol
Translational entropy             ...      0.01887386 Eh     11.84 kcal/mol
-----------------------------------------------------------------------
Final entropy term                ...      0.04296235 Eh     26.96 kcal/mol

CAUTION: The rotational entropy is not quite correctly treated here
         because it includes a symmetry number that is not yet correctly
         implemented in ORCA!
For a nonlinear molecule the correct rotational entropy is:
    S(rot) = R*(ln(qrot/sn)+1.5)
    R    = 8.31441 J/mol/K = 1.987191683e-3 kcal/mol/K
    qrot = 294552.1506756
    sn is the rotational symmetry number. We have assumed 3 here
       if it is different for your molecule then you should correct
       the printed rotational entropy by manually evaluating the equation
       as given above

For convenience we print out the resulting values for sn=1 - 12:
 sn= 1  qrot/sn=  294552.1507 T*S(rot)=     8.35 kcal/mol T*S(tot)=    27.61 kcal/mol
 sn= 2  qrot/sn=  147276.0753 T*S(rot)=     7.94 kcal/mol T*S(tot)=    27.20 kcal/mol
 sn= 3  qrot/sn=   98184.0502 T*S(rot)=     7.70 kcal/mol T*S(tot)=    26.96 kcal/mol
 sn= 4  qrot/sn=   73638.0377 T*S(rot)=     7.53 kcal/mol T*S(tot)=    26.79 kcal/mol
 sn= 5  qrot/sn=   58910.4301 T*S(rot)=     7.40 kcal/mol T*S(tot)=    26.66 kcal/mol
 sn= 6  qrot/sn=   49092.0251 T*S(rot)=     7.29 kcal/mol T*S(tot)=    26.55 kcal/mol
 sn= 7  qrot/sn=   42078.8787 T*S(rot)=     7.20 kcal/mol T*S(tot)=    26.46 kcal/mol
 sn= 8  qrot/sn=   36819.0188 T*S(rot)=     7.12 kcal/mol T*S(tot)=    26.38 kcal/mol
 sn= 9  qrot/sn=   32728.0167 T*S(rot)=     7.05 kcal/mol T*S(tot)=    26.31 kcal/mol
 sn=10  qrot/sn=   29455.2151 T*S(rot)=     6.99 kcal/mol T*S(tot)=    26.25 kcal/mol
 sn=11  qrot/sn=   26777.4682 T*S(rot)=     6.93 kcal/mol T*S(tot)=    26.19 kcal/mol
 sn=12  qrot/sn=   24546.0126 T*S(rot)=     6.88 kcal/mol T*S(tot)=    26.14 kcal/mol

-------------------
GIBBS FREE ENTHALPY
-------------------

The Gibbs free enthalpy is G = H - T*S

Total enthalpy                    ...   -291.10764893 Eh
Total entropy correction          ...     -0.04296235 Eh    -26.96 kcal/mol
-----------------------------------------------------------------------
Final Gibbs free enthalpy         ...   -291.15061128 Eh

For completeness - the Gibbs free enthalpy minus the electronic energy
G-E(el)                           ...      0.16447304 Eh    103.21 kcal/mol

                             ****ORCA TERMINATED NORMALLY****
TOTAL RUN TIME: 0 days 0 hours 50 minutes 53 seconds 538 msec
