                         Program Version 3.0.3 - RELEASE   -
|  1> ! NORI PBE0 def2-TZVP UseSym TightOPT Freq TightSCF Grid3 FinalGrid5 XYZFile
|  2> % pal
|  3>     nprocs 8
|  4> end
|  5> %method
|  6>     SymThresh 5.0e-2
|  7> end
|  8> % geom
|  9>     MaxIter 10
| 10> end
| 11> % maxcore 2000
| 12> % output
| 13>     printlevel mini
| 14>     print[ P_Basis ] 0
| 15>     print[ P_SCFInfo ] 1
| 16>     print[ P_SCFIterInfo ] 1
| 17>     print[ P_OrbEn ] 0
| 18>     print[ P_Cartesian ] 0
| 19> end
| 20> % elprop
| 21>     Dipole false
| 22> end
| 23> *xyz 1 1
| 24>  C        1.1528839650     0.4592416881     0.1191675253
| 25>  C        2.6545065595     0.2954243173     0.1054998243
| 26>  N        3.1900228041     0.6699937242     1.4780887144
| 27>  C        3.1261714347    -1.1059674010    -0.2351114359
| 28>  C        4.6430042102    -1.2807222663    -0.3020687379
| 29>  C        5.0285533638    -2.6641241864    -0.7235768387
| 30>  C        5.7329700691    -2.9421827330    -1.8092207904
| 31>  H        0.7638598133     0.2457287111    -0.8768688240
| 32>  H        0.8475778618     1.4767500608     0.3757365711
| 33>  H        0.6787978616    -0.2404085976     0.8129571566
| 34>  H        3.1154153256     1.0213740393    -0.5701023452
| 35>  H        2.7903660436     0.0591052542     2.1942081335
| 36>  H        2.9551624772     1.6333483761     1.7225778814
| 37>  H        4.2065602904     0.5640880353     1.5097234153
| 38>  H        2.6852553520    -1.8225097326     0.4695003319
| 39>  H        2.6981093918    -1.3502568026    -1.2109322180
| 40>  H        5.0723800337    -0.5534274790    -0.9991168608
| 41>  H        5.1019975883    -1.0917801900     0.6825099782
| 42>  H        4.6921415615    -3.4732860660    -0.0787829371
| 43>  H        6.0920721418    -2.1628062756    -2.4739461110
| 44>  H        5.9834418509    -3.9626324763    -2.0716124330
| 45> *
| 46>
| 47>                          ****END OF INPUT****
 Total Charge           Charge          ....    1
 Multiplicity           Mult            ....    1
 Number of Electrons    NEL             ....   56
FINAL SINGLE POINT ENERGY      -291.310455039461
FINAL SINGLE POINT ENERGY      -291.310457024256
FINAL SINGLE POINT ENERGY      -291.310458439268

CARTESIAN COORDINATES (ANGSTROEM)
---------------------------------
  C      2.344015   -0.002998    1.531246
  C      0.935892   -0.383134    1.135964
  N      0.001859   -0.001819    2.273533
  C      0.444921    0.274705   -0.139746
  C     -0.959377   -0.137776   -0.581031
  C     -1.337996    0.476411   -1.892426
  C     -1.631342   -0.217031   -2.981136
  H      3.032118   -0.322818    0.748362
  H      2.658984   -0.487026    2.459069
  H      2.451343    1.079828    1.640574
  H      0.837189   -1.469798    1.059644
  H      0.043466    1.005733    2.443794
  H      0.255300   -0.475972    3.141867
  H     -0.965594   -0.239496    2.044018
  H      0.515466    1.365570   -0.041395
  H      1.155978    0.002414   -0.924091
  H     -1.019616   -1.228508   -0.658757
  H     -1.709176    0.173639    0.164220
  H     -1.361635    1.563755   -1.924599
  H     -1.623929   -1.302616   -2.987632
  H     -1.896357    0.276046   -3.908381

FINAL SINGLE POINT ENERGY      -291.310458656588
                    ***********************HURRAY********************
 Multiplicity           Mult            ....    1
 Number of Electrons    NEL             ....   56
 Basis Dimension        Dim             ....  301
FINAL SINGLE POINT ENERGY      -291.310458815752

VIBRATIONAL FREQUENCIES
-----------------------

   0:         0.00 cm**-1
   1:         0.00 cm**-1
   2:         0.00 cm**-1
   3:         0.00 cm**-1
   4:         0.00 cm**-1
   5:         0.00 cm**-1
   6:        58.40 cm**-1
   7:        77.30 cm**-1
   8:       130.88 cm**-1
   9:       167.94 cm**-1
  10:       210.88 cm**-1
  11:       241.66 cm**-1
  12:       294.58 cm**-1
  13:       348.01 cm**-1
  14:       407.53 cm**-1
  15:       436.00 cm**-1
  16:       470.98 cm**-1
  17:       653.09 cm**-1
  18:       751.32 cm**-1
  19:       805.86 cm**-1
  20:       922.18 cm**-1
  21:       931.68 cm**-1
  22:       947.35 cm**-1
  23:       959.52 cm**-1
  24:       984.84 cm**-1
  25:       990.76 cm**-1
  26:      1027.05 cm**-1
  27:      1053.87 cm**-1
  28:      1073.05 cm**-1
  29:      1117.16 cm**-1
  30:      1201.96 cm**-1
  31:      1208.75 cm**-1
  32:      1259.41 cm**-1
  33:      1280.41 cm**-1
  34:      1321.80 cm**-1
  35:      1330.50 cm**-1
  36:      1357.26 cm**-1
  37:      1399.19 cm**-1
  38:      1407.83 cm**-1
  39:      1422.94 cm**-1
  40:      1452.75 cm**-1
  41:      1464.72 cm**-1
  42:      1476.04 cm**-1
  43:      1483.10 cm**-1
  44:      1489.50 cm**-1
  45:      1490.61 cm**-1
  46:      1648.55 cm**-1
  47:      1657.59 cm**-1
  48:      1729.79 cm**-1
  49:      2973.58 cm**-1
  50:      3037.92 cm**-1
  51:      3054.34 cm**-1
  52:      3072.18 cm**-1
  53:      3087.97 cm**-1
  54:      3110.27 cm**-1
  55:      3131.13 cm**-1
  56:      3154.80 cm**-1
  57:      3155.26 cm**-1
  58:      3160.67 cm**-1
  59:      3251.58 cm**-1
  60:      3416.14 cm**-1
  61:      3498.25 cm**-1
  62:      3513.19 cm**-1

IR SPECTRUM
-----------

 Mode    freq (cm**-1)   T**2         TX         TY         TZ
-------------------------------------------------------------------
   6:        58.40    3.401544  ( -0.591896  -1.687901  -0.449659)
   7:        77.30    1.042896  ( -0.781535   0.227854  -0.616589)
   8:       130.88    1.347127  ( -0.162157  -0.337416  -1.098627)
   9:       167.94    9.907713  ( -0.879825   0.308904  -3.006360)
  10:       210.88    1.052808  ( -0.065327   0.466345   0.911626)
  11:       241.66    0.594135  ( -0.390556  -0.662888   0.046695)
  12:       294.58   12.223743  ( -1.521203   0.545686  -3.100308)
  13:       348.01    4.239325  (  1.736233   0.158226  -1.095346)
  14:       407.53    3.847362  (  1.759322   0.677406  -0.541543)
  15:       436.00    5.596852  (  0.824895  -0.802297   2.067056)
  16:       470.98    1.656835  (  0.779972   0.788633   0.653098)
  17:       653.09   14.015182  (  3.523607  -0.153461  -1.255320)
  18:       751.32    3.894412  ( -0.730720  -1.053898  -1.499920)
  19:       805.86    1.710968  ( -0.346152  -0.480453   1.166324)
  20:       922.18    3.430388  ( -0.505485   1.561199   0.858796)
  21:       931.68    7.858699  ( -2.114975   0.277432  -1.818958)
  22:       947.35    7.789567  ( -2.772278  -0.322147  -0.016188)
  23:       959.52    5.638376  ( -0.243889  -1.346241   1.940755)
  24:       984.84   21.691590  (  4.200405   0.392417   1.973372)
  25:       990.76   36.830111  (  5.422198  -0.185699  -2.719447)
  26:      1027.05   10.282078  (  3.166061  -0.077986  -0.502053)
  27:      1053.87    5.341864  ( -2.000002   0.218502  -1.137590)
  28:      1073.05    8.626350  ( -1.397505   0.913238  -2.416470)
  29:      1117.16   15.432627  ( -2.575676   0.929560   2.816814)
  30:      1201.96    0.524724  (  0.115253   0.685871  -0.202536)
  31:      1208.75   23.283180  ( -2.399730  -0.529437  -4.152610)
  32:      1259.41    8.511020  ( -1.631564   1.961694  -1.414488)
  33:      1280.41    1.538968  (  0.475169  -0.903754  -0.704565)
  34:      1321.80    5.375846  ( -1.136827  -0.485340  -1.961610)
  35:      1330.50    1.641042  ( -0.166387   1.267804   0.077663)
  36:      1357.26    0.313844  ( -0.026734  -0.052477  -0.557113)
  37:      1399.19   10.340578  ( -2.124958  -1.460812   1.921240)
  38:      1407.83   10.835960  (  0.676858  -0.541311   3.175658)
  39:      1422.94   30.339734  ( -5.112064  -0.844639   1.868988)
  40:      1452.75    3.631313  (  0.160373   1.355215   1.330033)
  41:      1464.72    4.974907  ( -0.683590   1.061330   1.838802)
  42:      1476.04   35.578957  ( -3.161012  -1.185957   4.917364)
  43:      1483.10   33.184263  ( -3.110841   2.305286   4.265277)
  44:      1489.50   24.054078  ( -1.806551  -1.672560   4.241815)
  45:      1490.61   99.182241  ( -4.391438   3.886461   8.049406)
  46:      1648.55   51.864656  ( -2.267475  -6.493293   2.135501)
  47:      1657.59   39.924833  (  3.847338  -1.384070   4.817382)
  48:      1729.79    5.213495  (  0.625973   0.555759   2.124331)
  49:      2973.58   58.542913  (  2.288992  -0.026351  -7.300872)
  50:      3037.92    5.835778  (  1.223793   1.794859   1.056688)
  51:      3054.34    4.773462  (  0.178643   0.861429   1.999872)
  52:      3072.18    9.209497  (  0.047063   2.977122   0.586538)
  53:      3087.97    3.140949  (  1.069953   1.373821   0.329796)
  54:      3110.27    3.188918  ( -0.630783   1.598620   0.485227)
  55:      3131.13    8.135949  (  0.630288  -2.334163   1.513397)
  56:      3154.80    7.689896  ( -0.192822   2.765127  -0.082392)
  57:      3155.26    1.466655  ( -0.765023  -0.560701  -0.753001)
  58:      3160.67    0.399466  (  0.272957  -0.553762   0.135307)
  59:      3251.58    1.972239  ( -0.177880   1.321725  -0.440048)
  60:      3416.14   26.066724  (  3.922078  -1.316568  -2.991768)
  61:      3498.25   90.927732  (  5.713687   6.257863   4.372717)
  62:      3513.19   95.763273  (  3.970469  -5.419697   7.115162)

--------------------------
THERMOCHEMISTRY AT 298.15K
--------------------------

Temperature         ... 298.15 K
Pressure            ... 1.00 atm
Total Mass          ... 100.18 AMU

Throughout the following assumptions are being made:
  (1) The electronic state is orbitally nondegenerate
  (2) There are no thermally accessible electronically excited states
  (3) Hindered rotations indicated by low frequency modes) are not
      treated as such but are treated as vibrations and this may
      case some error
  (4) All equations used are the standard statistical mechanics
      equations for an ideal gas
  (5) All vibrations are strinctly harmonic

------------
INNER ENERGY
------------

The inner energy is: U= E(el) + E(ZPE) + E(vib) + E(rot) + E(trans)
    E(el)   - is the total energy from the electronic structure calculation
              = E(kin-el) + E(nuc-el) + E(el-el) + E(nuc-nuc)
    E(ZPE)  - the the zero temperature vibrational energy from the frequency calculation
    E(vib)  - the the finite temperature correction to E(ZPE) due to population
              of excietd vibrational states
    E(rot)  - is the rotational thermal energy
    E(trans)- is the translational thermal energy

Summary of contributions to the inner energy U:
Electronic energy                ...   -291.31045882 Eh
Zero point energy                ...      0.19765807 Eh     124.03 kcal/mol
Thermal vibrational correction   ...      0.00637244 Eh       4.00 kcal/mol
Thermal rotational correction    ...      0.00141627 Eh       0.89 kcal/mol
Thermal translational correction ...      0.00141627 Eh       0.89 kcal/mol
-----------------------------------------------------------------------
Total thermal energy                   -291.10359576 Eh

Summary of corrections to the electronic energy:
(perhaps to be used in another calculation)
Total thermal correction                  0.00920498 Eh       5.78 kcal/mol
Non-thermal (ZPE) correction              0.19765807 Eh     124.03 kcal/mol
-----------------------------------------------------------------------
Total correction                          0.20686305 Eh     129.81 kcal/mol

--------
ENTHALPY
--------

The enthalpy is H = U + kB*T
                kB is Boltzmann's constant
Total free energy                 ...   -291.10359576 Eh
Thermal Enthalpy correction       ...      0.00094421 Eh       0.59 kcal/mol
-----------------------------------------------------------------------
Total Enthalpy                    ...   -291.10265156 Eh

-------
ENTROPY
-------

The entropy contributions are T*S = T*(S(el)+S(vib)+S(rot)+S(trans)
     S(el)   - electronic entropy
     S(vib)  - vibrational entropy
     S(rot)  - rotational entropy
     S(trans)- translational entropy
The entropies will be listed as mutliplied by the temperature to get
units of energy

Electronic entropy                ...      0.00000000 Eh      0.00 kcal/mol
Vibrational entropy               ...      0.01185937 Eh      7.44 kcal/mol
Rotational entropy                ...      0.01239858 Eh      7.78 kcal/mol
Translational entropy             ...      0.01887386 Eh     11.84 kcal/mol
-----------------------------------------------------------------------
Final entropy term                ...      0.04313181 Eh     27.07 kcal/mol

CAUTION: The rotational entropy is not quite correctly treated here
         because it includes a symmetry number that is not yet correctly
         implemented in ORCA!
For a nonlinear molecule the correct rotational entropy is:
    S(rot) = R*(ln(qrot/sn)+1.5)
    R    = 8.31441 J/mol/K = 1.987191683e-3 kcal/mol/K
    qrot = 337790.2164708
    sn is the rotational symmetry number. We have assumed 3 here
       if it is different for your molecule then you should correct
       the printed rotational entropy by manually evaluating the equation
       as given above

For convenience we print out the resulting values for sn=1 - 12:
 sn= 1  qrot/sn=  337790.2165 T*S(rot)=     8.43 kcal/mol T*S(tot)=    27.72 kcal/mol
 sn= 2  qrot/sn=  168895.1082 T*S(rot)=     8.02 kcal/mol T*S(tot)=    27.31 kcal/mol
 sn= 3  qrot/sn=  112596.7388 T*S(rot)=     7.78 kcal/mol T*S(tot)=    27.07 kcal/mol
 sn= 4  qrot/sn=   84447.5541 T*S(rot)=     7.61 kcal/mol T*S(tot)=    26.90 kcal/mol
 sn= 5  qrot/sn=   67558.0433 T*S(rot)=     7.48 kcal/mol T*S(tot)=    26.76 kcal/mol
 sn= 6  qrot/sn=   56298.3694 T*S(rot)=     7.37 kcal/mol T*S(tot)=    26.65 kcal/mol
 sn= 7  qrot/sn=   48255.7452 T*S(rot)=     7.28 kcal/mol T*S(tot)=    26.56 kcal/mol
 sn= 8  qrot/sn=   42223.7771 T*S(rot)=     7.20 kcal/mol T*S(tot)=    26.48 kcal/mol
 sn= 9  qrot/sn=   37532.2463 T*S(rot)=     7.13 kcal/mol T*S(tot)=    26.41 kcal/mol
 sn=10  qrot/sn=   33779.0216 T*S(rot)=     7.07 kcal/mol T*S(tot)=    26.35 kcal/mol
 sn=11  qrot/sn=   30708.2015 T*S(rot)=     7.01 kcal/mol T*S(tot)=    26.30 kcal/mol
 sn=12  qrot/sn=   28149.1847 T*S(rot)=     6.96 kcal/mol T*S(tot)=    26.24 kcal/mol

-------------------
GIBBS FREE ENTHALPY
-------------------

The Gibbs free enthalpy is G = H - T*S

Total enthalpy                    ...   -291.10265156 Eh
Total entropy correction          ...     -0.04313181 Eh    -27.07 kcal/mol
-----------------------------------------------------------------------
Final Gibbs free enthalpy         ...   -291.14578336 Eh

For completeness - the Gibbs free enthalpy minus the electronic energy
G-E(el)                           ...      0.16467545 Eh    103.34 kcal/mol

                             ****ORCA TERMINATED NORMALLY****
TOTAL RUN TIME: 0 days 0 hours 45 minutes 18 seconds 314 msec
