                         Program Version 3.0.3 - RELEASE   -
|  1> ! NORI PBE0 def2-TZVP UseSym TightOPT Freq TightSCF Grid3 FinalGrid5 XYZFile
|  2> % pal
|  3>     nprocs 8
|  4> end
|  5> %method
|  6>     SymThresh 5.0e-2
|  7> end
|  8> % geom
|  9>     MaxIter 10
| 10> end
| 11> % maxcore 2000
| 12> % output
| 13>     printlevel mini
| 14>     print[ P_Basis ] 0
| 15>     print[ P_SCFInfo ] 1
| 16>     print[ P_SCFIterInfo ] 1
| 17>     print[ P_OrbEn ] 0
| 18>     print[ P_Cartesian ] 0
| 19> end
| 20> % elprop
| 21>     Dipole false
| 22> end
| 23> *xyz 1 1
| 24>  C        0.8153155238     0.0159725196     0.1844341305
| 25>  C        2.3176757851    -0.0642255153     0.0429430049
| 26>  N        2.6859504215    -1.5066641345    -0.2722282044
| 27>  C        2.8832638175     0.8353619136    -1.0382878962
| 28>  C        4.4121721920     0.8650016737    -1.1188725859
| 29>  C        4.8740137136     1.7795155076    -2.1461635380
| 30>  C        5.2336753755     2.5402026875    -2.9993861139
| 31>  H        0.5380047347     1.0295705705     0.4740230044
| 32>  H        0.4360270154    -0.6579394272     0.9565130537
| 33>  H        0.3107103387    -0.2046533223    -0.7604032595
| 34>  H        2.8057718845     0.1375664025     1.0010795551
| 35>  H        2.2612142246    -1.7945003442    -1.1573056834
| 36>  H        2.3519971347    -2.1431070940     0.4538626858
| 37>  H        3.6973494272    -1.6242124876    -0.3590284575
| 38>  H        2.4581118763     0.5650308359    -2.0117390154
| 39>  H        2.5248932019     1.8460321246    -0.8302933879
| 40>  H        4.8291718626     1.1634290237    -0.1499958687
| 41>  H        4.8268361476    -0.1282715290    -1.3439657551
| 42>  H        5.5622153227     3.2167505952    -3.7550356686
| 43> *
| 44>
| 45>                          ****END OF INPUT****
 Total Charge           Charge          ....    1
 Multiplicity           Mult            ....    1
 Number of Electrons    NEL             ....   54
FINAL SINGLE POINT ENERGY      -290.055936352246

CARTESIAN COORDINATES (ANGSTROEM)
---------------------------------
  C      2.324413   -0.000297    1.434005
  C      0.919042   -0.440378    1.094359
  N     -0.000191   -0.000187    2.224289
  C      0.396419    0.123347   -0.212598
  C     -0.976076   -0.405122   -0.639730
  C     -1.385817    0.145925   -1.917984
  C     -1.704373    0.612639   -2.974675
  H      3.007397   -0.364384    0.666165
  H      2.664796   -0.405105    2.390285
  H      2.408847    1.089729    1.458172
  H      0.846625   -1.531844    1.095232
  H      0.008149    1.019202    2.309904
  H      0.298749   -0.389788    3.120237
  H     -0.965280   -0.290817    2.055866
  H      0.384155    1.218635   -0.170604
  H      1.125531   -0.134374   -0.984011
  H     -0.948098   -1.499072   -0.706047
  H     -1.754419   -0.157280    0.096706
  H     -1.994518    1.021274   -3.915634

FINAL SINGLE POINT ENERGY      -290.055937093521
                    ***********************HURRAY********************
 Multiplicity           Mult            ....    1
 Number of Electrons    NEL             ....   54
 Basis Dimension        Dim             ....  289
FINAL SINGLE POINT ENERGY      -290.055937431808

VIBRATIONAL FREQUENCIES
-----------------------

   0:         0.00 cm**-1
   1:         0.00 cm**-1
   2:         0.00 cm**-1
   3:         0.00 cm**-1
   4:         0.00 cm**-1
   5:         0.00 cm**-1
   6:        55.15 cm**-1
   7:       111.25 cm**-1
   8:       117.70 cm**-1
   9:       204.44 cm**-1
  10:       232.74 cm**-1
  11:       251.06 cm**-1
  12:       332.79 cm**-1
  13:       339.34 cm**-1
  14:       416.57 cm**-1
  15:       440.86 cm**-1
  16:       516.84 cm**-1
  17:       714.24 cm**-1
  18:       727.84 cm**-1
  19:       746.81 cm**-1
  20:       802.41 cm**-1
  21:       925.32 cm**-1
  22:       938.22 cm**-1
  23:       957.97 cm**-1
  24:       982.18 cm**-1
  25:       983.98 cm**-1
  26:      1055.72 cm**-1
  27:      1112.14 cm**-1
  28:      1148.75 cm**-1
  29:      1208.67 cm**-1
  30:      1253.55 cm**-1
  31:      1285.32 cm**-1
  32:      1323.26 cm**-1
  33:      1363.76 cm**-1
  34:      1398.54 cm**-1
  35:      1412.76 cm**-1
  36:      1423.70 cm**-1
  37:      1460.77 cm**-1
  38:      1472.87 cm**-1
  39:      1483.09 cm**-1
  40:      1489.92 cm**-1
  41:      1493.52 cm**-1
  42:      1651.33 cm**-1
  43:      1656.48 cm**-1
  44:      2254.38 cm**-1
  45:      2999.29 cm**-1
  46:      3049.60 cm**-1
  47:      3055.16 cm**-1
  48:      3062.84 cm**-1
  49:      3089.22 cm**-1
  50:      3121.12 cm**-1
  51:      3132.39 cm**-1
  52:      3155.84 cm**-1
  53:      3416.93 cm**-1
  54:      3468.54 cm**-1
  55:      3500.41 cm**-1
  56:      3510.92 cm**-1

IR SPECTRUM
-----------

 Mode    freq (cm**-1)   T**2         TX         TY         TZ
-------------------------------------------------------------------
   6:        55.15    3.226036  ( -0.341776   1.708317  -0.436896)
   7:       111.25    3.534421  ( -0.725211  -0.296955  -1.708891)
   8:       117.70    2.760276  (  1.083767   0.476793   1.165501)
   9:       204.44    1.896232  ( -0.092290   0.190149   1.360720)
  10:       232.74    6.962280  ( -0.142502  -1.264292   2.311610)
  11:       251.06    7.092716  ( -0.459319   0.020242  -2.623229)
  12:       332.79   13.586751  (  1.141961  -2.497034  -2.459166)
  13:       339.34   10.680642  ( -3.220455  -0.166533  -0.530642)
  14:       416.57    6.447485  (  1.205175  -0.872668   2.057544)
  15:       440.86    2.119744  ( -1.234863  -0.770103  -0.042427)
  16:       516.84   10.458095  (  2.568294   1.952786   0.220420)
  17:       714.24   42.771796  ( -2.227306   5.400234   2.940812)
  18:       727.84   38.450931  ( -5.558396  -2.639991   0.765254)
  19:       746.81    0.848693  ( -0.384521  -0.529101  -0.648760)
  20:       802.41    3.207912  (  0.952665   0.654423  -1.368237)
  21:       925.32    1.599619  ( -0.384733   1.129387   0.419625)
  22:       938.22   17.405221  (  3.795044   0.218006   1.719108)
  23:       957.97    9.602893  ( -0.287653   1.250573  -2.820676)
  24:       982.18    1.302287  ( -0.601476   0.227380   0.942768)
  25:       983.98    6.702445  ( -1.640241  -0.367364  -1.969035)
  26:      1055.72    1.987548  ( -0.890759   0.984461  -0.474270)
  27:      1112.14   12.642834  ( -2.296355   1.358898   2.350103)
  28:      1148.75    4.291846  ( -0.181722  -0.985456   1.813202)
  29:      1208.67   20.586449  (  2.265877   0.729003   3.862746)
  30:      1253.55    9.587040  (  1.838287  -2.099027   1.342321)
  31:      1285.32    3.051513  ( -0.334271  -0.370182   1.674139)
  32:      1323.26    2.503355  (  0.752701  -0.198953   1.377394)
  33:      1363.76    2.017568  ( -0.064959  -0.929856   1.071782)
  34:      1398.54   10.553696  ( -1.963373  -1.362998   2.200250)
  35:      1412.76   15.187644  (  1.181153  -0.993457   3.578486)
  36:      1423.70   29.270155  (  4.833337   0.948379  -2.238209)
  37:      1460.77    0.682947  ( -0.172337   0.109500  -0.800785)
  38:      1472.87   24.771848  ( -2.806106  -1.091720   3.963050)
  39:      1483.09   18.001721  ( -2.400573   2.245259   2.682868)
  40:      1489.92    8.714903  (  0.028867   2.680865  -1.235731)
  41:      1493.52  139.169817  (  5.412096  -3.524582  -9.871999)
  42:      1651.33   56.981026  ( -2.391993  -6.733933   2.431777)
  43:      1656.48   40.377143  ( -4.004154   1.294496  -4.761111)
  44:      2254.38    1.148911  ( -0.250888   0.299368  -0.998171)
  45:      2999.29   46.764033  ( -1.311837  -0.996834   6.636975)
  46:      3049.60    2.171615  ( -1.199638  -0.378364  -0.767673)
  47:      3055.16    4.128217  ( -0.145186  -0.706958  -1.899302)
  48:      3062.84    6.103502  (  0.081861  -2.222430  -1.075921)
  49:      3089.22    3.326859  ( -0.937142  -1.497399  -0.454336)
  50:      3121.12    0.893267  ( -0.447378   0.793289   0.252611)
  51:      3132.39    7.236074  (  0.659598  -2.094054   1.554330)
  52:      3155.84    1.259135  (  0.840612   0.396836   0.628512)
  53:      3416.93   29.408472  (  3.291585  -1.778701  -3.925578)
  54:      3468.54   92.918692  ( -3.064427   3.370267  -8.495250)
  55:      3500.41   76.639944  (  4.035792   7.740768   0.657902)
  56:      3510.92   99.610847  ( -5.847799   2.758151  -7.603071)

--------------------------
THERMOCHEMISTRY AT 298.15K
--------------------------

Temperature         ... 298.15 K
Pressure            ... 1.00 atm
Total Mass          ... 98.17 AMU

Throughout the following assumptions are being made:
  (1) The electronic state is orbitally nondegenerate
  (2) There are no thermally accessible electronically excited states
  (3) Hindered rotations indicated by low frequency modes) are not
      treated as such but are treated as vibrations and this may
      case some error
  (4) All equations used are the standard statistical mechanics
      equations for an ideal gas
  (5) All vibrations are strinctly harmonic

------------
INNER ENERGY
------------

The inner energy is: U= E(el) + E(ZPE) + E(vib) + E(rot) + E(trans)
    E(el)   - is the total energy from the electronic structure calculation
              = E(kin-el) + E(nuc-el) + E(el-el) + E(nuc-nuc)
    E(ZPE)  - the the zero temperature vibrational energy from the frequency calculation
    E(vib)  - the the finite temperature correction to E(ZPE) due to population
              of excietd vibrational states
    E(rot)  - is the rotational thermal energy
    E(trans)- is the translational thermal energy

Summary of contributions to the inner energy U:
Electronic energy                ...   -290.05593743 Eh
Zero point energy                ...      0.17384348 Eh     109.09 kcal/mol
Thermal vibrational correction   ...      0.00610765 Eh       3.83 kcal/mol
Thermal rotational correction    ...      0.00141627 Eh       0.89 kcal/mol
Thermal translational correction ...      0.00141627 Eh       0.89 kcal/mol
-----------------------------------------------------------------------
Total thermal energy                   -289.87315376 Eh

Summary of corrections to the electronic energy:
(perhaps to be used in another calculation)
Total thermal correction                  0.00894019 Eh       5.61 kcal/mol
Non-thermal (ZPE) correction              0.17384348 Eh     109.09 kcal/mol
-----------------------------------------------------------------------
Total correction                          0.18278367 Eh     114.70 kcal/mol

--------
ENTHALPY
--------

The enthalpy is H = U + kB*T
                kB is Boltzmann's constant
Total free energy                 ...   -289.87315376 Eh
Thermal Enthalpy correction       ...      0.00094421 Eh       0.59 kcal/mol
-----------------------------------------------------------------------
Total Enthalpy                    ...   -289.87220955 Eh

-------
ENTROPY
-------

The entropy contributions are T*S = T*(S(el)+S(vib)+S(rot)+S(trans)
     S(el)   - electronic entropy
     S(vib)  - vibrational entropy
     S(rot)  - rotational entropy
     S(trans)- translational entropy
The entropies will be listed as mutliplied by the temperature to get
units of energy

Electronic entropy                ...      0.00000000 Eh      0.00 kcal/mol
Vibrational entropy               ...      0.01118114 Eh      7.02 kcal/mol
Rotational entropy                ...      0.01234144 Eh      7.74 kcal/mol
Translational entropy             ...      0.01884507 Eh     11.83 kcal/mol
-----------------------------------------------------------------------
Final entropy term                ...      0.04236765 Eh     26.59 kcal/mol

CAUTION: The rotational entropy is not quite correctly treated here
         because it includes a symmetry number that is not yet correctly
         implemented in ORCA!
For a nonlinear molecule the correct rotational entropy is:
    S(rot) = R*(ln(qrot/sn)+1.5)
    R    = 8.31441 J/mol/K = 1.987191683e-3 kcal/mol/K
    qrot = 317956.9267441
    sn is the rotational symmetry number. We have assumed 3 here
       if it is different for your molecule then you should correct
       the printed rotational entropy by manually evaluating the equation
       as given above

For convenience we print out the resulting values for sn=1 - 12:
 sn= 1  qrot/sn=  317956.9267 T*S(rot)=     8.40 kcal/mol T*S(tot)=    27.24 kcal/mol
 sn= 2  qrot/sn=  158978.4634 T*S(rot)=     7.98 kcal/mol T*S(tot)=    26.83 kcal/mol
 sn= 3  qrot/sn=  105985.6422 T*S(rot)=     7.74 kcal/mol T*S(tot)=    26.59 kcal/mol
 sn= 4  qrot/sn=   79489.2317 T*S(rot)=     7.57 kcal/mol T*S(tot)=    26.42 kcal/mol
 sn= 5  qrot/sn=   63591.3853 T*S(rot)=     7.44 kcal/mol T*S(tot)=    26.28 kcal/mol
 sn= 6  qrot/sn=   52992.8211 T*S(rot)=     7.33 kcal/mol T*S(tot)=    26.18 kcal/mol
 sn= 7  qrot/sn=   45422.4181 T*S(rot)=     7.24 kcal/mol T*S(tot)=    26.08 kcal/mol
 sn= 8  qrot/sn=   39744.6158 T*S(rot)=     7.16 kcal/mol T*S(tot)=    26.00 kcal/mol
 sn= 9  qrot/sn=   35328.5474 T*S(rot)=     7.09 kcal/mol T*S(tot)=    25.94 kcal/mol
 sn=10  qrot/sn=   31795.6927 T*S(rot)=     7.03 kcal/mol T*S(tot)=    25.87 kcal/mol
 sn=11  qrot/sn=   28905.1752 T*S(rot)=     6.97 kcal/mol T*S(tot)=    25.82 kcal/mol
 sn=12  qrot/sn=   26496.4106 T*S(rot)=     6.92 kcal/mol T*S(tot)=    25.76 kcal/mol

-------------------
GIBBS FREE ENTHALPY
-------------------

The Gibbs free enthalpy is G = H - T*S

Total enthalpy                    ...   -289.87220955 Eh
Total entropy correction          ...     -0.04236765 Eh    -26.59 kcal/mol
-----------------------------------------------------------------------
Final Gibbs free enthalpy         ...   -289.91457720 Eh

For completeness - the Gibbs free enthalpy minus the electronic energy
G-E(el)                           ...      0.14136023 Eh     88.70 kcal/mol

                             ****ORCA TERMINATED NORMALLY****
TOTAL RUN TIME: 0 days 0 hours 36 minutes 56 seconds 519 msec
