                         Program Version 3.0.3 - RELEASE   -
|  1> ! NORI PBE0 def2-TZVP UseSym TightOPT Freq TightSCF Grid3 FinalGrid5 XYZFile
|  2> % pal
|  3>     nprocs 8
|  4> end
|  5> %method
|  6>     SymThresh 5.0e-2
|  7> end
|  8> % geom
|  9>     MaxIter 10
| 10> end
| 11> % maxcore 2000
| 12> % output
| 13>     printlevel mini
| 14>     print[ P_Basis ] 0
| 15>     print[ P_SCFInfo ] 1
| 16>     print[ P_SCFIterInfo ] 1
| 17>     print[ P_OrbEn ] 0
| 18>     print[ P_Cartesian ] 0
| 19> end
| 20> % elprop
| 21>     Dipole false
| 22> end
| 23> *xyz 1 1
| 24>  C        1.0885533059    -0.0808633328    -0.3510168656
| 25>  C        2.5486873293    -0.4697121442    -0.3688974595
| 26>  N        3.1101134721    -0.6462928533     1.0144005086
| 27>  C        2.6331671731    -1.9003185318     1.6519076603
| 28>  C        4.6296368684    -0.5057862740     1.0962689101
| 29>  C        5.3325944688    -1.4069499851     0.1056794698
| 30>  C        5.0172668117     0.9514310146     0.9562200002
| 31>  H        0.7652538086     0.1002486157    -1.3768965715
| 32>  H        0.9240600339     0.8444810136     0.2074010775
| 33>  H        0.4425318422    -0.8591214869     0.0561647520
| 34>  H        3.1430560093     0.3045304514    -0.8526425837
| 35>  H        2.7154064183    -1.4075225921    -0.8985428316
| 36>  H        2.7410612259     0.1277096709     1.5701124601
| 37>  H        3.0260888002    -2.7502710909     1.0987668896
| 38>  H        1.5460244752    -1.9238622254     1.6374118915
| 39>  H        2.9855025543    -1.9324966568     2.6810707678
| 40>  H        4.8584293569    -0.8358619632     2.1130768647
| 41>  H        5.1905902989    -1.0750270767    -0.9242033398
| 42>  H        5.0316413029    -2.4522093192     0.1881987088
| 43>  H        6.4030021481    -1.3670828488     0.3134368357
| 44>  H        4.8617955187     1.3315500165    -0.0551233749
| 45>  H        6.0816292722     1.0501888057     1.1742770107
| 46>  H        4.4843875050     1.5920887930     1.6636492191
| 47> *
| 48>
| 49>                          ****END OF INPUT****
 Total Charge           Charge          ....    1
 Multiplicity           Mult            ....    1
 Number of Electrons    NEL             ....   58
FINAL SINGLE POINT ENERGY      -292.540086016554
FINAL SINGLE POINT ENERGY      -292.540088848572
FINAL SINGLE POINT ENERGY      -292.540089970165

CARTESIAN COORDINATES (ANGSTROEM)
---------------------------------
  C      2.497281   -0.000359    0.745319
  C      1.303479    0.217395   -0.155088
  N     -0.000254    0.000012    0.560976
  C     -0.312976    1.110315    1.496353
  C     -1.175639   -0.319719   -0.361646
  C     -1.328788    0.711554   -1.458442
  C     -1.042954   -1.734427   -0.886355
  H      3.405147    0.105794    0.150059
  H      2.505898   -1.008204    1.169038
  H      2.559058    0.725463    1.556647
  H      1.323393   -0.481639   -0.990192
  H      1.274801    1.229584   -0.558480
  H      0.126280   -0.839466    1.129492
  H     -0.477352    2.020127    0.923872
  H      0.520063    1.253531    2.180083
  H     -1.209531    0.858621    2.060056
  H     -2.040504   -0.270850    0.305472
  H     -0.518605    0.660058   -2.187580
  H     -1.403717    1.732130   -1.080187
  H     -2.257129    0.502050   -1.991350
  H     -0.221937   -1.844487   -1.597155
  H     -1.960701   -1.997306   -1.413733
  H     -0.915920   -2.463669   -0.081265

FINAL SINGLE POINT ENERGY      -292.540090295934
                    ***********************HURRAY********************
 Multiplicity           Mult            ....    1
 Number of Electrons    NEL             ....   58
 Basis Dimension        Dim             ....  313
FINAL SINGLE POINT ENERGY      -292.540090409680

VIBRATIONAL FREQUENCIES
-----------------------

   0:         0.00 cm**-1
   1:         0.00 cm**-1
   2:         0.00 cm**-1
   3:         0.00 cm**-1
   4:         0.00 cm**-1
   5:         0.00 cm**-1
   6:        67.52 cm**-1
   7:        77.67 cm**-1
   8:       202.98 cm**-1
   9:       221.83 cm**-1
  10:       226.55 cm**-1
  11:       238.61 cm**-1
  12:       249.78 cm**-1
  13:       304.69 cm**-1
  14:       332.71 cm**-1
  15:       344.57 cm**-1
  16:       433.39 cm**-1
  17:       491.78 cm**-1
  18:       554.72 cm**-1
  19:       751.67 cm**-1
  20:       803.94 cm**-1
  21:       871.22 cm**-1
  22:       928.30 cm**-1
  23:       941.87 cm**-1
  24:       956.06 cm**-1
  25:       999.55 cm**-1
  26:      1044.61 cm**-1
  27:      1070.45 cm**-1
  28:      1093.54 cm**-1
  29:      1102.08 cm**-1
  30:      1159.23 cm**-1
  31:      1210.98 cm**-1
  32:      1215.24 cm**-1
  33:      1224.92 cm**-1
  34:      1314.38 cm**-1
  35:      1340.60 cm**-1
  36:      1375.55 cm**-1
  37:      1392.93 cm**-1
  38:      1409.06 cm**-1
  39:      1422.90 cm**-1
  40:      1425.31 cm**-1
  41:      1430.15 cm**-1
  42:      1440.23 cm**-1
  43:      1457.79 cm**-1
  44:      1468.35 cm**-1
  45:      1480.55 cm**-1
  46:      1484.33 cm**-1
  47:      1488.20 cm**-1
  48:      1494.29 cm**-1
  49:      1497.02 cm**-1
  50:      1499.80 cm**-1
  51:      1507.14 cm**-1
  52:      1510.21 cm**-1
  53:      3057.45 cm**-1
  54:      3062.65 cm**-1
  55:      3071.02 cm**-1
  56:      3084.32 cm**-1
  57:      3098.36 cm**-1
  58:      3107.94 cm**-1
  59:      3134.66 cm**-1
  60:      3137.57 cm**-1
  61:      3149.36 cm**-1
  62:      3151.38 cm**-1
  63:      3153.18 cm**-1
  64:      3154.92 cm**-1
  65:      3170.27 cm**-1
  66:      3192.93 cm**-1
  67:      3201.93 cm**-1
  68:      3448.01 cm**-1

IR SPECTRUM
-----------

 Mode    freq (cm**-1)   T**2         TX         TY         TZ
-------------------------------------------------------------------
   6:        67.52    0.473299  (  0.008637   0.685312   0.059760)
   7:        77.67    0.078037  ( -0.036813  -0.267230  -0.072597)
   8:       202.98    0.203569  (  0.219070  -0.242699  -0.310926)
   9:       221.83    0.175497  ( -0.404489   0.003171   0.108976)
  10:       226.55    0.138189  (  0.352795   0.083663  -0.082009)
  11:       238.61    1.193684  ( -0.986970  -0.077471   0.462138)
  12:       249.78    0.271437  ( -0.428343   0.119412   0.271478)
  13:       304.69    0.400411  (  0.541214   0.262538   0.196397)
  14:       332.71    0.459805  ( -0.542393  -0.002014   0.406952)
  15:       344.57    0.713982  ( -0.620597  -0.273976  -0.503763)
  16:       433.39    1.305367  (  0.814052   0.506792   0.621167)
  17:       491.78    1.355094  ( -0.467114   0.264308   1.032976)
  18:       554.72    1.793663  (  1.173144  -0.330981  -0.554841)
  19:       751.67    2.139147  (  1.114997  -0.399479   0.858106)
  20:       803.94    7.892952  ( -0.300288  -2.068075  -1.877723)
  21:       871.22    4.337924  (  1.855941   0.217396   0.919862)
  22:       928.30    8.084308  ( -2.727369   0.344667  -0.725927)
  23:       941.87    4.199409  (  1.461988   1.271771   0.666782)
  24:       956.06    0.403072  (  0.291805   0.065771   0.559997)
  25:       999.55   13.371940  (  2.717638   2.119559   1.222233)
  26:      1044.61   17.686572  (  2.801327  -0.848843  -3.019703)
  27:      1070.45    3.273680  (  1.466053  -0.155339   1.048923)
  28:      1093.54    0.197973  (  0.005450   0.238679   0.375467)
  29:      1102.08   18.632432  (  3.509439   1.210017   2.202755)
  30:      1159.23   18.137716  ( -4.031800  -1.056285  -0.875539)
  31:      1210.98    5.066023  (  0.759148   0.393158   2.082101)
  32:      1215.24    3.570900  ( -1.534323   1.095485  -0.129095)
  33:      1224.92    4.616716  (  0.998569   1.549558   1.103832)
  34:      1314.38   16.614522  ( -3.075108  -1.938901  -1.843609)
  35:      1340.60    8.015147  (  1.942766   0.693939   1.938880)
  36:      1375.55    4.943435  (  1.640818   0.448661   1.431731)
  37:      1392.93    2.258275  ( -1.496679   0.068009  -0.116627)
  38:      1409.06   11.000357  ( -1.822702   1.501779  -2.328686)
  39:      1422.90   10.137742  (  2.042909  -2.441034  -0.074933)
  40:      1425.31   28.458967  (  2.824481   4.140466   1.826970)
  41:      1430.15   11.951994  ( -2.485252   2.399445   0.134831)
  42:      1440.23   10.802707  ( -0.413889  -0.598982   3.205093)
  43:      1457.79   10.327852  (  0.492047  -2.430203  -2.044470)
  44:      1468.35    1.330199  ( -1.017107   0.187227   0.510528)
  45:      1480.55    2.856419  (  0.470295   0.179102  -1.613432)
  46:      1484.33    8.479412  ( -1.483373   2.482748  -0.339090)
  47:      1488.20    4.858185  (  0.485309   0.567639  -2.073752)
  48:      1494.29    8.549504  (  2.354528   1.410607  -1.007913)
  49:      1497.02   24.770080  (  4.752435   0.460411  -1.404444)
  50:      1499.80   19.510239  ( -0.097127   3.005064   3.235799)
  51:      1507.14   27.940651  (  1.549946   2.437455  -4.426865)
  52:      1510.21   19.698652  ( -2.771477   0.055279  -3.466196)
  53:      3057.45    4.880162  (  1.528606  -1.269487   0.965364)
  54:      3062.65    3.209326  (  0.201530   0.824169  -1.577801)
  55:      3071.02    2.380237  ( -1.000553  -1.169776  -0.103698)
  56:      3084.32    2.024090  (  1.019958   0.165437  -0.977960)
  57:      3098.36    0.650130  (  0.200941  -0.389421  -0.676834)
  58:      3107.94    2.601428  (  0.934697  -0.342048   1.269162)
  59:      3134.66    5.844746  ( -0.678741  -0.735037   2.200858)
  60:      3137.57    5.246503  (  0.454300   2.164111  -0.597275)
  61:      3149.36    0.171374  ( -0.079529   0.405780   0.019775)
  62:      3151.38    5.836499  ( -0.599844   1.918951   1.339520)
  63:      3153.18    1.617320  (  0.435826   0.423807   1.117033)
  64:      3154.92    5.514425  (  1.923223  -0.199124  -1.332661)
  65:      3170.27    3.667026  ( -0.493950   1.540816   1.024170)
  66:      3192.93    0.376489  ( -0.326193  -0.499872  -0.142181)
  67:      3201.93    0.318858  ( -0.091206  -0.015859  -0.557035)
  68:      3448.01   29.697810  (  0.688222  -4.510867   2.979301)

--------------------------
THERMOCHEMISTRY AT 298.15K
--------------------------

Temperature         ... 298.15 K
Pressure            ... 1.00 atm
Total Mass          ... 102.20 AMU

Throughout the following assumptions are being made:
  (1) The electronic state is orbitally nondegenerate
  (2) There are no thermally accessible electronically excited states
  (3) Hindered rotations indicated by low frequency modes) are not
      treated as such but are treated as vibrations and this may
      case some error
  (4) All equations used are the standard statistical mechanics
      equations for an ideal gas
  (5) All vibrations are strinctly harmonic

------------
INNER ENERGY
------------

The inner energy is: U= E(el) + E(ZPE) + E(vib) + E(rot) + E(trans)
    E(el)   - is the total energy from the electronic structure calculation
              = E(kin-el) + E(nuc-el) + E(el-el) + E(nuc-nuc)
    E(ZPE)  - the the zero temperature vibrational energy from the frequency calculation
    E(vib)  - the the finite temperature correction to E(ZPE) due to population
              of excietd vibrational states
    E(rot)  - is the rotational thermal energy
    E(trans)- is the translational thermal energy

Summary of contributions to the inner energy U:
Electronic energy                ...   -292.54009041 Eh
Zero point energy                ...      0.22083469 Eh     138.58 kcal/mol
Thermal vibrational correction   ...      0.00673123 Eh       4.22 kcal/mol
Thermal rotational correction    ...      0.00141627 Eh       0.89 kcal/mol
Thermal translational correction ...      0.00141627 Eh       0.89 kcal/mol
-----------------------------------------------------------------------
Total thermal energy                   -292.30969195 Eh

Summary of corrections to the electronic energy:
(perhaps to be used in another calculation)
Total thermal correction                  0.00956377 Eh       6.00 kcal/mol
Non-thermal (ZPE) correction              0.22083469 Eh     138.58 kcal/mol
-----------------------------------------------------------------------
Total correction                          0.23039846 Eh     144.58 kcal/mol

--------
ENTHALPY
--------

The enthalpy is H = U + kB*T
                kB is Boltzmann's constant
Total free energy                 ...   -292.30969195 Eh
Thermal Enthalpy correction       ...      0.00094421 Eh       0.59 kcal/mol
-----------------------------------------------------------------------
Total Enthalpy                    ...   -292.30874774 Eh

-------
ENTROPY
-------

The entropy contributions are T*S = T*(S(el)+S(vib)+S(rot)+S(trans)
     S(el)   - electronic entropy
     S(vib)  - vibrational entropy
     S(rot)  - rotational entropy
     S(trans)- translational entropy
The entropies will be listed as mutliplied by the temperature to get
units of energy

Electronic entropy                ...      0.00000000 Eh      0.00 kcal/mol
Vibrational entropy               ...      0.01204703 Eh      7.56 kcal/mol
Rotational entropy                ...      0.01225557 Eh      7.69 kcal/mol
Translational entropy             ...      0.01890208 Eh     11.86 kcal/mol
-----------------------------------------------------------------------
Final entropy term                ...      0.04320467 Eh     27.11 kcal/mol

CAUTION: The rotational entropy is not quite correctly treated here
         because it includes a symmetry number that is not yet correctly
         implemented in ORCA!
For a nonlinear molecule the correct rotational entropy is:
    S(rot) = R*(ln(qrot/sn)+1.5)
    R    = 8.31441 J/mol/K = 1.987191683e-3 kcal/mol/K
    qrot = 290313.3802292
    sn is the rotational symmetry number. We have assumed 3 here
       if it is different for your molecule then you should correct
       the printed rotational entropy by manually evaluating the equation
       as given above

For convenience we print out the resulting values for sn=1 - 12:
 sn= 1  qrot/sn=  290313.3802 T*S(rot)=     8.34 kcal/mol T*S(tot)=    27.76 kcal/mol
 sn= 2  qrot/sn=  145156.6901 T*S(rot)=     7.93 kcal/mol T*S(tot)=    27.35 kcal/mol
 sn= 3  qrot/sn=   96771.1267 T*S(rot)=     7.69 kcal/mol T*S(tot)=    27.11 kcal/mol
 sn= 4  qrot/sn=   72578.3451 T*S(rot)=     7.52 kcal/mol T*S(tot)=    26.94 kcal/mol
 sn= 5  qrot/sn=   58062.6760 T*S(rot)=     7.39 kcal/mol T*S(tot)=    26.81 kcal/mol
 sn= 6  qrot/sn=   48385.5634 T*S(rot)=     7.28 kcal/mol T*S(tot)=    26.70 kcal/mol
 sn= 7  qrot/sn=   41473.3400 T*S(rot)=     7.19 kcal/mol T*S(tot)=    26.61 kcal/mol
 sn= 8  qrot/sn=   36289.1725 T*S(rot)=     7.11 kcal/mol T*S(tot)=    26.53 kcal/mol
 sn= 9  qrot/sn=   32257.0422 T*S(rot)=     7.04 kcal/mol T*S(tot)=    26.46 kcal/mol
 sn=10  qrot/sn=   29031.3380 T*S(rot)=     6.98 kcal/mol T*S(tot)=    26.40 kcal/mol
 sn=11  qrot/sn=   26392.1255 T*S(rot)=     6.92 kcal/mol T*S(tot)=    26.34 kcal/mol
 sn=12  qrot/sn=   24192.7817 T*S(rot)=     6.87 kcal/mol T*S(tot)=    26.29 kcal/mol

-------------------
GIBBS FREE ENTHALPY
-------------------

The Gibbs free enthalpy is G = H - T*S

Total enthalpy                    ...   -292.30874774 Eh
Total entropy correction          ...     -0.04320467 Eh    -27.11 kcal/mol
-----------------------------------------------------------------------
Final Gibbs free enthalpy         ...   -292.35195241 Eh

For completeness - the Gibbs free enthalpy minus the electronic energy
G-E(el)                           ...      0.18813800 Eh    118.06 kcal/mol

                             ****ORCA TERMINATED NORMALLY****
TOTAL RUN TIME: 0 days 1 hours 4 minutes 41 seconds 991 msec
