                         Program Version 3.0.3 - RELEASE   -
|  1> ! NORI PBE0 def2-TZVP UseSym TightOPT Freq TightSCF Grid3 FinalGrid5 XYZFile
|  2> % pal
|  3>     nprocs 8
|  4> end
|  5> %method
|  6>     SymThresh 5.0e-2
|  7> end
|  8> % geom
|  9>     MaxIter 10
| 10> end
| 11> % maxcore 2000
| 12> % output
| 13>     printlevel mini
| 14>     print[ P_Basis ] 0
| 15>     print[ P_SCFInfo ] 1
| 16>     print[ P_SCFIterInfo ] 1
| 17>     print[ P_OrbEn ] 0
| 18>     print[ P_Cartesian ] 0
| 19> end
| 20> % elprop
| 21>     Dipole false
| 22> end
| 23> *xyz 1 1
| 24>  C        2.9243329248     1.1724814402    -0.3780282628
| 25>  C        2.6498180010    -0.3114017522    -0.4004249621
| 26>  N        3.0993148016    -1.0127536272     0.8518658196
| 27>  C        2.4449869339    -2.3388871669     0.9941434523
| 28>  C        4.6026689203    -1.1274517856     0.9437597680
| 29>  C        5.0513059302    -1.5128510332     2.3101767667
| 30>  C        5.7406255160    -2.6150736329     2.5662358999
| 31>  H        2.5092286219     1.6137807876    -1.2853380960
| 32>  H        3.9875321051     1.4133325531    -0.3625515603
| 33>  H        2.4362210410     1.6615498977     0.4689114558
| 34>  H        3.1522167535    -0.8148264305    -1.2285710286
| 35>  H        1.5799631698    -0.5051068612    -0.4889268334
| 36>  H        2.7996225500    -0.4364621803     1.6413579836
| 37>  H        2.6791843800    -2.9336830150     0.1120403106
| 38>  H        1.3682970590    -2.1979615595     1.0719152027
| 39>  H        2.8290032458    -2.8293483454     1.8861666449
| 40>  H        5.0022922091    -0.1530510206     0.6598480482
| 41>  H        4.9024180070    -1.8604639981     0.1931944166
| 42>  H        4.8396735328    -0.8065002008     3.1107957134
| 43>  H        5.9972471497    -3.3261721645     1.7871529250
| 44>  H        6.0949471477    -2.8358799048     3.5655463357
| 45> *
| 46>
| 47>                          ****END OF INPUT****
 Total Charge           Charge          ....    1
 Multiplicity           Mult            ....    1
 Number of Electrons    NEL             ....   56
FINAL SINGLE POINT ENERGY      -291.303678050221
FINAL SINGLE POINT ENERGY      -291.303681562514
FINAL SINGLE POINT ENERGY      -291.303685356056
FINAL SINGLE POINT ENERGY      -291.303686114889

CARTESIAN COORDINATES (ANGSTROEM)
---------------------------------
  C      2.432745   -0.010717    1.280792
  C      1.112072    0.713920    1.376328
  N     -0.001629    0.005720    0.654730
  C     -1.332311    0.475528    1.119359
  C      0.124301    0.107573   -0.847249
  C     -0.750113   -0.871817   -1.549536
  C     -1.723534   -0.517495   -2.375721
  H      3.164048    0.525381    1.887436
  H      2.828595   -0.053846    0.265849
  H      2.366588   -1.026117    1.680214
  H      1.157647    1.719833    0.954792
  H      0.793352    0.799218    2.416158
  H      0.073524   -0.986300    0.890049
  H     -1.389074    1.552033    0.963452
  H     -1.440129    0.248416    2.178457
  H     -2.107083   -0.026072    0.543299
  H      1.175305   -0.069160   -1.079974
  H     -0.123226    1.137802   -1.108063
  H     -0.518228   -1.925105   -1.402968
  H     -1.960563    0.524120   -2.569454
  H     -2.306667   -1.259090   -2.907974

FINAL SINGLE POINT ENERGY      -291.303686502804
                    ***********************HURRAY********************
 Multiplicity           Mult            ....    1
 Number of Electrons    NEL             ....   56
 Basis Dimension        Dim             ....  301
FINAL SINGLE POINT ENERGY      -291.303686586043

VIBRATIONAL FREQUENCIES
-----------------------

   0:         0.00 cm**-1
   1:         0.00 cm**-1
   2:         0.00 cm**-1
   3:         0.00 cm**-1
   4:         0.00 cm**-1
   5:         0.00 cm**-1
   6:        59.14 cm**-1
   7:        89.48 cm**-1
   8:       102.13 cm**-1
   9:       215.41 cm**-1
  10:       225.75 cm**-1
  11:       259.35 cm**-1
  12:       269.40 cm**-1
  13:       391.50 cm**-1
  14:       424.95 cm**-1
  15:       439.23 cm**-1
  16:       473.13 cm**-1
  17:       639.41 cm**-1
  18:       795.13 cm**-1
  19:       852.34 cm**-1
  20:       907.59 cm**-1
  21:       919.70 cm**-1
  22:       985.00 cm**-1
  23:      1018.84 cm**-1
  24:      1022.26 cm**-1
  25:      1027.92 cm**-1
  26:      1044.46 cm**-1
  27:      1069.03 cm**-1
  28:      1103.11 cm**-1
  29:      1161.17 cm**-1
  30:      1209.93 cm**-1
  31:      1215.24 cm**-1
  32:      1280.75 cm**-1
  33:      1320.94 cm**-1
  34:      1331.29 cm**-1
  35:      1377.29 cm**-1
  36:      1386.65 cm**-1
  37:      1418.28 cm**-1
  38:      1423.90 cm**-1
  39:      1429.47 cm**-1
  40:      1453.39 cm**-1
  41:      1460.31 cm**-1
  42:      1473.93 cm**-1
  43:      1486.24 cm**-1
  44:      1490.64 cm**-1
  45:      1491.42 cm**-1
  46:      1499.23 cm**-1
  47:      1505.73 cm**-1
  48:      1726.49 cm**-1
  49:      3063.58 cm**-1
  50:      3086.97 cm**-1
  51:      3092.41 cm**-1
  52:      3094.30 cm**-1
  53:      3133.66 cm**-1
  54:      3146.45 cm**-1
  55:      3148.81 cm**-1
  56:      3158.52 cm**-1
  57:      3160.54 cm**-1
  58:      3163.48 cm**-1
  59:      3185.18 cm**-1
  60:      3193.08 cm**-1
  61:      3256.54 cm**-1
  62:      3445.59 cm**-1

IR SPECTRUM
-----------

 Mode    freq (cm**-1)   T**2         TX         TY         TZ
-------------------------------------------------------------------
   6:        59.14    0.504864  (  0.300446  -0.494338   0.412585)
   7:        89.48    0.543970  (  0.451422  -0.292009  -0.504895)
   8:       102.13    0.520995  (  0.585360   0.340257   0.250149)
   9:       215.41    0.821797  ( -0.522160  -0.079378   0.736780)
  10:       225.75    0.124901  ( -0.201217  -0.221467  -0.188055)
  11:       259.35    0.246987  ( -0.059239  -0.040604  -0.491761)
  12:       269.40    0.109655  ( -0.209291  -0.063008   0.248762)
  13:       391.50    0.279902  (  0.361296  -0.169788  -0.347188)
  14:       424.95    1.441334  ( -1.182177  -0.125737  -0.167279)
  15:       439.23    1.745163  (  0.448126   0.149500  -1.233692)
  16:       473.13    1.244864  ( -1.032789   0.139106   0.398573)
  17:       639.41   10.264682  ( -1.892759   0.311994   2.566088)
  18:       795.13   12.007729  ( -0.195526  -0.467118   3.428017)
  19:       852.34    0.754260  (  0.862718   0.093975   0.033850)
  20:       907.59   26.798140  (  2.373960   0.337319   4.587883)
  21:       919.70    2.664663  (  1.352902  -0.537385  -0.738604)
  22:       985.00   14.487742  ( -0.419339   1.414373   3.508767)
  23:      1018.84   58.647107  ( -2.718436   0.945372   7.096724)
  24:      1022.26   23.126644  ( -4.043014  -2.038440  -1.620322)
  25:      1027.92    5.070299  ( -2.123505  -0.438230  -0.607438)
  26:      1044.46   18.653884  ( -4.249372  -0.648355   0.419950)
  27:      1069.03    1.596090  ( -0.630922  -0.428018   1.007386)
  28:      1103.11    5.288903  ( -0.186034  -0.248732  -2.278690)
  29:      1161.17    5.366871  (  1.812103  -0.018119  -1.443200)
  30:      1209.93    1.618943  (  0.322182   0.858144   0.882457)
  31:      1215.24    1.499899  (  0.739237   0.701007   0.679719)
  32:      1280.75    2.179560  ( -1.323725  -0.081111  -0.648640)
  33:      1320.94    1.782514  (  0.026475   1.116733  -0.731246)
  34:      1331.29    3.485289  (  1.257772  -0.729947   1.170673)
  35:      1377.29    1.697847  (  0.480793  -1.174518  -0.295285)
  36:      1386.65    1.430839  ( -0.798350   0.070516   0.887977)
  37:      1418.28   39.506876  ( -4.443320  -0.231376  -4.439623)
  38:      1423.90   13.280305  (  2.241171  -0.583590   2.813695)
  39:      1429.47   11.725972  (  3.017445  -1.367189  -0.867058)
  40:      1453.39   19.538540  (  4.344137  -0.813194   0.075670)
  41:      1460.31    7.998793  ( -1.153877   0.479503  -2.537210)
  42:      1473.93   11.509857  ( -2.091225   0.448705  -2.633496)
  43:      1486.24    1.027358  (  0.057925  -0.861613  -0.530683)
  44:      1490.64    1.872779  ( -0.724228  -0.612524  -0.986452)
  45:      1491.42   12.410428  (  2.956628   0.675637  -1.792287)
  46:      1499.23   45.279235  (  3.023697   5.057703  -3.249020)
  47:      1505.73   24.514083  (  0.324532   3.368320   3.614303)
  48:      1726.49    1.252173  (  0.066434  -0.789966  -0.789755)
  49:      3063.58    3.583527  (  0.459205   1.638951   0.828552)
  50:      3086.97    0.193877  ( -0.013407   0.052655  -0.436949)
  51:      3092.41    2.884836  (  1.404360  -0.729468  -0.616836)
  52:      3094.30    2.393723  (  0.109914   1.442802   0.547689)
  53:      3133.66    1.279660  (  0.309212   0.668713  -0.858412)
  54:      3146.45    0.302139  (  0.109423  -0.322179   0.431702)
  55:      3148.81    1.198664  (  0.270978  -1.001143   0.350639)
  56:      3158.52    3.648582  ( -0.221722  -1.494005   1.169346)
  57:      3160.54    4.208053  (  0.104932  -0.461001  -1.996126)
  58:      3163.48    0.411245  ( -0.465434   0.078091   0.434187)
  59:      3185.18    0.328807  ( -0.193790  -0.085756   0.532821)
  60:      3193.08    0.491625  ( -0.268599   0.325295   0.560057)
  61:      3256.54    0.176396  (  0.309482  -0.143636   0.244920)
  62:      3445.59   34.027117  (  0.570228  -5.574197   1.621815)

--------------------------
THERMOCHEMISTRY AT 298.15K
--------------------------

Temperature         ... 298.15 K
Pressure            ... 1.00 atm
Total Mass          ... 100.18 AMU

Throughout the following assumptions are being made:
  (1) The electronic state is orbitally nondegenerate
  (2) There are no thermally accessible electronically excited states
  (3) Hindered rotations indicated by low frequency modes) are not
      treated as such but are treated as vibrations and this may
      case some error
  (4) All equations used are the standard statistical mechanics
      equations for an ideal gas
  (5) All vibrations are strinctly harmonic

------------
INNER ENERGY
------------

The inner energy is: U= E(el) + E(ZPE) + E(vib) + E(rot) + E(trans)
    E(el)   - is the total energy from the electronic structure calculation
              = E(kin-el) + E(nuc-el) + E(el-el) + E(nuc-nuc)
    E(ZPE)  - the the zero temperature vibrational energy from the frequency calculation
    E(vib)  - the the finite temperature correction to E(ZPE) due to population
              of excietd vibrational states
    E(rot)  - is the rotational thermal energy
    E(trans)- is the translational thermal energy

Summary of contributions to the inner energy U:
Electronic energy                ...   -291.30368659 Eh
Zero point energy                ...      0.19775779 Eh     124.09 kcal/mol
Thermal vibrational correction   ...      0.00618956 Eh       3.88 kcal/mol
Thermal rotational correction    ...      0.00141627 Eh       0.89 kcal/mol
Thermal translational correction ...      0.00141627 Eh       0.89 kcal/mol
-----------------------------------------------------------------------
Total thermal energy                   -291.09690670 Eh

Summary of corrections to the electronic energy:
(perhaps to be used in another calculation)
Total thermal correction                  0.00902210 Eh       5.66 kcal/mol
Non-thermal (ZPE) correction              0.19775779 Eh     124.09 kcal/mol
-----------------------------------------------------------------------
Total correction                          0.20677989 Eh     129.76 kcal/mol

--------
ENTHALPY
--------

The enthalpy is H = U + kB*T
                kB is Boltzmann's constant
Total free energy                 ...   -291.09690670 Eh
Thermal Enthalpy correction       ...      0.00094421 Eh       0.59 kcal/mol
-----------------------------------------------------------------------
Total Enthalpy                    ...   -291.09596249 Eh

-------
ENTROPY
-------

The entropy contributions are T*S = T*(S(el)+S(vib)+S(rot)+S(trans)
     S(el)   - electronic entropy
     S(vib)  - vibrational entropy
     S(rot)  - rotational entropy
     S(trans)- translational entropy
The entropies will be listed as mutliplied by the temperature to get
units of energy

Electronic entropy                ...      0.00000000 Eh      0.00 kcal/mol
Vibrational entropy               ...      0.01148429 Eh      7.21 kcal/mol
Rotational entropy                ...      0.01230391 Eh      7.72 kcal/mol
Translational entropy             ...      0.01887386 Eh     11.84 kcal/mol
-----------------------------------------------------------------------
Final entropy term                ...      0.04266206 Eh     26.77 kcal/mol

CAUTION: The rotational entropy is not quite correctly treated here
         because it includes a symmetry number that is not yet correctly
         implemented in ORCA!
For a nonlinear molecule the correct rotational entropy is:
    S(rot) = R*(ln(qrot/sn)+1.5)
    R    = 8.31441 J/mol/K = 1.987191683e-3 kcal/mol/K
    qrot = 305563.8080904
    sn is the rotational symmetry number. We have assumed 3 here
       if it is different for your molecule then you should correct
       the printed rotational entropy by manually evaluating the equation
       as given above

For convenience we print out the resulting values for sn=1 - 12:
 sn= 1  qrot/sn=  305563.8081 T*S(rot)=     8.37 kcal/mol T*S(tot)=    27.42 kcal/mol
 sn= 2  qrot/sn=  152781.9040 T*S(rot)=     7.96 kcal/mol T*S(tot)=    27.01 kcal/mol
 sn= 3  qrot/sn=  101854.6027 T*S(rot)=     7.72 kcal/mol T*S(tot)=    26.77 kcal/mol
 sn= 4  qrot/sn=   76390.9520 T*S(rot)=     7.55 kcal/mol T*S(tot)=    26.60 kcal/mol
 sn= 5  qrot/sn=   61112.7616 T*S(rot)=     7.42 kcal/mol T*S(tot)=    26.47 kcal/mol
 sn= 6  qrot/sn=   50927.3013 T*S(rot)=     7.31 kcal/mol T*S(tot)=    26.36 kcal/mol
 sn= 7  qrot/sn=   43651.9726 T*S(rot)=     7.22 kcal/mol T*S(tot)=    26.27 kcal/mol
 sn= 8  qrot/sn=   38195.4760 T*S(rot)=     7.14 kcal/mol T*S(tot)=    26.19 kcal/mol
 sn= 9  qrot/sn=   33951.5342 T*S(rot)=     7.07 kcal/mol T*S(tot)=    26.12 kcal/mol
 sn=10  qrot/sn=   30556.3808 T*S(rot)=     7.01 kcal/mol T*S(tot)=    26.06 kcal/mol
 sn=11  qrot/sn=   27778.5280 T*S(rot)=     6.95 kcal/mol T*S(tot)=    26.00 kcal/mol
 sn=12  qrot/sn=   25463.6507 T*S(rot)=     6.90 kcal/mol T*S(tot)=    25.95 kcal/mol

-------------------
GIBBS FREE ENTHALPY
-------------------

The Gibbs free enthalpy is G = H - T*S

Total enthalpy                    ...   -291.09596249 Eh
Total entropy correction          ...     -0.04266206 Eh    -26.77 kcal/mol
-----------------------------------------------------------------------
Final Gibbs free enthalpy         ...   -291.13862455 Eh

For completeness - the Gibbs free enthalpy minus the electronic energy
G-E(el)                           ...      0.16506204 Eh    103.58 kcal/mol

                             ****ORCA TERMINATED NORMALLY****
TOTAL RUN TIME: 0 days 0 hours 50 minutes 5 seconds 980 msec
