                         Program Version 3.0.3 - RELEASE   -
|  1> ! NORI PBE0 def2-TZVP UseSym TightOPT Freq TightSCF Grid3 FinalGrid5 XYZFile
|  2> % pal
|  3>     nprocs 8
|  4> end
|  5> %method
|  6>     SymThresh 5.0e-2
|  7> end
|  8> % geom
|  9>     MaxIter 10
| 10> end
| 11> % maxcore 2000
| 12> % output
| 13>     printlevel mini
| 14>     print[ P_Basis ] 0
| 15>     print[ P_SCFInfo ] 1
| 16>     print[ P_SCFIterInfo ] 1
| 17>     print[ P_OrbEn ] 0
| 18>     print[ P_Cartesian ] 0
| 19> end
| 20> % elprop
| 21>     Dipole false
| 22> end
| 23> *xyz 1 1
| 24>  C        3.1561902893    -0.9980281344    -0.8770337690
| 25>  C        2.6696632175    -0.0184792606     0.1616597556
| 26>  N        3.1397178743     1.3892369180    -0.0915628163
| 27>  C        2.4935060465     2.3508892718     0.8401390183
| 28>  C        4.6419693870     1.5293878752    -0.0701860369
| 29>  C        5.1982636505     1.1451167677     1.2065302973
| 30>  C        5.6930625872     0.8291933271     2.2510681609
| 31>  H        2.6698345414    -1.9576939817    -0.6968185043
| 32>  H        4.2316834826    -1.1699458625    -0.8237715246
| 33>  H        2.8891971710    -0.6896947630    -1.8917430754
| 34>  H        3.0161629134    -0.2738535222     1.1636419684
| 35>  H        1.5800232214     0.0366389024     0.1759757919
| 36>  H        2.8499906543     1.6315996359    -1.0409088551
| 37>  H        2.8143294391     2.1144034271     1.8529608122
| 38>  H        1.4126708709     2.2537631656     0.7533452050
| 39>  H        2.8005688944     3.3626319832     0.5797504530
| 40>  H        4.8651651436     2.5738234291    -0.3008192989
| 41>  H        5.0403860316     0.9131631739    -0.8777987976
| 42>  H        6.1444745839     0.5523576475     3.1782812155
| 43> *
| 44>
| 45>                          ****END OF INPUT****
 Total Charge           Charge          ....    1
 Multiplicity           Mult            ....    1
 Number of Electrons    NEL             ....   54
FINAL SINGLE POINT ENERGY      -290.045948262376
FINAL SINGLE POINT ENERGY      -290.045949690338

CARTESIAN COORDINATES (ANGSTROEM)
---------------------------------
  C      2.376876   -0.000101    0.152530
  C      1.136660    0.817136    0.416193
  N     -0.000242    0.000506    0.971215
  C     -1.135638    0.866386    1.387575
  C     -0.457435   -1.095949    0.041061
  C     -0.925982   -0.571288   -1.220655
  C     -1.317124   -0.170741   -2.279880
  H      3.183422    0.681634   -0.120885
  H      2.254034   -0.698283   -0.675943
  H      2.706571   -0.547228    1.039941
  H      0.752767    1.288211   -0.489603
  H      1.324788    1.595567    1.156979
  H      0.353844   -0.471518    1.805455
  H     -1.533405    1.358587    0.502165
  H     -0.772520    1.604739    2.099521
  H     -1.905864    0.249224    1.847641
  H     -1.249504   -1.640775    0.561097
  H      0.383510   -1.776963   -0.100627
  H     -1.670044    0.175640   -3.226339

FINAL SINGLE POINT ENERGY      -290.045950054027
                    ***********************HURRAY********************
 Multiplicity           Mult            ....    1
 Number of Electrons    NEL             ....   54
 Basis Dimension        Dim             ....  289
FINAL SINGLE POINT ENERGY      -290.045950195915

VIBRATIONAL FREQUENCIES
-----------------------

   0:         0.00 cm**-1
   1:         0.00 cm**-1
   2:         0.00 cm**-1
   3:         0.00 cm**-1
   4:         0.00 cm**-1
   5:         0.00 cm**-1
   6:        53.50 cm**-1
   7:       126.39 cm**-1
   8:       155.68 cm**-1
   9:       215.95 cm**-1
  10:       248.75 cm**-1
  11:       275.53 cm**-1
  12:       332.68 cm**-1
  13:       370.65 cm**-1
  14:       393.56 cm**-1
  15:       457.82 cm**-1
  16:       622.10 cm**-1
  17:       720.37 cm**-1
  18:       765.25 cm**-1
  19:       774.33 cm**-1
  20:       818.64 cm**-1
  21:       903.16 cm**-1
  22:       958.26 cm**-1
  23:       995.29 cm**-1
  24:      1031.38 cm**-1
  25:      1045.10 cm**-1
  26:      1071.04 cm**-1
  27:      1138.65 cm**-1
  28:      1183.21 cm**-1
  29:      1206.96 cm**-1
  30:      1287.18 cm**-1
  31:      1315.40 cm**-1
  32:      1369.31 cm**-1
  33:      1386.91 cm**-1
  34:      1419.71 cm**-1
  35:      1424.19 cm**-1
  36:      1447.98 cm**-1
  37:      1458.58 cm**-1
  38:      1470.22 cm**-1
  39:      1478.54 cm**-1
  40:      1488.60 cm**-1
  41:      1495.07 cm**-1
  42:      1499.97 cm**-1
  43:      1503.64 cm**-1
  44:      2256.45 cm**-1
  45:      3061.73 cm**-1
  46:      3084.92 cm**-1
  47:      3089.65 cm**-1
  48:      3098.27 cm**-1
  49:      3133.78 cm**-1
  50:      3136.63 cm**-1
  51:      3151.40 cm**-1
  52:      3162.43 cm**-1
  53:      3188.81 cm**-1
  54:      3195.36 cm**-1
  55:      3453.98 cm**-1
  56:      3455.16 cm**-1

IR SPECTRUM
-----------

 Mode    freq (cm**-1)   T**2         TX         TY         TZ
-------------------------------------------------------------------
   6:        53.50    0.514633  (  0.397280  -0.081636  -0.591724)
   7:       126.39    0.286414  (  0.250242  -0.265431  -0.391586)
   8:       155.68    1.027935  ( -0.175153   0.980662  -0.188573)
   9:       215.95    0.116116  (  0.002516  -0.235501  -0.246269)
  10:       248.75    1.211528  ( -0.733466  -0.820477  -0.019316)
  11:       275.53    0.967509  (  0.933118  -0.124048  -0.285328)
  12:       332.68   12.105460  ( -3.068421   0.737711   1.464934)
  13:       370.65    9.909544  ( -1.973511  -2.360976  -0.663771)
  14:       393.56    1.528338  (  0.741171  -0.750931  -0.644287)
  15:       457.82    3.626922  ( -0.276488   1.284312   1.378774)
  16:       622.10    1.814181  (  0.028351  -1.334839  -0.177712)
  17:       720.37   40.747322  (  5.919170  -0.474615  -2.342112)
  18:       765.25    2.155996  (  0.081780  -0.955137   1.112214)
  19:       774.33   34.916955  ( -1.123902  -5.479731  -1.904298)
  20:       818.64    5.307644  (  1.631960   0.593578   1.513940)
  21:       903.16   10.064091  ( -2.865234  -1.257309  -0.523164)
  22:       958.26    7.352968  (  1.958333  -1.253259  -1.395435)
  23:       995.29   12.576956  ( -0.871210  -0.587291  -3.387187)
  24:      1031.38   28.388228  ( -4.533261  -2.772800  -0.386469)
  25:      1045.10    7.161255  (  1.980539  -0.733241  -1.643495)
  26:      1071.04    4.921395  (  0.732595  -0.601832  -2.005616)
  27:      1138.65    5.172959  (  1.031694  -1.265183  -1.583628)
  28:      1183.21    4.610600  (  0.357703   1.770531   1.160978)
  29:      1206.96    5.570535  ( -1.000798  -1.574599  -1.445537)
  30:      1287.18    3.777813  (  0.898239   1.484092   0.876613)
  31:      1315.40    3.015894  ( -1.170916  -0.797442  -1.004458)
  32:      1369.31   12.553294  ( -0.010422  -0.585319  -3.494365)
  33:      1386.91    5.912396  ( -2.005282   0.776559  -1.134987)
  34:      1419.71    8.925342  ( -2.958181   0.269376   0.319286)
  35:      1424.19   22.742904  (  4.742122   0.131324  -0.487784)
  36:      1447.98   21.794732  (  2.374716  -3.889840   1.012227)
  37:      1458.58    2.513258  ( -1.127708  -0.003428   1.114236)
  38:      1470.22    8.592072  (  0.065482   2.839351  -0.725169)
  39:      1478.54    7.491745  ( -2.217581  -1.471288   0.639837)
  40:      1488.60    6.802142  (  1.132871  -1.766563  -1.548548)
  41:      1495.07   37.766933  ( -0.139311  -0.101715   6.143059)
  42:      1499.97   38.870330  (  2.036800   5.887901   0.233240)
  43:      1503.64    3.008181  ( -0.683837  -1.564618   0.304167)
  44:      2256.45   27.874160  ( -1.977446   0.840810  -4.822541)
  45:      3061.73    3.193927  ( -0.233517  -1.609825   0.740176)
  46:      3084.92    1.147667  ( -0.539495   0.209111  -0.901602)
  47:      3089.65    0.395504  (  0.050322  -0.322274   0.537691)
  48:      3098.27    2.711513  (  0.650665  -1.264520  -0.830143)
  49:      3133.78    1.485184  (  0.405832   0.018738  -1.148971)
  50:      3136.63    1.759249  (  0.911521  -0.074183   0.960664)
  51:      3151.40    0.514248  (  0.234510  -0.672073  -0.087013)
  52:      3162.43    2.737932  ( -0.396549  -0.617481  -1.483037)
  53:      3188.81    0.182279  (  0.347875  -0.023075   0.246434)
  54:      3195.36    0.081808  (  0.199885  -0.051116   0.198094)
  55:      3453.98  114.935347  ( -3.788803   3.105075  -9.536185)
  56:      3455.16   26.701202  ( -1.683725   2.346469  -4.284898)

--------------------------
THERMOCHEMISTRY AT 298.15K
--------------------------

Temperature         ... 298.15 K
Pressure            ... 1.00 atm
Total Mass          ... 98.17 AMU

Throughout the following assumptions are being made:
  (1) The electronic state is orbitally nondegenerate
  (2) There are no thermally accessible electronically excited states
  (3) Hindered rotations indicated by low frequency modes) are not
      treated as such but are treated as vibrations and this may
      case some error
  (4) All equations used are the standard statistical mechanics
      equations for an ideal gas
  (5) All vibrations are strinctly harmonic

------------
INNER ENERGY
------------

The inner energy is: U= E(el) + E(ZPE) + E(vib) + E(rot) + E(trans)
    E(el)   - is the total energy from the electronic structure calculation
              = E(kin-el) + E(nuc-el) + E(el-el) + E(nuc-nuc)
    E(ZPE)  - the the zero temperature vibrational energy from the frequency calculation
    E(vib)  - the the finite temperature correction to E(ZPE) due to population
              of excietd vibrational states
    E(rot)  - is the rotational thermal energy
    E(trans)- is the translational thermal energy

Summary of contributions to the inner energy U:
Electronic energy                ...   -290.04595020 Eh
Zero point energy                ...      0.17400217 Eh     109.19 kcal/mol
Thermal vibrational correction   ...      0.00579325 Eh       3.64 kcal/mol
Thermal rotational correction    ...      0.00141627 Eh       0.89 kcal/mol
Thermal translational correction ...      0.00141627 Eh       0.89 kcal/mol
-----------------------------------------------------------------------
Total thermal energy                   -289.86332223 Eh

Summary of corrections to the electronic energy:
(perhaps to be used in another calculation)
Total thermal correction                  0.00862580 Eh       5.41 kcal/mol
Non-thermal (ZPE) correction              0.17400217 Eh     109.19 kcal/mol
-----------------------------------------------------------------------
Total correction                          0.18262797 Eh     114.60 kcal/mol

--------
ENTHALPY
--------

The enthalpy is H = U + kB*T
                kB is Boltzmann's constant
Total free energy                 ...   -289.86332223 Eh
Thermal Enthalpy correction       ...      0.00094421 Eh       0.59 kcal/mol
-----------------------------------------------------------------------
Total Enthalpy                    ...   -289.86237802 Eh

-------
ENTROPY
-------

The entropy contributions are T*S = T*(S(el)+S(vib)+S(rot)+S(trans)
     S(el)   - electronic entropy
     S(vib)  - vibrational entropy
     S(rot)  - rotational entropy
     S(trans)- translational entropy
The entropies will be listed as mutliplied by the temperature to get
units of energy

Electronic entropy                ...      0.00000000 Eh      0.00 kcal/mol
Vibrational entropy               ...      0.01043392 Eh      6.55 kcal/mol
Rotational entropy                ...      0.01219546 Eh      7.65 kcal/mol
Translational entropy             ...      0.01884507 Eh     11.83 kcal/mol
-----------------------------------------------------------------------
Final entropy term                ...      0.04147445 Eh     26.03 kcal/mol

CAUTION: The rotational entropy is not quite correctly treated here
         because it includes a symmetry number that is not yet correctly
         implemented in ORCA!
For a nonlinear molecule the correct rotational entropy is:
    S(rot) = R*(ln(qrot/sn)+1.5)
    R    = 8.31441 J/mol/K = 1.987191683e-3 kcal/mol/K
    qrot = 272407.3070909
    sn is the rotational symmetry number. We have assumed 3 here
       if it is different for your molecule then you should correct
       the printed rotational entropy by manually evaluating the equation
       as given above

For convenience we print out the resulting values for sn=1 - 12:
 sn= 1  qrot/sn=  272407.3071 T*S(rot)=     8.30 kcal/mol T*S(tot)=    26.68 kcal/mol
 sn= 2  qrot/sn=  136203.6535 T*S(rot)=     7.89 kcal/mol T*S(tot)=    26.27 kcal/mol
 sn= 3  qrot/sn=   90802.4357 T*S(rot)=     7.65 kcal/mol T*S(tot)=    26.03 kcal/mol
 sn= 4  qrot/sn=   68101.8268 T*S(rot)=     7.48 kcal/mol T*S(tot)=    25.86 kcal/mol
 sn= 5  qrot/sn=   54481.4614 T*S(rot)=     7.35 kcal/mol T*S(tot)=    25.72 kcal/mol
 sn= 6  qrot/sn=   45401.2178 T*S(rot)=     7.24 kcal/mol T*S(tot)=    25.61 kcal/mol
 sn= 7  qrot/sn=   38915.3296 T*S(rot)=     7.15 kcal/mol T*S(tot)=    25.52 kcal/mol
 sn= 8  qrot/sn=   34050.9134 T*S(rot)=     7.07 kcal/mol T*S(tot)=    25.44 kcal/mol
 sn= 9  qrot/sn=   30267.4786 T*S(rot)=     7.00 kcal/mol T*S(tot)=    25.37 kcal/mol
 sn=10  qrot/sn=   27240.7307 T*S(rot)=     6.94 kcal/mol T*S(tot)=    25.31 kcal/mol
 sn=11  qrot/sn=   24764.3006 T*S(rot)=     6.88 kcal/mol T*S(tot)=    25.26 kcal/mol
 sn=12  qrot/sn=   22700.6089 T*S(rot)=     6.83 kcal/mol T*S(tot)=    25.20 kcal/mol

-------------------
GIBBS FREE ENTHALPY
-------------------

The Gibbs free enthalpy is G = H - T*S

Total enthalpy                    ...   -289.86237802 Eh
Total entropy correction          ...     -0.04147445 Eh    -26.03 kcal/mol
-----------------------------------------------------------------------
Final Gibbs free enthalpy         ...   -289.90385247 Eh

For completeness - the Gibbs free enthalpy minus the electronic energy
G-E(el)                           ...      0.14209773 Eh     89.17 kcal/mol

                             ****ORCA TERMINATED NORMALLY****
TOTAL RUN TIME: 0 days 0 hours 48 minutes 48 seconds 482 msec
