                         Program Version 3.0.3 - RELEASE   -
|  1> ! NORI PBE0 def2-TZVP UseSym TightOPT Freq TightSCF Grid3 FinalGrid5 XYZFile
|  2> % pal
|  3>     nprocs 8
|  4> end
|  5> %method
|  6>     SymThresh 5.0e-2
|  7> end
|  8> % geom
|  9>     MaxIter 10
| 10> end
| 11> % maxcore 2000
| 12> % output
| 13>     printlevel mini
| 14>     print[ P_Basis ] 0
| 15>     print[ P_SCFInfo ] 1
| 16>     print[ P_SCFIterInfo ] 1
| 17>     print[ P_OrbEn ] 0
| 18>     print[ P_Cartesian ] 0
| 19> end
| 20> % elprop
| 21>     Dipole false
| 22> end
| 23> *xyz 1 1
| 24>  C        3.3615129403    -1.1575718274     0.0694034963
| 25>  C        2.8078830417     0.1971450424     0.4324253344
| 26>  N        3.1582244080     1.2707992786    -0.5715076698
| 27>  C        2.4524404526     2.5484999808    -0.2679039075
| 28>  C        4.6354320654     1.4808159884    -0.7247087015
| 29>  C        5.2244768519     1.8887131415     0.5375769034
| 30>  N        5.6669545731     2.2048187041     1.5485093806
| 31>  H        2.9515498249    -1.8875237894     0.7690188963
| 32>  H        4.4476029051    -1.2134199962     0.1570560646
| 33>  H        3.0611408637    -1.4727049106    -0.9334597825
| 34>  H        1.7175334783     0.1850770172     0.4666198834
| 35>  H        3.1768296458     0.5530479823     1.3958224529
| 36>  H        2.8287453450     0.9426042364    -1.4821241494
| 37>  H        2.7911606839     2.9090278736     0.7022259969
| 38>  H        1.3815286289     2.3559556215    -0.2427625325
| 39>  H        2.6849333205     3.2787082860    -1.0416207506
| 40>  H        4.7935560975     2.2497515414    -1.4844103677
| 41>  H        5.0871048734     0.5510758294    -1.0724005472
| 42> *
| 43>
| 44>                          ****END OF INPUT****
 Total Charge           Charge          ....    1
 Multiplicity           Mult            ....    1
 Number of Electrons    NEL             ....   54
FINAL SINGLE POINT ENERGY      -306.119690107260

CARTESIAN COORDINATES (ANGSTROEM)
---------------------------------
  C     -2.368060    0.230467    0.143908
  C     -1.212639   -0.702172    0.406587
  N     -0.000065   -0.000094    0.972775
  C      1.052613   -0.976237    1.376085
  C      0.550187    1.059566    0.065065
  C      0.962364    0.481639   -1.200973
  N      1.275669    0.001333   -2.195351
  H     -3.233063   -0.374086   -0.133193
  H     -2.184406    0.915414   -0.684836
  H     -2.648924    0.802277    1.032504
  H     -1.473429   -1.460229    1.146314
  H     -0.872867   -1.209276   -0.498208
  H     -0.309128    0.489797    1.815459
  H      1.389961   -1.508413    0.487856
  H      0.622394   -1.675175    2.090411
  H      1.884039   -0.439364    1.830429
  H      1.401354    1.527753    0.564270
  H     -0.218058    1.817197   -0.095179

FINAL SINGLE POINT ENERGY      -306.119691051504
                    ***********************HURRAY********************
 Multiplicity           Mult            ....    1
 Number of Electrons    NEL             ....   54
 Basis Dimension        Dim             ....  283
FINAL SINGLE POINT ENERGY      -306.119691365172

VIBRATIONAL FREQUENCIES
-----------------------

   0:         0.00 cm**-1
   1:         0.00 cm**-1
   2:         0.00 cm**-1
   3:         0.00 cm**-1
   4:         0.00 cm**-1
   5:         0.00 cm**-1
   6:        53.07 cm**-1
   7:       126.38 cm**-1
   8:       153.33 cm**-1
   9:       220.15 cm**-1
  10:       248.92 cm**-1
  11:       279.17 cm**-1
  12:       357.14 cm**-1
  13:       389.98 cm**-1
  14:       399.11 cm**-1
  15:       458.45 cm**-1
  16:       638.65 cm**-1
  17:       768.51 cm**-1
  18:       819.30 cm**-1
  19:       902.70 cm**-1
  20:       950.66 cm**-1
  21:       988.02 cm**-1
  22:      1028.62 cm**-1
  23:      1043.52 cm**-1
  24:      1071.22 cm**-1
  25:      1141.89 cm**-1
  26:      1185.31 cm**-1
  27:      1206.65 cm**-1
  28:      1286.50 cm**-1
  29:      1315.70 cm**-1
  30:      1370.60 cm**-1
  31:      1387.48 cm**-1
  32:      1414.61 cm**-1
  33:      1424.36 cm**-1
  34:      1453.10 cm**-1
  35:      1459.92 cm**-1
  36:      1469.71 cm**-1
  37:      1478.92 cm**-1
  38:      1489.04 cm**-1
  39:      1494.48 cm**-1
  40:      1500.10 cm**-1
  41:      1504.27 cm**-1
  42:      2402.02 cm**-1
  43:      3061.32 cm**-1
  44:      3087.61 cm**-1
  45:      3096.66 cm**-1
  46:      3098.28 cm**-1
  47:      3135.56 cm**-1
  48:      3149.10 cm**-1
  49:      3150.98 cm**-1
  50:      3161.40 cm**-1
  51:      3188.18 cm**-1
  52:      3194.84 cm**-1
  53:      3448.83 cm**-1

IR SPECTRUM
-----------

 Mode    freq (cm**-1)   T**2         TX         TY         TZ
-------------------------------------------------------------------
   6:        53.07    5.793194  ( -2.068115   0.398942  -1.164877)
   7:       126.38    1.434199  (  1.157993   0.260415   0.159487)
   8:       153.33    7.061300  ( -0.983870  -1.832229   1.654158)
   9:       220.15    0.286384  ( -0.503742  -0.061971  -0.169671)
  10:       248.92    0.258617  (  0.367534   0.154532   0.315683)
  11:       279.17    2.831056  ( -1.433960  -0.880180  -0.009872)
  12:       357.14    0.425204  (  0.048814  -0.577862   0.298154)
  13:       389.98    0.506488  (  0.398640  -0.433126   0.399970)
  14:       399.11    0.104204  ( -0.318926  -0.024163   0.043662)
  15:       458.45    1.136040  (  0.178984  -0.632323   0.839150)
  16:       638.65    0.199177  ( -0.363422  -0.258839  -0.010191)
  17:       768.51    2.158708  (  0.010665  -0.945920   1.124202)
  18:       819.30    6.132425  (  1.851625   0.482068  -1.572107)
  19:       902.70   11.317631  ( -3.212337  -0.394499  -0.918091)
  20:       950.66    9.723149  ( -2.853597   1.242395  -0.191284)
  21:       988.02   11.274243  (  0.196334  -0.641873   3.289938)
  22:      1028.62   28.150072  ( -4.877716  -2.045149  -0.418715)
  23:      1043.52    3.271918  (  0.095310  -1.503205   1.001603)
  24:      1071.22    4.417600  (  0.766653  -0.645635   1.847430)
  25:      1141.89    4.173024  ( -0.720911   1.334138  -1.368717)
  26:      1185.31    3.283480  (  0.317439   1.637872  -0.707170)
  27:      1206.65    3.593980  ( -0.826322  -1.488495   0.833999)
  28:      1286.50    2.418680  (  0.860829   1.268891  -0.259939)
  29:      1315.70    1.410762  ( -0.973900  -0.602091   0.315859)
  30:      1370.60    7.761004  (  0.877573  -0.923585   2.477471)
  31:      1387.48    5.338833  ( -1.971603   0.794604   0.905659)
  32:      1414.61   16.510127  ( -4.000334   0.501868  -0.505549)
  33:      1424.36   17.037159  ( -4.107711   0.142916  -0.378740)
  34:      1453.10   18.579999  (  1.864372  -3.861496  -0.439273)
  35:      1459.92    2.467194  ( -0.571068   1.455483   0.150484)
  36:      1469.71   13.571381  (  0.961167   3.411305   1.005255)
  37:      1478.92   10.045098  (  2.638648   1.731743   0.289313)
  38:      1489.04    5.276427  ( -1.818463   0.768801  -1.174123)
  39:      1494.48   41.754423  (  0.291282   1.110048  -6.359039)
  40:      1500.10   20.553073  ( -1.554851  -4.196497  -0.724515)
  41:      1504.27   20.967260  ( -1.304917  -4.325664  -0.743695)
  42:      2402.02    6.000585  ( -0.835612   0.557142   2.234263)
  43:      3061.32    4.146758  (  0.935430   1.629859   0.784402)
  44:      3087.61    0.569012  (  0.207526  -0.719039  -0.094490)
  45:      3096.66    1.150698  (  0.881978  -0.075425   0.605908)
  46:      3098.28    1.763641  (  0.002804   1.314015  -0.192346)
  47:      3135.56    2.559148  (  0.606602  -0.016921  -1.480167)
  48:      3149.10    3.843351  ( -1.762420   0.562815  -0.648433)
  49:      3150.98    2.329128  ( -1.452306   0.189946  -0.428786)
  50:      3161.40    1.844571  ( -0.637807  -0.474120   1.101356)
  51:      3188.18    0.498648  ( -0.274947   0.495792   0.421002)
  52:      3194.84    0.294836  ( -0.343871  -0.090596   0.410342)
  53:      3448.83   58.436455  (  2.254319  -3.233446  -6.549758)

--------------------------
THERMOCHEMISTRY AT 298.15K
--------------------------

Temperature         ... 298.15 K
Pressure            ... 1.00 atm
Total Mass          ... 99.16 AMU

Throughout the following assumptions are being made:
  (1) The electronic state is orbitally nondegenerate
  (2) There are no thermally accessible electronically excited states
  (3) Hindered rotations indicated by low frequency modes) are not
      treated as such but are treated as vibrations and this may
      case some error
  (4) All equations used are the standard statistical mechanics
      equations for an ideal gas
  (5) All vibrations are strinctly harmonic

------------
INNER ENERGY
------------

The inner energy is: U= E(el) + E(ZPE) + E(vib) + E(rot) + E(trans)
    E(el)   - is the total energy from the electronic structure calculation
              = E(kin-el) + E(nuc-el) + E(el-el) + E(nuc-nuc)
    E(ZPE)  - the the zero temperature vibrational energy from the frequency calculation
    E(vib)  - the the finite temperature correction to E(ZPE) due to population
              of excietd vibrational states
    E(rot)  - is the rotational thermal energy
    E(trans)- is the translational thermal energy

Summary of contributions to the inner energy U:
Electronic energy                ...   -306.11969137 Eh
Zero point energy                ...      0.16324053 Eh     102.43 kcal/mol
Thermal vibrational correction   ...      0.00553566 Eh       3.47 kcal/mol
Thermal rotational correction    ...      0.00141627 Eh       0.89 kcal/mol
Thermal translational correction ...      0.00141627 Eh       0.89 kcal/mol
-----------------------------------------------------------------------
Total thermal energy                   -305.94808264 Eh

Summary of corrections to the electronic energy:
(perhaps to be used in another calculation)
Total thermal correction                  0.00836820 Eh       5.25 kcal/mol
Non-thermal (ZPE) correction              0.16324053 Eh     102.43 kcal/mol
-----------------------------------------------------------------------
Total correction                          0.17160873 Eh     107.69 kcal/mol

--------
ENTHALPY
--------

The enthalpy is H = U + kB*T
                kB is Boltzmann's constant
Total free energy                 ...   -305.94808264 Eh
Thermal Enthalpy correction       ...      0.00094421 Eh       0.59 kcal/mol
-----------------------------------------------------------------------
Total Enthalpy                    ...   -305.94713843 Eh

-------
ENTROPY
-------

The entropy contributions are T*S = T*(S(el)+S(vib)+S(rot)+S(trans)
     S(el)   - electronic entropy
     S(vib)  - vibrational entropy
     S(rot)  - rotational entropy
     S(trans)- translational entropy
The entropies will be listed as mutliplied by the temperature to get
units of energy

Electronic entropy                ...      0.00000000 Eh      0.00 kcal/mol
Vibrational entropy               ...      0.01007276 Eh      6.32 kcal/mol
Rotational entropy                ...      0.01217024 Eh      7.64 kcal/mol
Translational entropy             ...      0.01885925 Eh     11.83 kcal/mol
-----------------------------------------------------------------------
Final entropy term                ...      0.04110226 Eh     25.79 kcal/mol

CAUTION: The rotational entropy is not quite correctly treated here
         because it includes a symmetry number that is not yet correctly
         implemented in ORCA!
For a nonlinear molecule the correct rotational entropy is:
    S(rot) = R*(ln(qrot/sn)+1.5)
    R    = 8.31441 J/mol/K = 1.987191683e-3 kcal/mol/K
    qrot = 265228.4946651
    sn is the rotational symmetry number. We have assumed 3 here
       if it is different for your molecule then you should correct
       the printed rotational entropy by manually evaluating the equation
       as given above

For convenience we print out the resulting values for sn=1 - 12:
 sn= 1  qrot/sn=  265228.4947 T*S(rot)=     8.29 kcal/mol T*S(tot)=    26.44 kcal/mol
 sn= 2  qrot/sn=  132614.2473 T*S(rot)=     7.88 kcal/mol T*S(tot)=    26.03 kcal/mol
 sn= 3  qrot/sn=   88409.4982 T*S(rot)=     7.64 kcal/mol T*S(tot)=    25.79 kcal/mol
 sn= 4  qrot/sn=   66307.1237 T*S(rot)=     7.47 kcal/mol T*S(tot)=    25.62 kcal/mol
 sn= 5  qrot/sn=   53045.6989 T*S(rot)=     7.33 kcal/mol T*S(tot)=    25.49 kcal/mol
 sn= 6  qrot/sn=   44204.7491 T*S(rot)=     7.23 kcal/mol T*S(tot)=    25.38 kcal/mol
 sn= 7  qrot/sn=   37889.7850 T*S(rot)=     7.13 kcal/mol T*S(tot)=    25.29 kcal/mol
 sn= 8  qrot/sn=   33153.5618 T*S(rot)=     7.06 kcal/mol T*S(tot)=    25.21 kcal/mol
 sn= 9  qrot/sn=   29469.8327 T*S(rot)=     6.99 kcal/mol T*S(tot)=    25.14 kcal/mol
 sn=10  qrot/sn=   26522.8495 T*S(rot)=     6.92 kcal/mol T*S(tot)=    25.08 kcal/mol
 sn=11  qrot/sn=   24111.6813 T*S(rot)=     6.87 kcal/mol T*S(tot)=    25.02 kcal/mol
 sn=12  qrot/sn=   22102.3746 T*S(rot)=     6.82 kcal/mol T*S(tot)=    24.97 kcal/mol

-------------------
GIBBS FREE ENTHALPY
-------------------

The Gibbs free enthalpy is G = H - T*S

Total enthalpy                    ...   -305.94713843 Eh
Total entropy correction          ...     -0.04110226 Eh    -25.79 kcal/mol
-----------------------------------------------------------------------
Final Gibbs free enthalpy         ...   -305.98824069 Eh

For completeness - the Gibbs free enthalpy minus the electronic energy
G-E(el)                           ...      0.13145068 Eh     82.49 kcal/mol

                             ****ORCA TERMINATED NORMALLY****
TOTAL RUN TIME: 0 days 0 hours 37 minutes 57 seconds 196 msec
