                         Program Version 3.0.3 - RELEASE   -
|  1> ! NORI PBE0 def2-TZVP UseSym TightOPT Freq TightSCF Grid3 FinalGrid5 XYZFile
|  2> % pal
|  3>     nprocs 8
|  4> end
|  5> %method
|  6>     SymThresh 5.0e-2
|  7> end
|  8> % geom
|  9>     MaxIter 10
| 10> end
| 11> % maxcore 2000
| 12> % output
| 13>     printlevel mini
| 14>     print[ P_Basis ] 0
| 15>     print[ P_SCFInfo ] 1
| 16>     print[ P_SCFIterInfo ] 1
| 17>     print[ P_OrbEn ] 0
| 18>     print[ P_Cartesian ] 0
| 19> end
| 20> % elprop
| 21>     Dipole false
| 22> end
| 23> *xyz 1 1
| 24>  C        0.8791265222     0.0457811517     0.0740928455
| 25>  C        2.3849489378     0.0022111525     0.0038706082
| 26>  N        2.9554868220     1.3943505341    -0.0421619864
| 27>  C        4.4615178780     1.4874137148    -0.0922939029
| 28>  C        4.9021890633     2.9277474803    -0.2851358060
| 29>  C        4.9820300232     0.9028252873     1.1376910329
| 30>  N        5.3673219925     0.4599987492     2.1245077795
| 31>  H        0.5009236189    -0.9765569165     0.1017412173
| 32>  H        0.4389471661     0.5334336951    -0.7989483145
| 33>  H        0.5274170185     0.5466635441     0.9790883773
| 34>  H        2.8263990143    -0.4808310106     0.8765544596
| 35>  H        2.7435597534    -0.5043926859    -0.8937415579
| 36>  H        2.5813431598     1.8818468949    -0.8602485725
| 37>  H        2.6227874380     1.9165071880     0.7739226261
| 38>  H        4.7727179624     0.8683069201    -0.9387596750
| 39>  H        4.5829413487     3.5591064978     0.5464209313
| 40>  H        4.5128716744     3.3280786233    -1.2234709856
| 41>  H        5.9909606065     2.9622491800    -0.3315490768
| 42> *
| 43>
| 44>                          ****END OF INPUT****
 Total Charge           Charge          ....    1
 Multiplicity           Mult            ....    1
 Number of Electrons    NEL             ....   54
FINAL SINGLE POINT ENERGY      -306.129529939532

CARTESIAN COORDINATES (ANGSTROEM)
---------------------------------
  C     -0.122086   -2.249545    1.903288
  C     -0.560200   -1.391801    0.742689
  N     -0.000403    0.000048    0.869646
  C     -0.349893    0.955166   -0.246334
  C      0.147553    2.354274    0.072098
  C      0.221490    0.424640   -1.478365
  N      0.701274    0.000064   -2.431227
  H     -0.547468   -3.246356    1.781422
  H     -0.474171   -1.859113    2.861093
  H      0.964014   -2.362242    1.939963
  H     -0.206557   -1.777774   -0.214240
  H     -1.644702   -1.281460    0.694849
  H     -0.322676    0.410897    1.749523
  H      1.019593   -0.057971    0.942658
  H     -1.440783    0.938015   -0.325351
  H      1.234548    2.379958    0.169568
  H     -0.314601    2.729177    0.987763
  H     -0.130464    3.023386   -0.742331

FINAL SINGLE POINT ENERGY      -306.129530608024
                    ***********************HURRAY********************
 Multiplicity           Mult            ....    1
 Number of Electrons    NEL             ....   54
 Basis Dimension        Dim             ....  283
FINAL SINGLE POINT ENERGY      -306.129530929464

VIBRATIONAL FREQUENCIES
-----------------------

   0:         0.00 cm**-1
   1:         0.00 cm**-1
   2:         0.00 cm**-1
   3:         0.00 cm**-1
   4:         0.00 cm**-1
   5:         0.00 cm**-1
   6:        70.21 cm**-1
   7:        94.60 cm**-1
   8:       153.26 cm**-1
   9:       201.11 cm**-1
  10:       217.34 cm**-1
  11:       251.92 cm**-1
  12:       262.84 cm**-1
  13:       377.75 cm**-1
  14:       382.72 cm**-1
  15:       555.46 cm**-1
  16:       592.81 cm**-1
  17:       777.69 cm**-1
  18:       805.57 cm**-1
  19:       868.76 cm**-1
  20:       897.04 cm**-1
  21:       944.08 cm**-1
  22:      1025.93 cm**-1
  23:      1040.55 cm**-1
  24:      1080.49 cm**-1
  25:      1107.30 cm**-1
  26:      1171.95 cm**-1
  27:      1183.70 cm**-1
  28:      1268.76 cm**-1
  29:      1315.11 cm**-1
  30:      1369.82 cm**-1
  31:      1380.38 cm**-1
  32:      1408.93 cm**-1
  33:      1415.91 cm**-1
  34:      1426.64 cm**-1
  35:      1432.33 cm**-1
  36:      1476.17 cm**-1
  37:      1482.32 cm**-1
  38:      1486.47 cm**-1
  39:      1493.66 cm**-1
  40:      1503.69 cm**-1
  41:      1642.22 cm**-1
  42:      2395.78 cm**-1
  43:      3059.54 cm**-1
  44:      3065.42 cm**-1
  45:      3093.07 cm**-1
  46:      3098.23 cm**-1
  47:      3131.52 cm**-1
  48:      3151.15 cm**-1
  49:      3153.61 cm**-1
  50:      3161.98 cm**-1
  51:      3163.82 cm**-1
  52:      3420.14 cm**-1
  53:      3475.83 cm**-1

IR SPECTRUM
-----------

 Mode    freq (cm**-1)   T**2         TX         TY         TZ
-------------------------------------------------------------------
   6:        70.21    1.936302  ( -1.075123   0.736151  -0.488360)
   7:        94.60    6.343766  ( -0.973510   2.299888  -0.326436)
   8:       153.26    6.449983  ( -1.925191  -1.341589   0.971474)
   9:       201.11    3.001105  ( -0.057605   0.733947  -1.568155)
  10:       217.34    2.532032  ( -0.812834  -0.467284  -1.285682)
  11:       251.92    0.469267  (  0.614021  -0.045891  -0.300231)
  12:       262.84    2.118485  ( -0.454452   0.465522   1.302017)
  13:       377.75    0.907652  ( -0.373672   0.762812  -0.431439)
  14:       382.72    6.278822  (  0.189306  -2.424013   0.605925)
  15:       555.46    2.793246  ( -0.611613   0.038222   1.554900)
  16:       592.81    3.018913  ( -0.440712  -0.619171   1.562470)
  17:       777.69    6.964686  (  2.299550  -0.389664  -1.234875)
  18:       805.57    2.562733  ( -0.875855   0.834643   1.048323)
  19:       868.76    0.519901  ( -0.072490   0.606423  -0.383272)
  20:       897.04    0.948379  (  0.555115  -0.324668  -0.731312)
  21:       944.08    4.274706  (  0.380597   1.130132  -1.688980)
  22:      1025.93   35.458741  (  0.044078  -5.496805   2.289528)
  23:      1040.55    7.863085  (  1.787419   2.081331  -0.579898)
  24:      1080.49   12.628728  ( -0.437544  -3.145042   1.595618)
  25:      1107.30   19.176540  (  0.646902   2.613349  -3.453761)
  26:      1171.95    9.536313  (  1.625538  -2.308336  -1.251209)
  27:      1183.70    9.609740  ( -1.542340   0.043991  -2.688679)
  28:      1268.76    3.256845  ( -0.142555  -1.451183   1.063293)
  29:      1315.11   11.286901  ( -0.159444   2.965955  -1.569902)
  30:      1369.82   12.334118  ( -2.251993   1.925616   1.885377)
  31:      1380.38   20.102135  ( -1.347187  -3.702027   2.140611)
  32:      1408.93   43.525751  ( -1.460572  -5.145067   3.862741)
  33:      1415.91   24.570040  (  0.313682   4.904203   0.648412)
  34:      1426.64    2.675475  (  1.145846  -0.356652   1.111446)
  35:      1432.33   25.136230  ( -0.488857   4.568917  -2.005553)
  36:      1476.17   10.509465  ( -2.137168   2.142781  -1.162097)
  37:      1482.32    4.607381  ( -1.190935  -1.729750   0.443866)
  38:      1486.47   26.538315  ( -4.306689   1.290820   2.514862)
  39:      1493.66    1.716229  ( -1.100889  -0.482514  -0.521011)
  40:      1503.69   11.033758  (  1.765900  -0.059422   2.812796)
  41:      1642.22   51.404962  (  3.861144   1.577722   5.831580)
  42:      2395.78    5.686015  (  0.766528  -0.258354  -2.243146)
  43:      3059.54    3.350030  (  0.835732   1.290342   0.993277)
  44:      3065.42    4.145514  (  0.194827  -1.089557   1.708924)
  45:      3093.07    1.901911  ( -1.211398   0.507062  -0.421086)
  46:      3098.23    1.236730  (  0.528344  -0.705633   0.677986)
  47:      3131.52    3.316479  (  1.304059  -0.449674  -1.188992)
  48:      3151.15    0.904062  ( -0.657255   0.406769   0.553730)
  49:      3153.61    0.980446  ( -0.245708   0.683425  -0.673057)
  50:      3161.98    0.648160  ( -0.784719   0.179720  -0.008772)
  51:      3163.82    1.609573  ( -0.184424   1.159619  -0.480463)
  52:      3420.14   39.337953  ( -4.037133  -1.153418  -4.659306)
  53:      3475.83   63.102239  (  6.057697  -2.476213  -4.502767)

--------------------------
THERMOCHEMISTRY AT 298.15K
--------------------------

Temperature         ... 298.15 K
Pressure            ... 1.00 atm
Total Mass          ... 99.16 AMU

Throughout the following assumptions are being made:
  (1) The electronic state is orbitally nondegenerate
  (2) There are no thermally accessible electronically excited states
  (3) Hindered rotations indicated by low frequency modes) are not
      treated as such but are treated as vibrations and this may
      case some error
  (4) All equations used are the standard statistical mechanics
      equations for an ideal gas
  (5) All vibrations are strinctly harmonic

------------
INNER ENERGY
------------

The inner energy is: U= E(el) + E(ZPE) + E(vib) + E(rot) + E(trans)
    E(el)   - is the total energy from the electronic structure calculation
              = E(kin-el) + E(nuc-el) + E(el-el) + E(nuc-nuc)
    E(ZPE)  - the the zero temperature vibrational energy from the frequency calculation
    E(vib)  - the the finite temperature correction to E(ZPE) due to population
              of excietd vibrational states
    E(rot)  - is the rotational thermal energy
    E(trans)- is the translational thermal energy

Summary of contributions to the inner energy U:
Electronic energy                ...   -306.12953093 Eh
Zero point energy                ...      0.16296991 Eh     102.26 kcal/mol
Thermal vibrational correction   ...      0.00580125 Eh       3.64 kcal/mol
Thermal rotational correction    ...      0.00141627 Eh       0.89 kcal/mol
Thermal translational correction ...      0.00141627 Eh       0.89 kcal/mol
-----------------------------------------------------------------------
Total thermal energy                   -305.95792722 Eh

Summary of corrections to the electronic energy:
(perhaps to be used in another calculation)
Total thermal correction                  0.00863380 Eh       5.42 kcal/mol
Non-thermal (ZPE) correction              0.16296991 Eh     102.26 kcal/mol
-----------------------------------------------------------------------
Total correction                          0.17160371 Eh     107.68 kcal/mol

--------
ENTHALPY
--------

The enthalpy is H = U + kB*T
                kB is Boltzmann's constant
Total free energy                 ...   -305.95792722 Eh
Thermal Enthalpy correction       ...      0.00094421 Eh       0.59 kcal/mol
-----------------------------------------------------------------------
Total Enthalpy                    ...   -305.95698301 Eh

-------
ENTROPY
-------

The entropy contributions are T*S = T*(S(el)+S(vib)+S(rot)+S(trans)
     S(el)   - electronic entropy
     S(vib)  - vibrational entropy
     S(rot)  - rotational entropy
     S(trans)- translational entropy
The entropies will be listed as mutliplied by the temperature to get
units of energy

Electronic entropy                ...      0.00000000 Eh      0.00 kcal/mol
Vibrational entropy               ...      0.01061281 Eh      6.66 kcal/mol
Rotational entropy                ...      0.01232550 Eh      7.73 kcal/mol
Translational entropy             ...      0.01885925 Eh     11.83 kcal/mol
-----------------------------------------------------------------------
Final entropy term                ...      0.04179757 Eh     26.23 kcal/mol

CAUTION: The rotational entropy is not quite correctly treated here
         because it includes a symmetry number that is not yet correctly
         implemented in ORCA!
For a nonlinear molecule the correct rotational entropy is:
    S(rot) = R*(ln(qrot/sn)+1.5)
    R    = 8.31441 J/mol/K = 1.987191683e-3 kcal/mol/K
    qrot = 312633.7410136
    sn is the rotational symmetry number. We have assumed 3 here
       if it is different for your molecule then you should correct
       the printed rotational entropy by manually evaluating the equation
       as given above

For convenience we print out the resulting values for sn=1 - 12:
 sn= 1  qrot/sn=  312633.7410 T*S(rot)=     8.39 kcal/mol T*S(tot)=    26.88 kcal/mol
 sn= 2  qrot/sn=  156316.8705 T*S(rot)=     7.97 kcal/mol T*S(tot)=    26.47 kcal/mol
 sn= 3  qrot/sn=  104211.2470 T*S(rot)=     7.73 kcal/mol T*S(tot)=    26.23 kcal/mol
 sn= 4  qrot/sn=   78158.4353 T*S(rot)=     7.56 kcal/mol T*S(tot)=    26.06 kcal/mol
 sn= 5  qrot/sn=   62526.7482 T*S(rot)=     7.43 kcal/mol T*S(tot)=    25.93 kcal/mol
 sn= 6  qrot/sn=   52105.6235 T*S(rot)=     7.32 kcal/mol T*S(tot)=    25.82 kcal/mol
 sn= 7  qrot/sn=   44661.9630 T*S(rot)=     7.23 kcal/mol T*S(tot)=    25.73 kcal/mol
 sn= 8  qrot/sn=   39079.2176 T*S(rot)=     7.15 kcal/mol T*S(tot)=    25.65 kcal/mol
 sn= 9  qrot/sn=   34737.0823 T*S(rot)=     7.08 kcal/mol T*S(tot)=    25.58 kcal/mol
 sn=10  qrot/sn=   31263.3741 T*S(rot)=     7.02 kcal/mol T*S(tot)=    25.51 kcal/mol
 sn=11  qrot/sn=   28421.2492 T*S(rot)=     6.96 kcal/mol T*S(tot)=    25.46 kcal/mol
 sn=12  qrot/sn=   26052.8118 T*S(rot)=     6.91 kcal/mol T*S(tot)=    25.41 kcal/mol

-------------------
GIBBS FREE ENTHALPY
-------------------

The Gibbs free enthalpy is G = H - T*S

Total enthalpy                    ...   -305.95698301 Eh
Total entropy correction          ...     -0.04179757 Eh    -26.23 kcal/mol
-----------------------------------------------------------------------
Final Gibbs free enthalpy         ...   -305.99878058 Eh

For completeness - the Gibbs free enthalpy minus the electronic energy
G-E(el)                           ...      0.13075035 Eh     82.05 kcal/mol

                             ****ORCA TERMINATED NORMALLY****
TOTAL RUN TIME: 0 days 0 hours 33 minutes 42 seconds 975 msec
