                         Program Version 3.0.3 - RELEASE   -
|  1> ! NORI PBE0 def2-TZVP UseSym TightOPT Freq TightSCF Grid3 FinalGrid5 XYZFile
|  2> % pal
|  3>     nprocs 8
|  4> end
|  5> %method
|  6>     SymThresh 5.0e-2
|  7> end
|  8> % geom
|  9>     MaxIter 10
| 10> end
| 11> % maxcore 2000
| 12> % output
| 13>     printlevel mini
| 14>     print[ P_Basis ] 0
| 15>     print[ P_SCFInfo ] 1
| 16>     print[ P_SCFIterInfo ] 1
| 17>     print[ P_OrbEn ] 0
| 18>     print[ P_Cartesian ] 0
| 19> end
| 20> % elprop
| 21>     Dipole false
| 22> end
| 23> *xyz 1 1
| 24>  C        0.9104384712     0.0928182297     0.0390045911
| 25>  C        2.4178774818     0.0775063406     0.0538170796
| 26>  N        2.9738065066     0.3927656376    -1.3092025204
| 27>  C        4.4656265267     0.4101086166    -1.3776471610
| 28>  C        4.9551438658     0.7134297931    -2.7888167233
| 29>  C        6.4085835809     0.7274318273    -2.8002653385
| 30>  N        7.5559356206     0.7288495557    -2.7656684953
| 31>  H        0.5461497381    -0.1389550457     1.0404917040
| 32>  H        0.4989769152    -0.6584545454    -0.6389314899
| 33>  H        0.5133753497     1.0742388811    -0.2318050099
| 34>  H        2.8324211809     0.8238738435     0.7325337586
| 35>  H        2.8203045565    -0.8984722216     0.3284843688
| 36>  H        2.6065419058    -0.2904321546    -1.9762940857
| 37>  H        2.6044435893     1.2984864864    -1.6089636724
| 38>  H        4.8119791385     1.1628002015    -0.6689839744
| 39>  H        4.8148306262    -0.5661227204    -1.0403274868
| 40>  H        4.6079440466    -0.0423960156    -3.5015493041
| 41>  H        4.5940008995     1.6878832900    -3.1346462405
| 42> *
| 43>
| 44>                          ****END OF INPUT****
 Total Charge           Charge          ....    1
 Multiplicity           Mult            ....    1
 Number of Electrons    NEL             ....   54
FINAL SINGLE POINT ENERGY      -306.132662772483

CARTESIAN COORDINATES (ANGSTROEM)
---------------------------------
  C     -0.982656   -0.020438    3.451523
  C     -1.274885   -0.017166    1.972338
  N     -0.000474    0.000318    1.171123
  C     -0.202148   -0.006882   -0.308820
  C      1.128224    0.031410   -1.051885
  C      0.879508    0.015479   -2.483892
  N      0.639370    0.001907   -3.606275
  H     -1.927141   -0.033228    3.996815
  H     -0.438382    0.873790    3.764247
  H     -0.419811   -0.906072    3.755912
  H     -1.821677   -0.906610    1.656581
  H     -1.841124    0.862450    1.663507
  H      0.541844    0.824888    1.440642
  H      0.566694   -0.805738    1.445376
  H     -0.765125   -0.907939   -0.553082
  H     -0.816435    0.859636   -0.554500
  H      1.694969    0.935893   -0.806203
  H      1.751818   -0.831995   -0.796238

FINAL SINGLE POINT ENERGY      -306.132663749923
                    ***********************HURRAY********************
 Multiplicity           Mult            ....    1
 Number of Electrons    NEL             ....   54
 Basis Dimension        Dim             ....  283
FINAL SINGLE POINT ENERGY      -306.132664876920

VIBRATIONAL FREQUENCIES
-----------------------

   0:         0.00 cm**-1
   1:         0.00 cm**-1
   2:         0.00 cm**-1
   3:         0.00 cm**-1
   4:         0.00 cm**-1
   5:         0.00 cm**-1
   6:        53.95 cm**-1
   7:        91.71 cm**-1
   8:        97.56 cm**-1
   9:       129.93 cm**-1
  10:       207.63 cm**-1
  11:       251.77 cm**-1
  12:       356.31 cm**-1
  13:       375.36 cm**-1
  14:       400.59 cm**-1
  15:       556.01 cm**-1
  16:       772.48 cm**-1
  17:       785.48 cm**-1
  18:       858.97 cm**-1
  19:       878.51 cm**-1
  20:       979.21 cm**-1
  21:      1009.89 cm**-1
  22:      1028.73 cm**-1
  23:      1044.16 cm**-1
  24:      1057.55 cm**-1
  25:      1143.41 cm**-1
  26:      1147.89 cm**-1
  27:      1247.89 cm**-1
  28:      1299.44 cm**-1
  29:      1307.86 cm**-1
  30:      1367.03 cm**-1
  31:      1367.33 cm**-1
  32:      1400.06 cm**-1
  33:      1419.94 cm**-1
  34:      1426.66 cm**-1
  35:      1435.63 cm**-1
  36:      1465.78 cm**-1
  37:      1481.63 cm**-1
  38:      1488.44 cm**-1
  39:      1493.88 cm**-1
  40:      1509.18 cm**-1
  41:      1654.59 cm**-1
  42:      2401.71 cm**-1
  43:      3052.33 cm**-1
  44:      3059.72 cm**-1
  45:      3097.41 cm**-1
  46:      3099.15 cm**-1
  47:      3108.83 cm**-1
  48:      3131.20 cm**-1
  49:      3153.46 cm**-1
  50:      3161.54 cm**-1
  51:      3168.65 cm**-1
  52:      3427.46 cm**-1
  53:      3478.06 cm**-1

IR SPECTRUM
-----------

 Mode    freq (cm**-1)   T**2         TX         TY         TZ
-------------------------------------------------------------------
   6:        53.95    8.058797  (  0.064708  -2.838055   0.007133)
   7:        91.71    0.873780  ( -0.112473   0.927970  -0.000710)
   8:        97.56   10.832144  (  3.279504   0.121818  -0.249319)
   9:       129.93    1.386705  ( -0.065120   1.175591   0.021213)
  10:       207.63    2.550166  (  0.071648   0.009149  -1.595290)
  11:       251.77    0.670835  (  0.015049  -0.818834  -0.010932)
  12:       356.31    1.782253  ( -0.242354  -0.002934   1.312825)
  13:       375.36    0.098318  ( -0.011407   0.313122   0.011932)
  14:       400.59    7.454904  (  0.846024   0.023047  -2.595884)
  15:       556.01    4.499751  ( -0.536682  -0.010394   2.052222)
  16:       772.48   13.059927  ( -0.081765   3.612924   0.004552)
  17:       785.48    4.088203  ( -0.025143   2.021751   0.009684)
  18:       858.97    0.190196  (  0.006798  -0.436062   0.000536)
  19:       878.51    0.327200  ( -0.336531  -0.022837   0.461980)
  20:       979.21    0.474286  ( -0.525114  -0.002544  -0.445572)
  21:      1009.89   43.244766  (  2.910079   0.066754  -5.896758)
  22:      1028.73    0.038228  (  0.065687  -0.163421  -0.084894)
  23:      1044.16   10.147445  (  2.638705   0.051232  -1.783833)
  24:      1057.55    1.779747  ( -0.803352  -0.010290  -1.065020)
  25:      1143.41   12.175736  ( -2.691567  -0.004022   2.220628)
  26:      1147.89    0.994293  ( -0.099878  -0.987743   0.093174)
  27:      1247.89    0.358292  ( -0.015325   0.598346  -0.006242)
  28:      1299.44    9.741441  (  1.419380   0.030803  -2.779542)
  29:      1307.86    0.051133  ( -0.009114  -0.220809   0.047884)
  30:      1367.03    9.173131  (  0.005418  -2.909516   0.841319)
  31:      1367.33    8.118276  (  0.193618  -0.896667  -2.697550)
  32:      1400.06    1.184178  ( -0.018960  -1.087960   0.012685)
  33:      1419.94    2.418738  (  0.403374  -0.000756   1.502008)
  34:      1426.66   94.180989  (  3.361190   0.051440  -9.103886)
  35:      1435.63   20.323346  (  2.325340   0.018141  -3.862099)
  36:      1465.78    5.146551  (  1.918903   0.051290   1.209021)
  37:      1481.63    6.844015  (  2.138193   0.043475  -1.506737)
  38:      1488.44   16.624718  (  0.057935  -4.076916  -0.010938)
  39:      1493.88    2.256296  ( -1.101408  -0.054845   1.019896)
  40:      1509.18   22.811935  ( -4.260651  -0.087238  -2.156660)
  41:      1654.59   41.811272  ( -5.819675  -0.110198  -2.816117)
  42:      2401.71    0.000117  (  0.002829  -0.001388  -0.010346)
  43:      3052.33    3.883595  (  0.187810   0.000338  -1.961714)
  44:      3059.72    3.405288  (  1.842740   0.048613  -0.085046)
  45:      3097.41    0.098497  (  0.012019  -0.312119   0.030572)
  46:      3099.15    2.596293  ( -0.498299  -0.005586  -1.532305)
  47:      3108.83    0.218275  ( -0.280111   0.004109   0.373894)
  48:      3131.20    2.643476  ( -0.034379   1.625114   0.036025)
  49:      3153.46    0.953402  ( -0.116710  -0.008135  -0.969389)
  50:      3161.54    1.538036  (  0.033562  -1.239028   0.041457)
  51:      3168.65    0.187951  ( -0.017911   0.433077   0.008617)
  52:      3427.46   33.815354  ( -5.006530  -0.108309  -2.956059)
  53:      3478.06   59.957577  (  0.146871  -7.741712   0.043639)

--------------------------
THERMOCHEMISTRY AT 298.15K
--------------------------

Temperature         ... 298.15 K
Pressure            ... 1.00 atm
Total Mass          ... 99.16 AMU

Throughout the following assumptions are being made:
  (1) The electronic state is orbitally nondegenerate
  (2) There are no thermally accessible electronically excited states
  (3) Hindered rotations indicated by low frequency modes) are not
      treated as such but are treated as vibrations and this may
      case some error
  (4) All equations used are the standard statistical mechanics
      equations for an ideal gas
  (5) All vibrations are strinctly harmonic

------------
INNER ENERGY
------------

The inner energy is: U= E(el) + E(ZPE) + E(vib) + E(rot) + E(trans)
    E(el)   - is the total energy from the electronic structure calculation
              = E(kin-el) + E(nuc-el) + E(el-el) + E(nuc-nuc)
    E(ZPE)  - the the zero temperature vibrational energy from the frequency calculation
    E(vib)  - the the finite temperature correction to E(ZPE) due to population
              of excietd vibrational states
    E(rot)  - is the rotational thermal energy
    E(trans)- is the translational thermal energy

Summary of contributions to the inner energy U:
Electronic energy                ...   -306.13266488 Eh
Zero point energy                ...      0.16387304 Eh     102.83 kcal/mol
Thermal vibrational correction   ...      0.00582197 Eh       3.65 kcal/mol
Thermal rotational correction    ...      0.00141627 Eh       0.89 kcal/mol
Thermal translational correction ...      0.00141627 Eh       0.89 kcal/mol
-----------------------------------------------------------------------
Total thermal energy                   -305.96013732 Eh

Summary of corrections to the electronic energy:
(perhaps to be used in another calculation)
Total thermal correction                  0.00865451 Eh       5.43 kcal/mol
Non-thermal (ZPE) correction              0.16387304 Eh     102.83 kcal/mol
-----------------------------------------------------------------------
Total correction                          0.17252756 Eh     108.26 kcal/mol

--------
ENTHALPY
--------

The enthalpy is H = U + kB*T
                kB is Boltzmann's constant
Total free energy                 ...   -305.96013732 Eh
Thermal Enthalpy correction       ...      0.00094421 Eh       0.59 kcal/mol
-----------------------------------------------------------------------
Total Enthalpy                    ...   -305.95919311 Eh

-------
ENTROPY
-------

The entropy contributions are T*S = T*(S(el)+S(vib)+S(rot)+S(trans)
     S(el)   - electronic entropy
     S(vib)  - vibrational entropy
     S(rot)  - rotational entropy
     S(trans)- translational entropy
The entropies will be listed as mutliplied by the temperature to get
units of energy

Electronic entropy                ...      0.00000000 Eh      0.00 kcal/mol
Vibrational entropy               ...      0.01129485 Eh      7.09 kcal/mol
Rotational entropy                ...      0.01223212 Eh      7.68 kcal/mol
Translational entropy             ...      0.01885925 Eh     11.83 kcal/mol
-----------------------------------------------------------------------
Final entropy term                ...      0.04238622 Eh     26.60 kcal/mol

CAUTION: The rotational entropy is not quite correctly treated here
         because it includes a symmetry number that is not yet correctly
         implemented in ORCA!
For a nonlinear molecule the correct rotational entropy is:
    S(rot) = R*(ln(qrot/sn)+1.5)
    R    = 8.31441 J/mol/K = 1.987191683e-3 kcal/mol/K
    qrot = 283192.6463510
    sn is the rotational symmetry number. We have assumed 3 here
       if it is different for your molecule then you should correct
       the printed rotational entropy by manually evaluating the equation
       as given above

For convenience we print out the resulting values for sn=1 - 12:
 sn= 1  qrot/sn=  283192.6464 T*S(rot)=     8.33 kcal/mol T*S(tot)=    27.25 kcal/mol
 sn= 2  qrot/sn=  141596.3232 T*S(rot)=     7.92 kcal/mol T*S(tot)=    26.84 kcal/mol
 sn= 3  qrot/sn=   94397.5488 T*S(rot)=     7.68 kcal/mol T*S(tot)=    26.60 kcal/mol
 sn= 4  qrot/sn=   70798.1616 T*S(rot)=     7.51 kcal/mol T*S(tot)=    26.43 kcal/mol
 sn= 5  qrot/sn=   56638.5293 T*S(rot)=     7.37 kcal/mol T*S(tot)=    26.30 kcal/mol
 sn= 6  qrot/sn=   47198.7744 T*S(rot)=     7.27 kcal/mol T*S(tot)=    26.19 kcal/mol
 sn= 7  qrot/sn=   40456.0923 T*S(rot)=     7.17 kcal/mol T*S(tot)=    26.10 kcal/mol
 sn= 8  qrot/sn=   35399.0808 T*S(rot)=     7.09 kcal/mol T*S(tot)=    26.02 kcal/mol
 sn= 9  qrot/sn=   31465.8496 T*S(rot)=     7.02 kcal/mol T*S(tot)=    25.95 kcal/mol
 sn=10  qrot/sn=   28319.2646 T*S(rot)=     6.96 kcal/mol T*S(tot)=    25.88 kcal/mol
 sn=11  qrot/sn=   25744.7860 T*S(rot)=     6.91 kcal/mol T*S(tot)=    25.83 kcal/mol
 sn=12  qrot/sn=   23599.3872 T*S(rot)=     6.85 kcal/mol T*S(tot)=    25.78 kcal/mol

-------------------
GIBBS FREE ENTHALPY
-------------------

The Gibbs free enthalpy is G = H - T*S

Total enthalpy                    ...   -305.95919311 Eh
Total entropy correction          ...     -0.04238622 Eh    -26.60 kcal/mol
-----------------------------------------------------------------------
Final Gibbs free enthalpy         ...   -306.00157933 Eh

For completeness - the Gibbs free enthalpy minus the electronic energy
G-E(el)                           ...      0.13108554 Eh     82.26 kcal/mol

                             ****ORCA TERMINATED NORMALLY****
TOTAL RUN TIME: 0 days 0 hours 31 minutes 41 seconds 444 msec
