                         Program Version 3.0.3 - RELEASE   -
|  1> ! NORI PBE0 def2-TZVP UseSym TightOPT Freq TightSCF Grid3 FinalGrid5 XYZFile
|  2> % pal
|  3>     nprocs 8
|  4> end
|  5> %method
|  6>     SymThresh 5.0e-2
|  7> end
|  8> % geom
|  9>     MaxIter 10
| 10> end
| 11> % maxcore 2000
| 12> % output
| 13>     printlevel mini
| 14>     print[ P_Basis ] 0
| 15>     print[ P_SCFInfo ] 1
| 16>     print[ P_SCFIterInfo ] 1
| 17>     print[ P_OrbEn ] 0
| 18>     print[ P_Cartesian ] 0
| 19> end
| 20> % elprop
| 21>     Dipole false
| 22> end
| 23> *xyz 1 1
| 24>  C        1.2469147428     0.0547912772    -0.2603880923
| 25>  C        2.5033699052     0.6016953945    -0.1905162977
| 26>  N        3.2646929538     0.1566574176     0.8043387610
| 27>  C        4.5550515563     0.6074757105     0.9339956474
| 28>  N        5.2854199041    -0.4092561896     0.6527237413
| 29>  C        5.0197875395     1.9542755010     1.1433248599
| 30>  C        4.2154679308     2.9344811608     1.5543749106
| 31>  H        0.4985172426     0.4428665597    -0.9440942813
| 32>  H        0.9790462304    -0.7580479308     0.4073918389
| 33>  H        2.8335162843     1.3893287988    -0.8662640231
| 34>  H        4.8665742162    -1.3337763494     0.7794910208
| 35>  H        6.0856676924     2.0973940935     1.0009207653
| 36>  H        3.1582487723     2.7807838757     1.7444160326
| 37>  H        4.6031950292     3.9285106805     1.7403451166
| 38> *
| 39>
| 40>                          ****END OF INPUT****
 Total Charge           Charge          ....    1
 Multiplicity           Mult            ....    1
 Number of Electrons    NEL             ....   50
FINAL SINGLE POINT ENERGY      -303.579066474392
FINAL SINGLE POINT ENERGY      -303.579067347701

CARTESIAN COORDINATES (ANGSTROEM)
---------------------------------
  C     -1.597911   -1.288169    1.826821
  C     -0.862452   -1.005471    0.703460
  N     -0.000389   -0.000731    0.824318
  C      0.813398    0.334996   -0.229304
  N      1.992691   -0.001352    0.148642
  C      0.440382    0.783383   -1.545796
  C     -0.781483    1.232881   -1.831226
  H     -2.423487   -1.992219    1.799587
  H     -1.378264   -0.769642    2.754754
  H     -1.016537   -1.527362   -0.239597
  H      2.162513   -0.054848    1.155800
  H      1.245658    0.786300   -2.272545
  H     -1.574711    1.276423   -1.092506
  H     -1.019530    1.599972   -2.822019

FINAL SINGLE POINT ENERGY      -303.579067643508
                    ***********************HURRAY********************
 Multiplicity           Mult            ....    1
 Number of Electrons    NEL             ....   50
 Basis Dimension        Dim             ....  259
FINAL SINGLE POINT ENERGY      -303.579067793009

VIBRATIONAL FREQUENCIES
-----------------------

   0:         0.00 cm**-1
   1:         0.00 cm**-1
   2:         0.00 cm**-1
   3:         0.00 cm**-1
   4:         0.00 cm**-1
   5:         0.00 cm**-1
   6:       107.01 cm**-1
   7:       138.79 cm**-1
   8:       145.87 cm**-1
   9:       209.16 cm**-1
  10:       261.39 cm**-1
  11:       368.71 cm**-1
  12:       445.79 cm**-1
  13:       507.17 cm**-1
  14:       550.83 cm**-1
  15:       629.17 cm**-1
  16:       760.20 cm**-1
  17:       802.52 cm**-1
  18:       834.09 cm**-1
  19:       972.93 cm**-1
  20:       995.40 cm**-1
  21:      1018.84 cm**-1
  22:      1021.65 cm**-1
  23:      1044.70 cm**-1
  24:      1074.74 cm**-1
  25:      1103.64 cm**-1
  26:      1271.12 cm**-1
  27:      1300.27 cm**-1
  28:      1308.14 cm**-1
  29:      1406.89 cm**-1
  30:      1442.95 cm**-1
  31:      1454.80 cm**-1
  32:      1554.24 cm**-1
  33:      1653.10 cm**-1
  34:      1704.03 cm**-1
  35:      3158.42 cm**-1
  36:      3166.44 cm**-1
  37:      3169.95 cm**-1
  38:      3207.36 cm**-1
  39:      3265.79 cm**-1
  40:      3276.40 cm**-1
  41:      3481.74 cm**-1

IR SPECTRUM
-----------

 Mode    freq (cm**-1)   T**2         TX         TY         TZ
-------------------------------------------------------------------
   6:       107.01    4.782033  ( -2.172368  -0.067964   0.241308)
   7:       138.79    0.501381  (  0.665593  -0.167062  -0.174522)
   8:       145.87    0.162215  ( -0.011870  -0.401934   0.022874)
   9:       209.16   16.063523  (  2.678604   0.390629  -2.955675)
  10:       261.39    0.869403  ( -0.085599  -0.883686  -0.284912)
  11:       368.71  132.800673  (  4.813664   7.675407  -7.121618)
  12:       445.79  104.646494  ( -3.757392  -7.984773   5.174156)
  13:       507.17    6.872592  (  1.580030  -0.283661  -2.072591)
  14:       550.83    6.903888  ( -1.255931   2.062208  -1.036254)
  15:       629.17  156.196142  ( -6.052895  -9.129960   6.016846)
  16:       760.20  164.025529  (  5.766336  10.462385  -4.616644)
  17:       802.52    3.755424  ( -0.531292  -0.715452  -1.720837)
  18:       834.09   39.718570  (  3.882601   4.564003  -1.952911)
  19:       972.93   94.908977  (  9.302051  -1.418905   2.523397)
  20:       995.40   34.564681  ( -3.035272  -4.488095   2.282280)
  21:      1018.84  211.947547  (-14.015317   2.625283   2.937059)
  22:      1021.65   75.123319  (  7.356231   4.580605   0.165026)
  23:      1044.70   15.609710  (  1.803886   3.360817   1.029862)
  24:      1074.74    1.256816  (  0.464636  -0.448237  -0.916522)
  25:      1103.64    8.390817  ( -1.841319   2.202636  -0.385687)
  26:      1271.12  115.648082  ( -6.915949  -2.032399   7.980419)
  27:      1300.27   18.221716  ( -1.231218  -2.423548   3.291236)
  28:      1308.14    4.159594  ( -1.864384  -0.085892   0.822367)
  29:      1406.89   41.956048  (  4.691745   2.342514  -3.802131)
  30:      1442.95   38.329223  ( -5.931400  -0.616745   1.663535)
  31:      1454.80  109.154808  (  3.665810   5.646145  -7.989850)
  32:      1554.24  130.984328  ( -5.879867  -7.460377   6.383907)
  33:      1653.10   42.405668  ( -4.275558   2.155730  -4.413400)
  34:      1704.03  173.405867  (  3.051359  -5.795029  11.424216)
  35:      3158.42   13.202050  ( -2.041308  -0.923723   2.860393)
  36:      3166.44    5.898920  ( -1.356576  -0.528101   1.944153)
  37:      3169.95    2.455246  (  0.376800  -0.689162   1.355848)
  38:      3207.36    6.734785  (  1.953965  -0.012163  -1.707822)
  39:      3265.79    3.253338  (  0.187029  -0.608982   1.687453)
  40:      3276.40   15.462374  ( -2.281129  -2.588928  -1.885810)
  41:      3481.74  141.146739  (-10.076558  -0.284659  -6.287184)

--------------------------
THERMOCHEMISTRY AT 298.15K
--------------------------

Temperature         ... 298.15 K
Pressure            ... 1.00 atm
Total Mass          ... 95.12 AMU

Throughout the following assumptions are being made:
  (1) The electronic state is orbitally nondegenerate
  (2) There are no thermally accessible electronically excited states
  (3) Hindered rotations indicated by low frequency modes) are not
      treated as such but are treated as vibrations and this may
      case some error
  (4) All equations used are the standard statistical mechanics
      equations for an ideal gas
  (5) All vibrations are strinctly harmonic

------------
INNER ENERGY
------------

The inner energy is: U= E(el) + E(ZPE) + E(vib) + E(rot) + E(trans)
    E(el)   - is the total energy from the electronic structure calculation
              = E(kin-el) + E(nuc-el) + E(el-el) + E(nuc-nuc)
    E(ZPE)  - the the zero temperature vibrational energy from the frequency calculation
    E(vib)  - the the finite temperature correction to E(ZPE) due to population
              of excietd vibrational states
    E(rot)  - is the rotational thermal energy
    E(trans)- is the translational thermal energy

Summary of contributions to the inner energy U:
Electronic energy                ...   -303.57906779 Eh
Zero point energy                ...      0.11120697 Eh      69.78 kcal/mol
Thermal vibrational correction   ...      0.00474309 Eh       2.98 kcal/mol
Thermal rotational correction    ...      0.00141627 Eh       0.89 kcal/mol
Thermal translational correction ...      0.00141627 Eh       0.89 kcal/mol
-----------------------------------------------------------------------
Total thermal energy                   -303.46028519 Eh

Summary of corrections to the electronic energy:
(perhaps to be used in another calculation)
Total thermal correction                  0.00757563 Eh       4.75 kcal/mol
Non-thermal (ZPE) correction              0.11120697 Eh      69.78 kcal/mol
-----------------------------------------------------------------------
Total correction                          0.11878260 Eh      74.54 kcal/mol

--------
ENTHALPY
--------

The enthalpy is H = U + kB*T
                kB is Boltzmann's constant
Total free energy                 ...   -303.46028519 Eh
Thermal Enthalpy correction       ...      0.00094421 Eh       0.59 kcal/mol
-----------------------------------------------------------------------
Total Enthalpy                    ...   -303.45934098 Eh

-------
ENTROPY
-------

The entropy contributions are T*S = T*(S(el)+S(vib)+S(rot)+S(trans)
     S(el)   - electronic entropy
     S(vib)  - vibrational entropy
     S(rot)  - rotational entropy
     S(trans)- translational entropy
The entropies will be listed as mutliplied by the temperature to get
units of energy

Electronic entropy                ...      0.00000000 Eh      0.00 kcal/mol
Vibrational entropy               ...      0.00827309 Eh      5.19 kcal/mol
Rotational entropy                ...      0.01208486 Eh      7.58 kcal/mol
Translational entropy             ...      0.01880046 Eh     11.80 kcal/mol
-----------------------------------------------------------------------
Final entropy term                ...      0.03915841 Eh     24.57 kcal/mol

CAUTION: The rotational entropy is not quite correctly treated here
         because it includes a symmetry number that is not yet correctly
         implemented in ORCA!
For a nonlinear molecule the correct rotational entropy is:
    S(rot) = R*(ln(qrot/sn)+1.5)
    R    = 8.31441 J/mol/K = 1.987191683e-3 kcal/mol/K
    qrot = 242296.5666229
    sn is the rotational symmetry number. We have assumed 3 here
       if it is different for your molecule then you should correct
       the printed rotational entropy by manually evaluating the equation
       as given above

For convenience we print out the resulting values for sn=1 - 12:
 sn= 1  qrot/sn=  242296.5666 T*S(rot)=     8.23 kcal/mol T*S(tot)=    25.22 kcal/mol
 sn= 2  qrot/sn=  121148.2833 T*S(rot)=     7.82 kcal/mol T*S(tot)=    24.81 kcal/mol
 sn= 3  qrot/sn=   80765.5222 T*S(rot)=     7.58 kcal/mol T*S(tot)=    24.57 kcal/mol
 sn= 4  qrot/sn=   60574.1417 T*S(rot)=     7.41 kcal/mol T*S(tot)=    24.40 kcal/mol
 sn= 5  qrot/sn=   48459.3133 T*S(rot)=     7.28 kcal/mol T*S(tot)=    24.27 kcal/mol
 sn= 6  qrot/sn=   40382.7611 T*S(rot)=     7.17 kcal/mol T*S(tot)=    24.16 kcal/mol
 sn= 7  qrot/sn=   34613.7952 T*S(rot)=     7.08 kcal/mol T*S(tot)=    24.07 kcal/mol
 sn= 8  qrot/sn=   30287.0708 T*S(rot)=     7.00 kcal/mol T*S(tot)=    23.99 kcal/mol
 sn= 9  qrot/sn=   26921.8407 T*S(rot)=     6.93 kcal/mol T*S(tot)=    23.92 kcal/mol
 sn=10  qrot/sn=   24229.6567 T*S(rot)=     6.87 kcal/mol T*S(tot)=    23.86 kcal/mol
 sn=11  qrot/sn=   22026.9606 T*S(rot)=     6.81 kcal/mol T*S(tot)=    23.80 kcal/mol
 sn=12  qrot/sn=   20191.3806 T*S(rot)=     6.76 kcal/mol T*S(tot)=    23.75 kcal/mol

-------------------
GIBBS FREE ENTHALPY
-------------------

The Gibbs free enthalpy is G = H - T*S

Total enthalpy                    ...   -303.45934098 Eh
Total entropy correction          ...     -0.03915841 Eh    -24.57 kcal/mol
-----------------------------------------------------------------------
Final Gibbs free enthalpy         ...   -303.49849939 Eh

For completeness - the Gibbs free enthalpy minus the electronic energy
G-E(el)                           ...      0.08056840 Eh     50.56 kcal/mol

                             ****ORCA TERMINATED NORMALLY****
TOTAL RUN TIME: 0 days 0 hours 29 minutes 36 seconds 763 msec
