                         Program Version 3.0.3 - RELEASE   -
|  1> ! NORI PBE0 def2-TZVP UseSym TightOPT Freq TightSCF Grid3 FinalGrid5 XYZFile
|  2> % pal
|  3>     nprocs 8
|  4> end
|  5> %method
|  6>     SymThresh 5.0e-2
|  7> end
|  8> % geom
|  9>     MaxIter 10
| 10> end
| 11> % maxcore 2000
| 12> % output
| 13>     printlevel mini
| 14>     print[ P_Basis ] 0
| 15>     print[ P_SCFInfo ] 1
| 16>     print[ P_SCFIterInfo ] 1
| 17>     print[ P_OrbEn ] 0
| 18>     print[ P_Cartesian ] 0
| 19> end
| 20> % elprop
| 21>     Dipole false
| 22> end
| 23> *xyz 1 1
| 24>  C        1.1650065117    -0.1995959443    -0.0166303216
| 25>  C        2.5430865300    -0.4215492372    -0.0830090074
| 26>  N        3.2236027994     0.6210355669    -0.4770729705
| 27>  C        4.6165771830     0.5334112583    -0.5393439625
| 28>  N        5.2003394611    -0.2557707827     0.2718340723
| 29>  C        5.2341569030     1.4431982200    -1.4624631268
| 30>  N        5.7595617190     2.1346344544    -2.2163736369
| 31>  H        0.4711580158    -0.9867977642     0.2708273594
| 32>  H        0.7793384804     0.7853529154    -0.2700800582
| 33>  H        3.0006111236    -1.3808122337     0.1561289633
| 34>  H        6.2176812731    -0.1457164529     0.2868526889
| 35> *
| 36>
| 37>                          ****END OF INPUT****
 Total Charge           Charge          ....    1
 Multiplicity           Mult            ....    1
 Number of Electrons    NEL             ....   48
FINAL SINGLE POINT ENERGY      -318.379582473819
FINAL SINGLE POINT ENERGY      -318.379583016890
FINAL SINGLE POINT ENERGY      -318.379583641455

CARTESIAN COORDINATES (ANGSTROEM)
---------------------------------
  C      0.576570   -0.913941    2.740539
  C      0.779312   -0.854345    1.359194
  N     -0.003861   -0.004846    0.750622
  C      0.141068    0.179779   -0.626677
  N      1.294062   -0.003039   -1.135518
  C     -1.034590    0.663383   -1.293779
  N     -1.966322    1.018353   -1.866698
  H      1.145764   -1.590405    3.374374
  H     -0.177222   -0.270364    3.188670
  H      1.513856   -1.470005    0.841323
  H      1.363598    0.306689   -2.108233

FINAL SINGLE POINT ENERGY      -318.379583748925
                    ***********************HURRAY********************
 Multiplicity           Mult            ....    1
 Number of Electrons    NEL             ....   48
 Basis Dimension        Dim             ....  241
FINAL SINGLE POINT ENERGY      -318.379583803567

VIBRATIONAL FREQUENCIES
-----------------------

   0:         0.00 cm**-1
   1:         0.00 cm**-1
   2:         0.00 cm**-1
   3:         0.00 cm**-1
   4:         0.00 cm**-1
   5:         0.00 cm**-1
   6:       101.98 cm**-1
   7:       121.46 cm**-1
   8:       153.52 cm**-1
   9:       249.54 cm**-1
  10:       284.56 cm**-1
  11:       393.62 cm**-1
  12:       452.68 cm**-1
  13:       553.69 cm**-1
  14:       607.88 cm**-1
  15:       687.14 cm**-1
  16:       836.22 cm**-1
  17:       918.88 cm**-1
  18:      1001.86 cm**-1
  19:      1021.68 cm**-1
  20:      1086.17 cm**-1
  21:      1162.26 cm**-1
  22:      1256.93 cm**-1
  23:      1294.46 cm**-1
  24:      1383.79 cm**-1
  25:      1505.60 cm**-1
  26:      1538.75 cm**-1
  27:      1624.67 cm**-1
  28:      2380.47 cm**-1
  29:      3143.93 cm**-1
  30:      3165.74 cm**-1
  31:      3262.89 cm**-1
  32:      3478.76 cm**-1

IR SPECTRUM
-----------

 Mode    freq (cm**-1)   T**2         TX         TY         TZ
-------------------------------------------------------------------
   6:       101.98    7.337434  (  2.464606   0.616815   0.939517)
   7:       121.46    0.911824  ( -0.110863   0.220828   0.922371)
   8:       153.52    2.603334  ( -0.585394  -1.407888   0.527730)
   9:       249.54   11.662531  ( -2.799445  -0.927411   1.722076)
  10:       284.56   12.859010  ( -0.138289  -2.392228  -2.667795)
  11:       393.62   42.578816  ( -1.715229  -4.412065   4.491157)
  12:       452.68   10.763405  ( -1.812735  -0.960295  -2.560319)
  13:       553.69    2.901105  (  0.506587   1.380708   0.859139)
  14:       607.88    5.917079  ( -1.168984  -1.335840   1.663156)
  15:       687.14   12.623280  ( -3.136030  -0.309698  -1.640940)
  16:       836.22   80.046920  ( -0.433477   7.633298  -4.646696)
  17:       918.88   39.150666  ( -2.510612  -5.644190   0.995297)
  18:      1001.86    8.218882  (  2.583106  -0.989982  -0.752584)
  19:      1021.68   24.446375  (  2.665742   4.163562  -0.070347)
  20:      1086.17   26.941758  (  4.288810  -1.704557  -2.375363)
  21:      1162.26   11.315058  (  2.284657   2.321134  -0.841272)
  22:      1256.93  159.881826  (  0.702306   2.333009 -12.407484)
  23:      1294.46   54.014656  (  7.231067  -0.878156  -0.977325)
  24:      1383.79   89.216424  (  7.435785  -3.583234   4.591945)
  25:      1505.60   56.239215  ( -3.154120   0.452948   6.788636)
  26:      1538.75  426.809083  ( -3.616333   6.798012 -19.170765)
  27:      1624.67   35.370628  (  5.162762  -2.038276   2.135873)
  28:      2380.47   83.138833  ( -6.683937   3.147675  -5.343778)
  29:      3143.93   26.002079  ( -0.889341  -0.222125   5.016155)
  30:      3165.74    2.750060  ( -1.255419   0.790777   0.740713)
  31:      3262.89   27.431990  (  3.732019  -3.671735   0.149615)
  32:      3478.76  136.528331  (  4.557432   2.317786 -10.506475)

--------------------------
THERMOCHEMISTRY AT 298.15K
--------------------------

Temperature         ... 298.15 K
Pressure            ... 1.00 atm
Total Mass          ... 94.10 AMU

Throughout the following assumptions are being made:
  (1) The electronic state is orbitally nondegenerate
  (2) There are no thermally accessible electronically excited states
  (3) Hindered rotations indicated by low frequency modes) are not
      treated as such but are treated as vibrations and this may
      case some error
  (4) All equations used are the standard statistical mechanics
      equations for an ideal gas
  (5) All vibrations are strinctly harmonic

------------
INNER ENERGY
------------

The inner energy is: U= E(el) + E(ZPE) + E(vib) + E(rot) + E(trans)
    E(el)   - is the total energy from the electronic structure calculation
              = E(kin-el) + E(nuc-el) + E(el-el) + E(nuc-nuc)
    E(ZPE)  - the the zero temperature vibrational energy from the frequency calculation
    E(vib)  - the the finite temperature correction to E(ZPE) due to population
              of excietd vibrational states
    E(rot)  - is the rotational thermal energy
    E(trans)- is the translational thermal energy

Summary of contributions to the inner energy U:
Electronic energy                ...   -318.37958380 Eh
Zero point energy                ...      0.07670390 Eh      48.13 kcal/mol
Thermal vibrational correction   ...      0.00430750 Eh       2.70 kcal/mol
Thermal rotational correction    ...      0.00141627 Eh       0.89 kcal/mol
Thermal translational correction ...      0.00141627 Eh       0.89 kcal/mol
-----------------------------------------------------------------------
Total thermal energy                   -318.29573986 Eh

Summary of corrections to the electronic energy:
(perhaps to be used in another calculation)
Total thermal correction                  0.00714004 Eh       4.48 kcal/mol
Non-thermal (ZPE) correction              0.07670390 Eh      48.13 kcal/mol
-----------------------------------------------------------------------
Total correction                          0.08384394 Eh      52.61 kcal/mol

--------
ENTHALPY
--------

The enthalpy is H = U + kB*T
                kB is Boltzmann's constant
Total free energy                 ...   -318.29573986 Eh
Thermal Enthalpy correction       ...      0.00094421 Eh       0.59 kcal/mol
-----------------------------------------------------------------------
Total Enthalpy                    ...   -318.29479565 Eh

-------
ENTROPY
-------

The entropy contributions are T*S = T*(S(el)+S(vib)+S(rot)+S(trans)
     S(el)   - electronic entropy
     S(vib)  - vibrational entropy
     S(rot)  - rotational entropy
     S(trans)- translational entropy
The entropies will be listed as mutliplied by the temperature to get
units of energy

Electronic entropy                ...      0.00000000 Eh      0.00 kcal/mol
Vibrational entropy               ...      0.00766901 Eh      4.81 kcal/mol
Rotational entropy                ...      0.01203907 Eh      7.55 kcal/mol
Translational entropy             ...      0.01878507 Eh     11.79 kcal/mol
-----------------------------------------------------------------------
Final entropy term                ...      0.03849315 Eh     24.15 kcal/mol

CAUTION: The rotational entropy is not quite correctly treated here
         because it includes a symmetry number that is not yet correctly
         implemented in ORCA!
For a nonlinear molecule the correct rotational entropy is:
    S(rot) = R*(ln(qrot/sn)+1.5)
    R    = 8.31441 J/mol/K = 1.987191683e-3 kcal/mol/K
    qrot = 230826.8367133
    sn is the rotational symmetry number. We have assumed 3 here
       if it is different for your molecule then you should correct
       the printed rotational entropy by manually evaluating the equation
       as given above

For convenience we print out the resulting values for sn=1 - 12:
 sn= 1  qrot/sn=  230826.8367 T*S(rot)=     8.21 kcal/mol T*S(tot)=    24.81 kcal/mol
 sn= 2  qrot/sn=  115413.4184 T*S(rot)=     7.79 kcal/mol T*S(tot)=    24.39 kcal/mol
 sn= 3  qrot/sn=   76942.2789 T*S(rot)=     7.55 kcal/mol T*S(tot)=    24.15 kcal/mol
 sn= 4  qrot/sn=   57706.7092 T*S(rot)=     7.38 kcal/mol T*S(tot)=    23.98 kcal/mol
 sn= 5  qrot/sn=   46165.3673 T*S(rot)=     7.25 kcal/mol T*S(tot)=    23.85 kcal/mol
 sn= 6  qrot/sn=   38471.1395 T*S(rot)=     7.14 kcal/mol T*S(tot)=    23.74 kcal/mol
 sn= 7  qrot/sn=   32975.2624 T*S(rot)=     7.05 kcal/mol T*S(tot)=    23.65 kcal/mol
 sn= 8  qrot/sn=   28853.3546 T*S(rot)=     6.97 kcal/mol T*S(tot)=    23.57 kcal/mol
 sn= 9  qrot/sn=   25647.4263 T*S(rot)=     6.90 kcal/mol T*S(tot)=    23.50 kcal/mol
 sn=10  qrot/sn=   23082.6837 T*S(rot)=     6.84 kcal/mol T*S(tot)=    23.44 kcal/mol
 sn=11  qrot/sn=   20984.2579 T*S(rot)=     6.78 kcal/mol T*S(tot)=    23.38 kcal/mol
 sn=12  qrot/sn=   19235.5697 T*S(rot)=     6.73 kcal/mol T*S(tot)=    23.33 kcal/mol

-------------------
GIBBS FREE ENTHALPY
-------------------

The Gibbs free enthalpy is G = H - T*S

Total enthalpy                    ...   -318.29479565 Eh
Total entropy correction          ...     -0.03849315 Eh    -24.15 kcal/mol
-----------------------------------------------------------------------
Final Gibbs free enthalpy         ...   -318.33328881 Eh

For completeness - the Gibbs free enthalpy minus the electronic energy
G-E(el)                           ...      0.04629500 Eh     29.05 kcal/mol

                             ****ORCA TERMINATED NORMALLY****
TOTAL RUN TIME: 0 days 0 hours 21 minutes 15 seconds 420 msec
