                         Program Version 3.0.3 - RELEASE   -
|  1> ! NORI PBE0 def2-TZVP UseSym TightOPT Freq TightSCF Grid3 FinalGrid5 XYZFile
|  2> % pal
|  3>     nprocs 8
|  4> end
|  5> %method
|  6>     SymThresh 5.0e-2
|  7> end
|  8> % geom
|  9>     MaxIter 10
| 10> end
| 11> % maxcore 2000
| 12> % output
| 13>     printlevel mini
| 14>     print[ P_Basis ] 0
| 15>     print[ P_SCFInfo ] 1
| 16>     print[ P_SCFIterInfo ] 1
| 17>     print[ P_OrbEn ] 0
| 18>     print[ P_Cartesian ] 0
| 19> end
| 20> % elprop
| 21>     Dipole false
| 22> end
| 23> *xyz 1 1
| 24>  C        0.9810714301    -0.0251209076    -0.3283653540
| 25>  N        2.3640949168     0.4178334530    -0.0969918643
| 26>  C        3.5972752949    -0.3650683963    -0.6030378833
| 27>  C        4.3742387676     0.9587954409    -0.3873960863
| 28>  C        3.0386762743     1.5390294077    -0.9195164815
| 29>  C        2.9818342204     0.9330355575    -2.3100117513
| 30>  C        3.3514576540    -0.3273520649    -2.1002056278
| 31>  H        0.3034088326     0.7696857139    -0.0170895967
| 32>  H        0.7966448993    -0.9196112836     0.2655958126
| 33>  H        0.8431194196    -0.2419413633    -1.3841992006
| 34>  H        2.4931970102     0.6213419849     0.8957132279
| 35>  H        3.8146920455    -1.2969898327    -0.0884578665
| 36>  H        4.5858381858     1.1951666694     0.6586123301
| 37>  H        5.2470603575     1.1106054699    -1.0134985872
| 38>  H        2.6868540696     2.5487063546    -0.7266021274
| 39>  H        2.7014502467     1.4470517850    -3.2168730685
| 40>  H        3.4649663751    -1.1548979886    -2.7841858754
| 41> *
| 42>
| 43>                          ****END OF INPUT****
 Total Charge           Charge          ....    1
 Multiplicity           Mult            ....    1
 Number of Electrons    NEL             ....   52
FINAL SINGLE POINT ENERGY      -288.844733415430

CARTESIAN COORDINATES (ANGSTROEM)
---------------------------------
  C      1.580788    1.348413    0.000000
  N      0.993229    0.000213   -0.000000
  C     -0.093159   -0.446850    1.004740
  C     -0.378653   -1.592453    0.000000
  C     -0.093159   -0.446850   -1.004740
  C     -1.202501    0.531910   -0.665087
  C     -1.202501    0.531910    0.665087
  H      2.197707    1.460431   -0.891215
  H      2.197707    1.460431    0.891215
  H      0.785785    2.089173    0.000000
  H      1.741331   -0.695368   -0.000000
  H      0.237178   -0.595209    2.029218
  H      0.367255   -2.391739    0.000000
  H     -1.387890   -1.990874    0.000000
  H      0.237178   -0.595209   -2.029218
  H     -1.813705    1.070947   -1.373091
  H     -1.813705    1.070947    1.373091

FINAL SINGLE POINT ENERGY      -288.844733632984
                    ***********************HURRAY********************
 Multiplicity           Mult            ....    1
 Number of Electrons    NEL             ....   52
 Basis Dimension        Dim             ....  277
FINAL SINGLE POINT ENERGY      -288.844733649259

VIBRATIONAL FREQUENCIES
-----------------------

   0:         0.00 cm**-1
   1:         0.00 cm**-1
   2:         0.00 cm**-1
   3:         0.00 cm**-1
   4:         0.00 cm**-1
   5:         0.00 cm**-1
   6:       204.65 cm**-1
   7:       267.57 cm**-1
   8:       287.43 cm**-1
   9:       491.27 cm**-1
  10:       547.52 cm**-1
  11:       583.31 cm**-1
  12:       717.60 cm**-1
  13:       722.22 cm**-1
  14:       765.54 cm**-1
  15:       825.81 cm**-1
  16:       868.41 cm**-1
  17:       874.17 cm**-1
  18:       949.90 cm**-1
  19:       960.54 cm**-1
  20:       967.86 cm**-1
  21:      1000.36 cm**-1
  22:      1031.01 cm**-1
  23:      1090.22 cm**-1
  24:      1109.08 cm**-1
  25:      1133.96 cm**-1
  26:      1136.35 cm**-1
  27:      1158.49 cm**-1
  28:      1173.17 cm**-1
  29:      1228.61 cm**-1
  30:      1245.92 cm**-1
  31:      1259.66 cm**-1
  32:      1283.27 cm**-1
  33:      1298.64 cm**-1
  34:      1363.32 cm**-1
  35:      1441.12 cm**-1
  36:      1445.59 cm**-1
  37:      1486.78 cm**-1
  38:      1493.06 cm**-1
  39:      1513.91 cm**-1
  40:      1642.76 cm**-1
  41:      3087.26 cm**-1
  42:      3088.47 cm**-1
  43:      3175.89 cm**-1
  44:      3185.29 cm**-1
  45:      3185.51 cm**-1
  46:      3200.75 cm**-1
  47:      3207.23 cm**-1
  48:      3260.26 cm**-1
  49:      3281.54 cm**-1
  50:      3465.37 cm**-1

IR SPECTRUM
-----------

 Mode    freq (cm**-1)   T**2         TX         TY         TZ
-------------------------------------------------------------------
   6:       204.65    0.002549  ( -0.000000   0.000000  -0.050490)
   7:       267.57    0.177795  (  0.000001  -0.000002  -0.421658)
   8:       287.43    0.198212  (  0.287292  -0.340110   0.000002)
   9:       491.27    1.039988  (  0.643131   0.791436  -0.000003)
  10:       547.52    0.574982  ( -0.000008  -0.000010  -0.758276)
  11:       583.31    8.529713  ( -1.514583  -2.497148   0.000002)
  12:       717.60    3.430412  (  1.449272  -1.153266   0.000004)
  13:       722.22    1.711453  ( -0.000003   0.000006   1.308225)
  14:       765.54   57.527859  ( -5.353518  -5.372867   0.000001)
  15:       825.81    1.052274  ( -0.000001  -0.000000  -1.025804)
  16:       868.41    6.081152  ( -1.230229  -2.137215   0.000006)
  17:       874.17    1.978465  (  0.000006   0.000009   1.406579)
  18:       949.90    2.588799  ( -0.000004  -0.000002  -1.608975)
  19:       960.54    2.011215  (  1.369752  -0.367415  -0.000001)
  20:       967.86    0.127952  ( -0.000002  -0.000002  -0.357703)
  21:      1000.36    2.110951  (  1.329277   0.586493  -0.000001)
  22:      1031.01    8.756098  (  2.583334   1.443082  -0.000001)
  23:      1090.22    2.680092  (  0.000000   0.000000  -1.637099)
  24:      1109.08    0.197340  (  0.270701  -0.352223   0.000000)
  25:      1133.96    6.890291  ( -2.452238  -0.936387  -0.000001)
  26:      1136.35    6.586503  (  0.000001   0.000000  -2.566418)
  27:      1158.49    6.033761  ( -0.000000  -0.000000   2.456371)
  28:      1173.17   17.161066  (  2.166630   3.530833  -0.000000)
  29:      1228.61   16.789551  ( -0.000000  -0.000000   4.097505)
  30:      1245.92    0.706854  ( -0.000000  -0.000000   0.840746)
  31:      1259.66    5.310834  ( -1.155347   1.993993  -0.000001)
  32:      1283.27    0.151777  ( -0.000000  -0.000001  -0.389585)
  33:      1298.64    2.862454  ( -0.719132  -1.531438   0.000000)
  34:      1363.32   53.142171  ( -0.000001  -0.000002  -7.289868)
  35:      1441.12    8.075490  (  0.258473   2.829962  -0.000000)
  36:      1445.59   16.171273  (  1.778864   3.606510  -0.000002)
  37:      1486.78   17.728488  (  4.196597   0.342143  -0.000001)
  38:      1493.06   14.973954  (  0.000001  -0.000000  -3.869619)
  39:      1513.91    7.087170  ( -2.208593   1.486367  -0.000003)
  40:      1642.76    1.141213  ( -0.740482   0.770000   0.000000)
  41:      3087.26    1.641571  ( -1.157317   0.549717  -0.000000)
  42:      3088.47    7.256709  (  1.579215  -2.182382   0.000000)
  43:      3175.89    0.103352  (  0.000000  -0.000000   0.321484)
  44:      3185.29    1.471625  (  0.000000  -0.000000  -1.213106)
  45:      3185.51    0.050885  (  0.157025  -0.161951   0.000000)
  46:      3200.75    0.993241  ( -0.996397  -0.020828   0.000000)
  47:      3207.23    0.537438  ( -0.128272  -0.721793  -0.000003)
  48:      3260.26    8.003365  ( -0.000000  -0.000000   2.829022)
  49:      3281.54    7.672619  (  2.165628  -1.727042   0.000000)
  50:      3465.37   36.751369  ( -5.041091   3.367309   0.000000)

--------------------------
THERMOCHEMISTRY AT 298.15K
--------------------------

Temperature         ... 298.15 K
Pressure            ... 1.00 atm
Total Mass          ... 96.15 AMU

Throughout the following assumptions are being made:
  (1) The electronic state is orbitally nondegenerate
  (2) There are no thermally accessible electronically excited states
  (3) Hindered rotations indicated by low frequency modes) are not
      treated as such but are treated as vibrations and this may
      case some error
  (4) All equations used are the standard statistical mechanics
      equations for an ideal gas
  (5) All vibrations are strinctly harmonic

------------
INNER ENERGY
------------

The inner energy is: U= E(el) + E(ZPE) + E(vib) + E(rot) + E(trans)
    E(el)   - is the total energy from the electronic structure calculation
              = E(kin-el) + E(nuc-el) + E(el-el) + E(nuc-nuc)
    E(ZPE)  - the the zero temperature vibrational energy from the frequency calculation
    E(vib)  - the the finite temperature correction to E(ZPE) due to population
              of excietd vibrational states
    E(rot)  - is the rotational thermal energy
    E(trans)- is the translational thermal energy

Summary of contributions to the inner energy U:
Electronic energy                ...   -288.84473365 Eh
Zero point energy                ...      0.15424715 Eh      96.79 kcal/mol
Thermal vibrational correction   ...      0.00296822 Eh       1.86 kcal/mol
Thermal rotational correction    ...      0.00141627 Eh       0.89 kcal/mol
Thermal translational correction ...      0.00141627 Eh       0.89 kcal/mol
-----------------------------------------------------------------------
Total thermal energy                   -288.68468573 Eh

Summary of corrections to the electronic energy:
(perhaps to be used in another calculation)
Total thermal correction                  0.00580076 Eh       3.64 kcal/mol
Non-thermal (ZPE) correction              0.15424715 Eh      96.79 kcal/mol
-----------------------------------------------------------------------
Total correction                          0.16004792 Eh     100.43 kcal/mol

--------
ENTHALPY
--------

The enthalpy is H = U + kB*T
                kB is Boltzmann's constant
Total free energy                 ...   -288.68468573 Eh
Thermal Enthalpy correction       ...      0.00094421 Eh       0.59 kcal/mol
-----------------------------------------------------------------------
Total Enthalpy                    ...   -288.68374152 Eh

-------
ENTROPY
-------

The entropy contributions are T*S = T*(S(el)+S(vib)+S(rot)+S(trans)
     S(el)   - electronic entropy
     S(vib)  - vibrational entropy
     S(rot)  - rotational entropy
     S(trans)- translational entropy
The entropies will be listed as mutliplied by the temperature to get
units of energy

Electronic entropy                ...      0.00000000 Eh      0.00 kcal/mol
Vibrational entropy               ...      0.00441541 Eh      2.77 kcal/mol
Rotational entropy                ...      0.01161728 Eh      7.29 kcal/mol
Translational entropy             ...      0.01881568 Eh     11.81 kcal/mol
-----------------------------------------------------------------------
Final entropy term                ...      0.03484837 Eh     21.87 kcal/mol

CAUTION: The rotational entropy is not quite correctly treated here
         because it includes a symmetry number that is not yet correctly
         implemented in ORCA!
For a nonlinear molecule the correct rotational entropy is:
    S(rot) = R*(ln(qrot/sn)+1.5)
    R    = 8.31441 J/mol/K = 1.987191683e-3 kcal/mol/K
    qrot = 147663.9752411
    sn is the rotational symmetry number. We have assumed 3 here
       if it is different for your molecule then you should correct
       the printed rotational entropy by manually evaluating the equation
       as given above

For convenience we print out the resulting values for sn=1 - 12:
 sn= 1  qrot/sn=  147663.9752 T*S(rot)=     7.94 kcal/mol T*S(tot)=    22.52 kcal/mol
 sn= 2  qrot/sn=   73831.9876 T*S(rot)=     7.53 kcal/mol T*S(tot)=    22.11 kcal/mol
 sn= 3  qrot/sn=   49221.3251 T*S(rot)=     7.29 kcal/mol T*S(tot)=    21.87 kcal/mol
 sn= 4  qrot/sn=   36915.9938 T*S(rot)=     7.12 kcal/mol T*S(tot)=    21.70 kcal/mol
 sn= 5  qrot/sn=   29532.7950 T*S(rot)=     6.99 kcal/mol T*S(tot)=    21.56 kcal/mol
 sn= 6  qrot/sn=   24610.6625 T*S(rot)=     6.88 kcal/mol T*S(tot)=    21.46 kcal/mol
 sn= 7  qrot/sn=   21094.8536 T*S(rot)=     6.79 kcal/mol T*S(tot)=    21.37 kcal/mol
 sn= 8  qrot/sn=   18457.9969 T*S(rot)=     6.71 kcal/mol T*S(tot)=    21.29 kcal/mol
 sn= 9  qrot/sn=   16407.1084 T*S(rot)=     6.64 kcal/mol T*S(tot)=    21.22 kcal/mol
 sn=10  qrot/sn=   14766.3975 T*S(rot)=     6.58 kcal/mol T*S(tot)=    21.15 kcal/mol
 sn=11  qrot/sn=   13423.9977 T*S(rot)=     6.52 kcal/mol T*S(tot)=    21.10 kcal/mol
 sn=12  qrot/sn=   12305.3313 T*S(rot)=     6.47 kcal/mol T*S(tot)=    21.05 kcal/mol

-------------------
GIBBS FREE ENTHALPY
-------------------

The Gibbs free enthalpy is G = H - T*S

Total enthalpy                    ...   -288.68374152 Eh
Total entropy correction          ...     -0.03484837 Eh    -21.87 kcal/mol
-----------------------------------------------------------------------
Final Gibbs free enthalpy         ...   -288.71858989 Eh

For completeness - the Gibbs free enthalpy minus the electronic energy
G-E(el)                           ...      0.12614375 Eh     79.16 kcal/mol

                             ****ORCA TERMINATED NORMALLY****
TOTAL RUN TIME: 0 days 0 hours 37 minutes 35 seconds 933 msec
