                         Program Version 3.0.3 - RELEASE   -
|  1> ! NORI PBE0 def2-TZVP UseSym TightOPT Freq TightSCF Grid3 FinalGrid5 XYZFile
|  2> % pal
|  3>     nprocs 8
|  4> end
|  5> %method
|  6>     SymThresh 5.0e-2
|  7> end
|  8> % geom
|  9>     MaxIter 10
| 10> end
| 11> % maxcore 2000
| 12> % output
| 13>     printlevel mini
| 14>     print[ P_Basis ] 0
| 15>     print[ P_SCFInfo ] 1
| 16>     print[ P_SCFIterInfo ] 1
| 17>     print[ P_OrbEn ] 0
| 18>     print[ P_Cartesian ] 0
| 19> end
| 20> % elprop
| 21>     Dipole false
| 22> end
| 23> *xyz 1 1
| 24>  C        1.1920158389    -0.0445022933     0.0995773916
| 25>  N        2.6506577173    -0.0422959044    -0.1098294876
| 26>  C        3.2512956356     0.9897649338    -1.0750858426
| 27>  C        2.9185326811     0.0099159168    -2.2115142909
| 28>  C        3.2467030534    -1.0272397833    -1.1256406708
| 29>  C        4.7326808580    -0.8060355614    -0.8740119100
| 30>  C        4.7363144026     0.7496210903    -0.8356754997
| 31>  H        0.9164488942    -0.9493316571     0.6408142547
| 32>  H        0.6745803119    -0.0186094633    -0.8546424729
| 33>  H        0.9205478085     0.8318435527     0.6877124404
| 34>  H        3.1182093149    -0.0660824511     0.7973203270
| 35>  H        2.8407013909     1.9940508613    -0.9999580844
| 36>  H        1.8805682798     0.0204873065    -2.5335856248
| 37>  H        3.5766010706     0.0302272899    -3.0770488401
| 38>  H        2.8319159787    -2.0322985187    -1.1008160677
| 39>  H        5.3279409207    -1.2221429930    -1.6854995398
| 40>  H        5.0740311021    -1.2621396272     0.0567986946
| 41>  H        5.0809898419     1.1580245313     0.1157727632
| 42>  H        5.3326148989     1.2020827700    -1.6266375401
| 43> *
| 44>
| 45>                          ****END OF INPUT****
 Total Charge           Charge          ....    1
 Multiplicity           Mult            ....    1
 Number of Electrons    NEL             ....   54
FINAL SINGLE POINT ENERGY      -290.098041613406

CARTESIAN COORDINATES (ANGSTROEM)
---------------------------------
  C      1.990547   -1.027619   -0.000000
  N      0.934097   -0.000266    0.000000
  C     -0.215885   -0.130544    1.008778
  C     -0.896180   -1.069334    0.000000
  C     -0.215885   -0.130544   -1.008778
  C     -0.925183    1.197674   -0.778150
  C     -0.925183    1.197674    0.778150
  H      2.604741   -0.899321   -0.890813
  H      1.551098   -2.020933    0.000000
  H      2.604741   -0.899321    0.890813
  H      1.367480    0.923889   -0.000000
  H      0.075298   -0.427404    2.013610
  H     -0.519709   -2.089086   -0.000000
  H     -1.983399   -1.074480    0.000000
  H      0.075298   -0.427404   -2.013610
  H     -1.923717    1.182950   -1.212405
  H     -0.386823    2.042744   -1.210521
  H     -0.386823    2.042744    1.210521
  H     -1.923717    1.182950    1.212405

FINAL SINGLE POINT ENERGY      -290.098043246115
                    ***********************HURRAY********************
 Multiplicity           Mult            ....    1
 Number of Electrons    NEL             ....   54
 Basis Dimension        Dim             ....  289
FINAL SINGLE POINT ENERGY      -290.098043540881

VIBRATIONAL FREQUENCIES
-----------------------

   0:         0.00 cm**-1
   1:         0.00 cm**-1
   2:         0.00 cm**-1
   3:         0.00 cm**-1
   4:         0.00 cm**-1
   5:         0.00 cm**-1
   6:       183.79 cm**-1
   7:       267.26 cm**-1
   8:       285.49 cm**-1
   9:       323.29 cm**-1
  10:       459.74 cm**-1
  11:       523.26 cm**-1
  12:       643.52 cm**-1
  13:       770.74 cm**-1
  14:       822.30 cm**-1
  15:       842.34 cm**-1
  16:       865.20 cm**-1
  17:       882.81 cm**-1
  18:       929.33 cm**-1
  19:       956.18 cm**-1
  20:       986.10 cm**-1
  21:      1008.57 cm**-1
  22:      1012.60 cm**-1
  23:      1045.25 cm**-1
  24:      1090.98 cm**-1
  25:      1109.56 cm**-1
  26:      1135.93 cm**-1
  27:      1146.99 cm**-1
  28:      1175.45 cm**-1
  29:      1186.97 cm**-1
  30:      1241.21 cm**-1
  31:      1252.73 cm**-1
  32:      1269.23 cm**-1
  33:      1284.39 cm**-1
  34:      1308.39 cm**-1
  35:      1310.78 cm**-1
  36:      1336.01 cm**-1
  37:      1340.27 cm**-1
  38:      1448.60 cm**-1
  39:      1452.94 cm**-1
  40:      1487.71 cm**-1
  41:      1490.40 cm**-1
  42:      1492.16 cm**-1
  43:      1508.24 cm**-1
  44:      1524.33 cm**-1
  45:      3089.50 cm**-1
  46:      3096.92 cm**-1
  47:      3103.36 cm**-1
  48:      3134.71 cm**-1
  49:      3152.00 cm**-1
  50:      3164.03 cm**-1
  51:      3172.24 cm**-1
  52:      3174.04 cm**-1
  53:      3175.91 cm**-1
  54:      3194.54 cm**-1
  55:      3206.31 cm**-1
  56:      3462.20 cm**-1

IR SPECTRUM
-----------

 Mode    freq (cm**-1)   T**2         TX         TY         TZ
-------------------------------------------------------------------
   6:       183.79    0.018124  (  0.000000  -0.000000  -0.134625)
   7:       267.26    0.008776  ( -0.000002   0.000000  -0.093678)
   8:       285.49    0.216467  ( -0.456685   0.088916   0.000000)
   9:       323.29    0.593427  ( -0.000001   0.000000  -0.770342)
  10:       459.74    1.157463  (  1.009108  -0.373047   0.000000)
  11:       523.26    1.127278  ( -0.826359   0.666639  -0.000000)
  12:       643.52    0.217312  (  0.000001   0.000000  -0.466167)
  13:       770.74    5.431356  (  2.288824  -0.438911  -0.000000)
  14:       822.30    7.761534  (  0.000001   0.000000   2.785953)
  15:       842.34   11.353678  ( -3.329156  -0.519999   0.000000)
  16:       865.20    1.796451  ( -0.948332  -0.947163  -0.000000)
  17:       882.81    0.378556  ( -0.000002   0.000000   0.615269)
  18:       929.33    1.227935  ( -0.670669   0.882121   0.000000)
  19:       956.18    1.182367  ( -0.000005  -0.000000  -1.087367)
  20:       986.10    2.108407  ( -1.284033   0.677986   0.000000)
  21:      1008.57    4.426134  (  0.000000  -0.000000  -2.103838)
  22:      1012.60    0.527379  ( -0.070259   0.722802  -0.000000)
  23:      1045.25    1.066549  ( -0.894461  -0.516226   0.000000)
  24:      1090.98   19.946708  ( -4.157725   1.630960   0.000000)
  25:      1109.56    2.880317  (  0.000003   0.000000   1.697150)
  26:      1135.93    4.106824  (  0.000001   0.000000   2.026530)
  27:      1146.99    0.613803  (  0.543760   0.564029   0.000000)
  28:      1175.45    0.008876  ( -0.000002  -0.000000   0.094214)
  29:      1186.97    6.130482  (  1.335227  -2.085102   0.000000)
  30:      1241.21    0.100295  ( -0.000000   0.000000  -0.316694)
  31:      1252.73   17.032779  (  0.000000  -0.000000   4.127079)
  32:      1269.23    5.751787  ( -1.503077   1.868835   0.000000)
  33:      1284.39    0.005414  ( -0.000006   0.000000   0.073579)
  34:      1308.39    1.952038  (  1.160903  -0.777394  -0.000000)
  35:      1310.78   21.631555  ( -0.000000  -0.000000  -4.650974)
  36:      1336.01   14.197717  (  0.000003  -0.000000   3.767986)
  37:      1340.27    6.163591  (  0.955147  -2.291568   0.000000)
  38:      1448.60   21.525575  (  3.827178  -2.622648   0.000000)
  39:      1452.94    2.999469  (  1.283481  -1.162818  -0.000000)
  40:      1487.71   19.524308  (  0.000000  -0.000000   4.418632)
  41:      1490.40    2.240948  (  0.000000  -0.000000   1.496980)
  42:      1492.16   12.638513  (  3.061132  -1.807756   0.000000)
  43:      1508.24   33.856593  (  3.591141   4.578242   0.000000)
  44:      1524.33    4.795667  ( -1.847225  -1.176191  -0.000000)
  45:      3089.50    0.561430  ( -0.676430   0.322293   0.000000)
  46:      3096.92    3.836154  ( -0.000001  -0.000000  -1.958610)
  47:      3103.36    4.251014  ( -0.741548  -1.923830  -0.000000)
  48:      3134.71    1.376614  (  0.193059  -1.157300  -0.000000)
  49:      3152.00    0.012076  ( -0.000000  -0.000000  -0.109892)
  50:      3164.03    1.451801  ( -0.569096  -1.062041   0.000000)
  51:      3172.24    3.308583  ( -0.000019  -0.000000   1.818951)
  52:      3174.04    0.412430  ( -0.551404   0.329218   0.000000)
  53:      3175.91    0.048333  (  0.000004  -0.000000  -0.219847)
  54:      3194.54    1.295805  (  0.899114  -0.698140   0.000000)
  55:      3206.31    0.527272  (  0.418862  -0.593150  -0.000000)
  56:      3462.20   29.917636  (  2.820860   4.686191   0.000000)

--------------------------
THERMOCHEMISTRY AT 298.15K
--------------------------

Temperature         ... 298.15 K
Pressure            ... 1.00 atm
Total Mass          ... 98.17 AMU

Throughout the following assumptions are being made:
  (1) The electronic state is orbitally nondegenerate
  (2) There are no thermally accessible electronically excited states
  (3) Hindered rotations indicated by low frequency modes) are not
      treated as such but are treated as vibrations and this may
      case some error
  (4) All equations used are the standard statistical mechanics
      equations for an ideal gas
  (5) All vibrations are strinctly harmonic

------------
INNER ENERGY
------------

The inner energy is: U= E(el) + E(ZPE) + E(vib) + E(rot) + E(trans)
    E(el)   - is the total energy from the electronic structure calculation
              = E(kin-el) + E(nuc-el) + E(el-el) + E(nuc-nuc)
    E(ZPE)  - the the zero temperature vibrational energy from the frequency calculation
    E(vib)  - the the finite temperature correction to E(ZPE) due to population
              of excietd vibrational states
    E(rot)  - is the rotational thermal energy
    E(trans)- is the translational thermal energy

Summary of contributions to the inner energy U:
Electronic energy                ...   -290.09804354 Eh
Zero point energy                ...      0.17889716 Eh     112.26 kcal/mol
Thermal vibrational correction   ...      0.00331672 Eh       2.08 kcal/mol
Thermal rotational correction    ...      0.00141627 Eh       0.89 kcal/mol
Thermal translational correction ...      0.00141627 Eh       0.89 kcal/mol
-----------------------------------------------------------------------
Total thermal energy                   -289.91299711 Eh

Summary of corrections to the electronic energy:
(perhaps to be used in another calculation)
Total thermal correction                  0.00614927 Eh       3.86 kcal/mol
Non-thermal (ZPE) correction              0.17889716 Eh     112.26 kcal/mol
-----------------------------------------------------------------------
Total correction                          0.18504643 Eh     116.12 kcal/mol

--------
ENTHALPY
--------

The enthalpy is H = U + kB*T
                kB is Boltzmann's constant
Total free energy                 ...   -289.91299711 Eh
Thermal Enthalpy correction       ...      0.00094421 Eh       0.59 kcal/mol
-----------------------------------------------------------------------
Total Enthalpy                    ...   -289.91205290 Eh

-------
ENTROPY
-------

The entropy contributions are T*S = T*(S(el)+S(vib)+S(rot)+S(trans)
     S(el)   - electronic entropy
     S(vib)  - vibrational entropy
     S(rot)  - rotational entropy
     S(trans)- translational entropy
The entropies will be listed as mutliplied by the temperature to get
units of energy

Electronic entropy                ...      0.00000000 Eh      0.00 kcal/mol
Vibrational entropy               ...      0.00502778 Eh      3.15 kcal/mol
Rotational entropy                ...      0.01171331 Eh      7.35 kcal/mol
Translational entropy             ...      0.01884507 Eh     11.83 kcal/mol
-----------------------------------------------------------------------
Final entropy term                ...      0.03558616 Eh     22.33 kcal/mol

CAUTION: The rotational entropy is not quite correctly treated here
         because it includes a symmetry number that is not yet correctly
         implemented in ORCA!
For a nonlinear molecule the correct rotational entropy is:
    S(rot) = R*(ln(qrot/sn)+1.5)
    R    = 8.31441 J/mol/K = 1.987191683e-3 kcal/mol/K
    qrot = 163472.6982817
    sn is the rotational symmetry number. We have assumed 3 here
       if it is different for your molecule then you should correct
       the printed rotational entropy by manually evaluating the equation
       as given above

For convenience we print out the resulting values for sn=1 - 12:
 sn= 1  qrot/sn=  163472.6983 T*S(rot)=     8.00 kcal/mol T*S(tot)=    22.98 kcal/mol
 sn= 2  qrot/sn=   81736.3491 T*S(rot)=     7.59 kcal/mol T*S(tot)=    22.57 kcal/mol
 sn= 3  qrot/sn=   54490.8994 T*S(rot)=     7.35 kcal/mol T*S(tot)=    22.33 kcal/mol
 sn= 4  qrot/sn=   40868.1746 T*S(rot)=     7.18 kcal/mol T*S(tot)=    22.16 kcal/mol
 sn= 5  qrot/sn=   32694.5397 T*S(rot)=     7.05 kcal/mol T*S(tot)=    22.03 kcal/mol
 sn= 6  qrot/sn=   27245.4497 T*S(rot)=     6.94 kcal/mol T*S(tot)=    21.92 kcal/mol
 sn= 7  qrot/sn=   23353.2426 T*S(rot)=     6.85 kcal/mol T*S(tot)=    21.83 kcal/mol
 sn= 8  qrot/sn=   20434.0873 T*S(rot)=     6.77 kcal/mol T*S(tot)=    21.75 kcal/mol
 sn= 9  qrot/sn=   18163.6331 T*S(rot)=     6.70 kcal/mol T*S(tot)=    21.68 kcal/mol
 sn=10  qrot/sn=   16347.2698 T*S(rot)=     6.64 kcal/mol T*S(tot)=    21.62 kcal/mol
 sn=11  qrot/sn=   14861.1544 T*S(rot)=     6.58 kcal/mol T*S(tot)=    21.56 kcal/mol
 sn=12  qrot/sn=   13622.7249 T*S(rot)=     6.53 kcal/mol T*S(tot)=    21.51 kcal/mol

-------------------
GIBBS FREE ENTHALPY
-------------------

The Gibbs free enthalpy is G = H - T*S

Total enthalpy                    ...   -289.91205290 Eh
Total entropy correction          ...     -0.03558616 Eh    -22.33 kcal/mol
-----------------------------------------------------------------------
Final Gibbs free enthalpy         ...   -289.94763906 Eh

For completeness - the Gibbs free enthalpy minus the electronic energy
G-E(el)                           ...      0.15040448 Eh     94.38 kcal/mol

                             ****ORCA TERMINATED NORMALLY****
TOTAL RUN TIME: 0 days 0 hours 48 minutes 50 seconds 792 msec
