                         Program Version 3.0.3 - RELEASE   -
|  1> ! NORI PBE0 def2-TZVP UseSym TightOPT Freq TightSCF Grid3 FinalGrid5 XYZFile
|  2> % pal
|  3>     nprocs 8
|  4> end
|  5> %method
|  6>     SymThresh 5.0e-2
|  7> end
|  8> % geom
|  9>     MaxIter 10
| 10> end
| 11> % maxcore 2000
| 12> % output
| 13>     printlevel mini
| 14>     print[ P_Basis ] 0
| 15>     print[ P_SCFInfo ] 1
| 16>     print[ P_SCFIterInfo ] 1
| 17>     print[ P_OrbEn ] 0
| 18>     print[ P_Cartesian ] 0
| 19> end
| 20> % elprop
| 21>     Dipole false
| 22> end
| 23> *xyz 1 1
| 24>  C        0.5224404449    -0.1326147460    -0.3024298521
| 25>  N        1.9486868929    -0.0422512549     0.0336368768
| 26>  C        3.0460612883    -0.9242923480    -0.4775794035
| 27>  C        2.7333084239    -1.7433006325    -1.6990889141
| 28>  C        2.3698126644    -0.7453107636    -2.8180519994
| 29>  C        2.7209500998     0.6626352420    -2.2943019927
| 30>  C        3.0380572447     0.5100287040    -0.8323050451
| 31>  H        0.0599870854     0.8361147281    -0.1147592248
| 32>  H        0.0647096346    -0.8915527951     0.3310602412
| 33>  H        0.3933737201    -0.4021383729    -1.3444607146
| 34>  H        2.0885768452     0.2003667185     1.0088118567
| 35>  H        3.6620067400    -1.3306447142     0.3155145092
| 36>  H        3.6442282559    -2.2972207182    -1.9380738399
| 37>  H        1.9606310472    -2.4926893050    -1.5146708548
| 38>  H        2.9209225220    -0.9683441132    -3.7306590072
| 39>  H        1.3153467063    -0.8160246391    -3.0861456586
| 40>  H        1.9396843422     1.4033039222    -2.4787146197
| 41>  H        3.6267406160     1.0500777238    -2.7659436361
| 42>  H        3.6479754262     1.2454973641    -0.3216387215
| 43> *
| 44>
| 45>                          ****END OF INPUT****
 Total Charge           Charge          ....    1
 Multiplicity           Mult            ....    1
 Number of Electrons    NEL             ....   54
FINAL SINGLE POINT ENERGY      -290.101848128517

CARTESIAN COORDINATES (ANGSTROEM)
---------------------------------
  C      1.357764    1.467275    0.000000
  N      1.305437    0.000061   -0.000000
  C      0.326965   -0.860131    0.738674
  C     -0.917691   -0.181060    1.239392
  C     -1.634613    0.393908   -0.000000
  C     -0.917691   -0.181060   -1.239392
  C      0.326965   -0.860131   -0.738674
  H      1.890380    1.794959   -0.892102
  H      1.890380    1.794959    0.892102
  H      0.356784    1.883553    0.000000
  H      2.234551   -0.407402   -0.000000
  H      0.807477   -1.632709    1.326640
  H     -1.516146   -0.955921    1.723960
  H     -0.707301    0.566732    2.007125
  H     -2.689077    0.120214   -0.000000
  H     -1.613132    1.484158   -0.000000
  H     -0.707301    0.566732   -2.007125
  H     -1.516146   -0.955922   -1.723960
  H      0.807477   -1.632709   -1.326640

FINAL SINGLE POINT ENERGY      -290.101848763874
                    ***********************HURRAY********************
 Multiplicity           Mult            ....    1
 Number of Electrons    NEL             ....   54
 Basis Dimension        Dim             ....  289
FINAL SINGLE POINT ENERGY      -290.101848970450

VIBRATIONAL FREQUENCIES
-----------------------

   0:         0.00 cm**-1
   1:         0.00 cm**-1
   2:         0.00 cm**-1
   3:         0.00 cm**-1
   4:         0.00 cm**-1
   5:         0.00 cm**-1
   6:       107.80 cm**-1
   7:       162.59 cm**-1
   8:       191.07 cm**-1
   9:       258.98 cm**-1
  10:       406.11 cm**-1
  11:       487.69 cm**-1
  12:       665.19 cm**-1
  13:       707.32 cm**-1
  14:       746.92 cm**-1
  15:       765.83 cm**-1
  16:       782.96 cm**-1
  17:       876.18 cm**-1
  18:       902.26 cm**-1
  19:       941.06 cm**-1
  20:       950.41 cm**-1
  21:      1015.13 cm**-1
  22:      1022.60 cm**-1
  23:      1038.65 cm**-1
  24:      1103.99 cm**-1
  25:      1117.93 cm**-1
  26:      1145.68 cm**-1
  27:      1166.83 cm**-1
  28:      1175.14 cm**-1
  29:      1209.36 cm**-1
  30:      1260.87 cm**-1
  31:      1261.01 cm**-1
  32:      1287.28 cm**-1
  33:      1309.52 cm**-1
  34:      1322.17 cm**-1
  35:      1344.57 cm**-1
  36:      1388.86 cm**-1
  37:      1403.14 cm**-1
  38:      1458.10 cm**-1
  39:      1469.31 cm**-1
  40:      1471.25 cm**-1
  41:      1476.23 cm**-1
  42:      1490.07 cm**-1
  43:      1512.51 cm**-1
  44:      1520.78 cm**-1
  45:      3085.93 cm**-1
  46:      3086.74 cm**-1
  47:      3093.96 cm**-1
  48:      3100.24 cm**-1
  49:      3122.20 cm**-1
  50:      3126.11 cm**-1
  51:      3147.63 cm**-1
  52:      3177.06 cm**-1
  53:      3208.83 cm**-1
  54:      3217.21 cm**-1
  55:      3225.41 cm**-1
  56:      3547.32 cm**-1

IR SPECTRUM
-----------

 Mode    freq (cm**-1)   T**2         TX         TY         TZ
-------------------------------------------------------------------
   6:       107.80    0.030057  (  0.000000   0.000000  -0.173368)
   7:       162.59    0.142212  ( -0.348445   0.144216   0.000000)
   8:       191.07    0.002394  ( -0.000001  -0.000011  -0.048924)
   9:       258.98    1.179624  (  1.006781   0.407450  -0.000001)
  10:       406.11    0.002212  (  0.000001  -0.000003  -0.047030)
  11:       487.69    3.881402  ( -0.911773  -1.746445   0.000000)
  12:       665.19    3.085855  ( -0.000000  -0.000003  -1.756660)
  13:       707.32    2.976467  ( -1.466519  -0.908729   0.000004)
  14:       746.92    1.791470  (  1.337286   0.056009   0.000005)
  15:       765.83    3.585355  ( -0.000001  -0.000002   1.893503)
  16:       782.96   13.243162  (  2.866442   2.242024   0.000000)
  17:       876.18    0.053020  ( -0.000004   0.000002   0.230262)
  18:       902.26    0.958526  ( -0.646786  -0.734979  -0.000008)
  19:       941.06    4.419092  (  0.909380  -1.895289   0.000009)
  20:       950.41   22.320920  ( -0.000002   0.000000   4.724502)
  21:      1015.13   10.090477  (  2.838754   1.425466  -0.000005)
  22:      1022.60   12.142062  (  0.000003  -0.000003   3.484546)
  23:      1038.65    5.761260  (  1.425782   1.930908   0.000007)
  24:      1103.99    1.661217  ( -0.000011  -0.000008   1.288882)
  25:      1117.93   12.110926  (  2.372341   2.546159   0.000003)
  26:      1145.68    0.248939  (  0.000002   0.000005   0.498938)
  27:      1166.83    6.331749  (  1.929315   1.615393  -0.000002)
  28:      1175.14    3.037988  (  0.000005   0.000007   1.742983)
  29:      1209.36    0.137374  (  0.000005   0.000008   0.370640)
  30:      1260.87    0.100438  ( -0.001027  -0.000620  -0.316917)
  31:      1261.01    4.243278  (  1.768309   1.056580  -0.000188)
  32:      1287.28    7.398153  (  1.338339   2.367911   0.000001)
  33:      1309.52    1.797951  (  0.000000  -0.000000  -1.340877)
  34:      1322.17    0.331084  ( -0.000000  -0.000004   0.575399)
  35:      1344.57    6.065810  (  2.260234  -0.978343  -0.000001)
  36:      1388.86    8.902387  ( -0.000001   0.000002  -2.983687)
  37:      1403.14    3.377705  ( -1.651525  -0.806332  -0.000000)
  38:      1458.10    3.671915  ( -0.890512  -1.696733   0.000000)
  39:      1469.31   29.067812  ( -0.000001   0.000008  -5.391457)
  40:      1471.25   11.729268  ( -0.057936   3.424312  -0.000002)
  41:      1476.23    4.132351  (  2.011706  -0.292213  -0.000001)
  42:      1490.07    0.660299  (  0.000001  -0.000004  -0.812588)
  43:      1512.51   26.309403  (  3.985763   3.228482  -0.000000)
  44:      1520.78   20.989555  (  3.348324  -3.127024  -0.000001)
  45:      3085.93    4.580047  ( -0.000167   0.000216  -2.140104)
  46:      3086.74    2.028856  (  1.250214  -0.682511  -0.000282)
  47:      3093.96    1.783333  ( -0.607979  -1.188989  -0.000013)
  48:      3100.24    5.957150  (  0.305310  -2.421556  -0.000072)
  49:      3122.20    1.315812  (  0.800844  -0.821256  -0.000006)
  50:      3126.11    0.697343  ( -0.000018   0.000013   0.835070)
  51:      3147.63    4.074751  ( -1.189741  -1.630726  -0.000026)
  52:      3177.06    0.128901  ( -0.000000  -0.000001   0.359027)
  53:      3208.83    0.310790  ( -0.000000  -0.000000   0.557485)
  54:      3217.21    0.990668  (  0.361995   0.927161   0.000000)
  55:      3225.41    1.049271  (  0.764183   0.682126  -0.000000)
  56:      3547.32   90.428941  (  9.186949  -2.455383   0.000000)

--------------------------
THERMOCHEMISTRY AT 298.15K
--------------------------

Temperature         ... 298.15 K
Pressure            ... 1.00 atm
Total Mass          ... 98.17 AMU

Throughout the following assumptions are being made:
  (1) The electronic state is orbitally nondegenerate
  (2) There are no thermally accessible electronically excited states
  (3) Hindered rotations indicated by low frequency modes) are not
      treated as such but are treated as vibrations and this may
      case some error
  (4) All equations used are the standard statistical mechanics
      equations for an ideal gas
  (5) All vibrations are strinctly harmonic

------------
INNER ENERGY
------------

The inner energy is: U= E(el) + E(ZPE) + E(vib) + E(rot) + E(trans)
    E(el)   - is the total energy from the electronic structure calculation
              = E(kin-el) + E(nuc-el) + E(el-el) + E(nuc-nuc)
    E(ZPE)  - the the zero temperature vibrational energy from the frequency calculation
    E(vib)  - the the finite temperature correction to E(ZPE) due to population
              of excietd vibrational states
    E(rot)  - is the rotational thermal energy
    E(trans)- is the translational thermal energy

Summary of contributions to the inner energy U:
Electronic energy                ...   -290.10184897 Eh
Zero point energy                ...      0.17783828 Eh     111.59 kcal/mol
Thermal vibrational correction   ...      0.00397827 Eh       2.50 kcal/mol
Thermal rotational correction    ...      0.00141627 Eh       0.89 kcal/mol
Thermal translational correction ...      0.00141627 Eh       0.89 kcal/mol
-----------------------------------------------------------------------
Total thermal energy                   -289.91719987 Eh

Summary of corrections to the electronic energy:
(perhaps to be used in another calculation)
Total thermal correction                  0.00681082 Eh       4.27 kcal/mol
Non-thermal (ZPE) correction              0.17783828 Eh     111.59 kcal/mol
-----------------------------------------------------------------------
Total correction                          0.18464910 Eh     115.87 kcal/mol

--------
ENTHALPY
--------

The enthalpy is H = U + kB*T
                kB is Boltzmann's constant
Total free energy                 ...   -289.91719987 Eh
Thermal Enthalpy correction       ...      0.00094421 Eh       0.59 kcal/mol
-----------------------------------------------------------------------
Total Enthalpy                    ...   -289.91625566 Eh

-------
ENTROPY
-------

The entropy contributions are T*S = T*(S(el)+S(vib)+S(rot)+S(trans)
     S(el)   - electronic entropy
     S(vib)  - vibrational entropy
     S(rot)  - rotational entropy
     S(trans)- translational entropy
The entropies will be listed as mutliplied by the temperature to get
units of energy

Electronic entropy                ...      0.00000000 Eh      0.00 kcal/mol
Vibrational entropy               ...      0.00668939 Eh      4.20 kcal/mol
Rotational entropy                ...      0.01178036 Eh      7.39 kcal/mol
Translational entropy             ...      0.01884507 Eh     11.83 kcal/mol
-----------------------------------------------------------------------
Final entropy term                ...      0.03731482 Eh     23.42 kcal/mol

CAUTION: The rotational entropy is not quite correctly treated here
         because it includes a symmetry number that is not yet correctly
         implemented in ORCA!
For a nonlinear molecule the correct rotational entropy is:
    S(rot) = R*(ln(qrot/sn)+1.5)
    R    = 8.31441 J/mol/K = 1.987191683e-3 kcal/mol/K
    qrot = 175504.1446994
    sn is the rotational symmetry number. We have assumed 3 here
       if it is different for your molecule then you should correct
       the printed rotational entropy by manually evaluating the equation
       as given above

For convenience we print out the resulting values for sn=1 - 12:
 sn= 1  qrot/sn=  175504.1447 T*S(rot)=     8.04 kcal/mol T*S(tot)=    24.07 kcal/mol
 sn= 2  qrot/sn=   87752.0723 T*S(rot)=     7.63 kcal/mol T*S(tot)=    23.66 kcal/mol
 sn= 3  qrot/sn=   58501.3816 T*S(rot)=     7.39 kcal/mol T*S(tot)=    23.42 kcal/mol
 sn= 4  qrot/sn=   43876.0362 T*S(rot)=     7.22 kcal/mol T*S(tot)=    23.24 kcal/mol
 sn= 5  qrot/sn=   35100.8289 T*S(rot)=     7.09 kcal/mol T*S(tot)=    23.11 kcal/mol
 sn= 6  qrot/sn=   29250.6908 T*S(rot)=     6.98 kcal/mol T*S(tot)=    23.00 kcal/mol
 sn= 7  qrot/sn=   25072.0207 T*S(rot)=     6.89 kcal/mol T*S(tot)=    22.91 kcal/mol
 sn= 8  qrot/sn=   21938.0181 T*S(rot)=     6.81 kcal/mol T*S(tot)=    22.83 kcal/mol
 sn= 9  qrot/sn=   19500.4605 T*S(rot)=     6.74 kcal/mol T*S(tot)=    22.76 kcal/mol
 sn=10  qrot/sn=   17550.4145 T*S(rot)=     6.68 kcal/mol T*S(tot)=    22.70 kcal/mol
 sn=11  qrot/sn=   15954.9222 T*S(rot)=     6.62 kcal/mol T*S(tot)=    22.65 kcal/mol
 sn=12  qrot/sn=   14625.3454 T*S(rot)=     6.57 kcal/mol T*S(tot)=    22.59 kcal/mol

-------------------
GIBBS FREE ENTHALPY
-------------------

The Gibbs free enthalpy is G = H - T*S

Total enthalpy                    ...   -289.91625566 Eh
Total entropy correction          ...     -0.03731482 Eh    -23.42 kcal/mol
-----------------------------------------------------------------------
Final Gibbs free enthalpy         ...   -289.95357048 Eh

For completeness - the Gibbs free enthalpy minus the electronic energy
G-E(el)                           ...      0.14827849 Eh     93.05 kcal/mol

                             ****ORCA TERMINATED NORMALLY****
TOTAL RUN TIME: 0 days 0 hours 50 minutes 27 seconds 474 msec
