                         Program Version 3.0.3 - RELEASE   -
|  1> ! NORI PBE0 def2-TZVP UseSym TightOPT Freq TightSCF Grid3 FinalGrid5 XYZFile
|  2> % pal
|  3>     nprocs 8
|  4> end
|  5> %method
|  6>     SymThresh 5.0e-2
|  7> end
|  8> % geom
|  9>     MaxIter 10
| 10> end
| 11> % maxcore 2000
| 12> % output
| 13>     printlevel mini
| 14>     print[ P_Basis ] 0
| 15>     print[ P_SCFInfo ] 1
| 16>     print[ P_SCFIterInfo ] 1
| 17>     print[ P_OrbEn ] 0
| 18>     print[ P_Cartesian ] 0
| 19> end
| 20> % elprop
| 21>     Dipole false
| 22> end
| 23> *xyz 1 1
| 24>  C        0.9606414386     0.0245529474    -0.6715274862
| 25>  N        2.1930487089     0.0177235514     0.1214908204
| 26>  C        3.4416540261     0.7577564488    -0.2226936559
| 27>  C        3.5774698062     1.2070301522    -1.6580740763
| 28>  C        3.6369393826    -0.0804822006    -2.4259494471
| 29>  C        3.5847920808    -1.1478361586    -1.6298582788
| 30>  C        3.4753825187    -0.7240721152    -0.2181155056
| 31>  H        0.3083947991    -0.7645355624    -0.2990824044
| 32>  H        1.1955146525    -0.1637913380    -1.7157343701
| 33>  H        0.4767583023     0.9951151051    -0.5627914223
| 34>  H        2.0137748594     0.0273452189     1.1201280458
| 35>  H        3.8207237063     1.3638663645     0.5896668456
| 36>  H        2.7662696942     1.8669970283    -1.9836060634
| 37>  H        4.4989354889     1.7877689204    -1.7681986681
| 38>  H        3.7015528492    -0.1104255814    -3.5067301823
| 39>  H        3.6216688602    -2.1849078482    -1.9327726591
| 40>  H        3.8472388259    -1.3203549325     0.6054185080
| 41> *
| 42>
| 43>                          ****END OF INPUT****
 Total Charge           Charge          ....    1
 Multiplicity           Mult            ....    1
 Number of Electrons    NEL             ....   52
FINAL SINGLE POINT ENERGY      -288.872471027064

CARTESIAN COORDINATES (ANGSTROEM)
---------------------------------
  C      1.464995   -0.000256    1.339811
  N      0.000392    0.000146    1.285880
  C     -0.824419   -0.739984    0.287242
  C     -0.114277   -1.180776   -0.970549
  C      0.269194    0.111360   -1.629656
  C     -0.148256    1.173998   -0.942250
  C     -0.861909    0.741752    0.277701
  H      1.783385    0.787774    2.020885
  H      1.869061    0.193118    0.349826
  H      1.803790   -0.970211    1.702536
  H     -0.422994   -0.015155    2.207691
  H     -1.596754   -1.351588    0.735290
  H      0.740756   -1.837222   -0.777247
  H     -0.804874   -1.762378   -1.589315
  H      0.833210    0.147746   -2.553403
  H     -0.010885    2.212880   -1.207819
  H     -1.640522    1.332287    0.743848

FINAL SINGLE POINT ENERGY      -288.872472004747
                    ***********************HURRAY********************
 Multiplicity           Mult            ....    1
 Number of Electrons    NEL             ....   52
 Basis Dimension        Dim             ....  277
FINAL SINGLE POINT ENERGY      -288.872472269872

VIBRATIONAL FREQUENCIES
-----------------------

   0:         0.00 cm**-1
   1:         0.00 cm**-1
   2:         0.00 cm**-1
   3:         0.00 cm**-1
   4:         0.00 cm**-1
   5:         0.00 cm**-1
   6:       159.87 cm**-1
   7:       224.75 cm**-1
   8:       245.99 cm**-1
   9:       359.38 cm**-1
  10:       473.96 cm**-1
  11:       558.81 cm**-1
  12:       687.37 cm**-1
  13:       721.05 cm**-1
  14:       765.61 cm**-1
  15:       785.04 cm**-1
  16:       821.12 cm**-1
  17:       929.77 cm**-1
  18:       941.07 cm**-1
  19:       956.76 cm**-1
  20:       982.31 cm**-1
  21:      1002.60 cm**-1
  22:      1013.94 cm**-1
  23:      1070.70 cm**-1
  24:      1079.83 cm**-1
  25:      1137.78 cm**-1
  26:      1149.45 cm**-1
  27:      1158.58 cm**-1
  28:      1179.21 cm**-1
  29:      1207.56 cm**-1
  30:      1272.78 cm**-1
  31:      1311.72 cm**-1
  32:      1343.66 cm**-1
  33:      1384.43 cm**-1
  34:      1400.74 cm**-1
  35:      1441.81 cm**-1
  36:      1452.14 cm**-1
  37:      1466.20 cm**-1
  38:      1492.17 cm**-1
  39:      1501.19 cm**-1
  40:      1672.04 cm**-1
  41:      3067.09 cm**-1
  42:      3088.88 cm**-1
  43:      3101.21 cm**-1
  44:      3179.00 cm**-1
  45:      3198.59 cm**-1
  46:      3218.28 cm**-1
  47:      3225.65 cm**-1
  48:      3229.64 cm**-1
  49:      3254.24 cm**-1
  50:      3549.48 cm**-1

IR SPECTRUM
-----------

 Mode    freq (cm**-1)   T**2         TX         TY         TZ
-------------------------------------------------------------------
   6:       159.87    0.240557  ( -0.058250   0.146897  -0.464312)
   7:       224.75    0.027928  (  0.103253   0.089054   0.096623)
   8:       245.99    0.331336  (  0.231954  -0.214226   0.481290)
   9:       359.38    0.078731  (  0.006231   0.021435  -0.279701)
  10:       473.96    2.289269  (  1.202312   0.017453   0.918374)
  11:       558.81   15.660584  ( -3.023322   0.094452  -2.551703)
  12:       687.37    8.132321  ( -0.473837  -1.037472   2.613704)
  13:       721.05    3.446919  (  0.314752  -1.057613  -1.493085)
  14:       765.61   16.003976  ( -3.290731   1.408286  -1.786560)
  15:       785.04   39.947076  ( -4.856902  -1.531518  -3.743265)
  16:       821.12    2.858181  (  0.143489   1.337074  -1.024610)
  17:       929.77    6.913842  (  0.480702  -0.043019   2.584747)
  18:       941.07   21.579397  (  0.018268   4.645023   0.053154)
  19:       956.76    8.420012  ( -2.741477   0.948898   0.062535)
  20:       982.31    7.821822  ( -1.196840   1.712604  -1.859135)
  21:      1002.60    8.244122  ( -1.586571   0.219704  -2.382991)
  22:      1013.94    4.581013  (  0.245611   0.096527   2.123999)
  23:      1070.70   13.826674  ( -1.745728   3.231910   0.577813)
  24:      1079.83   18.182251  ( -2.383398  -0.927392  -3.411980)
  25:      1137.78    0.643774  ( -0.045693   0.540131   0.591561)
  26:      1149.45    0.713554  (  0.691415   0.399634   0.275301)
  27:      1158.58    4.021703  ( -1.499300   0.723765  -1.118019)
  28:      1179.21    2.636604  (  0.688007   0.866023   1.188804)
  29:      1207.56    5.325345  ( -1.728338  -0.332404  -1.492548)
  30:      1272.78   10.374370  (  2.648911   0.135729   1.827353)
  31:      1311.72    1.797622  (  0.465888  -0.707179  -1.039456)
  32:      1343.66    8.978657  (  1.330210   1.256384  -2.372909)
  33:      1384.43   20.736857  (  0.044468   3.461732   2.958258)
  34:      1400.74   19.639604  ( -1.260511   3.984131   1.475606)
  35:      1441.81   16.370275  (  1.736728   3.453659   1.194275)
  36:      1452.14   15.460584  (  2.736816  -2.385338  -1.510159)
  37:      1466.20   15.512086  (  3.785598   0.113042  -1.080996)
  38:      1492.17    5.523029  (  1.038597   2.048356  -0.498580)
  39:      1501.19   23.057357  (  2.931546  -1.042841   3.657305)
  40:      1672.04    7.341711  ( -1.298724   1.336765   1.966745)
  41:      3067.09    0.671676  (  0.420592  -0.215317   0.669639)
  42:      3088.88    1.508884  (  0.949960  -0.286295   0.724220)
  43:      3101.21    0.449111  (  0.294709   0.444110   0.406231)
  44:      3179.00    0.149522  (  0.107731  -0.358618   0.096484)
  45:      3198.59    1.674373  ( -0.597219   0.320382  -1.102296)
  46:      3218.28    0.721957  ( -0.024584   0.736699  -0.422643)
  47:      3225.65    1.965513  (  1.273358   0.571145   0.133669)
  48:      3229.64    2.616595  ( -0.769099   1.044759   0.966209)
  49:      3254.24    2.962872  (  0.158288   1.609735  -0.588703)
  50:      3549.48   96.306247  (  2.735814  -0.177541  -9.422847)

--------------------------
THERMOCHEMISTRY AT 298.15K
--------------------------

Temperature         ... 298.15 K
Pressure            ... 1.00 atm
Total Mass          ... 96.15 AMU

Throughout the following assumptions are being made:
  (1) The electronic state is orbitally nondegenerate
  (2) There are no thermally accessible electronically excited states
  (3) Hindered rotations indicated by low frequency modes) are not
      treated as such but are treated as vibrations and this may
      case some error
  (4) All equations used are the standard statistical mechanics
      equations for an ideal gas
  (5) All vibrations are strinctly harmonic

------------
INNER ENERGY
------------

The inner energy is: U= E(el) + E(ZPE) + E(vib) + E(rot) + E(trans)
    E(el)   - is the total energy from the electronic structure calculation
              = E(kin-el) + E(nuc-el) + E(el-el) + E(nuc-nuc)
    E(ZPE)  - the the zero temperature vibrational energy from the frequency calculation
    E(vib)  - the the finite temperature correction to E(ZPE) due to population
              of excietd vibrational states
    E(rot)  - is the rotational thermal energy
    E(trans)- is the translational thermal energy

Summary of contributions to the inner energy U:
Electronic energy                ...   -288.87247227 Eh
Zero point energy                ...      0.15369302 Eh      96.44 kcal/mol
Thermal vibrational correction   ...      0.00336560 Eh       2.11 kcal/mol
Thermal rotational correction    ...      0.00141627 Eh       0.89 kcal/mol
Thermal translational correction ...      0.00141627 Eh       0.89 kcal/mol
-----------------------------------------------------------------------
Total thermal energy                   -288.71258110 Eh

Summary of corrections to the electronic energy:
(perhaps to be used in another calculation)
Total thermal correction                  0.00619815 Eh       3.89 kcal/mol
Non-thermal (ZPE) correction              0.15369302 Eh      96.44 kcal/mol
-----------------------------------------------------------------------
Total correction                          0.15989117 Eh     100.33 kcal/mol

--------
ENTHALPY
--------

The enthalpy is H = U + kB*T
                kB is Boltzmann's constant
Total free energy                 ...   -288.71258110 Eh
Thermal Enthalpy correction       ...      0.00094421 Eh       0.59 kcal/mol
-----------------------------------------------------------------------
Total Enthalpy                    ...   -288.71163689 Eh

-------
ENTROPY
-------

The entropy contributions are T*S = T*(S(el)+S(vib)+S(rot)+S(trans)
     S(el)   - electronic entropy
     S(vib)  - vibrational entropy
     S(rot)  - rotational entropy
     S(trans)- translational entropy
The entropies will be listed as mutliplied by the temperature to get
units of energy

Electronic entropy                ...      0.00000000 Eh      0.00 kcal/mol
Vibrational entropy               ...      0.00525549 Eh      3.30 kcal/mol
Rotational entropy                ...      0.01168609 Eh      7.33 kcal/mol
Translational entropy             ...      0.01881568 Eh     11.81 kcal/mol
-----------------------------------------------------------------------
Final entropy term                ...      0.03575726 Eh     22.44 kcal/mol

CAUTION: The rotational entropy is not quite correctly treated here
         because it includes a symmetry number that is not yet correctly
         implemented in ORCA!
For a nonlinear molecule the correct rotational entropy is:
    S(rot) = R*(ln(qrot/sn)+1.5)
    R    = 8.31441 J/mol/K = 1.987191683e-3 kcal/mol/K
    qrot = 158827.1789092
    sn is the rotational symmetry number. We have assumed 3 here
       if it is different for your molecule then you should correct
       the printed rotational entropy by manually evaluating the equation
       as given above

For convenience we print out the resulting values for sn=1 - 12:
 sn= 1  qrot/sn=  158827.1789 T*S(rot)=     7.98 kcal/mol T*S(tot)=    23.09 kcal/mol
 sn= 2  qrot/sn=   79413.5895 T*S(rot)=     7.57 kcal/mol T*S(tot)=    22.68 kcal/mol
 sn= 3  qrot/sn=   52942.3930 T*S(rot)=     7.33 kcal/mol T*S(tot)=    22.44 kcal/mol
 sn= 4  qrot/sn=   39706.7947 T*S(rot)=     7.16 kcal/mol T*S(tot)=    22.27 kcal/mol
 sn= 5  qrot/sn=   31765.4358 T*S(rot)=     7.03 kcal/mol T*S(tot)=    22.14 kcal/mol
 sn= 6  qrot/sn=   26471.1965 T*S(rot)=     6.92 kcal/mol T*S(tot)=    22.03 kcal/mol
 sn= 7  qrot/sn=   22689.5970 T*S(rot)=     6.83 kcal/mol T*S(tot)=    21.94 kcal/mol
 sn= 8  qrot/sn=   19853.3974 T*S(rot)=     6.75 kcal/mol T*S(tot)=    21.86 kcal/mol
 sn= 9  qrot/sn=   17647.4643 T*S(rot)=     6.68 kcal/mol T*S(tot)=    21.79 kcal/mol
 sn=10  qrot/sn=   15882.7179 T*S(rot)=     6.62 kcal/mol T*S(tot)=    21.72 kcal/mol
 sn=11  qrot/sn=   14438.8344 T*S(rot)=     6.56 kcal/mol T*S(tot)=    21.67 kcal/mol
 sn=12  qrot/sn=   13235.5982 T*S(rot)=     6.51 kcal/mol T*S(tot)=    21.62 kcal/mol

-------------------
GIBBS FREE ENTHALPY
-------------------

The Gibbs free enthalpy is G = H - T*S

Total enthalpy                    ...   -288.71163689 Eh
Total entropy correction          ...     -0.03575726 Eh    -22.44 kcal/mol
-----------------------------------------------------------------------
Final Gibbs free enthalpy         ...   -288.74739415 Eh

For completeness - the Gibbs free enthalpy minus the electronic energy
G-E(el)                           ...      0.12507812 Eh     78.49 kcal/mol

                             ****ORCA TERMINATED NORMALLY****
TOTAL RUN TIME: 0 days 0 hours 38 minutes 46 seconds 512 msec
