                         Program Version 3.0.3 - RELEASE   -
|  1> ! NORI PBE0 def2-TZVP UseSym TightOPT Freq TightSCF Grid3 FinalGrid5 XYZFile
|  2> % pal
|  3>     nprocs 8
|  4> end
|  5> %method
|  6>     SymThresh 5.0e-2
|  7> end
|  8> % geom
|  9>     MaxIter 10
| 10> end
| 11> % maxcore 2000
| 12> % output
| 13>     printlevel mini
| 14>     print[ P_Basis ] 0
| 15>     print[ P_SCFInfo ] 1
| 16>     print[ P_SCFIterInfo ] 1
| 17>     print[ P_OrbEn ] 0
| 18>     print[ P_Cartesian ] 0
| 19> end
| 20> % elprop
| 21>     Dipole false
| 22> end
| 23> *xyz 1 1
| 24>  C        0.9251087703     0.2301453875    -0.3131814474
| 25>  N        2.3891073985     0.2326369297    -0.2123892639
| 26>  C        3.2162663979    -0.7945886146    -0.8803969011
| 27>  C        3.2652186791     0.6025215396    -1.3543007314
| 28>  C        4.4335948775     1.4831273813    -1.0999750520
| 29>  C        4.2707002149     2.8787248312    -0.5858717323
| 30>  C        4.9179933440     1.8386235583     0.2741546023
| 31>  H        0.5540453717     1.2389071520    -0.1365176757
| 32>  H        0.5192224055    -0.4572899192     0.4280584265
| 33>  H        0.6403750221    -0.0966179291    -1.3115066810
| 34>  H        2.7496706531     0.5266126180     0.6904783797
| 35>  H        4.0349312062    -1.1673195684    -0.2771721886
| 36>  H        2.6420603148    -1.5331246697    -1.4250061757
| 37>  H        2.6755295049     0.8295162518    -2.2377759274
| 38>  H        5.2032902959     1.3299855875    -1.8501838695
| 39>  H        3.2760154107     3.2087349575    -0.3091452911
| 40>  H        4.8888765419     3.6534926250    -1.0191026341
| 41>  H        5.9885875105     1.8771778701     0.4265472279
| 42>  H        4.3819160806     1.5065940113     1.1590569349
| 43> *
| 44>
| 45>                          ****END OF INPUT****
 Total Charge           Charge          ....    1
 Multiplicity           Mult            ....    1
 Number of Electrons    NEL             ....   54
FINAL SINGLE POINT ENERGY      -290.064537644172
FINAL SINGLE POINT ENERGY      -290.064538833797
FINAL SINGLE POINT ENERGY      -290.064539504758

CARTESIAN COORDINATES (ANGSTROEM)
---------------------------------
  C      0.981108    0.000542    2.282651
  N     -0.001960   -0.000164    1.192790
  C     -0.880075    1.161517    0.938507
  C      0.173143    0.816724   -0.036893
  C     -0.137251    0.202754   -1.353371
  C      0.619004   -0.980755   -1.868905
  C     -0.827427   -1.119391   -1.509499
  H      1.771367   -0.711750    2.049758
  H      0.482400   -0.276539    3.210768
  H      1.402549    0.999786    2.376410
  H     -0.448895   -0.897371    1.028168
  H     -1.906076    0.900865    0.710227
  H     -0.732014    1.981749    1.629325
  H      1.084900    1.404651    0.016119
  H     -0.399809    0.964042   -2.081139
  H      1.344509   -1.448578   -1.212993
  H      0.898395   -0.987519   -2.913830
  H     -1.558459   -1.204115   -2.302599
  H     -1.078181   -1.725690   -0.643351

FINAL SINGLE POINT ENERGY      -290.064539877230
                    ***********************HURRAY********************
 Multiplicity           Mult            ....    1
 Number of Electrons    NEL             ....   54
 Basis Dimension        Dim             ....  289
FINAL SINGLE POINT ENERGY      -290.064540210720

VIBRATIONAL FREQUENCIES
-----------------------

   0:         0.00 cm**-1
   1:         0.00 cm**-1
   2:         0.00 cm**-1
   3:         0.00 cm**-1
   4:         0.00 cm**-1
   5:         0.00 cm**-1
   6:        47.78 cm**-1
   7:       141.40 cm**-1
   8:       190.98 cm**-1
   9:       217.86 cm**-1
  10:       318.74 cm**-1
  11:       364.54 cm**-1
  12:       468.53 cm**-1
  13:       505.57 cm**-1
  14:       727.86 cm**-1
  15:       776.65 cm**-1
  16:       823.46 cm**-1
  17:       834.60 cm**-1
  18:       869.73 cm**-1
  19:       921.76 cm**-1
  20:       960.63 cm**-1
  21:       969.77 cm**-1
  22:      1039.32 cm**-1
  23:      1063.63 cm**-1
  24:      1090.01 cm**-1
  25:      1096.42 cm**-1
  26:      1125.37 cm**-1
  27:      1137.15 cm**-1
  28:      1150.14 cm**-1
  29:      1161.07 cm**-1
  30:      1168.03 cm**-1
  31:      1188.93 cm**-1
  32:      1197.22 cm**-1
  33:      1229.38 cm**-1
  34:      1251.67 cm**-1
  35:      1291.60 cm**-1
  36:      1379.00 cm**-1
  37:      1417.49 cm**-1
  38:      1454.07 cm**-1
  39:      1459.34 cm**-1
  40:      1472.88 cm**-1
  41:      1483.90 cm**-1
  42:      1493.57 cm**-1
  43:      1513.18 cm**-1
  44:      1525.52 cm**-1
  45:      3084.60 cm**-1
  46:      3132.37 cm**-1
  47:      3157.64 cm**-1
  48:      3167.66 cm**-1
  49:      3173.30 cm**-1
  50:      3177.51 cm**-1
  51:      3181.83 cm**-1
  52:      3186.98 cm**-1
  53:      3231.70 cm**-1
  54:      3251.02 cm**-1
  55:      3271.37 cm**-1
  56:      3527.08 cm**-1

IR SPECTRUM
-----------

 Mode    freq (cm**-1)   T**2         TX         TY         TZ
-------------------------------------------------------------------
   6:        47.78    0.523311  (  0.566837  -0.237424  -0.381623)
   7:       141.40    1.679695  (  0.255278  -0.020369   1.270478)
   8:       190.98    0.574902  (  0.092444   0.056664   0.750430)
   9:       217.86    3.956002  (  0.206322  -0.532108  -1.905333)
  10:       318.74    0.463184  ( -0.570639  -0.184864  -0.321529)
  11:       364.54    0.889402  (  0.276780   0.515466   0.739654)
  12:       468.53    0.864483  (  0.611304   0.699691   0.034961)
  13:       505.57    2.504694  ( -0.619739   0.396825   1.401124)
  14:       727.86    6.902888  ( -0.425431   2.534009   0.548354)
  15:       776.65    0.220864  ( -0.356688   0.045805   0.302555)
  16:       823.46   13.428244  ( -0.964483  -2.183973   2.779979)
  17:       834.60    5.979189  (  2.138914  -1.089545   0.465970)
  18:       869.73    5.913143  (  0.810331   0.847703  -2.130236)
  19:       921.76    7.095927  ( -1.953410   0.393317   1.767885)
  20:       960.63    9.625630  ( -2.963363   0.033764   0.918133)
  21:       969.77    8.013692  ( -0.714282  -1.555975  -2.254426)
  22:      1039.32   35.172370  ( -1.905923   5.143905  -2.253900)
  23:      1063.63    6.273332  (  0.636641  -2.020568  -1.336161)
  24:      1090.01    5.995934  (  2.390563   0.264281   0.459674)
  25:      1096.42    3.699562  (  0.521655   1.422860  -1.184444)
  26:      1125.37    3.800889  (  1.106646   0.335866  -1.569528)
  27:      1137.15   20.994202  ( -0.610484  -0.036546   4.540944)
  28:      1150.14    3.336637  (  1.316909   0.731513   1.033092)
  29:      1161.07   15.890129  ( -2.017879   0.039458   3.437548)
  30:      1168.03    1.150457  (  0.144045   1.046217  -0.187450)
  31:      1188.93    1.335156  (  1.017345   0.165635  -0.522236)
  32:      1197.22    0.396744  (  0.310249   0.100121   0.538948)
  33:      1229.38    6.762737  (  1.967646  -1.664601  -0.346710)
  34:      1251.67    2.643400  (  0.825357   0.776441   1.165901)
  35:      1291.60    5.078017  ( -0.078421   2.170374  -0.601119)
  36:      1379.00    1.512037  (  0.084047   0.919816   0.811734)
  37:      1417.49   15.181997  (  1.897771  -2.339140   2.471616)
  38:      1454.07    3.496222  (  1.511972   0.566495  -0.942999)
  39:      1459.34   22.914519  (  3.966507   1.281704   2.353418)
  40:      1472.88    3.373891  (  1.609902   0.276716  -0.839961)
  41:      1483.90   16.358613  (  2.486092  -1.303007  -2.912067)
  42:      1493.57   24.985442  (  0.092949   4.982482   0.389451)
  43:      1513.18   24.651315  (  0.405538  -0.143854  -4.946328)
  44:      1525.52   19.455296  (  0.266569  -1.882367   3.980067)
  45:      3084.60    0.618108  (  0.472270  -0.081240   0.623274)
  46:      3132.37   15.267653  ( -0.943967  -0.811577   3.703771)
  47:      3157.64    4.287662  ( -1.337339   0.610041  -1.458437)
  48:      3167.66    1.830787  (  1.072724  -0.741680  -0.360502)
  49:      3173.30    0.152238  (  0.366567  -0.110858  -0.074680)
  50:      3177.51    2.852182  (  0.054960  -0.238032  -1.671078)
  51:      3181.83    0.195102  ( -0.306031   0.062074   0.312401)
  52:      3186.98    0.074430  ( -0.207759  -0.051475  -0.169164)
  53:      3231.70    0.704185  (  0.351471   0.109742  -0.754062)
  54:      3251.02    0.351300  ( -0.266178   0.232433  -0.475841)
  55:      3271.37    3.804431  (  1.303882   1.147876   0.886962)
  56:      3527.08   70.327886  ( -2.807737  -7.529087  -2.399446)

--------------------------
THERMOCHEMISTRY AT 298.15K
--------------------------

Temperature         ... 298.15 K
Pressure            ... 1.00 atm
Total Mass          ... 98.17 AMU

Throughout the following assumptions are being made:
  (1) The electronic state is orbitally nondegenerate
  (2) There are no thermally accessible electronically excited states
  (3) Hindered rotations indicated by low frequency modes) are not
      treated as such but are treated as vibrations and this may
      case some error
  (4) All equations used are the standard statistical mechanics
      equations for an ideal gas
  (5) All vibrations are strinctly harmonic

------------
INNER ENERGY
------------

The inner energy is: U= E(el) + E(ZPE) + E(vib) + E(rot) + E(trans)
    E(el)   - is the total energy from the electronic structure calculation
              = E(kin-el) + E(nuc-el) + E(el-el) + E(nuc-nuc)
    E(ZPE)  - the the zero temperature vibrational energy from the frequency calculation
    E(vib)  - the the finite temperature correction to E(ZPE) due to population
              of excietd vibrational states
    E(rot)  - is the rotational thermal energy
    E(trans)- is the translational thermal energy

Summary of contributions to the inner energy U:
Electronic energy                ...   -290.06454021 Eh
Zero point energy                ...      0.17558249 Eh     110.18 kcal/mol
Thermal vibrational correction   ...      0.00468143 Eh       2.94 kcal/mol
Thermal rotational correction    ...      0.00141627 Eh       0.89 kcal/mol
Thermal translational correction ...      0.00141627 Eh       0.89 kcal/mol
-----------------------------------------------------------------------
Total thermal energy                   -289.88144375 Eh

Summary of corrections to the electronic energy:
(perhaps to be used in another calculation)
Total thermal correction                  0.00751397 Eh       4.72 kcal/mol
Non-thermal (ZPE) correction              0.17558249 Eh     110.18 kcal/mol
-----------------------------------------------------------------------
Total correction                          0.18309646 Eh     114.89 kcal/mol

--------
ENTHALPY
--------

The enthalpy is H = U + kB*T
                kB is Boltzmann's constant
Total free energy                 ...   -289.88144375 Eh
Thermal Enthalpy correction       ...      0.00094421 Eh       0.59 kcal/mol
-----------------------------------------------------------------------
Total Enthalpy                    ...   -289.88049954 Eh

-------
ENTROPY
-------

The entropy contributions are T*S = T*(S(el)+S(vib)+S(rot)+S(trans)
     S(el)   - electronic entropy
     S(vib)  - vibrational entropy
     S(rot)  - rotational entropy
     S(trans)- translational entropy
The entropies will be listed as mutliplied by the temperature to get
units of energy

Electronic entropy                ...      0.00000000 Eh      0.00 kcal/mol
Vibrational entropy               ...      0.00850960 Eh      5.34 kcal/mol
Rotational entropy                ...      0.01202194 Eh      7.54 kcal/mol
Translational entropy             ...      0.01884507 Eh     11.83 kcal/mol
-----------------------------------------------------------------------
Final entropy term                ...      0.03937661 Eh     24.71 kcal/mol

CAUTION: The rotational entropy is not quite correctly treated here
         because it includes a symmetry number that is not yet correctly
         implemented in ORCA!
For a nonlinear molecule the correct rotational entropy is:
    S(rot) = R*(ln(qrot/sn)+1.5)
    R    = 8.31441 J/mol/K = 1.987191683e-3 kcal/mol/K
    qrot = 226676.1628476
    sn is the rotational symmetry number. We have assumed 3 here
       if it is different for your molecule then you should correct
       the printed rotational entropy by manually evaluating the equation
       as given above

For convenience we print out the resulting values for sn=1 - 12:
 sn= 1  qrot/sn=  226676.1628 T*S(rot)=     8.19 kcal/mol T*S(tot)=    25.36 kcal/mol
 sn= 2  qrot/sn=  113338.0814 T*S(rot)=     7.78 kcal/mol T*S(tot)=    24.95 kcal/mol
 sn= 3  qrot/sn=   75558.7209 T*S(rot)=     7.54 kcal/mol T*S(tot)=    24.71 kcal/mol
 sn= 4  qrot/sn=   56669.0407 T*S(rot)=     7.37 kcal/mol T*S(tot)=    24.54 kcal/mol
 sn= 5  qrot/sn=   45335.2326 T*S(rot)=     7.24 kcal/mol T*S(tot)=    24.41 kcal/mol
 sn= 6  qrot/sn=   37779.3605 T*S(rot)=     7.13 kcal/mol T*S(tot)=    24.30 kcal/mol
 sn= 7  qrot/sn=   32382.3090 T*S(rot)=     7.04 kcal/mol T*S(tot)=    24.21 kcal/mol
 sn= 8  qrot/sn=   28334.5204 T*S(rot)=     6.96 kcal/mol T*S(tot)=    24.13 kcal/mol
 sn= 9  qrot/sn=   25186.2403 T*S(rot)=     6.89 kcal/mol T*S(tot)=    24.06 kcal/mol
 sn=10  qrot/sn=   22667.6163 T*S(rot)=     6.83 kcal/mol T*S(tot)=    24.00 kcal/mol
 sn=11  qrot/sn=   20606.9239 T*S(rot)=     6.77 kcal/mol T*S(tot)=    23.94 kcal/mol
 sn=12  qrot/sn=   18889.6802 T*S(rot)=     6.72 kcal/mol T*S(tot)=    23.89 kcal/mol

-------------------
GIBBS FREE ENTHALPY
-------------------

The Gibbs free enthalpy is G = H - T*S

Total enthalpy                    ...   -289.88049954 Eh
Total entropy correction          ...     -0.03937661 Eh    -24.71 kcal/mol
-----------------------------------------------------------------------
Final Gibbs free enthalpy         ...   -289.91987615 Eh

For completeness - the Gibbs free enthalpy minus the electronic energy
G-E(el)                           ...      0.14466406 Eh     90.78 kcal/mol

                             ****ORCA TERMINATED NORMALLY****
TOTAL RUN TIME: 0 days 0 hours 43 minutes 44 seconds 643 msec
