                         Program Version 3.0.3 - RELEASE   -
|  1> ! NORI PBE0 def2-TZVP UseSym TightOPT Freq TightSCF Grid3 FinalGrid5 XYZFile
|  2> % pal
|  3>     nprocs 8
|  4> end
|  5> %method
|  6>     SymThresh 5.0e-2
|  7> end
|  8> % geom
|  9>     MaxIter 10
| 10> end
| 11> % maxcore 2000
| 12> % output
| 13>     printlevel mini
| 14>     print[ P_Basis ] 0
| 15>     print[ P_SCFInfo ] 1
| 16>     print[ P_SCFIterInfo ] 1
| 17>     print[ P_OrbEn ] 0
| 18>     print[ P_Cartesian ] 0
| 19> end
| 20> % elprop
| 21>     Dipole false
| 22> end
| 23> *xyz 1 1
| 24>  C        1.1474235134     0.0738195687     0.0141945731
| 25>  N        2.5956288828    -0.0963927556    -0.1546874227
| 26>  C        3.1770381533    -0.6573521073    -1.3928856392
| 27>  C        3.4017020678     0.7639334283    -1.0503713926
| 28>  C        4.7234519799     1.2437225414    -0.5658736773
| 29>  C        5.7018564498     1.5254080131    -1.6600949084
| 30>  C        4.9717860064     1.4151967382     0.7269296605
| 31>  H        0.9658558276     0.8495958966     0.7570392575
| 32>  H        0.7150693663    -0.8716777110     0.3394109068
| 33>  H        0.7124572719     0.3680564285    -0.9393459042
| 34>  H        3.0927619064    -0.3671508599     0.6893531502
| 35>  H        3.9771284933    -1.3675329169    -1.2248289531
| 36>  H        2.4418915195    -0.9226784996    -2.1421554304
| 37>  H        2.7830704671     1.4836568273    -1.5805069179
| 38>  H        5.8911400514     0.6342210088    -2.2663778538
| 39>  H        6.6495870539     1.8717874473    -1.2515167127
| 40>  H        5.3214365482     2.2973799515    -2.3368283935
| 41>  H        5.9416445062     1.7578378860     1.0652338619
| 42>  H        4.2298199348     1.2561991146     1.5037517958
| 43> *
| 44>
| 45>                          ****END OF INPUT****
 Total Charge           Charge          ....    1
 Multiplicity           Mult            ....    1
 Number of Electrons    NEL             ....   54
FINAL SINGLE POINT ENERGY      -290.071699096278
FINAL SINGLE POINT ENERGY      -290.071701117881
FINAL SINGLE POINT ENERGY      -290.071702366375

CARTESIAN COORDINATES (ANGSTROEM)
---------------------------------
  C      0.965854    0.000305    2.425628
  N      0.000180   -0.001321    1.320029
  C     -0.548279    1.252324    0.759478
  C      0.361141    0.415829   -0.053587
  C     -0.142796   -0.396277   -1.193213
  C     -0.279782    0.371683   -2.467728
  C     -0.414019   -1.689133   -1.061420
  H      1.537120   -0.926586    2.398411
  H      0.426195    0.086110    3.367908
  H      1.636478    0.849605    2.307270
  H     -0.666740   -0.767941    1.339077
  H     -1.611395    1.219901    0.555100
  H     -0.174581    2.148052    1.239080
  H      1.392225    0.755364   -0.112533
  H     -0.967259    1.215296   -2.354522
  H     -0.648394   -0.268817   -3.267402
  H      0.684315    0.784666   -2.780363
  H     -0.787868   -2.265964   -1.898350
  H     -0.255135   -2.241997   -0.140446

FINAL SINGLE POINT ENERGY      -290.071702746462
                    ***********************HURRAY********************
 Multiplicity           Mult            ....    1
 Number of Electrons    NEL             ....   54
 Basis Dimension        Dim             ....  289
FINAL SINGLE POINT ENERGY      -290.071702984925

VIBRATIONAL FREQUENCIES
-----------------------

   0:         0.00 cm**-1
   1:         0.00 cm**-1
   2:         0.00 cm**-1
   3:         0.00 cm**-1
   4:         0.00 cm**-1
   5:         0.00 cm**-1
   6:        63.56 cm**-1
   7:       151.24 cm**-1
   8:       167.23 cm**-1
   9:       195.28 cm**-1
  10:       225.85 cm**-1
  11:       299.64 cm**-1
  12:       390.63 cm**-1
  13:       409.17 cm**-1
  14:       488.77 cm**-1
  15:       544.28 cm**-1
  16:       711.65 cm**-1
  17:       776.03 cm**-1
  18:       838.36 cm**-1
  19:       885.16 cm**-1
  20:       935.04 cm**-1
  21:       958.58 cm**-1
  22:       971.23 cm**-1
  23:      1020.46 cm**-1
  24:      1029.49 cm**-1
  25:      1067.55 cm**-1
  26:      1092.12 cm**-1
  27:      1136.66 cm**-1
  28:      1151.98 cm**-1
  29:      1162.11 cm**-1
  30:      1196.14 cm**-1
  31:      1234.26 cm**-1
  32:      1267.65 cm**-1
  33:      1285.17 cm**-1
  34:      1394.60 cm**-1
  35:      1413.58 cm**-1
  36:      1444.98 cm**-1
  37:      1454.29 cm**-1
  38:      1458.02 cm**-1
  39:      1468.42 cm**-1
  40:      1482.61 cm**-1
  41:      1485.34 cm**-1
  42:      1493.90 cm**-1
  43:      1514.19 cm**-1
  44:      1735.59 cm**-1
  45:      3048.40 cm**-1
  46:      3084.77 cm**-1
  47:      3106.30 cm**-1
  48:      3156.07 cm**-1
  49:      3163.82 cm**-1
  50:      3165.54 cm**-1
  51:      3166.42 cm**-1
  52:      3182.71 cm**-1
  53:      3186.34 cm**-1
  54:      3248.28 cm**-1
  55:      3270.86 cm**-1
  56:      3524.99 cm**-1

IR SPECTRUM
-----------

 Mode    freq (cm**-1)   T**2         TX         TY         TZ
-------------------------------------------------------------------
   6:        63.56    0.190016  (  0.361560  -0.175383   0.168913)
   7:       151.24    0.487678  (  0.036033  -0.073014   0.693577)
   8:       167.23    0.646949  ( -0.382176   0.299734   0.641133)
   9:       195.28    0.153894  ( -0.191491   0.103807  -0.326266)
  10:       225.85    1.122320  ( -0.039192   0.361540   0.995024)
  11:       299.64    3.930475  ( -0.498570  -0.109193  -1.915719)
  12:       390.63    0.929397  (  0.606285   0.711222   0.236598)
  13:       409.17    4.278003  (  1.178286  -0.178857  -1.690460)
  14:       488.77    0.170136  ( -0.109092  -0.342057   0.203057)
  15:       544.28   11.643557  (  2.988975  -1.127101  -1.199679)
  16:       711.65    0.201716  (  0.012167  -0.447339  -0.038150)
  17:       776.03    5.365015  (  0.704618  -2.187696  -0.287249)
  18:       838.36   14.472284  ( -1.362011  -1.274020   3.315733)
  19:       885.16    3.708283  ( -0.418282   0.074556   1.878235)
  20:       935.04    5.635029  (  0.061956  -0.853798  -2.214096)
  21:       958.58   48.794732  (  6.236746  -2.027671  -2.405468)
  22:       971.23    5.315701  ( -2.062845  -0.899630   0.501034)
  23:      1020.46    9.712406  ( -1.779678   0.801009  -2.429720)
  24:      1029.49   10.745408  (  0.249769  -3.115584   0.988009)
  25:      1067.55    7.175230  (  0.009605   0.985114  -2.490921)
  26:      1092.12   10.547541  ( -1.527606   1.174586  -2.614251)
  27:      1136.66   32.822074  (  0.863912  -1.005772  -5.573522)
  28:      1151.98    8.851952  ( -2.429364   0.749567   1.545410)
  29:      1162.11    4.061760  (  1.337678   0.897440  -1.211190)
  30:      1196.14    1.160341  ( -0.128399  -0.397409  -0.992935)
  31:      1234.26    4.779270  ( -1.747329   1.207322  -0.518155)
  32:      1267.65    8.049599  ( -0.260022  -0.193968  -2.818575)
  33:      1285.17    5.152258  (  0.237280   2.256517  -0.063935)
  34:      1394.60    1.840550  ( -0.222430   1.043459  -0.838015)
  35:      1413.58   12.586112  ( -0.290499   1.790722  -3.048776)
  36:      1444.98    5.867710  (  1.074634  -0.766599   2.031058)
  37:      1454.29    4.946189  (  1.569936   0.464010  -1.505385)
  38:      1458.02   14.933294  ( -3.003265   1.377197  -2.004251)
  39:      1468.42   12.831275  ( -3.354549   0.566117   1.121510)
  40:      1482.61    8.809202  ( -2.596008   0.217153   1.422248)
  41:      1485.34   21.168629  (  0.389932   4.188312   1.864036)
  42:      1493.90   31.997763  ( -1.283389  -5.460932   0.727256)
  43:      1514.19   32.150247  ( -0.341856   0.390446   5.646320)
  44:      1735.59    9.997212  (  0.511918   2.867682  -1.229453)
  45:      3048.40    3.396620  (  0.098491   1.777199  -0.477998)
  46:      3084.77    0.467095  ( -0.399386  -0.005522  -0.554577)
  47:      3106.30    3.722247  (  1.724906  -0.796808  -0.334728)
  48:      3156.07    6.617279  (  0.660555   0.159731   2.481014)
  49:      3163.82    1.314077  ( -0.316105  -0.818515  -0.737691)
  50:      3165.54    2.829837  ( -0.872433   0.861919   1.151430)
  51:      3166.42    1.330260  (  0.748897  -0.848761   0.221401)
  52:      3182.71    0.187101  ( -0.352324   0.220455   0.119870)
  53:      3186.34    0.197258  (  0.199165   0.206484   0.339051)
  54:      3248.28    1.921829  (  0.048966   0.923029  -1.033174)
  55:      3270.86    4.154996  ( -1.725153  -0.922122  -0.573177)
  56:      3524.99   64.765262  ( -4.752309  -6.493435   0.126970)

--------------------------
THERMOCHEMISTRY AT 298.15K
--------------------------

Temperature         ... 298.15 K
Pressure            ... 1.00 atm
Total Mass          ... 98.17 AMU

Throughout the following assumptions are being made:
  (1) The electronic state is orbitally nondegenerate
  (2) There are no thermally accessible electronically excited states
  (3) Hindered rotations indicated by low frequency modes) are not
      treated as such but are treated as vibrations and this may
      case some error
  (4) All equations used are the standard statistical mechanics
      equations for an ideal gas
  (5) All vibrations are strinctly harmonic

------------
INNER ENERGY
------------

The inner energy is: U= E(el) + E(ZPE) + E(vib) + E(rot) + E(trans)
    E(el)   - is the total energy from the electronic structure calculation
              = E(kin-el) + E(nuc-el) + E(el-el) + E(nuc-nuc)
    E(ZPE)  - the the zero temperature vibrational energy from the frequency calculation
    E(vib)  - the the finite temperature correction to E(ZPE) due to population
              of excietd vibrational states
    E(rot)  - is the rotational thermal energy
    E(trans)- is the translational thermal energy

Summary of contributions to the inner energy U:
Electronic energy                ...   -290.07170298 Eh
Zero point energy                ...      0.17383628 Eh     109.08 kcal/mol
Thermal vibrational correction   ...      0.00536651 Eh       3.37 kcal/mol
Thermal rotational correction    ...      0.00141627 Eh       0.89 kcal/mol
Thermal translational correction ...      0.00141627 Eh       0.89 kcal/mol
-----------------------------------------------------------------------
Total thermal energy                   -289.88966765 Eh

Summary of corrections to the electronic energy:
(perhaps to be used in another calculation)
Total thermal correction                  0.00819906 Eh       5.14 kcal/mol
Non-thermal (ZPE) correction              0.17383628 Eh     109.08 kcal/mol
-----------------------------------------------------------------------
Total correction                          0.18203534 Eh     114.23 kcal/mol

--------
ENTHALPY
--------

The enthalpy is H = U + kB*T
                kB is Boltzmann's constant
Total free energy                 ...   -289.88966765 Eh
Thermal Enthalpy correction       ...      0.00094421 Eh       0.59 kcal/mol
-----------------------------------------------------------------------
Total Enthalpy                    ...   -289.88872344 Eh

-------
ENTROPY
-------

The entropy contributions are T*S = T*(S(el)+S(vib)+S(rot)+S(trans)
     S(el)   - electronic entropy
     S(vib)  - vibrational entropy
     S(rot)  - rotational entropy
     S(trans)- translational entropy
The entropies will be listed as mutliplied by the temperature to get
units of energy

Electronic entropy                ...      0.00000000 Eh      0.00 kcal/mol
Vibrational entropy               ...      0.00953524 Eh      5.98 kcal/mol
Rotational entropy                ...      0.01208951 Eh      7.59 kcal/mol
Translational entropy             ...      0.01884507 Eh     11.83 kcal/mol
-----------------------------------------------------------------------
Final entropy term                ...      0.04046983 Eh     25.40 kcal/mol

CAUTION: The rotational entropy is not quite correctly treated here
         because it includes a symmetry number that is not yet correctly
         implemented in ORCA!
For a nonlinear molecule the correct rotational entropy is:
    S(rot) = R*(ln(qrot/sn)+1.5)
    R    = 8.31441 J/mol/K = 1.987191683e-3 kcal/mol/K
    qrot = 243493.5883764
    sn is the rotational symmetry number. We have assumed 3 here
       if it is different for your molecule then you should correct
       the printed rotational entropy by manually evaluating the equation
       as given above

For convenience we print out the resulting values for sn=1 - 12:
 sn= 1  qrot/sn=  243493.5884 T*S(rot)=     8.24 kcal/mol T*S(tot)=    26.05 kcal/mol
 sn= 2  qrot/sn=  121746.7942 T*S(rot)=     7.83 kcal/mol T*S(tot)=    25.64 kcal/mol
 sn= 3  qrot/sn=   81164.5295 T*S(rot)=     7.59 kcal/mol T*S(tot)=    25.40 kcal/mol
 sn= 4  qrot/sn=   60873.3971 T*S(rot)=     7.42 kcal/mol T*S(tot)=    25.22 kcal/mol
 sn= 5  qrot/sn=   48698.7177 T*S(rot)=     7.28 kcal/mol T*S(tot)=    25.09 kcal/mol
 sn= 6  qrot/sn=   40582.2647 T*S(rot)=     7.18 kcal/mol T*S(tot)=    24.98 kcal/mol
 sn= 7  qrot/sn=   34784.7983 T*S(rot)=     7.08 kcal/mol T*S(tot)=    24.89 kcal/mol
 sn= 8  qrot/sn=   30436.6985 T*S(rot)=     7.01 kcal/mol T*S(tot)=    24.81 kcal/mol
 sn= 9  qrot/sn=   27054.8432 T*S(rot)=     6.94 kcal/mol T*S(tot)=    24.74 kcal/mol
 sn=10  qrot/sn=   24349.3588 T*S(rot)=     6.87 kcal/mol T*S(tot)=    24.68 kcal/mol
 sn=11  qrot/sn=   22135.7808 T*S(rot)=     6.82 kcal/mol T*S(tot)=    24.63 kcal/mol
 sn=12  qrot/sn=   20291.1324 T*S(rot)=     6.76 kcal/mol T*S(tot)=    24.57 kcal/mol

-------------------
GIBBS FREE ENTHALPY
-------------------

The Gibbs free enthalpy is G = H - T*S

Total enthalpy                    ...   -289.88872344 Eh
Total entropy correction          ...     -0.04046983 Eh    -25.40 kcal/mol
-----------------------------------------------------------------------
Final Gibbs free enthalpy         ...   -289.92919327 Eh

For completeness - the Gibbs free enthalpy minus the electronic energy
G-E(el)                           ...      0.14250972 Eh     89.43 kcal/mol

                             ****ORCA TERMINATED NORMALLY****
TOTAL RUN TIME: 0 days 0 hours 42 minutes 54 seconds 921 msec
