                         Program Version 3.0.3 - RELEASE   -
|  1> ! NORI PBE0 def2-TZVP UseSym TightOPT Freq TightSCF Grid3 FinalGrid5 XYZFile
|  2> % pal
|  3>     nprocs 8
|  4> end
|  5> %method
|  6>     SymThresh 5.0e-2
|  7> end
|  8> % geom
|  9>     MaxIter 10
| 10> end
| 11> % maxcore 2000
| 12> % output
| 13>     printlevel mini
| 14>     print[ P_Basis ] 0
| 15>     print[ P_SCFInfo ] 1
| 16>     print[ P_SCFIterInfo ] 1
| 17>     print[ P_OrbEn ] 0
| 18>     print[ P_Cartesian ] 0
| 19> end
| 20> % elprop
| 21>     Dipole false
| 22> end
| 23> *xyz 1 1
| 24>  C        0.8691871473     0.3126923893    -0.6389385121
| 25>  N        2.2389119138     0.0674310904    -0.1722424129
| 26>  C        3.0515898185    -1.0482328318    -0.7054945155
| 27>  C        3.4360697214     0.3388100828    -1.0204979937
| 28>  C        4.6187477699     1.0064975495    -0.3759074637
| 29>  C        5.8636940231     0.7384482677    -1.1689707286
| 30>  C        6.5540724714     1.6813579018    -1.7907347889
| 31>  H        0.6161374400     1.3573448739    -0.4631848670
| 32>  H        0.1857075668    -0.3386029542    -0.0960423219
| 33>  H        0.8148949113     0.0954751909    -1.7044526304
| 34>  H        2.3825131207     0.2581267695     0.8147402250
| 35>  H        3.6108776080    -1.5940481000     0.0451875749
| 36>  H        2.5358431064    -1.6491577904    -1.4435555228
| 37>  H        3.1503492280     0.7114835358    -1.9985968101
| 38>  H        4.4389923912     2.0829932668    -0.3125134186
| 39>  H        4.7377671515     0.6260071713     0.6477370526
| 40>  H        6.1979547008    -0.2953760288    -1.2106925884
| 41>  H        6.2561553901     2.7247593528    -1.7598871308
| 42>  H        7.4547245198     1.4450102626    -2.3438531469
| 43> *
| 44>
| 45>                          ****END OF INPUT****
 Total Charge           Charge          ....    1
 Multiplicity           Mult            ....    1
 Number of Electrons    NEL             ....   54
FINAL SINGLE POINT ENERGY      -290.067235606013
FINAL SINGLE POINT ENERGY      -290.067237494397

CARTESIAN COORDINATES (ANGSTROEM)
---------------------------------
  C      1.084443    0.001038    2.664831
  N     -0.001499   -0.000569    1.677439
  C     -0.423563    1.238882    0.988594
  C      0.246031    0.176934    0.216600
  C     -0.501633   -0.709999   -0.739412
  C     -0.543569   -0.083633   -2.101850
  C      0.039123   -0.608052   -3.168592
  H      1.507347   -1.000614    2.729385
  H      0.687139    0.307502    3.632008
  H      1.850911    0.703894    2.343256
  H     -0.759455   -0.641218    1.892609
  H     -1.496627    1.359831    0.901327
  H      0.129831    2.117371    1.295418
  H      1.302063    0.319545    0.011452
  H     -0.011119   -1.685491   -0.789926
  H     -1.522552   -0.867609   -0.366550
  H     -1.095254    0.849220   -2.188963
  H      0.587420   -1.543611   -3.121035
  H     -0.023045   -0.125402   -4.136217

FINAL SINGLE POINT ENERGY      -290.067238443229
                    ***********************HURRAY********************
 Multiplicity           Mult            ....    1
 Number of Electrons    NEL             ....   54
 Basis Dimension        Dim             ....  289
FINAL SINGLE POINT ENERGY      -290.067238545164

VIBRATIONAL FREQUENCIES
-----------------------

   0:         0.00 cm**-1
   1:         0.00 cm**-1
   2:         0.00 cm**-1
   3:         0.00 cm**-1
   4:         0.00 cm**-1
   5:         0.00 cm**-1
   6:        71.05 cm**-1
   7:        82.07 cm**-1
   8:       162.76 cm**-1
   9:       201.70 cm**-1
  10:       248.65 cm**-1
  11:       323.64 cm**-1
  12:       380.68 cm**-1
  13:       441.45 cm**-1
  14:       462.81 cm**-1
  15:       644.82 cm**-1
  16:       798.72 cm**-1
  17:       838.32 cm**-1
  18:       884.43 cm**-1
  19:       911.23 cm**-1
  20:       948.15 cm**-1
  21:       959.46 cm**-1
  22:      1002.41 cm**-1
  23:      1025.62 cm**-1
  24:      1048.71 cm**-1
  25:      1088.87 cm**-1
  26:      1128.03 cm**-1
  27:      1157.39 cm**-1
  28:      1159.04 cm**-1
  29:      1183.87 cm**-1
  30:      1201.74 cm**-1
  31:      1238.83 cm**-1
  32:      1261.25 cm**-1
  33:      1299.44 cm**-1
  34:      1315.87 cm**-1
  35:      1334.91 cm**-1
  36:      1403.38 cm**-1
  37:      1452.52 cm**-1
  38:      1455.05 cm**-1
  39:      1459.06 cm**-1
  40:      1474.43 cm**-1
  41:      1483.34 cm**-1
  42:      1495.76 cm**-1
  43:      1516.91 cm**-1
  44:      1726.78 cm**-1
  45:      3025.40 cm**-1
  46:      3083.95 cm**-1
  47:      3104.52 cm**-1
  48:      3159.50 cm**-1
  49:      3165.30 cm**-1
  50:      3167.56 cm**-1
  51:      3180.71 cm**-1
  52:      3186.04 cm**-1
  53:      3192.43 cm**-1
  54:      3254.89 cm**-1
  55:      3266.69 cm**-1
  56:      3537.75 cm**-1

IR SPECTRUM
-----------

 Mode    freq (cm**-1)   T**2         TX         TY         TZ
-------------------------------------------------------------------
   6:        71.05    0.026570  (  0.036252  -0.059602   0.147320)
   7:        82.07    0.507806  ( -0.321777  -0.402283   0.492377)
   8:       162.76    0.256952  (  0.278295   0.364104  -0.216637)
   9:       201.70    0.074887  ( -0.081322   0.191919  -0.177317)
  10:       248.65    0.551438  (  0.639381  -0.270708  -0.263340)
  11:       323.64    3.529768  ( -0.571956   0.472222   1.726164)
  12:       380.68    1.481447  (  0.945320   0.737886   0.208187)
  13:       441.45    0.275652  (  0.011692   0.024832  -0.524307)
  14:       462.81    0.129583  (  0.003921   0.358859  -0.028063)
  15:       644.82   14.655218  ( -3.461528  -1.437342  -0.779162)
  16:       798.72   12.820511  ( -0.986778  -1.609985   3.042158)
  17:       838.32   16.793950  ( -0.572543  -0.826380  -3.972813)
  18:       884.43    7.122883  (  0.952062   2.053573   1.413965)
  19:       911.23    3.392205  (  0.360206  -1.684737   0.651242)
  20:       948.15   26.372597  (  1.846342  -2.979421  -3.753221)
  21:       959.46    5.449365  ( -1.282075   1.044912  -1.647364)
  22:      1002.41   47.775136  ( -5.851201  -3.406347  -1.391182)
  23:      1025.62   11.171041  (  2.485845   1.628519   1.529556)
  24:      1048.71   20.699357  ( -1.216678   1.553334  -4.099537)
  25:      1088.87   18.718920  ( -0.432639   0.659905  -4.253971)
  26:      1128.03    9.329179  ( -2.100931   1.827194  -1.255638)
  27:      1157.39    6.145885  (  1.640915   0.627602   1.749114)
  28:      1159.04    9.865968  (  1.058168  -1.538606  -2.525657)
  29:      1183.87    4.071230  ( -0.926899   0.536452   1.710061)
  30:      1201.74    0.321976  ( -0.294024   0.484086   0.034455)
  31:      1238.83    6.233477  ( -1.789267   0.912649  -1.482927)
  32:      1261.25    6.893528  ( -1.227069   0.070464   2.320100)
  33:      1299.44    4.988930  (  0.714767  -1.787583  -1.132512)
  34:      1315.87    4.466954  (  1.052364  -1.250767  -1.339801)
  35:      1334.91    1.407915  (  0.090640  -0.507632  -1.068649)
  36:      1403.38    0.192357  ( -0.245198   0.017156   0.363237)
  37:      1452.52    1.748720  (  0.882177  -0.551296  -0.816429)
  38:      1455.05   13.843089  (  3.324450  -1.656332  -0.218375)
  39:      1459.06   20.853595  (  1.060472  -1.630997   4.131445)
  40:      1474.43   11.258234  (  1.905135   2.748136   0.276486)
  41:      1483.34   14.631505  ( -1.155916   2.865606   2.254699)
  42:      1495.76   21.584167  ( -1.487724  -4.066818   1.682806)
  43:      1516.91   39.147959  (  0.200139   0.130006  -6.252280)
  44:      1726.78    1.668377  ( -0.741562   0.164044   1.044773)
  45:      3025.40   14.723631  ( -1.832183  -0.898661   3.249484)
  46:      3083.95    0.607265  (  0.469706   0.005366   0.621782)
  47:      3104.52    2.229467  ( -0.909067   1.052371   0.543672)
  48:      3159.50    3.220241  ( -0.834291   1.543736  -0.375606)
  49:      3165.30    2.071465  (  0.575408  -1.318475   0.044653)
  50:      3167.56    1.100917  (  0.645766  -0.786762   0.254772)
  51:      3180.71    0.091667  ( -0.208395   0.218818   0.018902)
  52:      3186.04    0.380917  (  0.083958   0.116508   0.600245)
  53:      3192.43    0.833165  (  0.620880  -0.026636  -0.668554)
  54:      3254.89    0.751526  ( -0.415372   0.744371  -0.157813)
  55:      3266.69    3.799841  ( -1.702470  -0.910424  -0.269375)
  56:      3537.75   73.365831  ( -5.553740  -5.595640   3.348225)

--------------------------
THERMOCHEMISTRY AT 298.15K
--------------------------

Temperature         ... 298.15 K
Pressure            ... 1.00 atm
Total Mass          ... 98.17 AMU

Throughout the following assumptions are being made:
  (1) The electronic state is orbitally nondegenerate
  (2) There are no thermally accessible electronically excited states
  (3) Hindered rotations indicated by low frequency modes) are not
      treated as such but are treated as vibrations and this may
      case some error
  (4) All equations used are the standard statistical mechanics
      equations for an ideal gas
  (5) All vibrations are strinctly harmonic

------------
INNER ENERGY
------------

The inner energy is: U= E(el) + E(ZPE) + E(vib) + E(rot) + E(trans)
    E(el)   - is the total energy from the electronic structure calculation
              = E(kin-el) + E(nuc-el) + E(el-el) + E(nuc-nuc)
    E(ZPE)  - the the zero temperature vibrational energy from the frequency calculation
    E(vib)  - the the finite temperature correction to E(ZPE) due to population
              of excietd vibrational states
    E(rot)  - is the rotational thermal energy
    E(trans)- is the translational thermal energy

Summary of contributions to the inner energy U:
Electronic energy                ...   -290.06723855 Eh
Zero point energy                ...      0.17450287 Eh     109.50 kcal/mol
Thermal vibrational correction   ...      0.00528333 Eh       3.32 kcal/mol
Thermal rotational correction    ...      0.00141627 Eh       0.89 kcal/mol
Thermal translational correction ...      0.00141627 Eh       0.89 kcal/mol
-----------------------------------------------------------------------
Total thermal energy                   -289.88461980 Eh

Summary of corrections to the electronic energy:
(perhaps to be used in another calculation)
Total thermal correction                  0.00811587 Eh       5.09 kcal/mol
Non-thermal (ZPE) correction              0.17450287 Eh     109.50 kcal/mol
-----------------------------------------------------------------------
Total correction                          0.18261874 Eh     114.59 kcal/mol

--------
ENTHALPY
--------

The enthalpy is H = U + kB*T
                kB is Boltzmann's constant
Total free energy                 ...   -289.88461980 Eh
Thermal Enthalpy correction       ...      0.00094421 Eh       0.59 kcal/mol
-----------------------------------------------------------------------
Total Enthalpy                    ...   -289.88367560 Eh

-------
ENTROPY
-------

The entropy contributions are T*S = T*(S(el)+S(vib)+S(rot)+S(trans)
     S(el)   - electronic entropy
     S(vib)  - vibrational entropy
     S(rot)  - rotational entropy
     S(trans)- translational entropy
The entropies will be listed as mutliplied by the temperature to get
units of energy

Electronic entropy                ...      0.00000000 Eh      0.00 kcal/mol
Vibrational entropy               ...      0.00966265 Eh      6.06 kcal/mol
Rotational entropy                ...      0.01217924 Eh      7.64 kcal/mol
Translational entropy             ...      0.01884507 Eh     11.83 kcal/mol
-----------------------------------------------------------------------
Final entropy term                ...      0.04068696 Eh     25.53 kcal/mol

CAUTION: The rotational entropy is not quite correctly treated here
         because it includes a symmetry number that is not yet correctly
         implemented in ORCA!
For a nonlinear molecule the correct rotational entropy is:
    S(rot) = R*(ln(qrot/sn)+1.5)
    R    = 8.31441 J/mol/K = 1.987191683e-3 kcal/mol/K
    qrot = 267767.8886587
    sn is the rotational symmetry number. We have assumed 3 here
       if it is different for your molecule then you should correct
       the printed rotational entropy by manually evaluating the equation
       as given above

For convenience we print out the resulting values for sn=1 - 12:
 sn= 1  qrot/sn=  267767.8887 T*S(rot)=     8.29 kcal/mol T*S(tot)=    26.18 kcal/mol
 sn= 2  qrot/sn=  133883.9443 T*S(rot)=     7.88 kcal/mol T*S(tot)=    25.77 kcal/mol
 sn= 3  qrot/sn=   89255.9629 T*S(rot)=     7.64 kcal/mol T*S(tot)=    25.53 kcal/mol
 sn= 4  qrot/sn=   66941.9722 T*S(rot)=     7.47 kcal/mol T*S(tot)=    25.36 kcal/mol
 sn= 5  qrot/sn=   53553.5777 T*S(rot)=     7.34 kcal/mol T*S(tot)=    25.23 kcal/mol
 sn= 6  qrot/sn=   44627.9814 T*S(rot)=     7.23 kcal/mol T*S(tot)=    25.12 kcal/mol
 sn= 7  qrot/sn=   38252.5555 T*S(rot)=     7.14 kcal/mol T*S(tot)=    25.03 kcal/mol
 sn= 8  qrot/sn=   33470.9861 T*S(rot)=     7.06 kcal/mol T*S(tot)=    24.95 kcal/mol
 sn= 9  qrot/sn=   29751.9876 T*S(rot)=     6.99 kcal/mol T*S(tot)=    24.88 kcal/mol
 sn=10  qrot/sn=   26776.7889 T*S(rot)=     6.93 kcal/mol T*S(tot)=    24.82 kcal/mol
 sn=11  qrot/sn=   24342.5353 T*S(rot)=     6.87 kcal/mol T*S(tot)=    24.76 kcal/mol
 sn=12  qrot/sn=   22313.9907 T*S(rot)=     6.82 kcal/mol T*S(tot)=    24.71 kcal/mol

-------------------
GIBBS FREE ENTHALPY
-------------------

The Gibbs free enthalpy is G = H - T*S

Total enthalpy                    ...   -289.88367560 Eh
Total entropy correction          ...     -0.04068696 Eh    -25.53 kcal/mol
-----------------------------------------------------------------------
Final Gibbs free enthalpy         ...   -289.92436256 Eh

For completeness - the Gibbs free enthalpy minus the electronic energy
G-E(el)                           ...      0.14287599 Eh     89.66 kcal/mol

                             ****ORCA TERMINATED NORMALLY****
TOTAL RUN TIME: 0 days 0 hours 38 minutes 11 seconds 493 msec
