                         Program Version 3.0.3 - RELEASE   -
|  1> ! NORI PBE0 def2-TZVP UseSym TightOPT Freq TightSCF Grid3 FinalGrid5 XYZFile
|  2> % pal
|  3>     nprocs 8
|  4> end
|  5> %method
|  6>     SymThresh 5.0e-2
|  7> end
|  8> % geom
|  9>     MaxIter 10
| 10> end
| 11> % maxcore 2000
| 12> % output
| 13>     printlevel mini
| 14>     print[ P_Basis ] 0
| 15>     print[ P_SCFInfo ] 1
| 16>     print[ P_SCFIterInfo ] 1
| 17>     print[ P_OrbEn ] 0
| 18>     print[ P_Cartesian ] 0
| 19> end
| 20> % elprop
| 21>     Dipole false
| 22> end
| 23> *xyz 1 1
| 24>  C        1.0501048967     0.4380437184    -0.3042133327
| 25>  N        2.5011254076     0.3719578086    -0.0876541119
| 26>  C        3.3241025723    -0.7328544463    -0.6272437600
| 27>  C        3.4717987488     0.6243346303    -1.1812014035
| 28>  C        4.6438109452     1.5098814816    -0.8465186768
| 29>  C        4.2178553852     2.8801709468    -0.6191560740
| 30>  C        3.8347015904     3.9983369698    -0.4194759003
| 31>  H        0.7348846426     1.4780301293    -0.2353121761
| 32>  H        0.5500589130    -0.1643612089     0.4529968164
| 33>  H        0.8232952510     0.0479307713    -1.2947387304
| 34>  H        2.7989128496     0.7315468964     0.8150392839
| 35>  H        4.0746527972    -1.1119855894     0.0555308658
| 36>  H        2.7561310119    -1.4777655598    -1.1698692738
| 37>  H        2.9665342115     0.8395441400    -2.1164119685
| 38>  H        5.3514153313     1.4579164321    -1.6810947864
| 39>  H        5.1773549366     1.1228456671     0.0295539263
| 40>  H        3.5219405090     5.0042572126    -0.2504406979
| 41> *
| 42>
| 43>                          ****END OF INPUT****
 Total Charge           Charge          ....    1
 Multiplicity           Mult            ....    1
 Number of Electrons    NEL             ....   52
FINAL SINGLE POINT ENERGY      -288.813356749835
FINAL SINGLE POINT ENERGY      -288.813357483165

CARTESIAN COORDINATES (ANGSTROEM)
---------------------------------
  C      1.271070    0.001439    1.959603
  N      0.000404   -0.000687    1.223086
  C     -0.944649    1.135843    1.290838
  C     -0.221054    0.862487    0.036581
  C     -0.882319    0.213852   -1.151843
  C     -0.009776   -0.772554   -1.765632
  C      0.724093   -1.592882   -2.240193
  H      1.970835   -0.659248    1.449917
  H      1.092413   -0.342502    2.977591
  H      1.665563    1.015923    1.977084
  H     -0.430949   -0.918126    1.148425
  H     -1.986519    0.851715    1.375654
  H     -0.617258    1.939839    1.937788
  H      0.651942    1.469249   -0.178283
  H     -1.135747    1.004437   -1.865910
  H     -1.832841   -0.245686   -0.856685
  H      1.363108   -2.318963   -2.690597

FINAL SINGLE POINT ENERGY      -288.813357848812
                    ***********************HURRAY********************
 Multiplicity           Mult            ....    1
 Number of Electrons    NEL             ....   52
 Basis Dimension        Dim             ....  277
FINAL SINGLE POINT ENERGY      -288.813357936349

VIBRATIONAL FREQUENCIES
-----------------------

   0:         0.00 cm**-1
   1:         0.00 cm**-1
   2:         0.00 cm**-1
   3:         0.00 cm**-1
   4:         0.00 cm**-1
   5:         0.00 cm**-1
   6:        56.60 cm**-1
   7:       109.44 cm**-1
   8:       198.32 cm**-1
   9:       243.45 cm**-1
  10:       291.68 cm**-1
  11:       336.09 cm**-1
  12:       396.81 cm**-1
  13:       424.97 cm**-1
  14:       538.24 cm**-1
  15:       722.33 cm**-1
  16:       741.76 cm**-1
  17:       780.68 cm**-1
  18:       828.25 cm**-1
  19:       877.34 cm**-1
  20:       922.30 cm**-1
  21:       970.66 cm**-1
  22:       997.35 cm**-1
  23:      1067.13 cm**-1
  24:      1094.16 cm**-1
  25:      1144.70 cm**-1
  26:      1152.53 cm**-1
  27:      1161.82 cm**-1
  28:      1198.01 cm**-1
  29:      1236.75 cm**-1
  30:      1264.26 cm**-1
  31:      1299.31 cm**-1
  32:      1326.79 cm**-1
  33:      1412.91 cm**-1
  34:      1453.47 cm**-1
  35:      1455.71 cm**-1
  36:      1466.10 cm**-1
  37:      1482.65 cm**-1
  38:      1495.93 cm**-1
  39:      1520.56 cm**-1
  40:      2251.97 cm**-1
  41:      3047.43 cm**-1
  42:      3085.22 cm**-1
  43:      3091.68 cm**-1
  44:      3167.16 cm**-1
  45:      3184.20 cm**-1
  46:      3187.63 cm**-1
  47:      3198.11 cm**-1
  48:      3268.56 cm**-1
  49:      3460.83 cm**-1
  50:      3526.59 cm**-1

IR SPECTRUM
-----------

 Mode    freq (cm**-1)   T**2         TX         TY         TZ
-------------------------------------------------------------------
   6:        56.60    2.150137  (  0.278094  -0.467569  -1.361683)
   7:       109.44    0.256869  ( -0.170385   0.089890  -0.468784)
   8:       198.32    0.262155  ( -0.365877   0.307008  -0.184486)
   9:       243.45    2.500419  (  1.473596   0.190428   0.540990)
  10:       291.68    5.078929  ( -0.145105   0.061476  -2.248131)
  11:       336.09   14.347901  (  1.661629   2.202045  -2.595744)
  12:       396.81    4.206075  (  0.631036   1.033237   1.655382)
  13:       424.97    3.553465  (  1.302654   0.972619   0.954238)
  14:       538.24    9.397029  (  1.836935   0.449277   2.412644)
  15:       722.33   41.940101  ( -2.400612  -4.764833   3.670631)
  16:       741.76   35.260395  (  4.481269   0.844567   3.803332)
  17:       780.68    6.560593  (  0.728585   0.178132   2.449087)
  18:       828.25   11.930455  ( -0.182936  -3.274490   1.083838)
  19:       877.34    1.203608  (  0.224004  -1.045929   0.243848)
  20:       922.30   19.930932  ( -1.183474  -0.032467   4.304564)
  21:       970.66   16.462979  ( -2.822722   2.654716   1.203205)
  22:       997.35    1.635800  (  0.206421  -0.606283   1.107074)
  23:      1067.13   26.474115  ( -2.123806   2.359078  -4.049483)
  24:      1094.16   13.052066  (  1.981499  -1.478151   2.634539)
  25:      1144.70   14.840335  ( -1.411378   0.866757   3.478086)
  26:      1152.53    4.819142  (  0.222305  -0.392031  -2.148496)
  27:      1161.82    5.693532  (  1.802856   1.219106  -0.978275)
  28:      1198.01    0.045453  ( -0.123790   0.171409  -0.027344)
  29:      1236.75    8.256381  ( -2.802389   0.634772   0.007743)
  30:      1264.26    5.188372  (  0.969945   0.336427  -2.033322)
  31:      1299.31    5.893284  (  0.807377  -2.245086  -0.448349)
  32:      1326.79    6.600602  (  0.835643  -0.821249  -2.286450)
  33:      1412.91    1.417647  ( -0.199731  -0.004798  -1.173768)
  34:      1453.47    6.695655  (  1.510856  -0.881008   1.907038)
  35:      1455.71   24.585388  (  4.936906   0.168740   0.428809)
  36:      1466.10    4.242466  ( -2.006634   0.366667  -0.285383)
  37:      1482.65   12.129907  ( -1.389280   1.071545   3.008588)
  38:      1495.93   22.385319  ( -0.398742   4.709590   0.214676)
  39:      1520.56   27.617125  ( -1.301902   2.236334  -4.573947)
  40:      2251.97    4.544254  ( -0.963384   1.343926   1.345365)
  41:      3047.43    6.597580  ( -1.213813   0.560616   2.193159)
  42:      3085.22    0.402198  (  0.378891   0.142394   0.488225)
  43:      3091.68    1.328222  (  0.518377  -0.552636   0.868390)
  44:      3167.16    2.349647  ( -0.951868   0.875097   0.823285)
  45:      3184.20    0.179142  ( -0.385066   0.150132   0.091252)
  46:      3187.63    0.387307  ( -0.095662   0.113980   0.604288)
  47:      3198.11    2.053449  ( -0.819152  -0.696388   0.947356)
  48:      3268.56    4.592375  (  1.536394   1.361837   0.614220)
  49:      3460.83   92.778803  ( -5.446097   6.456392   4.629669)
  50:      3526.59   77.005324  ( -2.530202  -8.399932   0.211054)

--------------------------
THERMOCHEMISTRY AT 298.15K
--------------------------

Temperature         ... 298.15 K
Pressure            ... 1.00 atm
Total Mass          ... 96.15 AMU

Throughout the following assumptions are being made:
  (1) The electronic state is orbitally nondegenerate
  (2) There are no thermally accessible electronically excited states
  (3) Hindered rotations indicated by low frequency modes) are not
      treated as such but are treated as vibrations and this may
      case some error
  (4) All equations used are the standard statistical mechanics
      equations for an ideal gas
  (5) All vibrations are strinctly harmonic

------------
INNER ENERGY
------------

The inner energy is: U= E(el) + E(ZPE) + E(vib) + E(rot) + E(trans)
    E(el)   - is the total energy from the electronic structure calculation
              = E(kin-el) + E(nuc-el) + E(el-el) + E(nuc-nuc)
    E(ZPE)  - the the zero temperature vibrational energy from the frequency calculation
    E(vib)  - the the finite temperature correction to E(ZPE) due to population
              of excietd vibrational states
    E(rot)  - is the rotational thermal energy
    E(trans)- is the translational thermal energy

Summary of contributions to the inner energy U:
Electronic energy                ...   -288.81335794 Eh
Zero point energy                ...      0.15067446 Eh      94.55 kcal/mol
Thermal vibrational correction   ...      0.00496279 Eh       3.11 kcal/mol
Thermal rotational correction    ...      0.00141627 Eh       0.89 kcal/mol
Thermal translational correction ...      0.00141627 Eh       0.89 kcal/mol
-----------------------------------------------------------------------
Total thermal energy                   -288.65488815 Eh

Summary of corrections to the electronic energy:
(perhaps to be used in another calculation)
Total thermal correction                  0.00779533 Eh       4.89 kcal/mol
Non-thermal (ZPE) correction              0.15067446 Eh      94.55 kcal/mol
-----------------------------------------------------------------------
Total correction                          0.15846979 Eh      99.44 kcal/mol

--------
ENTHALPY
--------

The enthalpy is H = U + kB*T
                kB is Boltzmann's constant
Total free energy                 ...   -288.65488815 Eh
Thermal Enthalpy correction       ...      0.00094421 Eh       0.59 kcal/mol
-----------------------------------------------------------------------
Total Enthalpy                    ...   -288.65394394 Eh

-------
ENTROPY
-------

The entropy contributions are T*S = T*(S(el)+S(vib)+S(rot)+S(trans)
     S(el)   - electronic entropy
     S(vib)  - vibrational entropy
     S(rot)  - rotational entropy
     S(trans)- translational entropy
The entropies will be listed as mutliplied by the temperature to get
units of energy

Electronic entropy                ...      0.00000000 Eh      0.00 kcal/mol
Vibrational entropy               ...      0.00896267 Eh      5.62 kcal/mol
Rotational entropy                ...      0.01213653 Eh      7.62 kcal/mol
Translational entropy             ...      0.01881568 Eh     11.81 kcal/mol
-----------------------------------------------------------------------
Final entropy term                ...      0.03991488 Eh     25.05 kcal/mol

CAUTION: The rotational entropy is not quite correctly treated here
         because it includes a symmetry number that is not yet correctly
         implemented in ORCA!
For a nonlinear molecule the correct rotational entropy is:
    S(rot) = R*(ln(qrot/sn)+1.5)
    R    = 8.31441 J/mol/K = 1.987191683e-3 kcal/mol/K
    qrot = 255925.7594311
    sn is the rotational symmetry number. We have assumed 3 here
       if it is different for your molecule then you should correct
       the printed rotational entropy by manually evaluating the equation
       as given above

For convenience we print out the resulting values for sn=1 - 12:
 sn= 1  qrot/sn=  255925.7594 T*S(rot)=     8.27 kcal/mol T*S(tot)=    25.70 kcal/mol
 sn= 2  qrot/sn=  127962.8797 T*S(rot)=     7.86 kcal/mol T*S(tot)=    25.29 kcal/mol
 sn= 3  qrot/sn=   85308.5865 T*S(rot)=     7.62 kcal/mol T*S(tot)=    25.05 kcal/mol
 sn= 4  qrot/sn=   63981.4399 T*S(rot)=     7.45 kcal/mol T*S(tot)=    24.88 kcal/mol
 sn= 5  qrot/sn=   51185.1519 T*S(rot)=     7.31 kcal/mol T*S(tot)=    24.74 kcal/mol
 sn= 6  qrot/sn=   42654.2932 T*S(rot)=     7.21 kcal/mol T*S(tot)=    24.64 kcal/mol
 sn= 7  qrot/sn=   36560.8228 T*S(rot)=     7.11 kcal/mol T*S(tot)=    24.54 kcal/mol
 sn= 8  qrot/sn=   31990.7199 T*S(rot)=     7.03 kcal/mol T*S(tot)=    24.47 kcal/mol
 sn= 9  qrot/sn=   28436.1955 T*S(rot)=     6.96 kcal/mol T*S(tot)=    24.40 kcal/mol
 sn=10  qrot/sn=   25592.5759 T*S(rot)=     6.90 kcal/mol T*S(tot)=    24.33 kcal/mol
 sn=11  qrot/sn=   23265.9781 T*S(rot)=     6.85 kcal/mol T*S(tot)=    24.28 kcal/mol
 sn=12  qrot/sn=   21327.1466 T*S(rot)=     6.79 kcal/mol T*S(tot)=    24.23 kcal/mol

-------------------
GIBBS FREE ENTHALPY
-------------------

The Gibbs free enthalpy is G = H - T*S

Total enthalpy                    ...   -288.65394394 Eh
Total entropy correction          ...     -0.03991488 Eh    -25.05 kcal/mol
-----------------------------------------------------------------------
Final Gibbs free enthalpy         ...   -288.69385882 Eh

For completeness - the Gibbs free enthalpy minus the electronic energy
G-E(el)                           ...      0.11949911 Eh     74.99 kcal/mol

                             ****ORCA TERMINATED NORMALLY****
TOTAL RUN TIME: 0 days 0 hours 34 minutes 10 seconds 235 msec
