                         Program Version 3.0.3 - RELEASE   -
|  1> ! NORI PBE0 def2-TZVP UseSym TightOPT Freq TightSCF Grid3 FinalGrid5 XYZFile
|  2> % pal
|  3>     nprocs 8
|  4> end
|  5> %method
|  6>     SymThresh 5.0e-2
|  7> end
|  8> % geom
|  9>     MaxIter 10
| 10> end
| 11> % maxcore 2000
| 12> % output
| 13>     printlevel mini
| 14>     print[ P_Basis ] 0
| 15>     print[ P_SCFInfo ] 1
| 16>     print[ P_SCFIterInfo ] 1
| 17>     print[ P_OrbEn ] 0
| 18>     print[ P_Cartesian ] 0
| 19> end
| 20> % elprop
| 21>     Dipole false
| 22> end
| 23> *xyz 1 1
| 24>  C        1.0358034362     0.3677172061    -0.2243254187
| 25>  N        2.4934114014     0.2868628866    -0.0374443961
| 26>  C        3.3134331886    -0.7607324239    -0.6850676846
| 27>  C        3.4389170369     0.6399289561    -1.1243176678
| 28>  C        4.6180410354     1.5046629244    -0.7549211648
| 29>  C        4.1597249208     2.8326471275    -0.3736532469
| 30>  N        3.7166591336     3.8409530444    -0.0482013238
| 31>  H        0.7218139841     1.3987032095    -0.0664726966
| 32>  H        0.5524769974    -0.2940408208     0.4928760859
| 33>  H        0.7932633568     0.0546851411    -1.2382370363
| 34>  H        2.8003551164     0.5594879448     0.8927128940
| 35>  H        4.0790231544    -1.1917124635    -0.0513142979
| 36>  H        2.7428299471    -1.4590101109    -1.2840949489
| 37>  H        2.9118329946     0.9268688173    -2.0279234987
| 38>  H        5.2887396094     1.5698273188    -1.6170718339
| 39>  H        5.1977046868     1.0674412424     0.0644262352
| 40> *
| 41>
| 42>                          ****END OF INPUT****
 Total Charge           Charge          ....    1
 Multiplicity           Mult            ....    1
 Number of Electrons    NEL             ....   52
FINAL SINGLE POINT ENERGY      -304.892520910585

CARTESIAN COORDINATES (ANGSTROEM)
---------------------------------
  C      0.537865    1.162768    1.945718
  N     -0.000021   -0.000194    1.221633
  C     -1.426772   -0.384712    1.298433
  C     -0.883680    0.158243    0.040936
  C     -0.589260   -0.707822   -1.158285
  C      0.689380   -0.329309   -1.742157
  N      1.723442   -0.000103   -2.117886
  H      1.422909    1.520168    1.420931
  H      0.790699    0.858685    2.960508
  H     -0.221214    1.942716    1.971490
  H      0.652132   -0.777892    1.158322
  H     -1.603486   -1.449815    1.387618
  H     -2.020373    0.251807    1.942423
  H     -1.073674    1.204862   -0.171678
  H     -1.391906   -0.577701   -1.890363
  H     -0.571630   -1.769979   -0.894032

FINAL SINGLE POINT ENERGY      -304.892521573487
                    ***********************HURRAY********************
 Multiplicity           Mult            ....    1
 Number of Electrons    NEL             ....   52
 Basis Dimension        Dim             ....  271
FINAL SINGLE POINT ENERGY      -304.892522304646

VIBRATIONAL FREQUENCIES
-----------------------

   0:         0.00 cm**-1
   1:         0.00 cm**-1
   2:         0.00 cm**-1
   3:         0.00 cm**-1
   4:         0.00 cm**-1
   5:         0.00 cm**-1
   6:        54.17 cm**-1
   7:       107.43 cm**-1
   8:       200.87 cm**-1
   9:       247.18 cm**-1
  10:       299.44 cm**-1
  11:       370.68 cm**-1
  12:       399.63 cm**-1
  13:       428.25 cm**-1
  14:       562.73 cm**-1
  15:       780.87 cm**-1
  16:       828.70 cm**-1
  17:       879.62 cm**-1
  18:       925.69 cm**-1
  19:       968.05 cm**-1
  20:       987.68 cm**-1
  21:      1066.09 cm**-1
  22:      1093.14 cm**-1
  23:      1151.68 cm**-1
  24:      1156.43 cm**-1
  25:      1163.50 cm**-1
  26:      1199.40 cm**-1
  27:      1238.39 cm**-1
  28:      1263.04 cm**-1
  29:      1299.98 cm**-1
  30:      1328.66 cm**-1
  31:      1415.15 cm**-1
  32:      1451.60 cm**-1
  33:      1455.79 cm**-1
  34:      1465.01 cm**-1
  35:      1481.45 cm**-1
  36:      1495.50 cm**-1
  37:      1521.44 cm**-1
  38:      2395.32 cm**-1
  39:      3068.41 cm**-1
  40:      3084.35 cm**-1
  41:      3114.15 cm**-1
  42:      3166.91 cm**-1
  43:      3185.59 cm**-1
  44:      3187.17 cm**-1
  45:      3197.43 cm**-1
  46:      3268.89 cm**-1
  47:      3521.62 cm**-1

IR SPECTRUM
-----------

 Mode    freq (cm**-1)   T**2         TX         TY         TZ
-------------------------------------------------------------------
   6:        54.17   10.973950  ( -0.305367   0.759225  -3.210028)
   7:       107.43    7.667834  (  0.223233  -2.335204  -1.471333)
   8:       200.87    0.394548  ( -0.316675   0.009619   0.542377)
   9:       247.18    1.719287  (  0.697009  -0.396285  -1.037508)
  10:       299.44    0.336242  ( -0.040321  -0.573121   0.078411)
  11:       370.68    0.082687  ( -0.281121   0.035303   0.049111)
  12:       399.63    0.936090  ( -0.683425   0.118020   0.674605)
  13:       428.25    0.290138  ( -0.168541   0.510278  -0.036713)
  14:       562.73    0.435182  (  0.232833  -0.034214   0.616279)
  15:       780.87    2.212732  ( -0.264346   0.487554   1.380270)
  16:       828.70    9.569990  (  2.623665  -1.307047   0.988939)
  17:       879.62    0.682976  ( -0.741806   0.000648  -0.364280)
  18:       925.69   22.583733  ( -0.219411  -1.527823   4.494591)
  19:       968.05   15.005230  (  3.679349   1.191873  -0.216938)
  20:       987.68    1.686070  ( -0.872312  -0.712361   0.646284)
  21:      1066.09   29.042404  (  3.474801   1.101152   3.969336)
  22:      1093.14   11.030379  ( -1.787996  -1.412235  -2.416411)
  23:      1151.68    7.809578  (  1.082271   0.739444  -2.468095)
  24:      1156.43   10.130356  ( -0.938854  -0.262322   3.029867)
  25:      1163.50    5.654295  (  0.500460  -1.982277   1.214254)
  26:      1199.40    0.055695  ( -0.185647   0.061261  -0.132199)
  27:      1238.39    7.723945  (  1.709341   2.179295  -0.229722)
  28:      1263.04    4.485091  (  0.116949   0.956870  -1.885687)
  29:      1299.98    6.809668  (  2.524893  -0.243997  -0.612413)
  30:      1328.66    1.377930  ( -0.028898  -0.375148   1.111917)
  31:      1415.15    2.211483  (  0.946601   0.600947   0.976879)
  32:      1451.60   18.697272  (  2.367525   3.046884   1.951562)
  33:      1455.79   12.742202  (  0.949432   3.395102  -0.560416)
  34:      1465.01    7.251355  ( -1.304152  -2.334457  -0.317571)
  35:      1481.45   12.785494  (  1.507997   0.808913  -3.139601)
  36:      1495.50   24.957232  ( -4.716950   1.634677   0.188267)
  37:      1521.44   26.591495  ( -2.479488  -0.343037  -4.508432)
  38:      2395.32    0.002931  ( -0.045681   0.002165   0.028977)
  39:      3068.41    4.691897  (  0.588842   0.357490   2.053622)
  40:      3084.35    0.193184  ( -0.367507   0.110745   0.214146)
  41:      3114.15    5.170823  ( -1.567671   0.433824  -1.589033)
  42:      3166.91    4.110804  (  1.509592   0.594091  -1.216138)
  43:      3185.59    0.643461  ( -0.445430  -0.419399   0.518804)
  44:      3187.17    0.747844  (  0.465547   0.116693  -0.719370)
  45:      3197.43    4.168297  ( -0.447655   1.628080  -1.147718)
  46:      3268.89    6.711125  (  0.741163  -2.350142  -0.799146)
  47:      3521.62   82.434090  (  6.753033  -6.030457   0.681340)

--------------------------
THERMOCHEMISTRY AT 298.15K
--------------------------

Temperature         ... 298.15 K
Pressure            ... 1.00 atm
Total Mass          ... 97.14 AMU

Throughout the following assumptions are being made:
  (1) The electronic state is orbitally nondegenerate
  (2) There are no thermally accessible electronically excited states
  (3) Hindered rotations indicated by low frequency modes) are not
      treated as such but are treated as vibrations and this may
      case some error
  (4) All equations used are the standard statistical mechanics
      equations for an ideal gas
  (5) All vibrations are strinctly harmonic

------------
INNER ENERGY
------------

The inner energy is: U= E(el) + E(ZPE) + E(vib) + E(rot) + E(trans)
    E(el)   - is the total energy from the electronic structure calculation
              = E(kin-el) + E(nuc-el) + E(el-el) + E(nuc-nuc)
    E(ZPE)  - the the zero temperature vibrational energy from the frequency calculation
    E(vib)  - the the finite temperature correction to E(ZPE) due to population
              of excietd vibrational states
    E(rot)  - is the rotational thermal energy
    E(trans)- is the translational thermal energy

Summary of contributions to the inner energy U:
Electronic energy                ...   -304.89252230 Eh
Zero point energy                ...      0.14005503 Eh      87.89 kcal/mol
Thermal vibrational correction   ...      0.00469163 Eh       2.94 kcal/mol
Thermal rotational correction    ...      0.00141627 Eh       0.89 kcal/mol
Thermal translational correction ...      0.00141627 Eh       0.89 kcal/mol
-----------------------------------------------------------------------
Total thermal energy                   -304.74494310 Eh

Summary of corrections to the electronic energy:
(perhaps to be used in another calculation)
Total thermal correction                  0.00752417 Eh       4.72 kcal/mol
Non-thermal (ZPE) correction              0.14005503 Eh      87.89 kcal/mol
-----------------------------------------------------------------------
Total correction                          0.14757920 Eh      92.61 kcal/mol

--------
ENTHALPY
--------

The enthalpy is H = U + kB*T
                kB is Boltzmann's constant
Total free energy                 ...   -304.74494310 Eh
Thermal Enthalpy correction       ...      0.00094421 Eh       0.59 kcal/mol
-----------------------------------------------------------------------
Total Enthalpy                    ...   -304.74399889 Eh

-------
ENTROPY
-------

The entropy contributions are T*S = T*(S(el)+S(vib)+S(rot)+S(trans)
     S(el)   - electronic entropy
     S(vib)  - vibrational entropy
     S(rot)  - rotational entropy
     S(trans)- translational entropy
The entropies will be listed as mutliplied by the temperature to get
units of energy

Electronic entropy                ...      0.00000000 Eh      0.00 kcal/mol
Vibrational entropy               ...      0.00861103 Eh      5.40 kcal/mol
Rotational entropy                ...      0.01211350 Eh      7.60 kcal/mol
Translational entropy             ...      0.01883016 Eh     11.82 kcal/mol
-----------------------------------------------------------------------
Final entropy term                ...      0.03955470 Eh     24.82 kcal/mol

CAUTION: The rotational entropy is not quite correctly treated here
         because it includes a symmetry number that is not yet correctly
         implemented in ORCA!
For a nonlinear molecule the correct rotational entropy is:
    S(rot) = R*(ln(qrot/sn)+1.5)
    R    = 8.31441 J/mol/K = 1.987191683e-3 kcal/mol/K
    qrot = 249759.5818921
    sn is the rotational symmetry number. We have assumed 3 here
       if it is different for your molecule then you should correct
       the printed rotational entropy by manually evaluating the equation
       as given above

For convenience we print out the resulting values for sn=1 - 12:
 sn= 1  qrot/sn=  249759.5819 T*S(rot)=     8.25 kcal/mol T*S(tot)=    25.47 kcal/mol
 sn= 2  qrot/sn=  124879.7909 T*S(rot)=     7.84 kcal/mol T*S(tot)=    25.06 kcal/mol
 sn= 3  qrot/sn=   83253.1940 T*S(rot)=     7.60 kcal/mol T*S(tot)=    24.82 kcal/mol
 sn= 4  qrot/sn=   62439.8955 T*S(rot)=     7.43 kcal/mol T*S(tot)=    24.65 kcal/mol
 sn= 5  qrot/sn=   49951.9164 T*S(rot)=     7.30 kcal/mol T*S(tot)=    24.52 kcal/mol
 sn= 6  qrot/sn=   41626.5970 T*S(rot)=     7.19 kcal/mol T*S(tot)=    24.41 kcal/mol
 sn= 7  qrot/sn=   35679.9403 T*S(rot)=     7.10 kcal/mol T*S(tot)=    24.32 kcal/mol
 sn= 8  qrot/sn=   31219.9477 T*S(rot)=     7.02 kcal/mol T*S(tot)=    24.24 kcal/mol
 sn= 9  qrot/sn=   27751.0647 T*S(rot)=     6.95 kcal/mol T*S(tot)=    24.17 kcal/mol
 sn=10  qrot/sn=   24975.9582 T*S(rot)=     6.89 kcal/mol T*S(tot)=    24.11 kcal/mol
 sn=11  qrot/sn=   22705.4165 T*S(rot)=     6.83 kcal/mol T*S(tot)=    24.05 kcal/mol
 sn=12  qrot/sn=   20813.2985 T*S(rot)=     6.78 kcal/mol T*S(tot)=    24.00 kcal/mol

-------------------
GIBBS FREE ENTHALPY
-------------------

The Gibbs free enthalpy is G = H - T*S

Total enthalpy                    ...   -304.74399889 Eh
Total entropy correction          ...     -0.03955470 Eh    -24.82 kcal/mol
-----------------------------------------------------------------------
Final Gibbs free enthalpy         ...   -304.78355359 Eh

For completeness - the Gibbs free enthalpy minus the electronic energy
G-E(el)                           ...      0.10896871 Eh     68.38 kcal/mol

                             ****ORCA TERMINATED NORMALLY****
TOTAL RUN TIME: 0 days 0 hours 27 minutes 16 seconds 386 msec
