                         Program Version 3.0.3 - RELEASE   -
|  1> ! NORI PBE0 def2-TZVP UseSym TightOPT Freq TightSCF Grid3 FinalGrid5 XYZFile
|  2> % pal
|  3>     nprocs 8
|  4> end
|  5> %method
|  6>     SymThresh 5.0e-2
|  7> end
|  8> % geom
|  9>     MaxIter 10
| 10> end
| 11> % maxcore 2000
| 12> % output
| 13>     printlevel mini
| 14>     print[ P_Basis ] 0
| 15>     print[ P_SCFInfo ] 1
| 16>     print[ P_SCFIterInfo ] 1
| 17>     print[ P_OrbEn ] 0
| 18>     print[ P_Cartesian ] 0
| 19> end
| 20> % elprop
| 21>     Dipole false
| 22> end
| 23> *xyz 1 1
| 24>  C        1.0592009330    -0.0681561640    -0.1147215829
| 25>  N        2.5289634741    -0.0389702325     0.0480424985
| 26>  C        3.1225991360    -1.1702180315     0.8857220212
| 27>  C        3.9216732632    -0.3343482363     1.8723572778
| 28>  C        4.5530353261     0.7282977142     0.9415946900
| 29>  C        3.0906173478     1.1623544531     0.7843831325
| 30>  C        2.8955447847     0.7574618080     2.2495966256
| 31>  H        0.7512401344     0.7843798706    -0.7190646818
| 32>  H        0.5880648500    -0.0187534353     0.8638325361
| 33>  H        0.7758085975    -0.9951001138    -0.6119438676
| 34>  H        2.9472143545    -0.0639337008    -0.8811050207
| 35>  H        3.7194825771    -1.8194237754     0.2456672230
| 36>  H        2.3089925568    -1.7398615341     1.3329306392
| 37>  H        4.4951581391    -0.8832604504     2.6138740920
| 38>  H        5.1311567804     1.4711643614     1.4869112749
| 39>  H        5.1005874072     0.4023481877     0.0534789539
| 40>  H        2.7547023210     2.0955310748     0.3371954995
| 41>  H        1.9056658616     0.4663527110     2.6023690354
| 42>  H        3.3189221556     1.5094254932     2.9125996533
| 43> *
| 44>
| 45>                          ****END OF INPUT****
 Total Charge           Charge          ....    1
 Multiplicity           Mult            ....    1
 Number of Electrons    NEL             ....   54
FINAL SINGLE POINT ENERGY      -290.095839017621

CARTESIAN COORDINATES (ANGSTROEM)
---------------------------------
  C      1.230873    0.000197    1.823761
  N      0.000097   -0.000236    1.003328
  C     -0.258824   -1.274721    0.201497
  C     -0.447247   -0.651108   -1.171999
  C     -1.325894    0.578209   -0.838723
  C     -0.055926    1.030881   -0.107807
  C      0.736972    0.340315   -1.223013
  H      1.313628    0.955744    2.340095
  H      2.093071   -0.148338    1.178311
  H      1.172589   -0.808970    2.550637
  H     -0.790518    0.162494    1.625698
  H     -1.137678   -1.780480    0.599904
  H      0.610982   -1.924869    0.285668
  H     -0.675997   -1.335809   -1.983641
  H     -1.524551    1.198369   -1.709972
  H     -2.241812    0.438187   -0.259126
  H      0.129560    2.033775    0.270784
  H      1.747502   -0.018776   -1.024886
  H      0.729393    0.945441   -2.127238

FINAL SINGLE POINT ENERGY      -290.095839629493
                    ***********************HURRAY********************
 Multiplicity           Mult            ....    1
 Number of Electrons    NEL             ....   54
 Basis Dimension        Dim             ....  289
FINAL SINGLE POINT ENERGY      -290.095839790654

VIBRATIONAL FREQUENCIES
-----------------------

   0:         0.00 cm**-1
   1:         0.00 cm**-1
   2:         0.00 cm**-1
   3:         0.00 cm**-1
   4:         0.00 cm**-1
   5:         0.00 cm**-1
   6:       199.58 cm**-1
   7:       226.29 cm**-1
   8:       307.73 cm**-1
   9:       431.79 cm**-1
  10:       487.82 cm**-1
  11:       524.25 cm**-1
  12:       640.14 cm**-1
  13:       783.59 cm**-1
  14:       826.25 cm**-1
  15:       859.02 cm**-1
  16:       870.49 cm**-1
  17:       888.06 cm**-1
  18:       939.38 cm**-1
  19:       949.07 cm**-1
  20:       969.76 cm**-1
  21:      1016.20 cm**-1
  22:      1050.61 cm**-1
  23:      1055.35 cm**-1
  24:      1085.92 cm**-1
  25:      1092.10 cm**-1
  26:      1096.58 cm**-1
  27:      1138.25 cm**-1
  28:      1166.76 cm**-1
  29:      1191.64 cm**-1
  30:      1227.29 cm**-1
  31:      1236.84 cm**-1
  32:      1269.93 cm**-1
  33:      1290.56 cm**-1
  34:      1299.47 cm**-1
  35:      1311.63 cm**-1
  36:      1359.49 cm**-1
  37:      1380.10 cm**-1
  38:      1434.06 cm**-1
  39:      1455.18 cm**-1
  40:      1479.51 cm**-1
  41:      1491.31 cm**-1
  42:      1498.76 cm**-1
  43:      1501.82 cm**-1
  44:      1523.44 cm**-1
  45:      3085.05 cm**-1
  46:      3088.83 cm**-1
  47:      3104.88 cm**-1
  48:      3110.22 cm**-1
  49:      3166.08 cm**-1
  50:      3172.67 cm**-1
  51:      3174.83 cm**-1
  52:      3179.16 cm**-1
  53:      3181.77 cm**-1
  54:      3182.58 cm**-1
  55:      3197.69 cm**-1
  56:      3482.98 cm**-1

IR SPECTRUM
-----------

 Mode    freq (cm**-1)   T**2         TX         TY         TZ
-------------------------------------------------------------------
   6:       199.58    0.042993  ( -0.081299  -0.034792   0.187544)
   7:       226.29    0.010592  ( -0.038733   0.093422  -0.019079)
   8:       307.73    0.142142  ( -0.119001   0.346650   0.088402)
   9:       431.79    0.207187  (  0.264838  -0.237791  -0.283731)
  10:       487.82    4.006518  ( -1.232511   0.243263  -1.558287)
  11:       524.25    0.194568  ( -0.439182  -0.011717  -0.039373)
  12:       640.14    1.255226  ( -0.375760  -0.168973  -1.041863)
  13:       783.59    3.067143  (  0.051370  -0.340310   1.717176)
  14:       826.25    5.158010  (  0.256889   1.231384   1.890955)
  15:       859.02    1.442574  (  0.922614   0.518794   0.567636)
  16:       870.49    1.903382  ( -1.283310   0.075743  -0.500760)
  17:       888.06    3.917357  (  0.297391   0.656413   1.843377)
  18:       939.38    1.375084  (  0.300671   0.804636   0.798274)
  19:       949.07    9.794701  (  0.493662   3.053517  -0.476482)
  20:       969.76    1.292255  ( -0.037800   1.023002  -0.494259)
  21:      1016.20    2.494355  ( -1.153268  -1.027036   0.330948)
  22:      1050.61   10.702588  (  1.216005  -1.120913   2.822671)
  23:      1055.35    4.033570  ( -0.491510  -1.472107  -1.274711)
  24:      1085.92    0.744085  ( -0.804777   0.166201   0.262288)
  25:      1092.10    3.004142  ( -0.025363  -0.380265   1.690828)
  26:      1096.58    2.256155  ( -0.607225   0.890342  -1.046290)
  27:      1138.25    6.261124  (  0.170328   1.774186   1.756239)
  28:      1166.76    2.482767  (  1.463674  -0.576909  -0.087195)
  29:      1191.64    5.497918  (  1.908433   0.219756   1.344436)
  30:      1227.29   15.254765  ( -3.002237   2.085550  -1.375435)
  31:      1236.84    0.380197  ( -0.039947  -0.614057   0.039188)
  32:      1269.93   10.961804  (  0.868759   2.537831   1.940741)
  33:      1290.56    4.775754  ( -0.759781  -0.355860   2.017883)
  34:      1299.47    0.420585  ( -0.567617   0.295528   0.105163)
  35:      1311.63    1.054187  (  0.649643  -0.463602   0.645929)
  36:      1359.49    1.876116  ( -0.155168   0.945962   0.978363)
  37:      1380.10   29.109945  (  1.259170   5.187276   0.785242)
  38:      1434.06   14.294781  (  2.692339  -0.032883   2.654244)
  39:      1455.18    2.883866  ( -1.615057   0.090295  -0.517014)
  40:      1479.51    9.407201  ( -3.031527   0.143450  -0.443245)
  41:      1491.31   22.690482  ( -0.083838  -4.665574   0.957012)
  42:      1498.76   18.280847  (  2.821392  -1.031021  -3.042628)
  43:      1501.82   21.757929  (  0.601066   0.909970  -4.535262)
  44:      1523.44    1.036021  ( -0.737396   0.660317   0.237170)
  45:      3085.05   10.515043  ( -2.865164   0.113439   1.514268)
  46:      3088.83    0.241109  ( -0.425256  -0.142130  -0.200164)
  47:      3104.88    7.904986  ( -2.783778   0.257674  -0.298619)
  48:      3110.22    3.851180  (  0.392868  -1.556553   1.128706)
  49:      3166.08    3.195723  (  0.237190   1.242903   1.262797)
  50:      3172.67    0.076091  ( -0.199037   0.159256   0.105415)
  51:      3174.83    4.687441  (  2.158620  -0.008858  -0.166496)
  52:      3179.16    1.183263  (  0.242195  -1.042829   0.192648)
  53:      3181.77    0.089810  ( -0.115435   0.101892   0.257105)
  54:      3182.58    0.527490  (  0.275910   0.533994   0.407695)
  55:      3197.69    0.175331  ( -0.260133   0.262276   0.197163)
  56:      3482.98   49.494511  (  4.960818  -1.334650  -4.806611)

--------------------------
THERMOCHEMISTRY AT 298.15K
--------------------------

Temperature         ... 298.15 K
Pressure            ... 1.00 atm
Total Mass          ... 98.17 AMU

Throughout the following assumptions are being made:
  (1) The electronic state is orbitally nondegenerate
  (2) There are no thermally accessible electronically excited states
  (3) Hindered rotations indicated by low frequency modes) are not
      treated as such but are treated as vibrations and this may
      case some error
  (4) All equations used are the standard statistical mechanics
      equations for an ideal gas
  (5) All vibrations are strinctly harmonic

------------
INNER ENERGY
------------

The inner energy is: U= E(el) + E(ZPE) + E(vib) + E(rot) + E(trans)
    E(el)   - is the total energy from the electronic structure calculation
              = E(kin-el) + E(nuc-el) + E(el-el) + E(nuc-nuc)
    E(ZPE)  - the the zero temperature vibrational energy from the frequency calculation
    E(vib)  - the the finite temperature correction to E(ZPE) due to population
              of excietd vibrational states
    E(rot)  - is the rotational thermal energy
    E(trans)- is the translational thermal energy

Summary of contributions to the inner energy U:
Electronic energy                ...   -290.09583979 Eh
Zero point energy                ...      0.17925250 Eh     112.48 kcal/mol
Thermal vibrational correction   ...      0.00317817 Eh       1.99 kcal/mol
Thermal rotational correction    ...      0.00141627 Eh       0.89 kcal/mol
Thermal translational correction ...      0.00141627 Eh       0.89 kcal/mol
-----------------------------------------------------------------------
Total thermal energy                   -289.91057658 Eh

Summary of corrections to the electronic energy:
(perhaps to be used in another calculation)
Total thermal correction                  0.00601071 Eh       3.77 kcal/mol
Non-thermal (ZPE) correction              0.17925250 Eh     112.48 kcal/mol
-----------------------------------------------------------------------
Total correction                          0.18526321 Eh     116.25 kcal/mol

--------
ENTHALPY
--------

The enthalpy is H = U + kB*T
                kB is Boltzmann's constant
Total free energy                 ...   -289.91057658 Eh
Thermal Enthalpy correction       ...      0.00094421 Eh       0.59 kcal/mol
-----------------------------------------------------------------------
Total Enthalpy                    ...   -289.90963237 Eh

-------
ENTROPY
-------

The entropy contributions are T*S = T*(S(el)+S(vib)+S(rot)+S(trans)
     S(el)   - electronic entropy
     S(vib)  - vibrational entropy
     S(rot)  - rotational entropy
     S(trans)- translational entropy
The entropies will be listed as mutliplied by the temperature to get
units of energy

Electronic entropy                ...      0.00000000 Eh      0.00 kcal/mol
Vibrational entropy               ...      0.00477715 Eh      3.00 kcal/mol
Rotational entropy                ...      0.01169631 Eh      7.34 kcal/mol
Translational entropy             ...      0.01884507 Eh     11.83 kcal/mol
-----------------------------------------------------------------------
Final entropy term                ...      0.03531853 Eh     22.16 kcal/mol

CAUTION: The rotational entropy is not quite correctly treated here
         because it includes a symmetry number that is not yet correctly
         implemented in ORCA!
For a nonlinear molecule the correct rotational entropy is:
    S(rot) = R*(ln(qrot/sn)+1.5)
    R    = 8.31441 J/mol/K = 1.987191683e-3 kcal/mol/K
    qrot = 160555.3829828
    sn is the rotational symmetry number. We have assumed 3 here
       if it is different for your molecule then you should correct
       the printed rotational entropy by manually evaluating the equation
       as given above

For convenience we print out the resulting values for sn=1 - 12:
 sn= 1  qrot/sn=  160555.3830 T*S(rot)=     7.99 kcal/mol T*S(tot)=    22.81 kcal/mol
 sn= 2  qrot/sn=   80277.6915 T*S(rot)=     7.58 kcal/mol T*S(tot)=    22.40 kcal/mol
 sn= 3  qrot/sn=   53518.4610 T*S(rot)=     7.34 kcal/mol T*S(tot)=    22.16 kcal/mol
 sn= 4  qrot/sn=   40138.8457 T*S(rot)=     7.17 kcal/mol T*S(tot)=    21.99 kcal/mol
 sn= 5  qrot/sn=   32111.0766 T*S(rot)=     7.04 kcal/mol T*S(tot)=    21.86 kcal/mol
 sn= 6  qrot/sn=   26759.2305 T*S(rot)=     6.93 kcal/mol T*S(tot)=    21.75 kcal/mol
 sn= 7  qrot/sn=   22936.4833 T*S(rot)=     6.84 kcal/mol T*S(tot)=    21.66 kcal/mol
 sn= 8  qrot/sn=   20069.4229 T*S(rot)=     6.76 kcal/mol T*S(tot)=    21.58 kcal/mol
 sn= 9  qrot/sn=   17839.4870 T*S(rot)=     6.69 kcal/mol T*S(tot)=    21.51 kcal/mol
 sn=10  qrot/sn=   16055.5383 T*S(rot)=     6.63 kcal/mol T*S(tot)=    21.45 kcal/mol
 sn=11  qrot/sn=   14595.9439 T*S(rot)=     6.57 kcal/mol T*S(tot)=    21.39 kcal/mol
 sn=12  qrot/sn=   13379.6152 T*S(rot)=     6.52 kcal/mol T*S(tot)=    21.34 kcal/mol

-------------------
GIBBS FREE ENTHALPY
-------------------

The Gibbs free enthalpy is G = H - T*S

Total enthalpy                    ...   -289.90963237 Eh
Total entropy correction          ...     -0.03531853 Eh    -22.16 kcal/mol
-----------------------------------------------------------------------
Final Gibbs free enthalpy         ...   -289.94495090 Eh

For completeness - the Gibbs free enthalpy minus the electronic energy
G-E(el)                           ...      0.15088889 Eh     94.68 kcal/mol

                             ****ORCA TERMINATED NORMALLY****
TOTAL RUN TIME: 0 days 0 hours 47 minutes 24 seconds 48 msec
