                         Program Version 3.0.3 - RELEASE   -
|  1> ! NORI PBE0 def2-TZVP UseSym TightOPT Freq TightSCF Grid3 FinalGrid5 XYZFile
|  2> % pal
|  3>     nprocs 8
|  4> end
|  5> %method
|  6>     SymThresh 5.0e-2
|  7> end
|  8> % geom
|  9>     MaxIter 10
| 10> end
| 11> % maxcore 2000
| 12> % output
| 13>     printlevel mini
| 14>     print[ P_Basis ] 0
| 15>     print[ P_SCFInfo ] 1
| 16>     print[ P_SCFIterInfo ] 1
| 17>     print[ P_OrbEn ] 0
| 18>     print[ P_Cartesian ] 0
| 19> end
| 20> % elprop
| 21>     Dipole false
| 22> end
| 23> *xyz 1 1
| 24>  C        0.7805011227     0.0603800743     0.0118166247
| 25>  N        1.5088616033    -0.6455522922    -1.0644942090
| 26>  C        2.6588688676    -1.5405802726    -0.6061795434
| 27>  C        3.7600590262    -0.9745922750    -1.4879803097
| 28>  C        3.0263563846    -0.8168681720    -2.8411447435
| 29>  C        2.2376873303     0.2389725046    -2.0571943161
| 30>  C        3.5416172513     0.5446654379    -1.3111914613
| 31>  H       -0.0081778842     0.6671686064    -0.4313684432
| 32>  H        1.4752632830     0.6954582634     0.5564106272
| 33>  H        0.3457092442    -0.6745341315     0.6881343672
| 34>  H        0.8359176992    -1.2121517991    -1.5791593552
| 35>  H        2.8164315933    -1.3902776072     0.4614745701
| 36>  H        2.4058335545    -2.5825325823    -0.7995547549
| 37>  H        4.7363761156    -1.4421856549    -1.3980353715
| 38>  H        3.6514370140    -0.3588893677    -3.6044599164
| 39>  H        2.4871871886    -1.6709124996    -3.2583099305
| 40>  H        1.5713261165     0.9800936459    -2.4937585546
| 41>  H        3.5018033617     0.9676048217    -0.3061589300
| 42>  H        4.2101311276     1.1341632998    -1.9350063499
| 43> *
| 44>
| 45>                          ****END OF INPUT****
 Total Charge           Charge          ....    1
 Multiplicity           Mult            ....    1
 Number of Electrons    NEL             ....   54
FINAL SINGLE POINT ENERGY      -290.095835990014
FINAL SINGLE POINT ENERGY      -290.095839151266

CARTESIAN COORDINATES (ANGSTROEM)
---------------------------------
  C      1.233217   -0.000287    1.822370
  N      0.001435   -0.000063    1.003017
  C     -0.259937   -1.274439    0.201698
  C     -0.448807   -0.650899   -1.171835
  C     -1.325438    0.579775   -0.838054
  C     -0.054234    1.030739   -0.108265
  C      0.736798    0.338819   -1.224202
  H      1.315371    0.954375    2.340406
  H      2.094698   -0.145969    1.175391
  H      1.176490   -0.811065    2.547491
  H     -0.788201    0.163660    1.626367
  H      0.609090   -1.925656    0.285020
  H     -1.139196   -1.778717    0.600951
  H     -0.679325   -1.335608   -1.982975
  H     -1.523298    1.200152   -1.709339
  H     -2.241371    0.441170   -0.258143
  H      0.132467    2.033629    0.269684
  H      1.746480   -0.022668   -1.026267
  H      0.730526    0.943741   -2.128518

FINAL SINGLE POINT ENERGY      -290.095839691683
                    ***********************HURRAY********************
 Multiplicity           Mult            ....    1
 Number of Electrons    NEL             ....   54
 Basis Dimension        Dim             ....  289
FINAL SINGLE POINT ENERGY      -290.095839802386

VIBRATIONAL FREQUENCIES
-----------------------

   0:         0.00 cm**-1
   1:         0.00 cm**-1
   2:         0.00 cm**-1
   3:         0.00 cm**-1
   4:         0.00 cm**-1
   5:         0.00 cm**-1
   6:       199.76 cm**-1
   7:       226.33 cm**-1
   8:       307.72 cm**-1
   9:       431.77 cm**-1
  10:       487.84 cm**-1
  11:       524.23 cm**-1
  12:       640.15 cm**-1
  13:       783.68 cm**-1
  14:       826.27 cm**-1
  15:       859.11 cm**-1
  16:       870.52 cm**-1
  17:       888.07 cm**-1
  18:       939.43 cm**-1
  19:       949.10 cm**-1
  20:       969.79 cm**-1
  21:      1016.25 cm**-1
  22:      1050.60 cm**-1
  23:      1055.38 cm**-1
  24:      1085.94 cm**-1
  25:      1092.12 cm**-1
  26:      1096.63 cm**-1
  27:      1138.26 cm**-1
  28:      1166.82 cm**-1
  29:      1191.68 cm**-1
  30:      1227.34 cm**-1
  31:      1236.88 cm**-1
  32:      1269.97 cm**-1
  33:      1290.58 cm**-1
  34:      1299.51 cm**-1
  35:      1311.65 cm**-1
  36:      1359.53 cm**-1
  37:      1380.14 cm**-1
  38:      1434.07 cm**-1
  39:      1455.16 cm**-1
  40:      1479.52 cm**-1
  41:      1491.32 cm**-1
  42:      1498.76 cm**-1
  43:      1501.82 cm**-1
  44:      1523.44 cm**-1
  45:      3084.77 cm**-1
  46:      3088.71 cm**-1
  47:      3104.99 cm**-1
  48:      3110.07 cm**-1
  49:      3166.06 cm**-1
  50:      3172.52 cm**-1
  51:      3174.64 cm**-1
  52:      3178.99 cm**-1
  53:      3181.62 cm**-1
  54:      3182.43 cm**-1
  55:      3197.71 cm**-1
  56:      3483.01 cm**-1

IR SPECTRUM
-----------

 Mode    freq (cm**-1)   T**2         TX         TY         TZ
-------------------------------------------------------------------
   6:       199.76    0.042917  ( -0.081889  -0.034232   0.187188)
   7:       226.33    0.010492  ( -0.037432   0.093331  -0.019501)
   8:       307.72    0.142150  (  0.118026  -0.347131  -0.087866)
   9:       431.77    0.207448  (  0.262722  -0.237707  -0.286218)
  10:       487.84    4.010863  ( -1.234329   0.244944  -1.557979)
  11:       524.23    0.194798  (  0.439517   0.011162   0.038700)
  12:       640.15    1.255135  ( -0.376942  -0.168892  -1.041405)
  13:       783.68    3.060786  ( -0.051885   0.338095  -1.715746)
  14:       826.27    5.153426  (  0.260491   1.230707   1.889691)
  15:       859.11    1.447054  (  0.926697   0.517268   0.566323)
  16:       870.52    1.896103  ( -1.281182   0.078762  -0.498471)
  17:       888.07    3.924713  ( -0.301447  -0.657784  -1.844224)
  18:       939.43    1.383119  (  0.303354   0.808104   0.798789)
  19:       949.10    9.784994  (  0.498046   3.050973  -0.478024)
  20:       969.79    1.294159  (  0.035707  -1.023270   0.495785)
  21:      1016.25    2.492610  (  1.155400   1.024078  -0.330037)
  22:      1050.60   10.709406  ( -1.217773   1.122809  -2.822363)
  23:      1055.38    4.038772  (  0.496172   1.471600   1.275531)
  24:      1085.94    0.738848  ( -0.801708   0.168138   0.260464)
  25:      1092.12    3.003851  ( -0.024502  -0.379738   1.690872)
  26:      1096.63    2.254564  ( -0.607511   0.890403  -1.045311)
  27:      1138.26    6.261281  (  0.172400   1.773080   1.757199)
  28:      1166.82    2.482162  ( -1.462970   0.578268   0.086523)
  29:      1191.68    5.499838  (  1.910900   0.218507   1.341847)
  30:      1227.34   15.250918  ( -3.002240   2.088247  -1.369926)
  31:      1236.88    0.380945  ( -0.040378  -0.614651   0.038974)
  32:      1269.97   10.961642  (  0.873918   2.537323   1.939046)
  33:      1290.58    4.776798  (  0.756047   0.353363  -2.019982)
  34:      1299.51    0.416907  ( -0.565999   0.294421   0.099342)
  35:      1311.65    1.055765  (  0.649314  -0.466353   0.645501)
  36:      1359.53    1.877108  ( -0.153420   0.946642   0.978488)
  37:      1380.14   29.103040  (  1.266179   5.185343   0.782334)
  38:      1434.07   14.282875  ( -2.691401   0.035622  -2.652917)
  39:      1455.16    2.907300  ( -1.621688   0.095248  -0.518032)
  40:      1479.52    9.399991  ( -3.030270   0.158249  -0.438647)
  41:      1491.32   22.636672  ( -0.082675  -4.665849   0.927195)
  42:      1498.76   18.152146  ( -2.817359   1.014774   3.030655)
  43:      1501.82   21.919776  (  0.607287   0.923081  -4.549604)
  44:      1523.44    1.024923  ( -0.734906   0.656158   0.233008)
  45:      3084.77   10.519352  ( -2.864903   0.118613   1.515788)
  46:      3088.71    0.240648  ( -0.421491  -0.141434  -0.207338)
  47:      3104.99    7.856685  ( -2.777231   0.247725  -0.286888)
  48:      3110.07    3.881847  (  0.412047  -1.559115   1.131911)
  49:      3166.06    3.191318  (  0.235610   1.241845   1.262390)
  50:      3172.52    0.091071  ( -0.234547   0.152141   0.113629)
  51:      3174.64    4.665196  (  2.153337   0.008932  -0.168092)
  52:      3178.99    1.202188  (  0.291381  -1.038910   0.194810)
  53:      3181.62    0.093623  ( -0.121193   0.110338   0.258381)
  54:      3182.43    0.543687  (  0.290550   0.544579   0.403362)
  55:      3197.71    0.174471  (  0.258745  -0.263554  -0.195093)
  56:      3483.01   49.487160  (  4.955209  -1.341963  -4.809594)

--------------------------
THERMOCHEMISTRY AT 298.15K
--------------------------

Temperature         ... 298.15 K
Pressure            ... 1.00 atm
Total Mass          ... 98.17 AMU

Throughout the following assumptions are being made:
  (1) The electronic state is orbitally nondegenerate
  (2) There are no thermally accessible electronically excited states
  (3) Hindered rotations indicated by low frequency modes) are not
      treated as such but are treated as vibrations and this may
      case some error
  (4) All equations used are the standard statistical mechanics
      equations for an ideal gas
  (5) All vibrations are strinctly harmonic

------------
INNER ENERGY
------------

The inner energy is: U= E(el) + E(ZPE) + E(vib) + E(rot) + E(trans)
    E(el)   - is the total energy from the electronic structure calculation
              = E(kin-el) + E(nuc-el) + E(el-el) + E(nuc-nuc)
    E(ZPE)  - the the zero temperature vibrational energy from the frequency calculation
    E(vib)  - the the finite temperature correction to E(ZPE) due to population
              of excietd vibrational states
    E(rot)  - is the rotational thermal energy
    E(trans)- is the translational thermal energy

Summary of contributions to the inner energy U:
Electronic energy                ...   -290.09583980 Eh
Zero point energy                ...      0.17925227 Eh     112.48 kcal/mol
Thermal vibrational correction   ...      0.00317772 Eh       1.99 kcal/mol
Thermal rotational correction    ...      0.00141627 Eh       0.89 kcal/mol
Thermal translational correction ...      0.00141627 Eh       0.89 kcal/mol
-----------------------------------------------------------------------
Total thermal energy                   -289.91057727 Eh

Summary of corrections to the electronic energy:
(perhaps to be used in another calculation)
Total thermal correction                  0.00601026 Eh       3.77 kcal/mol
Non-thermal (ZPE) correction              0.17925227 Eh     112.48 kcal/mol
-----------------------------------------------------------------------
Total correction                          0.18526253 Eh     116.25 kcal/mol

--------
ENTHALPY
--------

The enthalpy is H = U + kB*T
                kB is Boltzmann's constant
Total free energy                 ...   -289.91057727 Eh
Thermal Enthalpy correction       ...      0.00094421 Eh       0.59 kcal/mol
-----------------------------------------------------------------------
Total Enthalpy                    ...   -289.90963306 Eh

-------
ENTROPY
-------

The entropy contributions are T*S = T*(S(el)+S(vib)+S(rot)+S(trans)
     S(el)   - electronic entropy
     S(vib)  - vibrational entropy
     S(rot)  - rotational entropy
     S(trans)- translational entropy
The entropies will be listed as mutliplied by the temperature to get
units of energy

Electronic entropy                ...      0.00000000 Eh      0.00 kcal/mol
Vibrational entropy               ...      0.00477607 Eh      3.00 kcal/mol
Rotational entropy                ...      0.01169634 Eh      7.34 kcal/mol
Translational entropy             ...      0.01884507 Eh     11.83 kcal/mol
-----------------------------------------------------------------------
Final entropy term                ...      0.03531748 Eh     22.16 kcal/mol

CAUTION: The rotational entropy is not quite correctly treated here
         because it includes a symmetry number that is not yet correctly
         implemented in ORCA!
For a nonlinear molecule the correct rotational entropy is:
    S(rot) = R*(ln(qrot/sn)+1.5)
    R    = 8.31441 J/mol/K = 1.987191683e-3 kcal/mol/K
    qrot = 160560.7005819
    sn is the rotational symmetry number. We have assumed 3 here
       if it is different for your molecule then you should correct
       the printed rotational entropy by manually evaluating the equation
       as given above

For convenience we print out the resulting values for sn=1 - 12:
 sn= 1  qrot/sn=  160560.7006 T*S(rot)=     7.99 kcal/mol T*S(tot)=    22.81 kcal/mol
 sn= 2  qrot/sn=   80280.3503 T*S(rot)=     7.58 kcal/mol T*S(tot)=    22.40 kcal/mol
 sn= 3  qrot/sn=   53520.2335 T*S(rot)=     7.34 kcal/mol T*S(tot)=    22.16 kcal/mol
 sn= 4  qrot/sn=   40140.1751 T*S(rot)=     7.17 kcal/mol T*S(tot)=    21.99 kcal/mol
 sn= 5  qrot/sn=   32112.1401 T*S(rot)=     7.04 kcal/mol T*S(tot)=    21.86 kcal/mol
 sn= 6  qrot/sn=   26760.1168 T*S(rot)=     6.93 kcal/mol T*S(tot)=    21.75 kcal/mol
 sn= 7  qrot/sn=   22937.2429 T*S(rot)=     6.84 kcal/mol T*S(tot)=    21.66 kcal/mol
 sn= 8  qrot/sn=   20070.0876 T*S(rot)=     6.76 kcal/mol T*S(tot)=    21.58 kcal/mol
 sn= 9  qrot/sn=   17840.0778 T*S(rot)=     6.69 kcal/mol T*S(tot)=    21.51 kcal/mol
 sn=10  qrot/sn=   16056.0701 T*S(rot)=     6.63 kcal/mol T*S(tot)=    21.45 kcal/mol
 sn=11  qrot/sn=   14596.4273 T*S(rot)=     6.57 kcal/mol T*S(tot)=    21.39 kcal/mol
 sn=12  qrot/sn=   13380.0584 T*S(rot)=     6.52 kcal/mol T*S(tot)=    21.34 kcal/mol

-------------------
GIBBS FREE ENTHALPY
-------------------

The Gibbs free enthalpy is G = H - T*S

Total enthalpy                    ...   -289.90963306 Eh
Total entropy correction          ...     -0.03531748 Eh    -22.16 kcal/mol
-----------------------------------------------------------------------
Final Gibbs free enthalpy         ...   -289.94495054 Eh

For completeness - the Gibbs free enthalpy minus the electronic energy
G-E(el)                           ...      0.15088926 Eh     94.68 kcal/mol

                             ****ORCA TERMINATED NORMALLY****
TOTAL RUN TIME: 0 days 0 hours 49 minutes 1 seconds 328 msec
