                         Program Version 3.0.3 - RELEASE   -
|  1> ! NORI PBE0 def2-TZVP UseSym TightOPT Freq TightSCF Grid3 FinalGrid5 XYZFile
|  2> % pal
|  3>     nprocs 8
|  4> end
|  5> %method
|  6>     SymThresh 5.0e-2
|  7> end
|  8> % geom
|  9>     MaxIter 10
| 10> end
| 11> % maxcore 2000
| 12> % output
| 13>     printlevel mini
| 14>     print[ P_Basis ] 0
| 15>     print[ P_SCFInfo ] 1
| 16>     print[ P_SCFIterInfo ] 1
| 17>     print[ P_OrbEn ] 0
| 18>     print[ P_Cartesian ] 0
| 19> end
| 20> % elprop
| 21>     Dipole false
| 22> end
| 23> *xyz 1 1
| 24>  C        0.7999842409    -0.2273321235     0.2040056861
| 25>  N        2.2552304663    -0.1094329172     0.0037191975
| 26>  C        2.9873526674     1.0827346349     0.5879528878
| 27>  C        4.1300377210     0.1626349491     1.0706531588
| 28>  C        3.1845702033    -1.0233634495     0.7784173972
| 29>  C        5.3708357577     0.2048001982     0.2463407467
| 30>  C        6.5822203872     0.3837847586     0.7501689613
| 31>  H        0.2979057234     0.5772435951    -0.3324212810
| 32>  H        0.5873555161    -0.1514641864     1.2692748483
| 33>  H        0.4630869999    -1.1923079692    -0.1735876975
| 34>  H        2.4589190453    -0.1803405061    -0.9923610210
| 35>  H        2.3827059718     1.5037429596     1.3899002488
| 36>  H        3.2161614210     1.8432558975    -0.1565503034
| 37>  H        4.3701409867     0.2812187280     2.1261486434
| 38>  H        3.5620528740    -1.8479621997     0.1760457669
| 39>  H        2.6544601270    -1.4004922976     1.6514746676
| 40>  H        5.2540387745     0.0805295689    -0.8308992462
| 41>  H        6.7439028579     0.5120858752     1.8157335972
| 42>  H        7.4586882586     0.4098244839     0.1148037412
| 43> *
| 44>
| 45>                          ****END OF INPUT****
 Total Charge           Charge          ....    1
 Multiplicity           Mult            ....    1
 Number of Electrons    NEL             ....   54
FINAL SINGLE POINT ENERGY      -290.073499416101
FINAL SINGLE POINT ENERGY      -290.073501757032
FINAL SINGLE POINT ENERGY      -290.073504600265
FINAL SINGLE POINT ENERGY      -290.073505587624

CARTESIAN COORDINATES (ANGSTROEM)
---------------------------------
  C      0.727705   -0.004298    2.684161
  N     -0.000462   -0.000194    1.402549
  C      0.325429    1.062044    0.371128
  C      0.305546    0.001126   -0.751315
  C      0.317849   -1.062285    0.368789
  C     -0.909315    0.006515   -1.614101
  C     -0.868006    0.004175   -2.937571
  H      0.461743    0.888434    3.249499
  H      1.796803   -0.007942    2.477715
  H      0.455346   -0.896400    3.247444
  H     -1.001788    0.003154    1.591961
  H      1.312369    1.468620    0.586827
  H     -0.415015    1.859490    0.341118
  H      1.205607   -0.001498   -1.364167
  H     -0.427781   -1.854811    0.336990
  H      1.302104   -1.475948    0.583396
  H     -1.875784    0.012461   -1.109789
  H      0.072942   -0.001557   -3.478296
  H     -1.774639    0.007999   -3.529838

FINAL SINGLE POINT ENERGY      -290.073506377853
                    ***********************HURRAY********************
 Multiplicity           Mult            ....    1
 Number of Electrons    NEL             ....   54
 Basis Dimension        Dim             ....  289
FINAL SINGLE POINT ENERGY      -290.073506826748

VIBRATIONAL FREQUENCIES
-----------------------

   0:         0.00 cm**-1
   1:         0.00 cm**-1
   2:         0.00 cm**-1
   3:         0.00 cm**-1
   4:         0.00 cm**-1
   5:         0.00 cm**-1
   6:        49.09 cm**-1
   7:        89.17 cm**-1
   8:       233.04 cm**-1
   9:       250.77 cm**-1
  10:       280.06 cm**-1
  11:       360.64 cm**-1
  12:       367.65 cm**-1
  13:       453.40 cm**-1
  14:       681.31 cm**-1
  15:       692.28 cm**-1
  16:       825.05 cm**-1
  17:       845.33 cm**-1
  18:       898.27 cm**-1
  19:       922.21 cm**-1
  20:       986.85 cm**-1
  21:       999.63 cm**-1
  22:      1003.56 cm**-1
  23:      1016.72 cm**-1
  24:      1037.39 cm**-1
  25:      1068.30 cm**-1
  26:      1101.26 cm**-1
  27:      1130.04 cm**-1
  28:      1192.69 cm**-1
  29:      1229.88 cm**-1
  30:      1255.01 cm**-1
  31:      1293.17 cm**-1
  32:      1303.10 cm**-1
  33:      1326.79 cm**-1
  34:      1336.77 cm**-1
  35:      1342.80 cm**-1
  36:      1352.00 cm**-1
  37:      1433.96 cm**-1
  38:      1453.47 cm**-1
  39:      1463.68 cm**-1
  40:      1477.34 cm**-1
  41:      1488.20 cm**-1
  42:      1493.55 cm**-1
  43:      1501.71 cm**-1
  44:      1727.85 cm**-1
  45:      3080.97 cm**-1
  46:      3112.69 cm**-1
  47:      3115.45 cm**-1
  48:      3126.75 cm**-1
  49:      3140.67 cm**-1
  50:      3163.36 cm**-1
  51:      3178.52 cm**-1
  52:      3183.10 cm**-1
  53:      3186.56 cm**-1
  54:      3186.76 cm**-1
  55:      3257.62 cm**-1
  56:      3489.18 cm**-1

IR SPECTRUM
-----------

 Mode    freq (cm**-1)   T**2         TX         TY         TZ
-------------------------------------------------------------------
   6:        49.09    1.272810  (  0.155664  -0.000745  -1.117398)
   7:        89.17    0.485813  ( -0.003694  -0.696990   0.002194)
   8:       233.04    0.123624  ( -0.001307  -0.351597  -0.001105)
   9:       250.77    0.271276  (  0.002761   0.520833   0.001020)
  10:       280.06    0.659076  (  0.810601  -0.002298  -0.044690)
  11:       360.64    0.897567  (  0.021634   0.945813   0.050358)
  12:       367.65    2.337473  ( -0.417998   0.039339  -1.470103)
  13:       453.40    0.461283  (  0.300540  -0.001702   0.609062)
  14:       681.31   12.308321  (  0.012541   3.508279  -0.012065)
  15:       692.28    1.250507  (  0.949891   0.039992   0.588740)
  16:       825.05    2.264094  (  1.124199  -0.001895   1.000133)
  17:       845.33    4.560514  (  0.005723   2.135526   0.003440)
  18:       898.27    7.799307  (  0.278280   0.004361  -2.778821)
  19:       922.21    9.586757  ( -0.010575  -3.096224  -0.006637)
  20:       986.85   10.643664  ( -0.923986   0.013968  -3.128852)
  21:       999.63    0.731379  (  0.004375   0.854993   0.018622)
  22:      1003.56   60.839334  ( -0.042589  -7.799837   0.007660)
  23:      1016.72    2.611035  (  0.010034   1.615829   0.005602)
  24:      1037.39    2.508506  ( -0.888405  -0.011302   1.311151)
  25:      1068.30    5.915088  ( -1.030093  -0.000460   2.203179)
  26:      1101.26    2.341834  (  0.000548   1.530301   0.003481)
  27:      1130.04   14.725879  (  0.808498  -0.010601   3.751279)
  28:      1192.69    0.072129  (  0.000579  -0.268543  -0.003679)
  29:      1229.88    0.307287  ( -0.424858  -0.000913   0.356064)
  30:      1255.01    5.202104  (  0.010029   2.280789  -0.001708)
  31:      1293.17    2.353547  (  1.481915  -0.008870   0.396731)
  32:      1303.10    0.709153  (  0.007045   0.842077   0.003031)
  33:      1326.79    3.663073  (  0.048991  -0.006019  -1.913279)
  34:      1336.77    2.898749  ( -1.424671   0.024893   0.931903)
  35:      1342.80   15.213278  (  0.020589   3.900366  -0.001552)
  36:      1352.00    0.487691  ( -0.585247   0.009386   0.380905)
  37:      1433.96   17.015664  ( -1.004012   0.006700  -4.000947)
  38:      1453.47    1.549074  ( -1.239120   0.004978   0.116751)
  39:      1463.68   12.638713  ( -0.051048   0.004886   3.554727)
  40:      1477.34   17.066955  (  0.011659   4.131194   0.007540)
  41:      1488.20   17.582126  (  0.018539   4.193063   0.001049)
  42:      1493.55   32.532914  ( -2.923126   0.008393   4.897773)
  43:      1501.71   12.045192  (  2.901499  -0.015134   1.904276)
  44:      1727.85    0.571169  ( -0.112546   0.002309   0.747327)
  45:      3080.97    0.081174  (  0.233377  -0.000832   0.163427)
  46:      3112.69    1.538196  (  0.005413   1.240199   0.008476)
  47:      3115.45    0.785710  ( -0.415155   0.013237  -0.783059)
  48:      3126.75    3.463321  ( -1.171039   0.009864   1.446337)
  49:      3140.67    4.773068  ( -1.814285   0.010142   1.217102)
  50:      3163.36    0.570205  ( -0.747273   0.004498  -0.108477)
  51:      3178.52    0.062623  ( -0.000310  -0.250239  -0.001878)
  52:      3183.10    0.146598  (  0.065827   0.002250  -0.377173)
  53:      3186.56    0.204434  ( -0.002406   0.451794  -0.017626)
  54:      3186.76    0.051409  ( -0.041974  -0.036469  -0.219812)
  55:      3257.62    0.398780  (  0.523421  -0.003263  -0.353271)
  56:      3489.18   57.070344  (  7.083858  -0.021670  -2.624659)

--------------------------
THERMOCHEMISTRY AT 298.15K
--------------------------

Temperature         ... 298.15 K
Pressure            ... 1.00 atm
Total Mass          ... 98.17 AMU

Throughout the following assumptions are being made:
  (1) The electronic state is orbitally nondegenerate
  (2) There are no thermally accessible electronically excited states
  (3) Hindered rotations indicated by low frequency modes) are not
      treated as such but are treated as vibrations and this may
      case some error
  (4) All equations used are the standard statistical mechanics
      equations for an ideal gas
  (5) All vibrations are strinctly harmonic

------------
INNER ENERGY
------------

The inner energy is: U= E(el) + E(ZPE) + E(vib) + E(rot) + E(trans)
    E(el)   - is the total energy from the electronic structure calculation
              = E(kin-el) + E(nuc-el) + E(el-el) + E(nuc-nuc)
    E(ZPE)  - the the zero temperature vibrational energy from the frequency calculation
    E(vib)  - the the finite temperature correction to E(ZPE) due to population
              of excietd vibrational states
    E(rot)  - is the rotational thermal energy
    E(trans)- is the translational thermal energy

Summary of contributions to the inner energy U:
Electronic energy                ...   -290.07350683 Eh
Zero point energy                ...      0.17584182 Eh     110.34 kcal/mol
Thermal vibrational correction   ...      0.00486553 Eh       3.05 kcal/mol
Thermal rotational correction    ...      0.00141627 Eh       0.89 kcal/mol
Thermal translational correction ...      0.00141627 Eh       0.89 kcal/mol
-----------------------------------------------------------------------
Total thermal energy                   -289.88996694 Eh

Summary of corrections to the electronic energy:
(perhaps to be used in another calculation)
Total thermal correction                  0.00769807 Eh       4.83 kcal/mol
Non-thermal (ZPE) correction              0.17584182 Eh     110.34 kcal/mol
-----------------------------------------------------------------------
Total correction                          0.18353989 Eh     115.17 kcal/mol

--------
ENTHALPY
--------

The enthalpy is H = U + kB*T
                kB is Boltzmann's constant
Total free energy                 ...   -289.88996694 Eh
Thermal Enthalpy correction       ...      0.00094421 Eh       0.59 kcal/mol
-----------------------------------------------------------------------
Total Enthalpy                    ...   -289.88902273 Eh

-------
ENTROPY
-------

The entropy contributions are T*S = T*(S(el)+S(vib)+S(rot)+S(trans)
     S(el)   - electronic entropy
     S(vib)  - vibrational entropy
     S(rot)  - rotational entropy
     S(trans)- translational entropy
The entropies will be listed as mutliplied by the temperature to get
units of energy

Electronic entropy                ...      0.00000000 Eh      0.00 kcal/mol
Vibrational entropy               ...      0.00898592 Eh      5.64 kcal/mol
Rotational entropy                ...      0.01200493 Eh      7.53 kcal/mol
Translational entropy             ...      0.01884507 Eh     11.83 kcal/mol
-----------------------------------------------------------------------
Final entropy term                ...      0.03983591 Eh     25.00 kcal/mol

CAUTION: The rotational entropy is not quite correctly treated here
         because it includes a symmetry number that is not yet correctly
         implemented in ORCA!
For a nonlinear molecule the correct rotational entropy is:
    S(rot) = R*(ln(qrot/sn)+1.5)
    R    = 8.31441 J/mol/K = 1.987191683e-3 kcal/mol/K
    qrot = 222628.1052549
    sn is the rotational symmetry number. We have assumed 3 here
       if it is different for your molecule then you should correct
       the printed rotational entropy by manually evaluating the equation
       as given above

For convenience we print out the resulting values for sn=1 - 12:
 sn= 1  qrot/sn=  222628.1053 T*S(rot)=     8.18 kcal/mol T*S(tot)=    25.65 kcal/mol
 sn= 2  qrot/sn=  111314.0526 T*S(rot)=     7.77 kcal/mol T*S(tot)=    25.24 kcal/mol
 sn= 3  qrot/sn=   74209.3684 T*S(rot)=     7.53 kcal/mol T*S(tot)=    25.00 kcal/mol
 sn= 4  qrot/sn=   55657.0263 T*S(rot)=     7.36 kcal/mol T*S(tot)=    24.83 kcal/mol
 sn= 5  qrot/sn=   44525.6211 T*S(rot)=     7.23 kcal/mol T*S(tot)=    24.69 kcal/mol
 sn= 6  qrot/sn=   37104.6842 T*S(rot)=     7.12 kcal/mol T*S(tot)=    24.59 kcal/mol
 sn= 7  qrot/sn=   31804.0150 T*S(rot)=     7.03 kcal/mol T*S(tot)=    24.50 kcal/mol
 sn= 8  qrot/sn=   27828.5132 T*S(rot)=     6.95 kcal/mol T*S(tot)=    24.42 kcal/mol
 sn= 9  qrot/sn=   24736.4561 T*S(rot)=     6.88 kcal/mol T*S(tot)=    24.35 kcal/mol
 sn=10  qrot/sn=   22262.8105 T*S(rot)=     6.82 kcal/mol T*S(tot)=    24.28 kcal/mol
 sn=11  qrot/sn=   20238.9187 T*S(rot)=     6.76 kcal/mol T*S(tot)=    24.23 kcal/mol
 sn=12  qrot/sn=   18552.3421 T*S(rot)=     6.71 kcal/mol T*S(tot)=    24.18 kcal/mol

-------------------
GIBBS FREE ENTHALPY
-------------------

The Gibbs free enthalpy is G = H - T*S

Total enthalpy                    ...   -289.88902273 Eh
Total entropy correction          ...     -0.03983591 Eh    -25.00 kcal/mol
-----------------------------------------------------------------------
Final Gibbs free enthalpy         ...   -289.92885864 Eh

For completeness - the Gibbs free enthalpy minus the electronic energy
G-E(el)                           ...      0.14464819 Eh     90.77 kcal/mol

                             ****ORCA TERMINATED NORMALLY****
TOTAL RUN TIME: 0 days 0 hours 44 minutes 43 seconds 996 msec
