                         Program Version 3.0.3 - RELEASE   -
|  1> ! NORI PBE0 def2-TZVP UseSym TightOPT Freq TightSCF Grid3 FinalGrid5 XYZFile
|  2> % pal
|  3>     nprocs 8
|  4> end
|  5> %method
|  6>     SymThresh 5.0e-2
|  7> end
|  8> % geom
|  9>     MaxIter 10
| 10> end
| 11> % maxcore 2000
| 12> % output
| 13>     printlevel mini
| 14>     print[ P_Basis ] 0
| 15>     print[ P_SCFInfo ] 1
| 16>     print[ P_SCFIterInfo ] 1
| 17>     print[ P_OrbEn ] 0
| 18>     print[ P_Cartesian ] 0
| 19> end
| 20> % elprop
| 21>     Dipole false
| 22> end
| 23> *xyz 1 1
| 24>  C        1.0091986350     0.0440728019     0.0994317438
| 25>  N        2.4817208279     0.0527683471     0.1201038304
| 26>  C        3.2187008578     1.1231833703     0.8947527912
| 27>  C        4.2808693942     0.0767649721     1.2993294779
| 28>  C        3.2309676769    -0.9910122335     0.9190857533
| 29>  C        5.4433279345     0.0734018855     0.4366322251
| 30>  C        6.3901933303     0.0704494107    -0.2988949648
| 31>  H        0.6539294520     0.9283132109    -0.4292741736
| 32>  H        0.6437062102     0.0532983129     1.1250744253
| 33>  H        0.6641246014    -0.8555891520    -0.4096215037
| 34>  H        2.8378678119     0.0437646041    -0.8367595015
| 35>  H        2.5902240831     1.4414051730     1.7254627716
| 36>  H        3.5250984658     1.9696945982     0.2850196743
| 37>  H        4.5625122645     0.0905129037     2.3522926679
| 38>  H        3.5474337821    -1.8475034413     0.3287137826
| 39>  H        2.6061481550    -1.2975700367     1.7568747311
| 40>  H        7.2462965172     0.0680052729    -0.9361837310
| 41> *
| 42>
| 43>                          ****END OF INPUT****
 Total Charge           Charge          ....    1
 Multiplicity           Mult            ....    1
 Number of Electrons    NEL             ....   52
FINAL SINGLE POINT ENERGY      -288.818713192136

CARTESIAN COORDINATES (ANGSTROEM)
---------------------------------
  C      2.592098    0.436270    0.000016
  N      1.185287    0.000184   -0.000017
  C      0.234777    0.518327    1.057072
  C     -0.891064    0.563095   -0.000037
  C      0.234811    0.518379   -1.057112
  C     -1.727563   -0.618373   -0.000077
  C     -2.398525   -1.612036    0.000049
  H      3.085332    0.050955    0.891967
  H      2.622233    1.524601    0.000043
  H      3.085361    0.050999   -0.891938
  H      1.143005   -1.019919   -0.000043
  H      0.571879    1.506120    1.368403
  H      0.125288   -0.148150    1.909027
  H     -1.485967    1.476321   -0.000025
  H      0.125349   -0.148056   -1.909104
  H      0.571923    1.506187   -1.368384
  H     -3.013827   -2.483972    0.000160

FINAL SINGLE POINT ENERGY      -288.818713997174
                    ***********************HURRAY********************
 Multiplicity           Mult            ....    1
 Number of Electrons    NEL             ....   52
 Basis Dimension        Dim             ....  277
FINAL SINGLE POINT ENERGY      -288.818709536345

VIBRATIONAL FREQUENCIES
-----------------------

   0:         0.00 cm**-1
   1:         0.00 cm**-1
   2:         0.00 cm**-1
   3:         0.00 cm**-1
   4:         0.00 cm**-1
   5:         0.00 cm**-1
   6:        68.58 cm**-1
   7:       164.43 cm**-1
   8:       222.64 cm**-1
   9:       225.06 cm**-1
  10:       313.66 cm**-1
  11:       399.35 cm**-1
  12:       483.18 cm**-1
  13:       526.72 cm**-1
  14:       686.56 cm**-1
  15:       733.53 cm**-1
  16:       739.21 cm**-1
  17:       824.26 cm**-1
  18:       849.89 cm**-1
  19:       904.93 cm**-1
  20:       922.85 cm**-1
  21:       993.88 cm**-1
  22:      1014.64 cm**-1
  23:      1059.80 cm**-1
  24:      1102.03 cm**-1
  25:      1134.75 cm**-1
  26:      1158.34 cm**-1
  27:      1176.16 cm**-1
  28:      1236.17 cm**-1
  29:      1290.72 cm**-1
  30:      1303.49 cm**-1
  31:      1336.16 cm**-1
  32:      1351.93 cm**-1
  33:      1363.95 cm**-1
  34:      1437.15 cm**-1
  35:      1454.56 cm**-1
  36:      1475.55 cm**-1
  37:      1488.12 cm**-1
  38:      1492.82 cm**-1
  39:      1502.67 cm**-1
  40:      2249.65 cm**-1
  41:      3082.93 cm**-1
  42:      3118.39 cm**-1
  43:      3120.97 cm**-1
  44:      3130.74 cm**-1
  45:      3180.20 cm**-1
  46:      3185.88 cm**-1
  47:      3200.58 cm**-1
  48:      3200.89 cm**-1
  49:      3459.55 cm**-1
  50:      3470.52 cm**-1

IR SPECTRUM
-----------

 Mode    freq (cm**-1)   T**2         TX         TY         TZ
-------------------------------------------------------------------
   6:        68.58    2.029992  (  1.422307   0.083872   0.000673)
   7:       164.43    0.567708  ( -0.013060   0.006875   0.753319)
   8:       222.64    0.019955  ( -0.022841   0.020241  -0.137924)
   9:       225.06    5.696529  ( -1.525338   1.835721  -0.000804)
  10:       313.66    3.244742  (  0.000365   0.005146  -1.801309)
  11:       399.35    9.423845  (  3.031594  -0.482980   0.003786)
  12:       483.18    6.996315  ( -2.621789   0.350030   0.004000)
  13:       526.72   10.981692  (  0.004751  -0.006676   3.313853)
  14:       686.56    1.261746  ( -0.031382   1.122823  -0.005470)
  15:       733.53   37.771319  (  0.123162  -0.093577  -6.143891)
  16:       739.21   39.352959  ( -4.785712   4.053186  -0.146962)
  17:       824.26    0.289157  (  0.537302  -0.020905  -0.005174)
  18:       849.89    3.458496  ( -0.002077  -0.001956  -1.859701)
  19:       904.93    3.303330  ( -1.727002   0.566385  -0.000132)
  20:       922.85   11.843532  ( -0.001737  -0.000113  -3.441443)
  21:       993.88    6.900774  ( -0.000641   0.001877   2.626932)
  22:      1014.64    3.864839  (  1.953764   0.218268  -0.001642)
  23:      1059.80    5.470472  (  2.275116  -0.542498   0.003759)
  24:      1102.03    2.512451  ( -0.001967  -0.001256  -1.585070)
  25:      1134.75    8.202325  ( -2.773758  -0.713132   0.005755)
  26:      1158.34   11.456978  ( -2.893233   1.756734  -0.008113)
  27:      1176.16    0.461903  ( -0.017380   0.009513   0.679346)
  28:      1236.17    7.021103  ( -0.000779   0.006102  -2.649729)
  29:      1290.72    1.382373  (  0.248026   1.149277   0.004310)
  30:      1303.49    0.277775  (  0.001158  -0.000787  -0.527042)
  31:      1336.16    4.120223  (  0.526860  -1.960247  -0.008431)
  32:      1351.93   15.788335  (  0.001474  -0.007644   3.973446)
  33:      1363.95    8.781268  ( -1.978211  -2.206328  -0.007978)
  34:      1437.15   22.735728  (  4.735645   0.556214  -0.004413)
  35:      1454.56    2.328471  ( -1.226868  -0.907320   0.006118)
  36:      1475.55   12.923985  ( -0.004316  -0.006138  -3.594987)
  37:      1488.12   22.526032  (  0.026877  -0.042201  -4.745896)
  38:      1492.82   31.527518  ( -4.404118   3.482833  -0.033653)
  39:      1502.67   16.537753  ( -2.209683  -3.413913   0.015853)
  40:      2249.65    6.643266  ( -1.599408  -2.021155   0.009685)
  41:      3082.93    0.047008  (  0.065846   0.206573  -0.000207)
  42:      3118.39    0.214793  ( -0.004449  -0.006245   0.463395)
  43:      3120.97    0.705243  ( -0.452327  -0.707557  -0.002681)
  44:      3130.74    1.499312  (  1.217641   0.129073   0.001808)
  45:      3180.20    0.248909  ( -0.005142  -0.005374  -0.498852)
  46:      3185.88    0.046824  (  0.210174  -0.050780  -0.008506)
  47:      3200.58    0.395624  (  0.310634  -0.546701   0.015763)
  48:      3200.89    0.011286  ( -0.033239   0.053099   0.085798)
  49:      3459.55   95.335159  ( -6.327072  -7.436616  -0.007277)
  50:      3470.52   62.115407  ( -0.569390   7.860737  -0.003111)

--------------------------
THERMOCHEMISTRY AT 298.15K
--------------------------

Temperature         ... 298.15 K
Pressure            ... 1.00 atm
Total Mass          ... 96.15 AMU

Throughout the following assumptions are being made:
  (1) The electronic state is orbitally nondegenerate
  (2) There are no thermally accessible electronically excited states
  (3) Hindered rotations indicated by low frequency modes) are not
      treated as such but are treated as vibrations and this may
      case some error
  (4) All equations used are the standard statistical mechanics
      equations for an ideal gas
  (5) All vibrations are strinctly harmonic

------------
INNER ENERGY
------------

The inner energy is: U= E(el) + E(ZPE) + E(vib) + E(rot) + E(trans)
    E(el)   - is the total energy from the electronic structure calculation
              = E(kin-el) + E(nuc-el) + E(el-el) + E(nuc-nuc)
    E(ZPE)  - the the zero temperature vibrational energy from the frequency calculation
    E(vib)  - the the finite temperature correction to E(ZPE) due to population
              of excietd vibrational states
    E(rot)  - is the rotational thermal energy
    E(trans)- is the translational thermal energy

Summary of contributions to the inner energy U:
Electronic energy                ...   -288.81870954 Eh
Zero point energy                ...      0.15226818 Eh      95.55 kcal/mol
Thermal vibrational correction   ...      0.00445855 Eh       2.80 kcal/mol
Thermal rotational correction    ...      0.00141627 Eh       0.89 kcal/mol
Thermal translational correction ...      0.00141627 Eh       0.89 kcal/mol
-----------------------------------------------------------------------
Total thermal energy                   -288.65915026 Eh

Summary of corrections to the electronic energy:
(perhaps to be used in another calculation)
Total thermal correction                  0.00729110 Eh       4.58 kcal/mol
Non-thermal (ZPE) correction              0.15226818 Eh      95.55 kcal/mol
-----------------------------------------------------------------------
Total correction                          0.15955928 Eh     100.12 kcal/mol

--------
ENTHALPY
--------

The enthalpy is H = U + kB*T
                kB is Boltzmann's constant
Total free energy                 ...   -288.65915026 Eh
Thermal Enthalpy correction       ...      0.00094421 Eh       0.59 kcal/mol
-----------------------------------------------------------------------
Total Enthalpy                    ...   -288.65820605 Eh

-------
ENTROPY
-------

The entropy contributions are T*S = T*(S(el)+S(vib)+S(rot)+S(trans)
     S(el)   - electronic entropy
     S(vib)  - vibrational entropy
     S(rot)  - rotational entropy
     S(trans)- translational entropy
The entropies will be listed as mutliplied by the temperature to get
units of energy

Electronic entropy                ...      0.00000000 Eh      0.00 kcal/mol
Vibrational entropy               ...      0.00776080 Eh      4.87 kcal/mol
Rotational entropy                ...      0.01196658 Eh      7.51 kcal/mol
Translational entropy             ...      0.01881568 Eh     11.81 kcal/mol
-----------------------------------------------------------------------
Final entropy term                ...      0.03854305 Eh     24.19 kcal/mol

CAUTION: The rotational entropy is not quite correctly treated here
         because it includes a symmetry number that is not yet correctly
         implemented in ORCA!
For a nonlinear molecule the correct rotational entropy is:
    S(rot) = R*(ln(qrot/sn)+1.5)
    R    = 8.31441 J/mol/K = 1.987191683e-3 kcal/mol/K
    qrot = 213766.5281997
    sn is the rotational symmetry number. We have assumed 3 here
       if it is different for your molecule then you should correct
       the printed rotational entropy by manually evaluating the equation
       as given above

For convenience we print out the resulting values for sn=1 - 12:
 sn= 1  qrot/sn=  213766.5282 T*S(rot)=     8.16 kcal/mol T*S(tot)=    24.84 kcal/mol
 sn= 2  qrot/sn=  106883.2641 T*S(rot)=     7.75 kcal/mol T*S(tot)=    24.43 kcal/mol
 sn= 3  qrot/sn=   71255.5094 T*S(rot)=     7.51 kcal/mol T*S(tot)=    24.19 kcal/mol
 sn= 4  qrot/sn=   53441.6320 T*S(rot)=     7.34 kcal/mol T*S(tot)=    24.02 kcal/mol
 sn= 5  qrot/sn=   42753.3056 T*S(rot)=     7.21 kcal/mol T*S(tot)=    23.88 kcal/mol
 sn= 6  qrot/sn=   35627.7547 T*S(rot)=     7.10 kcal/mol T*S(tot)=    23.78 kcal/mol
 sn= 7  qrot/sn=   30538.0755 T*S(rot)=     7.01 kcal/mol T*S(tot)=    23.68 kcal/mol
 sn= 8  qrot/sn=   26720.8160 T*S(rot)=     6.93 kcal/mol T*S(tot)=    23.60 kcal/mol
 sn= 9  qrot/sn=   23751.8365 T*S(rot)=     6.86 kcal/mol T*S(tot)=    23.54 kcal/mol
 sn=10  qrot/sn=   21376.6528 T*S(rot)=     6.80 kcal/mol T*S(tot)=    23.47 kcal/mol
 sn=11  qrot/sn=   19433.3207 T*S(rot)=     6.74 kcal/mol T*S(tot)=    23.42 kcal/mol
 sn=12  qrot/sn=   17813.8773 T*S(rot)=     6.69 kcal/mol T*S(tot)=    23.36 kcal/mol

-------------------
GIBBS FREE ENTHALPY
-------------------

The Gibbs free enthalpy is G = H - T*S

Total enthalpy                    ...   -288.65820605 Eh
Total entropy correction          ...     -0.03854305 Eh    -24.19 kcal/mol
-----------------------------------------------------------------------
Final Gibbs free enthalpy         ...   -288.69674910 Eh

For completeness - the Gibbs free enthalpy minus the electronic energy
G-E(el)                           ...      0.12196043 Eh     76.53 kcal/mol

                             ****ORCA TERMINATED NORMALLY****
TOTAL RUN TIME: 0 days 0 hours 36 minutes 47 seconds 461 msec
