                         Program Version 3.0.3 - RELEASE   -
|  1> ! NORI PBE0 def2-TZVP UseSym TightOPT Freq TightSCF Grid3 FinalGrid5 XYZFile
|  2> % pal
|  3>     nprocs 8
|  4> end
|  5> %method
|  6>     SymThresh 5.0e-2
|  7> end
|  8> % geom
|  9>     MaxIter 10
| 10> end
| 11> % maxcore 2000
| 12> % output
| 13>     printlevel mini
| 14>     print[ P_Basis ] 0
| 15>     print[ P_SCFInfo ] 1
| 16>     print[ P_SCFIterInfo ] 1
| 17>     print[ P_OrbEn ] 0
| 18>     print[ P_Cartesian ] 0
| 19> end
| 20> % elprop
| 21>     Dipole false
| 22> end
| 23> *xyz 1 1
| 24>  C        1.0270842927    -0.0903096683     0.0322697957
| 25>  N        2.4942279812    -0.1171302720     0.1292826808
| 26>  C        3.2069562459     0.9488419816     0.9202898495
| 27>  C        4.2249784659    -0.0804798753     1.4073789514
| 28>  C        3.2629921794    -1.2008790882     0.9550530831
| 29>  C        2.4047091840    -1.7435244614     2.0710065341
| 30>  C        3.8163844292    -2.2768862929     0.0590806199
| 31>  H        0.6821171896    -0.9715813930    -0.5076516014
| 32>  H        0.7282740753     0.8087424501    -0.5076335023
| 33>  H        0.5964201435    -0.0755298446     1.0303934034
| 34>  H        2.8800251006    -0.1402671958    -0.8143034901
| 35>  H        2.5372488119     1.3121314820     1.6979465090
| 36>  H        3.5434442961     1.7809386506     0.3046452914
| 37>  H        5.1527122177    -0.0658987902     0.8361400286
| 38>  H        4.4575648862    -0.0584552756     2.4696903294
| 39>  H        1.5841736841    -2.3585729219     1.6961044416
| 40>  H        2.0014200432    -0.9597102618     2.7152708364
| 41>  H        3.0339560080    -2.3811170339     2.6951002288
| 42>  H        4.4063548909    -1.8625572405    -0.7631242932
| 43>  H        3.0233512875    -2.9069382643    -0.3512650022
| 44>  H        4.4792745871    -2.9209766846     0.6407553062
| 45> *
| 46>
| 47>                          ****END OF INPUT****
 Total Charge           Charge          ....    1
 Multiplicity           Mult            ....    1
 Number of Electrons    NEL             ....   56
FINAL SINGLE POINT ENERGY      -291.319348349072
FINAL SINGLE POINT ENERGY      -291.319350268696

CARTESIAN COORDINATES (ANGSTROEM)
---------------------------------
  C      1.289235    0.000329    1.646608
  N      0.000128   -0.000001    0.938164
  C     -0.715842    1.303800    0.697171
  C     -1.182283    0.805196   -0.669187
  C     -0.120467   -0.313455   -0.590243
  C      1.158539    0.021011   -1.317472
  C     -0.578587   -1.729064   -0.821970
  H      1.697786   -1.009628    1.658681
  H      1.125905    0.340134    2.669567
  H      1.979109    0.674003    1.144886
  H     -0.632566   -0.639281    1.418450
  H      0.023118    2.102161    0.649915
  H     -1.455267    1.530141    1.462621
  H     -2.202133    0.419856   -0.657021
  H     -1.072047    1.502341   -1.496712
  H      1.968292   -0.664755   -1.061115
  H      1.488593    1.047323   -1.145059
  H      0.968886   -0.080662   -2.387638
  H     -1.489021   -1.962345   -0.263233
  H      0.197561   -2.452438   -0.560309
  H     -0.806496   -1.861018   -1.881611

FINAL SINGLE POINT ENERGY      -291.319351061768
                    ***********************HURRAY********************
 Multiplicity           Mult            ....    1
 Number of Electrons    NEL             ....   56
 Basis Dimension        Dim             ....  301
FINAL SINGLE POINT ENERGY      -291.319351397942

VIBRATIONAL FREQUENCIES
-----------------------

   0:         0.00 cm**-1
   1:         0.00 cm**-1
   2:         0.00 cm**-1
   3:         0.00 cm**-1
   4:         0.00 cm**-1
   5:         0.00 cm**-1
   6:       116.03 cm**-1
   7:       205.30 cm**-1
   8:       226.31 cm**-1
   9:       262.76 cm**-1
  10:       269.74 cm**-1
  11:       298.49 cm**-1
  12:       349.21 cm**-1
  13:       362.11 cm**-1
  14:       420.87 cm**-1
  15:       498.41 cm**-1
  16:       613.51 cm**-1
  17:       685.60 cm**-1
  18:       776.46 cm**-1
  19:       860.06 cm**-1
  20:       921.62 cm**-1
  21:       943.33 cm**-1
  22:       962.14 cm**-1
  23:       992.22 cm**-1
  24:       999.86 cm**-1
  25:      1016.40 cm**-1
  26:      1072.18 cm**-1
  27:      1116.20 cm**-1
  28:      1144.33 cm**-1
  29:      1154.28 cm**-1
  30:      1220.17 cm**-1
  31:      1223.69 cm**-1
  32:      1258.00 cm**-1
  33:      1294.01 cm**-1
  34:      1303.56 cm**-1
  35:      1336.67 cm**-1
  36:      1364.61 cm**-1
  37:      1414.82 cm**-1
  38:      1422.36 cm**-1
  39:      1440.37 cm**-1
  40:      1452.49 cm**-1
  41:      1468.05 cm**-1
  42:      1473.64 cm**-1
  43:      1485.42 cm**-1
  44:      1488.56 cm**-1
  45:      1495.89 cm**-1
  46:      1501.16 cm**-1
  47:      1502.73 cm**-1
  48:      1509.04 cm**-1
  49:      3051.36 cm**-1
  50:      3063.12 cm**-1
  51:      3085.01 cm**-1
  52:      3109.43 cm**-1
  53:      3118.42 cm**-1
  54:      3129.59 cm**-1
  55:      3140.59 cm**-1
  56:      3143.87 cm**-1
  57:      3148.02 cm**-1
  58:      3172.25 cm**-1
  59:      3172.85 cm**-1
  60:      3187.22 cm**-1
  61:      3197.14 cm**-1
  62:      3477.75 cm**-1

IR SPECTRUM
-----------

 Mode    freq (cm**-1)   T**2         TX         TY         TZ
-------------------------------------------------------------------
   6:       116.03    0.218950  ( -0.270226   0.321203  -0.206777)
   7:       205.30    0.004804  ( -0.040803  -0.024747   0.050269)
   8:       226.31    0.051437  ( -0.154334   0.165677   0.012990)
   9:       262.76    0.051415  (  0.080816   0.199322   0.071792)
  10:       269.74    0.156748  (  0.289202   0.179512   0.202203)
  11:       298.49    0.375004  (  0.409251  -0.422061   0.171412)
  12:       349.21    0.231389  ( -0.288940   0.317712   0.216705)
  13:       362.11    0.327391  ( -0.262601  -0.069226   0.503627)
  14:       420.87    0.972189  (  0.134190  -0.496291  -0.841354)
  15:       498.41    0.897743  ( -0.390269   0.057059  -0.861497)
  16:       613.51    1.657575  (  1.275959   0.057997  -0.161676)
  17:       685.60    9.431124  ( -0.551758   1.001383   2.850249)
  18:       776.46    1.164231  ( -0.977347  -0.072142  -0.451463)
  19:       860.06   13.368588  (  0.432217  -2.339191  -2.776682)
  20:       921.62    5.916429  (  0.431053  -2.122433  -1.107204)
  21:       943.33    1.746216  (  0.127430  -1.201759  -0.534558)
  22:       962.14    0.440342  (  0.306112   0.419679  -0.412925)
  23:       992.22    3.975008  (  1.116923  -0.638484   1.523098)
  24:       999.86    1.774651  ( -1.016457   0.860983   0.013224)
  25:      1016.40    1.962274  (  0.630389  -1.233106  -0.210556)
  26:      1072.18    5.195785  ( -0.342652   1.258137  -1.869617)
  27:      1116.20    7.927255  (  2.081038  -1.834298   0.481545)
  28:      1144.33   10.403705  (  1.097087   0.615257   2.970112)
  29:      1154.28   39.756363  (  1.947856   0.939693   5.922769)
  30:      1220.17    0.716750  (  0.323277  -0.765136  -0.163735)
  31:      1223.69    2.691096  ( -0.065060  -1.037991  -1.268636)
  32:      1258.00    0.448719  ( -0.597580  -0.168269   0.251599)
  33:      1294.01   17.028053  ( -2.202752   2.157737   2.742282)
  34:      1303.56    7.543719  (  0.836712  -2.506380  -0.749462)
  35:      1336.67    0.324130  ( -0.120846   0.063065   0.552765)
  36:      1364.61   22.196169  ( -1.205097   3.422242   3.005357)
  37:      1414.82   24.075147  ( -2.260221  -4.271473   0.849156)
  38:      1422.36   12.178815  (  0.980265  -1.642453  -2.918945)
  39:      1440.37   14.834251  (  3.555244   0.624760   1.343192)
  40:      1452.49   11.917637  ( -3.272815  -0.137738  -1.089655)
  41:      1468.05    2.591875  (  1.200079  -1.047088   0.235145)
  42:      1473.64    0.537385  ( -0.307352   0.509085  -0.428664)
  43:      1485.42   31.223525  (  1.603879   0.365150   5.340203)
  44:      1488.56   10.918802  (  1.608889  -2.813152  -0.645332)
  45:      1495.89    8.603644  (  2.623079  -0.165092  -1.302245)
  46:      1501.16    0.643364  (  0.220380  -0.404414  -0.656693)
  47:      1502.73   29.215163  ( -0.195198  -4.901476   2.269932)
  48:      1509.04    7.653884  (  0.012005   1.683348   2.195468)
  49:      3051.36    2.726189  ( -0.627256  -0.822672   1.286837)
  50:      3063.12    2.253602  (  1.041917   0.449727   0.982729)
  51:      3085.01    0.347505  ( -0.506678   0.063190  -0.294599)
  52:      3109.43    1.858771  ( -1.249227  -0.246795  -0.487129)
  53:      3118.42    1.953546  ( -0.308927  -0.910784  -1.014190)
  54:      3129.59    6.428964  (  2.391848  -0.188739  -0.820004)
  55:      3140.59    1.554628  (  0.367492   1.177093  -0.184473)
  56:      3143.87    4.765619  ( -0.052433  -2.104388  -0.578293)
  57:      3148.02    3.086252  (  1.276220  -1.146149   0.379286)
  58:      3172.25    0.301571  (  0.036547   0.531900  -0.131597)
  59:      3172.85    0.172187  (  0.281452   0.283474  -0.112315)
  60:      3187.22    0.788502  ( -0.640911   0.236280   0.567369)
  61:      3197.14    0.142069  (  0.123277   0.348484  -0.073697)
  62:      3477.75   41.781283  ( -3.335360  -4.153481   3.661318)

--------------------------
THERMOCHEMISTRY AT 298.15K
--------------------------

Temperature         ... 298.15 K
Pressure            ... 1.00 atm
Total Mass          ... 100.18 AMU

Throughout the following assumptions are being made:
  (1) The electronic state is orbitally nondegenerate
  (2) There are no thermally accessible electronically excited states
  (3) Hindered rotations indicated by low frequency modes) are not
      treated as such but are treated as vibrations and this may
      case some error
  (4) All equations used are the standard statistical mechanics
      equations for an ideal gas
  (5) All vibrations are strinctly harmonic

------------
INNER ENERGY
------------

The inner energy is: U= E(el) + E(ZPE) + E(vib) + E(rot) + E(trans)
    E(el)   - is the total energy from the electronic structure calculation
              = E(kin-el) + E(nuc-el) + E(el-el) + E(nuc-nuc)
    E(ZPE)  - the the zero temperature vibrational energy from the frequency calculation
    E(vib)  - the the finite temperature correction to E(ZPE) due to population
              of excietd vibrational states
    E(rot)  - is the rotational thermal energy
    E(trans)- is the translational thermal energy

Summary of contributions to the inner energy U:
Electronic energy                ...   -291.31935140 Eh
Zero point energy                ...      0.19847234 Eh     124.54 kcal/mol
Thermal vibrational correction   ...      0.00526421 Eh       3.30 kcal/mol
Thermal rotational correction    ...      0.00141627 Eh       0.89 kcal/mol
Thermal translational correction ...      0.00141627 Eh       0.89 kcal/mol
-----------------------------------------------------------------------
Total thermal energy                   -291.11278230 Eh

Summary of corrections to the electronic energy:
(perhaps to be used in another calculation)
Total thermal correction                  0.00809676 Eh       5.08 kcal/mol
Non-thermal (ZPE) correction              0.19847234 Eh     124.54 kcal/mol
-----------------------------------------------------------------------
Total correction                          0.20656910 Eh     129.62 kcal/mol

--------
ENTHALPY
--------

The enthalpy is H = U + kB*T
                kB is Boltzmann's constant
Total free energy                 ...   -291.11278230 Eh
Thermal Enthalpy correction       ...      0.00094421 Eh       0.59 kcal/mol
-----------------------------------------------------------------------
Total Enthalpy                    ...   -291.11183809 Eh

-------
ENTROPY
-------

The entropy contributions are T*S = T*(S(el)+S(vib)+S(rot)+S(trans)
     S(el)   - electronic entropy
     S(vib)  - vibrational entropy
     S(rot)  - rotational entropy
     S(trans)- translational entropy
The entropies will be listed as mutliplied by the temperature to get
units of energy

Electronic entropy                ...      0.00000000 Eh      0.00 kcal/mol
Vibrational entropy               ...      0.00856747 Eh      5.38 kcal/mol
Rotational entropy                ...      0.01196404 Eh      7.51 kcal/mol
Translational entropy             ...      0.01887386 Eh     11.84 kcal/mol
-----------------------------------------------------------------------
Final entropy term                ...      0.03940537 Eh     24.73 kcal/mol

CAUTION: The rotational entropy is not quite correctly treated here
         because it includes a symmetry number that is not yet correctly
         implemented in ORCA!
For a nonlinear molecule the correct rotational entropy is:
    S(rot) = R*(ln(qrot/sn)+1.5)
    R    = 8.31441 J/mol/K = 1.987191683e-3 kcal/mol/K
    qrot = 213193.5755318
    sn is the rotational symmetry number. We have assumed 3 here
       if it is different for your molecule then you should correct
       the printed rotational entropy by manually evaluating the equation
       as given above

For convenience we print out the resulting values for sn=1 - 12:
 sn= 1  qrot/sn=  213193.5755 T*S(rot)=     8.16 kcal/mol T*S(tot)=    25.38 kcal/mol
 sn= 2  qrot/sn=  106596.7878 T*S(rot)=     7.75 kcal/mol T*S(tot)=    24.97 kcal/mol
 sn= 3  qrot/sn=   71064.5252 T*S(rot)=     7.51 kcal/mol T*S(tot)=    24.73 kcal/mol
 sn= 4  qrot/sn=   53298.3939 T*S(rot)=     7.34 kcal/mol T*S(tot)=    24.56 kcal/mol
 sn= 5  qrot/sn=   42638.7151 T*S(rot)=     7.20 kcal/mol T*S(tot)=    24.42 kcal/mol
 sn= 6  qrot/sn=   35532.2626 T*S(rot)=     7.10 kcal/mol T*S(tot)=    24.32 kcal/mol
 sn= 7  qrot/sn=   30456.2251 T*S(rot)=     7.01 kcal/mol T*S(tot)=    24.23 kcal/mol
 sn= 8  qrot/sn=   26649.1969 T*S(rot)=     6.93 kcal/mol T*S(tot)=    24.15 kcal/mol
 sn= 9  qrot/sn=   23688.1751 T*S(rot)=     6.86 kcal/mol T*S(tot)=    24.08 kcal/mol
 sn=10  qrot/sn=   21319.3576 T*S(rot)=     6.79 kcal/mol T*S(tot)=    24.01 kcal/mol
 sn=11  qrot/sn=   19381.2341 T*S(rot)=     6.74 kcal/mol T*S(tot)=    23.96 kcal/mol
 sn=12  qrot/sn=   17766.1313 T*S(rot)=     6.69 kcal/mol T*S(tot)=    23.91 kcal/mol

-------------------
GIBBS FREE ENTHALPY
-------------------

The Gibbs free enthalpy is G = H - T*S

Total enthalpy                    ...   -291.11183809 Eh
Total entropy correction          ...     -0.03940537 Eh    -24.73 kcal/mol
-----------------------------------------------------------------------
Final Gibbs free enthalpy         ...   -291.15124346 Eh

For completeness - the Gibbs free enthalpy minus the electronic energy
G-E(el)                           ...      0.16810793 Eh    105.49 kcal/mol

                             ****ORCA TERMINATED NORMALLY****
TOTAL RUN TIME: 0 days 0 hours 53 minutes 31 seconds 369 msec
