                         Program Version 3.0.3 - RELEASE   -
|  1> ! NORI PBE0 def2-TZVP UseSym TightOPT Freq TightSCF Grid3 FinalGrid5 XYZFile
|  2> % pal
|  3>     nprocs 8
|  4> end
|  5> %method
|  6>     SymThresh 5.0e-2
|  7> end
|  8> % geom
|  9>     MaxIter 10
| 10> end
| 11> % maxcore 2000
| 12> % output
| 13>     printlevel mini
| 14>     print[ P_Basis ] 0
| 15>     print[ P_SCFInfo ] 1
| 16>     print[ P_SCFIterInfo ] 1
| 17>     print[ P_OrbEn ] 0
| 18>     print[ P_Cartesian ] 0
| 19> end
| 20> % elprop
| 21>     Dipole false
| 22> end
| 23> *xyz 1 1
| 24>  C        1.0237881093    -0.3094392900     0.2230840307
| 25>  N        2.4786754295    -0.0949979261     0.2285159811
| 26>  C        3.0731559585     1.0693165899     0.9873345257
| 27>  C        4.2286933156     0.1766741820     1.4418796907
| 28>  C        3.3809501226    -1.0454107752     1.0459895830
| 29>  C        3.9649856915    -2.1639371201     0.2764145938
| 30>  C        3.7125073579    -3.4379231093     0.5477148988
| 31>  H        0.5411765402     0.4961106483    -0.3300844573
| 32>  H        0.6662369419    -0.3174917006     1.2513977956
| 33>  H        0.8089745164    -1.2664729931    -0.2520034767
| 34>  H        2.8197639189    -0.0851577588    -0.7332597889
| 35>  H        2.3864573024     1.3450608173     1.7862813130
| 36>  H        3.2781979281     1.9313715280     0.3558534982
| 37>  H        4.5181575196     0.2410889506     2.4872400403
| 38>  H        5.1149342818     0.2809258574     0.8158095623
| 39>  H        2.7660729471    -1.4022517942     1.8743992616
| 40>  H        4.6591556474    -1.8994325707    -0.5198731881
| 41>  H        3.0488307536    -3.7304517446     1.3552614441
| 42>  H        4.1766557179    -4.2367117908    -0.0176753078
| 43> *
| 44>
| 45>                          ****END OF INPUT****
 Total Charge           Charge          ....    1
 Multiplicity           Mult            ....    1
 Number of Electrons    NEL             ....   54
FINAL SINGLE POINT ENERGY      -290.080377791058
FINAL SINGLE POINT ENERGY      -290.080379549104
FINAL SINGLE POINT ENERGY      -290.080381378235
FINAL SINGLE POINT ENERGY      -290.080381958641

CARTESIAN COORDINATES (ANGSTROEM)
---------------------------------
  C      1.285620   -0.004735    1.740402
  N     -0.002096    0.000860    1.029517
  C     -0.934068    1.184704    1.151148
  C     -1.279549    1.057422   -0.333061
  C     -0.021562    0.187201   -0.503643
  C     -0.056064   -1.066867   -1.284299
  C      0.901878   -1.415932   -2.133075
  H      1.105979   -0.065848    2.813619
  H      1.818990    0.915240    1.507062
  H      1.866824   -0.865961    1.411535
  H     -0.510009   -0.856447    1.249722
  H     -0.339094    2.064835    1.391085
  H     -1.711872    1.042477    1.898577
  H     -1.308612    1.976477   -0.912208
  H     -2.196635    0.493500   -0.506783
  H      0.859052    0.786578   -0.741637
  H     -0.937563   -1.694493   -1.164384
  H      1.777462   -0.795081   -2.294730
  H      0.836017   -2.328958   -2.712440

FINAL SINGLE POINT ENERGY      -290.080382269739
                    ***********************HURRAY********************
 Multiplicity           Mult            ....    1
 Number of Electrons    NEL             ....   54
 Basis Dimension        Dim             ....  289
FINAL SINGLE POINT ENERGY      -290.080382367276

VIBRATIONAL FREQUENCIES
-----------------------

   0:         0.00 cm**-1
   1:         0.00 cm**-1
   2:         0.00 cm**-1
   3:         0.00 cm**-1
   4:         0.00 cm**-1
   5:         0.00 cm**-1
   6:        89.71 cm**-1
   7:       105.64 cm**-1
   8:       207.12 cm**-1
   9:       239.89 cm**-1
  10:       266.84 cm**-1
  11:       353.81 cm**-1
  12:       409.37 cm**-1
  13:       474.84 cm**-1
  14:       620.06 cm**-1
  15:       667.01 cm**-1
  16:       804.73 cm**-1
  17:       814.56 cm**-1
  18:       889.32 cm**-1
  19:       952.67 cm**-1
  20:       979.43 cm**-1
  21:       993.22 cm**-1
  22:      1018.83 cm**-1
  23:      1030.97 cm**-1
  24:      1046.98 cm**-1
  25:      1100.83 cm**-1
  26:      1125.69 cm**-1
  27:      1136.16 cm**-1
  28:      1209.77 cm**-1
  29:      1224.96 cm**-1
  30:      1245.05 cm**-1
  31:      1272.58 cm**-1
  32:      1298.02 cm**-1
  33:      1310.49 cm**-1
  34:      1331.44 cm**-1
  35:      1334.46 cm**-1
  36:      1367.46 cm**-1
  37:      1435.05 cm**-1
  38:      1452.63 cm**-1
  39:      1466.38 cm**-1
  40:      1485.68 cm**-1
  41:      1488.20 cm**-1
  42:      1496.79 cm**-1
  43:      1507.75 cm**-1
  44:      1718.24 cm**-1
  45:      3080.24 cm**-1
  46:      3108.79 cm**-1
  47:      3115.57 cm**-1
  48:      3119.02 cm**-1
  49:      3153.26 cm**-1
  50:      3163.18 cm**-1
  51:      3175.83 cm**-1
  52:      3180.76 cm**-1
  53:      3182.99 cm**-1
  54:      3190.91 cm**-1
  55:      3257.60 cm**-1
  56:      3470.76 cm**-1

IR SPECTRUM
-----------

 Mode    freq (cm**-1)   T**2         TX         TY         TZ
-------------------------------------------------------------------
   6:        89.71    0.499957  ( -0.346421   0.545306   0.287386)
   7:       105.64    0.562677  ( -0.520454   0.524940  -0.127444)
   8:       207.12    0.330223  ( -0.350040   0.246787  -0.383134)
   9:       239.89    0.287349  ( -0.457246  -0.036757   0.277352)
  10:       266.84    0.122655  ( -0.107517  -0.045738   0.330156)
  11:       353.81    0.655152  (  0.611203  -0.527989   0.053011)
  12:       409.37    0.769622  (  0.696384  -0.158573  -0.509436)
  13:       474.84    0.128128  ( -0.118872  -0.173456  -0.289673)
  14:       620.06    4.235661  ( -1.692576   0.410215  -1.096618)
  15:       667.01    5.833762  (  0.504896  -2.187372   0.891206)
  16:       804.73   15.454886  ( -1.122525   0.916617   3.654400)
  17:       814.56    7.584268  ( -1.063618   0.583758  -2.472288)
  18:       889.32   34.393336  ( -0.786948   2.699014   5.146783)
  19:       952.67   18.466955  ( -1.082840   1.187045  -3.985641)
  20:       979.43    1.845554  ( -0.331795  -0.729590  -1.096888)
  21:       993.22    4.309937  ( -1.568313   1.319842  -0.329161)
  22:      1018.83   52.178832  ( -3.068631   3.151653  -5.729696)
  23:      1030.97    6.761029  (  1.609609  -1.546960   1.333080)
  24:      1046.98    2.478008  ( -1.171939   1.050833  -0.017825)
  25:      1100.83    6.896215  (  2.139176  -1.457056  -0.443993)
  26:      1125.69    8.192431  ( -1.585221  -0.880506  -2.214546)
  27:      1136.16   10.912682  (  1.383663  -1.381403   2.662683)
  28:      1209.77    0.582913  (  0.064401  -0.035504  -0.759938)
  29:      1224.96    5.599415  ( -0.485492   1.405172   1.840980)
  30:      1245.05    0.469872  ( -0.514429   0.054327   0.449760)
  31:      1272.58   10.649982  (  1.237070  -1.886613  -2.358035)
  32:      1298.02    1.321344  ( -0.157368  -0.219748  -1.117269)
  33:      1310.49    5.911933  ( -1.687175   0.421465   1.699336)
  34:      1331.44   13.660914  (  2.548881   0.344915  -2.654271)
  35:      1334.46    4.531007  (  1.556855  -0.881376  -1.153423)
  36:      1367.46   21.085908  ( -1.618318   2.355664   3.594135)
  37:      1435.05   10.301948  ( -2.316736   0.445899  -2.176202)
  38:      1452.63    9.766467  ( -3.082751   0.331602  -0.391352)
  39:      1466.38   22.918837  ( -2.523717   1.339346   3.841333)
  40:      1485.68   17.696907  (  2.307254  -1.623522   3.120522)
  41:      1488.20   17.489191  ( -1.524193   1.775595   3.466019)
  42:      1496.79   21.554231  (  0.749222   4.409067  -1.246203)
  43:      1507.75    9.678238  (  0.725285  -1.990960  -2.277779)
  44:      1718.24    5.457698  ( -0.013969  -1.564200  -1.735160)
  45:      3080.24    0.217983  ( -0.375194  -0.167744  -0.221529)
  46:      3108.79    0.256219  ( -0.505907  -0.015521   0.006002)
  47:      3115.57    0.719726  (  0.775924   0.235143  -0.249752)
  48:      3119.02    3.512894  ( -0.802931  -1.029208  -1.344964)
  49:      3153.26    1.575725  ( -1.020361  -0.687353   0.249268)
  50:      3163.18    0.763483  ( -0.183588  -0.743698  -0.420347)
  51:      3175.83    0.135913  ( -0.105434   0.218242   0.277790)
  52:      3180.76    0.446681  ( -0.300399   0.461265   0.379046)
  53:      3182.99    0.106300  ( -0.021889  -0.190355   0.263791)
  54:      3190.91    0.219746  ( -0.334577   0.079884   0.318469)
  55:      3257.60    0.214497  (  0.282420  -0.163219  -0.328778)
  56:      3470.76   45.510547  (  2.677493   5.728077  -2.351747)

--------------------------
THERMOCHEMISTRY AT 298.15K
--------------------------

Temperature         ... 298.15 K
Pressure            ... 1.00 atm
Total Mass          ... 98.17 AMU

Throughout the following assumptions are being made:
  (1) The electronic state is orbitally nondegenerate
  (2) There are no thermally accessible electronically excited states
  (3) Hindered rotations indicated by low frequency modes) are not
      treated as such but are treated as vibrations and this may
      case some error
  (4) All equations used are the standard statistical mechanics
      equations for an ideal gas
  (5) All vibrations are strinctly harmonic

------------
INNER ENERGY
------------

The inner energy is: U= E(el) + E(ZPE) + E(vib) + E(rot) + E(trans)
    E(el)   - is the total energy from the electronic structure calculation
              = E(kin-el) + E(nuc-el) + E(el-el) + E(nuc-nuc)
    E(ZPE)  - the the zero temperature vibrational energy from the frequency calculation
    E(vib)  - the the finite temperature correction to E(ZPE) due to population
              of excietd vibrational states
    E(rot)  - is the rotational thermal energy
    E(trans)- is the translational thermal energy

Summary of contributions to the inner energy U:
Electronic energy                ...   -290.08038237 Eh
Zero point energy                ...      0.17580968 Eh     110.32 kcal/mol
Thermal vibrational correction   ...      0.00481328 Eh       3.02 kcal/mol
Thermal rotational correction    ...      0.00141627 Eh       0.89 kcal/mol
Thermal translational correction ...      0.00141627 Eh       0.89 kcal/mol
-----------------------------------------------------------------------
Total thermal energy                   -289.89692687 Eh

Summary of corrections to the electronic energy:
(perhaps to be used in another calculation)
Total thermal correction                  0.00764583 Eh       4.80 kcal/mol
Non-thermal (ZPE) correction              0.17580968 Eh     110.32 kcal/mol
-----------------------------------------------------------------------
Total correction                          0.18345550 Eh     115.12 kcal/mol

--------
ENTHALPY
--------

The enthalpy is H = U + kB*T
                kB is Boltzmann's constant
Total free energy                 ...   -289.89692687 Eh
Thermal Enthalpy correction       ...      0.00094421 Eh       0.59 kcal/mol
-----------------------------------------------------------------------
Total Enthalpy                    ...   -289.89598266 Eh

-------
ENTROPY
-------

The entropy contributions are T*S = T*(S(el)+S(vib)+S(rot)+S(trans)
     S(el)   - electronic entropy
     S(vib)  - vibrational entropy
     S(rot)  - rotational entropy
     S(trans)- translational entropy
The entropies will be listed as mutliplied by the temperature to get
units of energy

Electronic entropy                ...      0.00000000 Eh      0.00 kcal/mol
Vibrational entropy               ...      0.00841205 Eh      5.28 kcal/mol
Rotational entropy                ...      0.01210200 Eh      7.59 kcal/mol
Translational entropy             ...      0.01884507 Eh     11.83 kcal/mol
-----------------------------------------------------------------------
Final entropy term                ...      0.03935912 Eh     24.70 kcal/mol

CAUTION: The rotational entropy is not quite correctly treated here
         because it includes a symmetry number that is not yet correctly
         implemented in ORCA!
For a nonlinear molecule the correct rotational entropy is:
    S(rot) = R*(ln(qrot/sn)+1.5)
    R    = 8.31441 J/mol/K = 1.987191683e-3 kcal/mol/K
    qrot = 246734.3782802
    sn is the rotational symmetry number. We have assumed 3 here
       if it is different for your molecule then you should correct
       the printed rotational entropy by manually evaluating the equation
       as given above

For convenience we print out the resulting values for sn=1 - 12:
 sn= 1  qrot/sn=  246734.3783 T*S(rot)=     8.25 kcal/mol T*S(tot)=    25.35 kcal/mol
 sn= 2  qrot/sn=  123367.1891 T*S(rot)=     7.83 kcal/mol T*S(tot)=    24.94 kcal/mol
 sn= 3  qrot/sn=   82244.7928 T*S(rot)=     7.59 kcal/mol T*S(tot)=    24.70 kcal/mol
 sn= 4  qrot/sn=   61683.5946 T*S(rot)=     7.42 kcal/mol T*S(tot)=    24.53 kcal/mol
 sn= 5  qrot/sn=   49346.8757 T*S(rot)=     7.29 kcal/mol T*S(tot)=    24.40 kcal/mol
 sn= 6  qrot/sn=   41122.3964 T*S(rot)=     7.18 kcal/mol T*S(tot)=    24.29 kcal/mol
 sn= 7  qrot/sn=   35247.7683 T*S(rot)=     7.09 kcal/mol T*S(tot)=    24.20 kcal/mol
 sn= 8  qrot/sn=   30841.7973 T*S(rot)=     7.01 kcal/mol T*S(tot)=    24.12 kcal/mol
 sn= 9  qrot/sn=   27414.9309 T*S(rot)=     6.94 kcal/mol T*S(tot)=    24.05 kcal/mol
 sn=10  qrot/sn=   24673.4378 T*S(rot)=     6.88 kcal/mol T*S(tot)=    23.98 kcal/mol
 sn=11  qrot/sn=   22430.3980 T*S(rot)=     6.82 kcal/mol T*S(tot)=    23.93 kcal/mol
 sn=12  qrot/sn=   20561.1982 T*S(rot)=     6.77 kcal/mol T*S(tot)=    23.88 kcal/mol

-------------------
GIBBS FREE ENTHALPY
-------------------

The Gibbs free enthalpy is G = H - T*S

Total enthalpy                    ...   -289.89598266 Eh
Total entropy correction          ...     -0.03935912 Eh    -24.70 kcal/mol
-----------------------------------------------------------------------
Final Gibbs free enthalpy         ...   -289.93534177 Eh

For completeness - the Gibbs free enthalpy minus the electronic energy
G-E(el)                           ...      0.14504059 Eh     91.01 kcal/mol

                             ****ORCA TERMINATED NORMALLY****
TOTAL RUN TIME: 0 days 0 hours 46 minutes 5 seconds 192 msec
