                         Program Version 3.0.3 - RELEASE   -
|  1> ! NORI PBE0 def2-TZVP UseSym TightOPT Freq TightSCF Grid3 FinalGrid5 XYZFile
|  2> % pal
|  3>     nprocs 8
|  4> end
|  5> %method
|  6>     SymThresh 5.0e-2
|  7> end
|  8> % geom
|  9>     MaxIter 10
| 10> end
| 11> % maxcore 2000
| 12> % output
| 13>     printlevel mini
| 14>     print[ P_Basis ] 0
| 15>     print[ P_SCFInfo ] 1
| 16>     print[ P_SCFIterInfo ] 1
| 17>     print[ P_OrbEn ] 0
| 18>     print[ P_Cartesian ] 0
| 19> end
| 20> % elprop
| 21>     Dipole false
| 22> end
| 23> *xyz 1 1
| 24>  C        1.0513835770     0.0138096321     0.0112988053
| 25>  N        2.5216573167     0.0467359848     0.0675310057
| 26>  C        3.2308057683     1.1155949765     0.8710813549
| 27>  C        4.2538525785     0.0807301030     1.3458966456
| 28>  C        3.2698578209    -1.0160796954     0.8871968081
| 29>  C        3.7244796360    -2.1415507493     0.1210274066
| 30>  C        4.1216749894    -3.0696191354    -0.5261789137
| 31>  H        0.7370175232    -0.8973135263    -0.4975580015
| 32>  H        0.6947834549     0.8865821611    -0.5355175078
| 33>  H        0.6588165090     0.0282435770     1.0268739467
| 34>  H        2.8989274716     0.0239783509    -0.8809674679
| 35>  H        2.5563645708     1.4634828683     1.6522662422
| 36>  H        3.5644932217     1.9530315056     0.2622693648
| 37>  H        5.1682521894     0.0805555073     0.7553995749
| 38>  H        4.4999413521     0.0820154707     2.4040573054
| 39>  H        2.5954981837    -1.3187330663     1.6922175055
| 40>  H        4.4772038367    -3.9008439645    -1.0946140750
| 41> *
| 42>
| 43>                          ****END OF INPUT****
 Total Charge           Charge          ....    1
 Multiplicity           Mult            ....    1
 Number of Electrons    NEL             ....   52
FINAL SINGLE POINT ENERGY      -288.821386834021
FINAL SINGLE POINT ENERGY      -288.821387979528
FINAL SINGLE POINT ENERGY      -288.821388873890

CARTESIAN COORDINATES (ANGSTROEM)
---------------------------------
  C      1.163569   -0.003382    1.863073
  N     -0.001609    0.000584    0.963347
  C     -0.998960    1.138958    1.009022
  C     -1.107764    1.103947   -0.517064
  C      0.201038    0.287072   -0.533106
  C      0.329321   -0.887416   -1.348042
  C      0.414394   -1.871663   -2.027578
  H      1.822973   -0.824256    1.582087
  H      0.821712   -0.134939    2.889341
  H      1.686495    0.946556    1.765808
  H     -0.494419   -0.890290    1.041300
  H     -0.492944    2.021923    1.397404
  H     -1.875587    0.911797    1.611132
  H     -1.956148    0.520761   -0.872503
  H     -1.075401    2.058575   -1.034491
  H      1.080462    0.931720   -0.607797
  H      0.494192   -2.742732   -2.640313

FINAL SINGLE POINT ENERGY      -288.821389201956
                    ***********************HURRAY********************
 Multiplicity           Mult            ....    1
 Number of Electrons    NEL             ....   52
 Basis Dimension        Dim             ....  277
FINAL SINGLE POINT ENERGY      -288.821389468088

VIBRATIONAL FREQUENCIES
-----------------------

   0:         0.00 cm**-1
   1:         0.00 cm**-1
   2:         0.00 cm**-1
   3:         0.00 cm**-1
   4:         0.00 cm**-1
   5:         0.00 cm**-1
   6:        98.63 cm**-1
   7:       140.00 cm**-1
   8:       205.94 cm**-1
   9:       225.36 cm**-1
  10:       297.78 cm**-1
  11:       398.22 cm**-1
  12:       489.29 cm**-1
  13:       522.96 cm**-1
  14:       615.40 cm**-1
  15:       727.36 cm**-1
  16:       775.61 cm**-1
  17:       792.71 cm**-1
  18:       805.81 cm**-1
  19:       894.80 cm**-1
  20:       951.30 cm**-1
  21:       988.01 cm**-1
  22:      1042.73 cm**-1
  23:      1073.57 cm**-1
  24:      1106.14 cm**-1
  25:      1122.73 cm**-1
  26:      1170.37 cm**-1
  27:      1223.17 cm**-1
  28:      1232.18 cm**-1
  29:      1276.08 cm**-1
  30:      1290.37 cm**-1
  31:      1313.94 cm**-1
  32:      1332.20 cm**-1
  33:      1383.99 cm**-1
  34:      1437.75 cm**-1
  35:      1454.36 cm**-1
  36:      1485.78 cm**-1
  37:      1487.21 cm**-1
  38:      1496.66 cm**-1
  39:      1507.12 cm**-1
  40:      2250.49 cm**-1
  41:      3080.82 cm**-1
  42:      3098.62 cm**-1
  43:      3119.15 cm**-1
  44:      3125.95 cm**-1
  45:      3177.96 cm**-1
  46:      3183.94 cm**-1
  47:      3187.38 cm**-1
  48:      3198.33 cm**-1
  49:      3453.05 cm**-1
  50:      3467.00 cm**-1

IR SPECTRUM
-----------

 Mode    freq (cm**-1)   T**2         TX         TY         TZ
-------------------------------------------------------------------
   6:        98.63    0.127896  (  0.091333  -0.291575   0.185847)
   7:       140.00    1.115315  (  0.204408  -1.005078   0.251697)
   8:       205.94    2.083621  (  1.402592   0.289509   0.180391)
   9:       225.36    0.604688  (  0.038247   0.580515  -0.515973)
  10:       297.78    3.606256  (  1.649269  -0.513283   0.789118)
  11:       398.22    6.361393  ( -1.839868  -1.061968   1.359597)
  12:       489.29   11.719489  (  1.991217  -1.503359   2.344025)
  13:       522.96    9.196411  ( -2.195903  -0.573895   2.011235)
  14:       615.40    1.042622  (  0.533885   0.800224   0.342388)
  15:       727.36   38.095000  (  6.143713   0.533887   0.254480)
  16:       775.61   25.980117  ( -0.408810   3.411857  -3.764602)
  17:       792.71   16.669766  ( -2.055537  -0.584228   3.478967)
  18:       805.81    2.332922  (  1.039334  -0.448882   1.025286)
  19:       894.80   32.614288  (  1.348631  -3.165098  -4.558249)
  20:       951.30   17.853379  (  0.439029  -0.914282   4.101795)
  21:       988.01    3.850046  ( -1.335038   0.364473  -1.390999)
  22:      1042.73    5.033628  (  0.913563  -1.937276   0.667827)
  23:      1073.57    2.082564  (  0.385399   1.309889  -0.467142)
  24:      1106.14   11.505378  (  2.720817  -1.957109   0.521784)
  25:      1122.73    9.309838  ( -0.965871  -0.596854  -2.832083)
  26:      1170.37    4.912270  (  0.702515  -0.432686   2.057067)
  27:      1223.17    2.530243  ( -0.319249   0.807184   1.332958)
  28:      1232.18    1.701115  ( -0.755235   0.496962   0.940087)
  29:      1276.08    6.492673  ( -1.432743   1.123995   1.782289)
  30:      1290.37    1.206338  (  0.606010   0.521650   0.752975)
  31:      1313.94   12.800713  ( -2.634778  -0.387293   2.389281)
  32:      1332.20    1.653608  (  0.534537  -1.158192   0.162694)
  33:      1383.99   43.173169  ( -2.087478   4.129327   4.665219)
  34:      1437.75   14.005676  ( -1.988878  -0.416030  -3.142763)
  35:      1454.36    9.704779  (  2.501766   0.432810   1.805165)
  36:      1485.78   18.710807  ( -1.847654   1.858873  -3.441158)
  37:      1487.21   19.492686  ( -2.293754   1.410204   3.498957)
  38:      1496.66   21.185890  (  0.699706   4.465335  -0.870107)
  39:      1507.12    7.960997  ( -0.648195   1.852365   2.027211)
  40:      2250.49   38.943759  ( -0.681240   4.507515   4.261688)
  41:      3080.82    0.078888  ( -0.127463  -0.247316   0.038420)
  42:      3098.62    1.870918  (  0.545492  -0.539946  -1.132172)
  43:      3119.15    0.692644  (  0.094948   0.275410   0.779601)
  44:      3125.95    0.406839  ( -0.258665  -0.356345  -0.461465)
  45:      3177.96    0.449846  (  0.358069  -0.304580  -0.478398)
  46:      3183.94    0.018504  ( -0.017686  -0.079254   0.109133)
  47:      3187.38    0.294291  ( -0.322698   0.249765   0.357456)
  48:      3198.33    0.204520  (  0.225410   0.384778   0.075210)
  49:      3453.05   95.527428  ( -1.094451   7.654573   5.978053)
  50:      3467.00   56.504446  ( -2.970938  -6.749518   1.456702)

--------------------------
THERMOCHEMISTRY AT 298.15K
--------------------------

Temperature         ... 298.15 K
Pressure            ... 1.00 atm
Total Mass          ... 96.15 AMU

Throughout the following assumptions are being made:
  (1) The electronic state is orbitally nondegenerate
  (2) There are no thermally accessible electronically excited states
  (3) Hindered rotations indicated by low frequency modes) are not
      treated as such but are treated as vibrations and this may
      case some error
  (4) All equations used are the standard statistical mechanics
      equations for an ideal gas
  (5) All vibrations are strinctly harmonic

------------
INNER ENERGY
------------

The inner energy is: U= E(el) + E(ZPE) + E(vib) + E(rot) + E(trans)
    E(el)   - is the total energy from the electronic structure calculation
              = E(kin-el) + E(nuc-el) + E(el-el) + E(nuc-nuc)
    E(ZPE)  - the the zero temperature vibrational energy from the frequency calculation
    E(vib)  - the the finite temperature correction to E(ZPE) due to population
              of excietd vibrational states
    E(rot)  - is the rotational thermal energy
    E(trans)- is the translational thermal energy

Summary of contributions to the inner energy U:
Electronic energy                ...   -288.82138947 Eh
Zero point energy                ...      0.15197251 Eh      95.36 kcal/mol
Thermal vibrational correction   ...      0.00452052 Eh       2.84 kcal/mol
Thermal rotational correction    ...      0.00141627 Eh       0.89 kcal/mol
Thermal translational correction ...      0.00141627 Eh       0.89 kcal/mol
-----------------------------------------------------------------------
Total thermal energy                   -288.66206389 Eh

Summary of corrections to the electronic energy:
(perhaps to be used in another calculation)
Total thermal correction                  0.00735306 Eh       4.61 kcal/mol
Non-thermal (ZPE) correction              0.15197251 Eh      95.36 kcal/mol
-----------------------------------------------------------------------
Total correction                          0.15932558 Eh      99.98 kcal/mol

--------
ENTHALPY
--------

The enthalpy is H = U + kB*T
                kB is Boltzmann's constant
Total free energy                 ...   -288.66206389 Eh
Thermal Enthalpy correction       ...      0.00094421 Eh       0.59 kcal/mol
-----------------------------------------------------------------------
Total Enthalpy                    ...   -288.66111968 Eh

-------
ENTROPY
-------

The entropy contributions are T*S = T*(S(el)+S(vib)+S(rot)+S(trans)
     S(el)   - electronic entropy
     S(vib)  - vibrational entropy
     S(rot)  - rotational entropy
     S(trans)- translational entropy
The entropies will be listed as mutliplied by the temperature to get
units of energy

Electronic entropy                ...      0.00000000 Eh      0.00 kcal/mol
Vibrational entropy               ...      0.00772450 Eh      4.85 kcal/mol
Rotational entropy                ...      0.01204527 Eh      7.56 kcal/mol
Translational entropy             ...      0.01881568 Eh     11.81 kcal/mol
-----------------------------------------------------------------------
Final entropy term                ...      0.03858545 Eh     24.21 kcal/mol

CAUTION: The rotational entropy is not quite correctly treated here
         because it includes a symmetry number that is not yet correctly
         implemented in ORCA!
For a nonlinear molecule the correct rotational entropy is:
    S(rot) = R*(ln(qrot/sn)+1.5)
    R    = 8.31441 J/mol/K = 1.987191683e-3 kcal/mol/K
    qrot = 232345.7998624
    sn is the rotational symmetry number. We have assumed 3 here
       if it is different for your molecule then you should correct
       the printed rotational entropy by manually evaluating the equation
       as given above

For convenience we print out the resulting values for sn=1 - 12:
 sn= 1  qrot/sn=  232345.7999 T*S(rot)=     8.21 kcal/mol T*S(tot)=    24.86 kcal/mol
 sn= 2  qrot/sn=  116172.8999 T*S(rot)=     7.80 kcal/mol T*S(tot)=    24.45 kcal/mol
 sn= 3  qrot/sn=   77448.6000 T*S(rot)=     7.56 kcal/mol T*S(tot)=    24.21 kcal/mol
 sn= 4  qrot/sn=   58086.4500 T*S(rot)=     7.39 kcal/mol T*S(tot)=    24.04 kcal/mol
 sn= 5  qrot/sn=   46469.1600 T*S(rot)=     7.26 kcal/mol T*S(tot)=    23.91 kcal/mol
 sn= 6  qrot/sn=   38724.3000 T*S(rot)=     7.15 kcal/mol T*S(tot)=    23.80 kcal/mol
 sn= 7  qrot/sn=   33192.2571 T*S(rot)=     7.06 kcal/mol T*S(tot)=    23.71 kcal/mol
 sn= 8  qrot/sn=   29043.2250 T*S(rot)=     6.98 kcal/mol T*S(tot)=    23.63 kcal/mol
 sn= 9  qrot/sn=   25816.2000 T*S(rot)=     6.91 kcal/mol T*S(tot)=    23.56 kcal/mol
 sn=10  qrot/sn=   23234.5800 T*S(rot)=     6.85 kcal/mol T*S(tot)=    23.50 kcal/mol
 sn=11  qrot/sn=   21122.3454 T*S(rot)=     6.79 kcal/mol T*S(tot)=    23.44 kcal/mol
 sn=12  qrot/sn=   19362.1500 T*S(rot)=     6.74 kcal/mol T*S(tot)=    23.39 kcal/mol

-------------------
GIBBS FREE ENTHALPY
-------------------

The Gibbs free enthalpy is G = H - T*S

Total enthalpy                    ...   -288.66111968 Eh
Total entropy correction          ...     -0.03858545 Eh    -24.21 kcal/mol
-----------------------------------------------------------------------
Final Gibbs free enthalpy         ...   -288.69970513 Eh

For completeness - the Gibbs free enthalpy minus the electronic energy
G-E(el)                           ...      0.12168434 Eh     76.36 kcal/mol

                             ****ORCA TERMINATED NORMALLY****
TOTAL RUN TIME: 0 days 0 hours 38 minutes 5 seconds 456 msec
