                         Program Version 3.0.3 - RELEASE   -
|  1> ! NORI PBE0 def2-TZVP UseSym TightOPT Freq TightSCF Grid3 FinalGrid5 XYZFile
|  2> % pal
|  3>     nprocs 8
|  4> end
|  5> %method
|  6>     SymThresh 5.0e-2
|  7> end
|  8> % geom
|  9>     MaxIter 10
| 10> end
| 11> % maxcore 2000
| 12> % output
| 13>     printlevel mini
| 14>     print[ P_Basis ] 0
| 15>     print[ P_SCFInfo ] 1
| 16>     print[ P_SCFIterInfo ] 1
| 17>     print[ P_OrbEn ] 0
| 18>     print[ P_Cartesian ] 0
| 19> end
| 20> % elprop
| 21>     Dipole false
| 22> end
| 23> *xyz 1 1
| 24>  C        0.9548056044    -0.0301400544    -0.0035341941
| 25>  N        2.4301247521    -0.0216951128    -0.0182552228
| 26>  C        3.1765589622     1.0517234989     0.7445713671
| 27>  C        4.2225726567     0.0026956340     1.1788966230
| 28>  C        3.1893535787    -1.0683768069     0.7685560619
| 29>  C        5.4039684881     0.0002406339     0.3359395778
| 30>  N        6.2994738107    -0.0027285523    -0.3836604919
| 31>  H        0.5896788392     0.8546878604    -0.5243549536
| 32>  H        0.6151086804    -0.0214083172     1.0309106928
| 33>  H        0.5998083656    -0.9295810243    -0.5059744441
| 34>  H        2.7574930798    -0.0305874547    -0.9859212114
| 35>  H        2.5523716217     1.3929222541     1.5687636033
| 36>  H        3.4973380119     1.8852913653     0.1240933695
| 37>  H        4.4974223864     0.0162776762     2.2329502784
| 38>  H        3.5201391860    -1.9121850898     0.1674375002
| 39>  H        2.5692919761    -1.3983865102     1.6003914437
| 40> *
| 41>
| 42>                          ****END OF INPUT****
 Total Charge           Charge          ....    1
 Multiplicity           Mult            ....    1
 Number of Electrons    NEL             ....   52
FINAL SINGLE POINT ENERGY      -304.895681808959

CARTESIAN COORDINATES (ANGSTROEM)
---------------------------------
  C      2.601068    0.481961   -0.000001
  N      1.206323    0.000444    0.000001
  C      0.246287    0.496266    1.060094
  C     -0.873788    0.565919    0.000003
  C      0.246284    0.496262   -1.060090
  C     -1.725491   -0.609192    0.000005
  N     -2.345442   -1.576363   -0.000019
  H      3.104539    0.110560    0.892111
  H      2.595857    1.570694   -0.000003
  H      3.104537    0.110557   -0.892113
  H      1.202967   -1.021112    0.000003
  H      0.573060    1.479311    1.395091
  H      0.131858   -0.186028    1.899089
  H     -1.469741    1.477671    0.000003
  H      0.131853   -0.186034   -1.899083
  H      0.573057    1.479306   -1.395091

FINAL SINGLE POINT ENERGY      -304.895682407855
                    ***********************HURRAY********************
 Multiplicity           Mult            ....    1
 Number of Electrons    NEL             ....   52
 Basis Dimension        Dim             ....  271
FINAL SINGLE POINT ENERGY      -304.895682538939

VIBRATIONAL FREQUENCIES
-----------------------

   0:         0.00 cm**-1
   1:         0.00 cm**-1
   2:         0.00 cm**-1
   3:         0.00 cm**-1
   4:         0.00 cm**-1
   5:         0.00 cm**-1
   6:        66.75 cm**-1
   7:       169.92 cm**-1
   8:       224.75 cm**-1
   9:       225.71 cm**-1
  10:       319.98 cm**-1
  11:       411.56 cm**-1
  12:       501.63 cm**-1
  13:       560.34 cm**-1
  14:       693.63 cm**-1
  15:       814.17 cm**-1
  16:       853.41 cm**-1
  17:       901.02 cm**-1
  18:       925.84 cm**-1
  19:       997.25 cm**-1
  20:      1017.55 cm**-1
  21:      1059.26 cm**-1
  22:      1107.18 cm**-1
  23:      1130.96 cm**-1
  24:      1157.83 cm**-1
  25:      1180.63 cm**-1
  26:      1234.06 cm**-1
  27:      1291.24 cm**-1
  28:      1308.98 cm**-1
  29:      1341.84 cm**-1
  30:      1353.99 cm**-1
  31:      1368.71 cm**-1
  32:      1439.74 cm**-1
  33:      1455.74 cm**-1
  34:      1476.09 cm**-1
  35:      1487.16 cm**-1
  36:      1493.23 cm**-1
  37:      1502.05 cm**-1
  38:      2391.43 cm**-1
  39:      3082.67 cm**-1
  40:      3122.37 cm**-1
  41:      3125.04 cm**-1
  42:      3143.53 cm**-1
  43:      3181.14 cm**-1
  44:      3186.80 cm**-1
  45:      3201.72 cm**-1
  46:      3202.08 cm**-1
  47:      3463.42 cm**-1

IR SPECTRUM
-----------

 Mode    freq (cm**-1)   T**2         TX         TY         TZ
-------------------------------------------------------------------
   6:        66.75   10.004261  ( -2.984698   1.046824  -0.000066)
   7:       169.92    6.471976  (  0.000548   0.000303   2.544008)
   8:       224.75    0.035160  (  0.004954   0.001707   0.187437)
   9:       225.71    2.406901  (  1.392356   0.684284  -0.000925)
  10:       319.98    0.003612  (  0.000480  -0.000113  -0.060102)
  11:       411.56    0.668266  (  0.609328   0.544964  -0.000496)
  12:       501.63    1.799421  ( -0.949718  -0.947342  -0.000803)
  13:       560.34    0.103636  ( -0.000859  -0.000372   0.321923)
  14:       693.63    1.122917  ( -0.033271  -1.059155   0.000022)
  15:       814.17    0.047071  ( -0.213551  -0.038289   0.001154)
  16:       853.41    3.299703  ( -0.000555  -0.001153   1.816508)
  17:       901.02    4.438942  ( -1.990098   0.691703   0.000181)
  18:       925.84    9.944593  ( -0.000487   0.000287   3.153505)
  19:       997.25    5.658331  ( -0.000306  -0.000464   2.378725)
  20:      1017.55    8.377574  ( -2.877818  -0.309418  -0.000258)
  21:      1059.26    4.614111  ( -2.114667   0.377217   0.001098)
  22:      1107.18    3.958908  ( -0.000278   0.000692  -1.989700)
  23:      1130.96   10.328846  ( -3.149006  -0.642345  -0.000938)
  24:      1157.83    8.889540  ( -2.297960   1.899715   0.001799)
  25:      1180.63    0.944668  ( -0.003096   0.000708  -0.971935)
  26:      1234.06    8.805800  ( -0.000341  -0.002494  -2.967456)
  27:      1291.24    1.678296  ( -0.452416  -1.213926   0.000694)
  28:      1308.98    0.205817  ( -0.000356   0.000075  -0.453671)
  29:      1341.84    3.447912  ( -0.355789   1.822449  -0.002624)
  30:      1353.99   16.775314  ( -0.001337  -0.000241   4.095768)
  31:      1368.71    1.516309  ( -0.669810  -1.033277   0.001648)
  32:      1439.74   16.088801  (  3.976124   0.528429   0.001010)
  33:      1455.74    3.345124  (  1.482019   1.071795   0.000852)
  34:      1476.09   15.468726  ( -0.001549  -0.001008   3.933030)
  35:      1487.16   23.313403  ( -0.005347   0.009074  -4.828384)
  36:      1493.23   32.041500  (  4.496130  -3.438935  -0.006184)
  37:      1502.05   14.284258  ( -1.620608  -3.414362  -0.004280)
  38:      2391.43    0.211923  (  0.176490  -0.425175   0.000457)
  39:      3082.67    0.256115  (  0.440448  -0.249240   0.000091)
  40:      3122.37    0.304233  ( -0.000318  -0.000667   0.551572)
  41:      3125.04    0.300591  (  0.213907   0.504811   0.000181)
  42:      3143.53    4.544959  (  1.547205  -1.466669  -0.000244)
  43:      3181.14    0.823854  (  0.001088   0.001267  -0.907662)
  44:      3186.80    0.012744  (  0.030977   0.108517   0.002961)
  45:      3201.72    2.720011  ( -0.111831  -1.645437   0.006528)
  46:      3202.08    0.120439  ( -0.002270  -0.038385  -0.344906)
  47:      3463.42   67.703830  ( -1.374676   8.112589   0.000591)

--------------------------
THERMOCHEMISTRY AT 298.15K
--------------------------

Temperature         ... 298.15 K
Pressure            ... 1.00 atm
Total Mass          ... 97.14 AMU

Throughout the following assumptions are being made:
  (1) The electronic state is orbitally nondegenerate
  (2) There are no thermally accessible electronically excited states
  (3) Hindered rotations indicated by low frequency modes) are not
      treated as such but are treated as vibrations and this may
      case some error
  (4) All equations used are the standard statistical mechanics
      equations for an ideal gas
  (5) All vibrations are strinctly harmonic

------------
INNER ENERGY
------------

The inner energy is: U= E(el) + E(ZPE) + E(vib) + E(rot) + E(trans)
    E(el)   - is the total energy from the electronic structure calculation
              = E(kin-el) + E(nuc-el) + E(el-el) + E(nuc-nuc)
    E(ZPE)  - the the zero temperature vibrational energy from the frequency calculation
    E(vib)  - the the finite temperature correction to E(ZPE) due to population
              of excietd vibrational states
    E(rot)  - is the rotational thermal energy
    E(trans)- is the translational thermal energy

Summary of contributions to the inner energy U:
Electronic energy                ...   -304.89568254 Eh
Zero point energy                ...      0.14163915 Eh      88.88 kcal/mol
Thermal vibrational correction   ...      0.00419313 Eh       2.63 kcal/mol
Thermal rotational correction    ...      0.00141627 Eh       0.89 kcal/mol
Thermal translational correction ...      0.00141627 Eh       0.89 kcal/mol
-----------------------------------------------------------------------
Total thermal energy                   -304.74701771 Eh

Summary of corrections to the electronic energy:
(perhaps to be used in another calculation)
Total thermal correction                  0.00702567 Eh       4.41 kcal/mol
Non-thermal (ZPE) correction              0.14163915 Eh      88.88 kcal/mol
-----------------------------------------------------------------------
Total correction                          0.14866483 Eh      93.29 kcal/mol

--------
ENTHALPY
--------

The enthalpy is H = U + kB*T
                kB is Boltzmann's constant
Total free energy                 ...   -304.74701771 Eh
Thermal Enthalpy correction       ...      0.00094421 Eh       0.59 kcal/mol
-----------------------------------------------------------------------
Total Enthalpy                    ...   -304.74607350 Eh

-------
ENTROPY
-------

The entropy contributions are T*S = T*(S(el)+S(vib)+S(rot)+S(trans)
     S(el)   - electronic entropy
     S(vib)  - vibrational entropy
     S(rot)  - rotational entropy
     S(trans)- translational entropy
The entropies will be listed as mutliplied by the temperature to get
units of energy

Electronic entropy                ...      0.00000000 Eh      0.00 kcal/mol
Vibrational entropy               ...      0.00739680 Eh      4.64 kcal/mol
Rotational entropy                ...      0.01194979 Eh      7.50 kcal/mol
Translational entropy             ...      0.01883016 Eh     11.82 kcal/mol
-----------------------------------------------------------------------
Final entropy term                ...      0.03817676 Eh     23.96 kcal/mol

CAUTION: The rotational entropy is not quite correctly treated here
         because it includes a symmetry number that is not yet correctly
         implemented in ORCA!
For a nonlinear molecule the correct rotational entropy is:
    S(rot) = R*(ln(qrot/sn)+1.5)
    R    = 8.31441 J/mol/K = 1.987191683e-3 kcal/mol/K
    qrot = 210000.7469804
    sn is the rotational symmetry number. We have assumed 3 here
       if it is different for your molecule then you should correct
       the printed rotational entropy by manually evaluating the equation
       as given above

For convenience we print out the resulting values for sn=1 - 12:
 sn= 1  qrot/sn=  210000.7470 T*S(rot)=     8.15 kcal/mol T*S(tot)=    24.61 kcal/mol
 sn= 2  qrot/sn=  105000.3735 T*S(rot)=     7.74 kcal/mol T*S(tot)=    24.20 kcal/mol
 sn= 3  qrot/sn=   70000.2490 T*S(rot)=     7.50 kcal/mol T*S(tot)=    23.96 kcal/mol
 sn= 4  qrot/sn=   52500.1867 T*S(rot)=     7.33 kcal/mol T*S(tot)=    23.79 kcal/mol
 sn= 5  qrot/sn=   42000.1494 T*S(rot)=     7.20 kcal/mol T*S(tot)=    23.65 kcal/mol
 sn= 6  qrot/sn=   35000.1245 T*S(rot)=     7.09 kcal/mol T*S(tot)=    23.55 kcal/mol
 sn= 7  qrot/sn=   30000.1067 T*S(rot)=     7.00 kcal/mol T*S(tot)=    23.45 kcal/mol
 sn= 8  qrot/sn=   26250.0934 T*S(rot)=     6.92 kcal/mol T*S(tot)=    23.38 kcal/mol
 sn= 9  qrot/sn=   23333.4163 T*S(rot)=     6.85 kcal/mol T*S(tot)=    23.31 kcal/mol
 sn=10  qrot/sn=   21000.0747 T*S(rot)=     6.79 kcal/mol T*S(tot)=    23.24 kcal/mol
 sn=11  qrot/sn=   19090.9770 T*S(rot)=     6.73 kcal/mol T*S(tot)=    23.19 kcal/mol
 sn=12  qrot/sn=   17500.0622 T*S(rot)=     6.68 kcal/mol T*S(tot)=    23.13 kcal/mol

-------------------
GIBBS FREE ENTHALPY
-------------------

The Gibbs free enthalpy is G = H - T*S

Total enthalpy                    ...   -304.74607350 Eh
Total entropy correction          ...     -0.03817676 Eh    -23.96 kcal/mol
-----------------------------------------------------------------------
Final Gibbs free enthalpy         ...   -304.78425026 Eh

For completeness - the Gibbs free enthalpy minus the electronic energy
G-E(el)                           ...      0.11143227 Eh     69.92 kcal/mol

                             ****ORCA TERMINATED NORMALLY****
TOTAL RUN TIME: 0 days 0 hours 30 minutes 1 seconds 958 msec
