                         Program Version 3.0.3 - RELEASE   -
|  1> ! NORI PBE0 def2-TZVP UseSym TightOPT Freq TightSCF Grid3 FinalGrid5 XYZFile
|  2> % pal
|  3>     nprocs 8
|  4> end
|  5> %method
|  6>     SymThresh 5.0e-2
|  7> end
|  8> % geom
|  9>     MaxIter 10
| 10> end
| 11> % maxcore 2000
| 12> % output
| 13>     printlevel mini
| 14>     print[ P_Basis ] 0
| 15>     print[ P_SCFInfo ] 1
| 16>     print[ P_SCFIterInfo ] 1
| 17>     print[ P_OrbEn ] 0
| 18>     print[ P_Cartesian ] 0
| 19> end
| 20> % elprop
| 21>     Dipole false
| 22> end
| 23> *xyz 1 1
| 24>  C        1.4159658738     0.6098661841    -0.3483017096
| 25>  N        2.7571474058     0.3567310310     0.2119813676
| 26>  C        3.0645846109     0.7212961510     1.6539875890
| 27>  C        3.8721404055    -0.5714834421     1.8069887270
| 28>  C        3.1753915946    -1.0756790098     0.5278765449
| 29>  C        3.9448851458    -1.6994957824    -0.5240698495
| 30>  N        4.5725684527    -2.1517838507    -1.3734600649
| 31>  H        1.3581749296     0.1692672243    -1.3431963142
| 32>  H        1.2582709843     1.6864613718    -0.4082446978
| 33>  H        0.6711009341     0.1610713359     0.3067349259
| 34>  H        3.4620886660     0.7714734233    -0.4008637116
| 35>  H        2.1291229464     0.7307698486     2.2113786479
| 36>  H        3.5725339263     1.6781714428     1.7485545817
| 37>  H        4.9425490349    -0.4282767257     1.6653123654
| 38>  H        3.6954609423    -1.1616184245     2.7019977726
| 39>  H        2.2689241470    -1.6474207775     0.7385238256
| 40> *
| 41>
| 42>                          ****END OF INPUT****
 Total Charge           Charge          ....    1
 Multiplicity           Mult            ....    1
 Number of Electrons    NEL             ....   52
FINAL SINGLE POINT ENERGY      -304.892912937659

CARTESIAN COORDINATES (ANGSTROEM)
---------------------------------
  C      0.245184    1.140622    1.866191
  N     -0.000145    0.000019    0.962799
  C     -1.321330   -0.747504    1.016020
  C     -1.324225   -0.847915   -0.512620
  C     -0.255296    0.262608   -0.518053
  C      0.925549    0.134068   -1.340789
  N      1.882084    0.000160   -1.962896
  H      1.186701    1.615411    1.590397
  H      0.300414    0.771600    2.890006
  H     -0.576519    1.848465    1.769939
  H      0.770512   -0.666228    1.044551
  H     -2.078300   -0.076421    1.419679
  H     -1.267506   -1.658596    1.607325
  H     -0.936203   -1.796283   -0.881347
  H     -2.253340   -0.608082   -1.021609
  H     -0.685858    1.262067   -0.608424

FINAL SINGLE POINT ENERGY      -304.892913311149
                    ***********************HURRAY********************
 Multiplicity           Mult            ....    1
 Number of Electrons    NEL             ....   52
 Basis Dimension        Dim             ....  271
FINAL SINGLE POINT ENERGY      -304.892913378766

VIBRATIONAL FREQUENCIES
-----------------------

   0:         0.00 cm**-1
   1:         0.00 cm**-1
   2:         0.00 cm**-1
   3:         0.00 cm**-1
   4:         0.00 cm**-1
   5:         0.00 cm**-1
   6:        96.62 cm**-1
   7:       143.02 cm**-1
   8:       210.44 cm**-1
   9:       229.44 cm**-1
  10:       306.46 cm**-1
  11:       406.72 cm**-1
  12:       515.91 cm**-1
  13:       541.99 cm**-1
  14:       618.83 cm**-1
  15:       797.35 cm**-1
  16:       807.05 cm**-1
  17:       905.58 cm**-1
  18:       960.71 cm**-1
  19:       987.18 cm**-1
  20:      1042.80 cm**-1
  21:      1067.78 cm**-1
  22:      1104.45 cm**-1
  23:      1118.25 cm**-1
  24:      1171.86 cm**-1
  25:      1223.94 cm**-1
  26:      1234.60 cm**-1
  27:      1278.64 cm**-1
  28:      1292.94 cm**-1
  29:      1320.70 cm**-1
  30:      1333.35 cm**-1
  31:      1385.39 cm**-1
  32:      1437.29 cm**-1
  33:      1456.03 cm**-1
  34:      1485.46 cm**-1
  35:      1485.97 cm**-1
  36:      1495.71 cm**-1
  37:      1506.95 cm**-1
  38:      2392.21 cm**-1
  39:      3080.54 cm**-1
  40:      3115.38 cm**-1
  41:      3120.96 cm**-1
  42:      3128.99 cm**-1
  43:      3179.14 cm**-1
  44:      3185.37 cm**-1
  45:      3190.96 cm**-1
  46:      3201.49 cm**-1
  47:      3458.03 cm**-1

IR SPECTRUM
-----------

 Mode    freq (cm**-1)   T**2         TX         TY         TZ
-------------------------------------------------------------------
   6:        96.62    4.655439  ( -0.829896  -1.907708  -0.572153)
   7:       143.02    7.465470  (  0.587923   0.029239   2.668138)
   8:       210.44    3.347850  ( -0.025931  -1.484195   1.069739)
   9:       229.44    0.679366  ( -0.017841   0.353259  -0.744484)
  10:       306.46    0.316360  (  0.388631  -0.030220   0.405478)
  11:       406.72    0.218481  ( -0.279491   0.367374   0.073501)
  12:       515.91    0.710127  ( -0.773567  -0.327301  -0.067790)
  13:       541.99    1.751031  (  0.644937   0.356919  -1.098952)
  14:       618.83    1.196665  ( -0.479254   0.757811   0.626660)
  15:       797.35    5.732346  ( -0.184596   1.847130  -1.512079)
  16:       807.05    1.124858  (  0.829488   0.396483   0.528781)
  17:       905.58   18.720199  ( -3.201234  -1.205139   2.649517)
  18:       960.71   16.434694  ( -0.367499   0.295188  -4.026475)
  19:       987.18    3.337505  ( -0.603615  -1.096857  -1.330435)
  20:      1042.80    6.934690  (  2.435496   0.798695   0.604264)
  21:      1067.78    4.183809  ( -1.911441  -0.275283  -0.674109)
  22:      1104.45    8.311211  ( -1.844947  -2.166064  -0.464273)
  23:      1118.25    8.721110  (  0.290012   1.258757   2.655661)
  24:      1171.86    4.138034  ( -0.349163  -0.378812  -1.967898)
  25:      1223.94    1.815322  (  0.627963   0.082732  -1.189176)
  26:      1234.60    0.996450  (  0.415345   0.654873  -0.628554)
  27:      1278.64    6.327720  (  1.620112   0.903067  -1.699244)
  28:      1292.94    1.092005  (  0.405416  -0.893092   0.360596)
  29:      1320.70   12.395768  ( -0.448764  -2.635036   2.291498)
  30:      1333.35    2.268661  ( -1.375334  -0.593686  -0.157010)
  31:      1385.39   22.995312  (  3.350150   1.682105  -2.990373)
  32:      1437.29   15.278107  (  0.020254   1.981091   3.369417)
  33:      1456.03    8.674970  ( -0.185845  -2.463010  -1.604373)
  34:      1485.46   15.573732  ( -3.043423  -2.106073  -1.369585)
  35:      1485.97   27.390934  ( -0.463036  -0.995148   5.117246)
  36:      1495.71   21.970991  ( -4.305617   1.703731  -0.727983)
  37:      1506.95    6.110446  ( -1.714423  -0.371977   1.741503)
  38:      2392.21    8.202800  (  2.103328  -0.189227  -1.934684)
  39:      3080.54    0.548212  ( -0.494010  -0.175924  -0.522701)
  40:      3115.38    2.748362  ( -0.363997   1.369165  -0.860961)
  41:      3120.96    0.380120  ( -0.174078  -0.325699  -0.493697)
  42:      3128.99    0.327448  ( -0.287844  -0.494543   0.004486)
  43:      3179.14    1.405613  ( -0.622858  -0.556284   0.841552)
  44:      3185.37    0.077638  (  0.222557  -0.077033   0.148904)
  45:      3190.96    0.083303  (  0.038568   0.056126  -0.280473)
  46:      3201.49    1.733089  ( -0.910812   0.946070  -0.091984)
  47:      3458.03   65.873389  ( -6.310643   4.728873  -1.920140)

--------------------------
THERMOCHEMISTRY AT 298.15K
--------------------------

Temperature         ... 298.15 K
Pressure            ... 1.00 atm
Total Mass          ... 97.14 AMU

Throughout the following assumptions are being made:
  (1) The electronic state is orbitally nondegenerate
  (2) There are no thermally accessible electronically excited states
  (3) Hindered rotations indicated by low frequency modes) are not
      treated as such but are treated as vibrations and this may
      case some error
  (4) All equations used are the standard statistical mechanics
      equations for an ideal gas
  (5) All vibrations are strinctly harmonic

------------
INNER ENERGY
------------

The inner energy is: U= E(el) + E(ZPE) + E(vib) + E(rot) + E(trans)
    E(el)   - is the total energy from the electronic structure calculation
              = E(kin-el) + E(nuc-el) + E(el-el) + E(nuc-nuc)
    E(ZPE)  - the the zero temperature vibrational energy from the frequency calculation
    E(vib)  - the the finite temperature correction to E(ZPE) due to population
              of excietd vibrational states
    E(rot)  - is the rotational thermal energy
    E(trans)- is the translational thermal energy

Summary of contributions to the inner energy U:
Electronic energy                ...   -304.89291338 Eh
Zero point energy                ...      0.14129762 Eh      88.67 kcal/mol
Thermal vibrational correction   ...      0.00425985 Eh       2.67 kcal/mol
Thermal rotational correction    ...      0.00141627 Eh       0.89 kcal/mol
Thermal translational correction ...      0.00141627 Eh       0.89 kcal/mol
-----------------------------------------------------------------------
Total thermal energy                   -304.74452336 Eh

Summary of corrections to the electronic energy:
(perhaps to be used in another calculation)
Total thermal correction                  0.00709240 Eh       4.45 kcal/mol
Non-thermal (ZPE) correction              0.14129762 Eh      88.67 kcal/mol
-----------------------------------------------------------------------
Total correction                          0.14839002 Eh      93.12 kcal/mol

--------
ENTHALPY
--------

The enthalpy is H = U + kB*T
                kB is Boltzmann's constant
Total free energy                 ...   -304.74452336 Eh
Thermal Enthalpy correction       ...      0.00094421 Eh       0.59 kcal/mol
-----------------------------------------------------------------------
Total Enthalpy                    ...   -304.74357915 Eh

-------
ENTROPY
-------

The entropy contributions are T*S = T*(S(el)+S(vib)+S(rot)+S(trans)
     S(el)   - electronic entropy
     S(vib)  - vibrational entropy
     S(rot)  - rotational entropy
     S(trans)- translational entropy
The entropies will be listed as mutliplied by the temperature to get
units of energy

Electronic entropy                ...      0.00000000 Eh      0.00 kcal/mol
Vibrational entropy               ...      0.00735267 Eh      4.61 kcal/mol
Rotational entropy                ...      0.01203096 Eh      7.55 kcal/mol
Translational entropy             ...      0.01883016 Eh     11.82 kcal/mol
-----------------------------------------------------------------------
Final entropy term                ...      0.03821380 Eh     23.98 kcal/mol

CAUTION: The rotational entropy is not quite correctly treated here
         because it includes a symmetry number that is not yet correctly
         implemented in ORCA!
For a nonlinear molecule the correct rotational entropy is:
    S(rot) = R*(ln(qrot/sn)+1.5)
    R    = 8.31441 J/mol/K = 1.987191683e-3 kcal/mol/K
    qrot = 228852.3686007
    sn is the rotational symmetry number. We have assumed 3 here
       if it is different for your molecule then you should correct
       the printed rotational entropy by manually evaluating the equation
       as given above

For convenience we print out the resulting values for sn=1 - 12:
 sn= 1  qrot/sn=  228852.3686 T*S(rot)=     8.20 kcal/mol T*S(tot)=    24.63 kcal/mol
 sn= 2  qrot/sn=  114426.1843 T*S(rot)=     7.79 kcal/mol T*S(tot)=    24.22 kcal/mol
 sn= 3  qrot/sn=   76284.1229 T*S(rot)=     7.55 kcal/mol T*S(tot)=    23.98 kcal/mol
 sn= 4  qrot/sn=   57213.0922 T*S(rot)=     7.38 kcal/mol T*S(tot)=    23.81 kcal/mol
 sn= 5  qrot/sn=   45770.4737 T*S(rot)=     7.25 kcal/mol T*S(tot)=    23.68 kcal/mol
 sn= 6  qrot/sn=   38142.0614 T*S(rot)=     7.14 kcal/mol T*S(tot)=    23.57 kcal/mol
 sn= 7  qrot/sn=   32693.1955 T*S(rot)=     7.05 kcal/mol T*S(tot)=    23.48 kcal/mol
 sn= 8  qrot/sn=   28606.5461 T*S(rot)=     6.97 kcal/mol T*S(tot)=    23.40 kcal/mol
 sn= 9  qrot/sn=   25428.0410 T*S(rot)=     6.90 kcal/mol T*S(tot)=    23.33 kcal/mol
 sn=10  qrot/sn=   22885.2369 T*S(rot)=     6.84 kcal/mol T*S(tot)=    23.27 kcal/mol
 sn=11  qrot/sn=   20804.7608 T*S(rot)=     6.78 kcal/mol T*S(tot)=    23.21 kcal/mol
 sn=12  qrot/sn=   19071.0307 T*S(rot)=     6.73 kcal/mol T*S(tot)=    23.16 kcal/mol

-------------------
GIBBS FREE ENTHALPY
-------------------

The Gibbs free enthalpy is G = H - T*S

Total enthalpy                    ...   -304.74357915 Eh
Total entropy correction          ...     -0.03821380 Eh    -23.98 kcal/mol
-----------------------------------------------------------------------
Final Gibbs free enthalpy         ...   -304.78179295 Eh

For completeness - the Gibbs free enthalpy minus the electronic energy
G-E(el)                           ...      0.11112043 Eh     69.73 kcal/mol

                             ****ORCA TERMINATED NORMALLY****
TOTAL RUN TIME: 0 days 0 hours 28 minutes 59 seconds 10 msec
