                         Program Version 3.0.3 - RELEASE   -
|  1> ! NORI PBE0 def2-TZVP UseSym TightOPT Freq TightSCF Grid3 FinalGrid5 XYZFile
|  2> % pal
|  3>     nprocs 8
|  4> end
|  5> %method
|  6>     SymThresh 5.0e-2
|  7> end
|  8> % geom
|  9>     MaxIter 10
| 10> end
| 11> % maxcore 2000
| 12> % output
| 13>     printlevel mini
| 14>     print[ P_Basis ] 0
| 15>     print[ P_SCFInfo ] 1
| 16>     print[ P_SCFIterInfo ] 1
| 17>     print[ P_OrbEn ] 0
| 18>     print[ P_Cartesian ] 0
| 19> end
| 20> % elprop
| 21>     Dipole false
| 22> end
| 23> *xyz 1 1
| 24>  C        1.4151659619     0.3169318978     0.5112293194
| 25>  N        2.5299628906    -0.2324189032    -0.2997122848
| 26>  C        2.3417758811    -1.6755842100    -0.7032554781
| 27>  C        3.2122440679    -1.8530372514    -1.9388023323
| 28>  C        3.2312215854    -0.4860182673    -2.5871417599
| 29>  C        1.9189533882     0.2264335577    -2.7073723943
| 30>  C        2.8174737885     0.5090733092    -1.5528485922
| 31>  H        1.6603358833     1.3346126429     0.8091690532
| 32>  H        1.2742734332    -0.3064307889     1.3925883334
| 33>  H        0.5145509568     0.3177029562    -0.0991706873
| 34>  H        3.3802198967    -0.1830235493     0.2642944690
| 35>  H        2.6051419839    -2.3136698379     0.1391326079
| 36>  H        1.2811077351    -1.8056109693    -0.9135804638
| 37>  H        4.2278462165    -2.1461508859    -1.6631836347
| 38>  H        2.8089551310    -2.6318944383    -2.5878790235
| 39>  H        4.0268392514    -0.2505436585    -3.2814479565
| 40>  H        0.9956883076    -0.3218555485    -2.5622018834
| 41>  H        1.8454910964     1.0206241983    -3.4390779285
| 42>  H        3.2729025443     1.4769597463    -1.3914093635
| 43> *
| 44>
| 45>                          ****END OF INPUT****
 Total Charge           Charge          ....    1
 Multiplicity           Mult            ....    1
 Number of Electrons    NEL             ....   54
FINAL SINGLE POINT ENERGY      -290.103134322047
FINAL SINGLE POINT ENERGY      -290.103135445601

CARTESIAN COORDINATES (ANGSTROEM)
---------------------------------
  C      1.215628   -0.000560    1.856274
  N     -0.000211    0.000694    1.005292
  C     -0.242286    1.303678    0.281213
  C     -1.109775    0.932138   -0.912846
  C     -0.713185   -0.490905   -1.239567
  C      0.752579   -0.795890   -1.271533
  C     -0.036266   -1.057830   -0.034461
  H      1.278957   -0.950768    2.384108
  H      1.153101    0.819623    2.570223
  H      2.084706    0.123440    1.213731
  H     -0.805610   -0.164309    1.611517
  H     -0.693682    2.012191    0.974034
  H      0.734618    1.684756   -0.011812
  H     -2.170343    0.971237   -0.653657
  H     -0.947110    1.625054   -1.739923
  H     -1.393529   -1.100643   -1.818849
  H      1.468861    0.016537   -1.304439
  H      1.068021   -1.678893   -1.811670
  H     -0.184592   -2.053213    0.362601

FINAL SINGLE POINT ENERGY      -290.103135845458
                    ***********************HURRAY********************
 Multiplicity           Mult            ....    1
 Number of Electrons    NEL             ....   54
 Basis Dimension        Dim             ....  289
FINAL SINGLE POINT ENERGY      -290.103135968649

VIBRATIONAL FREQUENCIES
-----------------------

   0:         0.00 cm**-1
   1:         0.00 cm**-1
   2:         0.00 cm**-1
   3:         0.00 cm**-1
   4:         0.00 cm**-1
   5:         0.00 cm**-1
   6:       167.41 cm**-1
   7:       227.69 cm**-1
   8:       265.55 cm**-1
   9:       321.53 cm**-1
  10:       392.54 cm**-1
  11:       508.64 cm**-1
  12:       584.70 cm**-1
  13:       640.06 cm**-1
  14:       774.66 cm**-1
  15:       827.26 cm**-1
  16:       839.67 cm**-1
  17:       860.76 cm**-1
  18:       926.31 cm**-1
  19:       963.66 cm**-1
  20:       980.04 cm**-1
  21:      1031.00 cm**-1
  22:      1044.61 cm**-1
  23:      1070.81 cm**-1
  24:      1076.24 cm**-1
  25:      1096.24 cm**-1
  26:      1101.84 cm**-1
  27:      1118.72 cm**-1
  28:      1161.62 cm**-1
  29:      1194.75 cm**-1
  30:      1215.43 cm**-1
  31:      1245.15 cm**-1
  32:      1264.87 cm**-1
  33:      1334.14 cm**-1
  34:      1351.59 cm**-1
  35:      1373.11 cm**-1
  36:      1388.62 cm**-1
  37:      1420.00 cm**-1
  38:      1433.54 cm**-1
  39:      1456.23 cm**-1
  40:      1486.43 cm**-1
  41:      1492.78 cm**-1
  42:      1493.16 cm**-1
  43:      1497.16 cm**-1
  44:      1514.27 cm**-1
  45:      3085.11 cm**-1
  46:      3088.11 cm**-1
  47:      3118.03 cm**-1
  48:      3135.11 cm**-1
  49:      3162.89 cm**-1
  50:      3176.21 cm**-1
  51:      3185.22 cm**-1
  52:      3193.89 cm**-1
  53:      3217.83 cm**-1
  54:      3223.95 cm**-1
  55:      3250.86 cm**-1
  56:      3455.93 cm**-1

IR SPECTRUM
-----------

 Mode    freq (cm**-1)   T**2         TX         TY         TZ
-------------------------------------------------------------------
   6:       167.41    0.106616  (  0.103420   0.198326  -0.237881)
   7:       227.69    0.071789  (  0.062025   0.098688   0.241252)
   8:       265.55    0.234490  ( -0.153083   0.188603  -0.418909)
   9:       321.53    0.096633  (  0.228576   0.095137   0.187976)
  10:       392.54    0.382842  ( -0.426632   0.117876   0.432358)
  11:       508.64    1.954897  ( -1.104601  -0.261680  -0.816258)
  12:       584.70    2.773358  (  1.109229  -0.271716   1.212081)
  13:       640.06    1.887393  ( -0.737369   0.551443   1.019603)
  14:       774.66   15.393740  ( -1.607778   0.946260  -3.451577)
  15:       827.26    4.702189  ( -1.911769  -0.010560   1.023335)
  16:       839.67    4.291554  ( -1.620947   1.046959   0.753632)
  17:       860.76    6.085902  (  2.257567   0.814008  -0.571562)
  18:       926.31    0.776512  ( -0.474970   0.694578   0.261681)
  19:       963.66    5.271897  (  0.455766  -1.708145   1.465065)
  20:       980.04    0.353055  (  0.221817   0.145366   0.531715)
  21:      1031.00    1.316747  ( -0.185438   1.131456  -0.046557)
  22:      1044.61   13.973842  (  1.282539  -2.653977   2.298987)
  23:      1070.81    1.545629  ( -0.940360   0.808768  -0.085115)
  24:      1076.24    0.302726  ( -0.443380   0.172985  -0.276073)
  25:      1096.24   16.310631  (  1.949963   0.236001   3.528821)
  26:      1101.84    4.789693  (  0.145518   1.974261  -0.933173)
  27:      1118.72    0.857701  (  0.134265  -0.337267   0.852012)
  28:      1161.62    2.846652  (  1.005450  -0.043172   1.354200)
  29:      1194.75    0.777334  ( -0.369638  -0.040945   0.799391)
  30:      1215.43    3.018434  (  1.118518   0.167664   1.318802)
  31:      1245.15    4.440235  (  0.784264   1.841479   0.658877)
  32:      1264.87    1.566041  ( -0.646931   0.931821   0.528422)
  33:      1334.14    3.563735  (  0.404074   1.019728   1.536429)
  34:      1351.59    4.674438  ( -1.542012  -1.357435  -0.673799)
  35:      1373.11    7.052628  (  0.906808  -2.455700   0.447065)
  36:      1388.62    2.013643  (  0.746538   0.967392   0.721441)
  37:      1420.00   18.138061  ( -2.839625   2.339698  -2.144855)
  38:      1433.54    7.501022  ( -0.554908  -1.673272  -2.096010)
  39:      1456.23    5.058869  (  2.199372   0.243670  -0.402812)
  40:      1486.43   15.721226  ( -1.939770   3.204719  -1.299344)
  41:      1492.78    6.594714  (  1.363589   2.175674   0.042213)
  42:      1493.16   14.560593  (  0.133929   0.867213   3.713569)
  43:      1497.16   16.172418  ( -2.530357   0.576290   3.072068)
  44:      1514.27   22.476976  (  3.199713   3.459950  -0.517257)
  45:      3085.11    4.892403  (  1.975886  -0.994034   0.013121)
  46:      3088.11    0.383181  ( -0.356167  -0.077683  -0.500292)
  47:      3118.03    1.031584  ( -0.868422  -0.229922  -0.473881)
  48:      3135.11    1.015018  ( -0.777007  -0.638133   0.063755)
  49:      3162.89    2.069187  (  0.193634   1.041192   0.973454)
  50:      3176.21    0.319064  (  0.562747   0.008506  -0.048038)
  51:      3185.22    0.038788  ( -0.047999   0.065110  -0.179568)
  52:      3193.89    0.138754  (  0.037206  -0.173415   0.327562)
  53:      3217.83    0.200232  ( -0.194216   0.323574  -0.240440)
  54:      3223.95    0.906526  (  0.338389   0.831007   0.318506)
  55:      3250.86    1.173137  (  0.416726  -0.845950  -0.532771)
  56:      3455.93   53.545213  (  5.314162   1.456035  -4.815066)

--------------------------
THERMOCHEMISTRY AT 298.15K
--------------------------

Temperature         ... 298.15 K
Pressure            ... 1.00 atm
Total Mass          ... 98.17 AMU

Throughout the following assumptions are being made:
  (1) The electronic state is orbitally nondegenerate
  (2) There are no thermally accessible electronically excited states
  (3) Hindered rotations indicated by low frequency modes) are not
      treated as such but are treated as vibrations and this may
      case some error
  (4) All equations used are the standard statistical mechanics
      equations for an ideal gas
  (5) All vibrations are strinctly harmonic

------------
INNER ENERGY
------------

The inner energy is: U= E(el) + E(ZPE) + E(vib) + E(rot) + E(trans)
    E(el)   - is the total energy from the electronic structure calculation
              = E(kin-el) + E(nuc-el) + E(el-el) + E(nuc-nuc)
    E(ZPE)  - the the zero temperature vibrational energy from the frequency calculation
    E(vib)  - the the finite temperature correction to E(ZPE) due to population
              of excietd vibrational states
    E(rot)  - is the rotational thermal energy
    E(trans)- is the translational thermal energy

Summary of contributions to the inner energy U:
Electronic energy                ...   -290.10313597 Eh
Zero point energy                ...      0.17869019 Eh     112.13 kcal/mol
Thermal vibrational correction   ...      0.00360245 Eh       2.26 kcal/mol
Thermal rotational correction    ...      0.00141627 Eh       0.89 kcal/mol
Thermal translational correction ...      0.00141627 Eh       0.89 kcal/mol
-----------------------------------------------------------------------
Total thermal energy                   -289.91801079 Eh

Summary of corrections to the electronic energy:
(perhaps to be used in another calculation)
Total thermal correction                  0.00643499 Eh       4.04 kcal/mol
Non-thermal (ZPE) correction              0.17869019 Eh     112.13 kcal/mol
-----------------------------------------------------------------------
Total correction                          0.18512518 Eh     116.17 kcal/mol

--------
ENTHALPY
--------

The enthalpy is H = U + kB*T
                kB is Boltzmann's constant
Total free energy                 ...   -289.91801079 Eh
Thermal Enthalpy correction       ...      0.00094421 Eh       0.59 kcal/mol
-----------------------------------------------------------------------
Total Enthalpy                    ...   -289.91706658 Eh

-------
ENTROPY
-------

The entropy contributions are T*S = T*(S(el)+S(vib)+S(rot)+S(trans)
     S(el)   - electronic entropy
     S(vib)  - vibrational entropy
     S(rot)  - rotational entropy
     S(trans)- translational entropy
The entropies will be listed as mutliplied by the temperature to get
units of energy

Electronic entropy                ...      0.00000000 Eh      0.00 kcal/mol
Vibrational entropy               ...      0.00557736 Eh      3.50 kcal/mol
Rotational entropy                ...      0.01179130 Eh      7.40 kcal/mol
Translational entropy             ...      0.01884507 Eh     11.83 kcal/mol
-----------------------------------------------------------------------
Final entropy term                ...      0.03621373 Eh     22.72 kcal/mol

CAUTION: The rotational entropy is not quite correctly treated here
         because it includes a symmetry number that is not yet correctly
         implemented in ORCA!
For a nonlinear molecule the correct rotational entropy is:
    S(rot) = R*(ln(qrot/sn)+1.5)
    R    = 8.31441 J/mol/K = 1.987191683e-3 kcal/mol/K
    qrot = 177549.4389350
    sn is the rotational symmetry number. We have assumed 3 here
       if it is different for your molecule then you should correct
       the printed rotational entropy by manually evaluating the equation
       as given above

For convenience we print out the resulting values for sn=1 - 12:
 sn= 1  qrot/sn=  177549.4389 T*S(rot)=     8.05 kcal/mol T*S(tot)=    23.38 kcal/mol
 sn= 2  qrot/sn=   88774.7195 T*S(rot)=     7.64 kcal/mol T*S(tot)=    22.96 kcal/mol
 sn= 3  qrot/sn=   59183.1463 T*S(rot)=     7.40 kcal/mol T*S(tot)=    22.72 kcal/mol
 sn= 4  qrot/sn=   44387.3597 T*S(rot)=     7.23 kcal/mol T*S(tot)=    22.55 kcal/mol
 sn= 5  qrot/sn=   35509.8878 T*S(rot)=     7.10 kcal/mol T*S(tot)=    22.42 kcal/mol
 sn= 6  qrot/sn=   29591.5732 T*S(rot)=     6.99 kcal/mol T*S(tot)=    22.31 kcal/mol
 sn= 7  qrot/sn=   25364.2056 T*S(rot)=     6.90 kcal/mol T*S(tot)=    22.22 kcal/mol
 sn= 8  qrot/sn=   22193.6799 T*S(rot)=     6.82 kcal/mol T*S(tot)=    22.14 kcal/mol
 sn= 9  qrot/sn=   19727.7154 T*S(rot)=     6.75 kcal/mol T*S(tot)=    22.07 kcal/mol
 sn=10  qrot/sn=   17754.9439 T*S(rot)=     6.69 kcal/mol T*S(tot)=    22.01 kcal/mol
 sn=11  qrot/sn=   16140.8581 T*S(rot)=     6.63 kcal/mol T*S(tot)=    21.95 kcal/mol
 sn=12  qrot/sn=   14795.7866 T*S(rot)=     6.58 kcal/mol T*S(tot)=    21.90 kcal/mol

-------------------
GIBBS FREE ENTHALPY
-------------------

The Gibbs free enthalpy is G = H - T*S

Total enthalpy                    ...   -289.91706658 Eh
Total entropy correction          ...     -0.03621373 Eh    -22.72 kcal/mol
-----------------------------------------------------------------------
Final Gibbs free enthalpy         ...   -289.95328030 Eh

For completeness - the Gibbs free enthalpy minus the electronic energy
G-E(el)                           ...      0.14985566 Eh     94.04 kcal/mol

                             ****ORCA TERMINATED NORMALLY****
TOTAL RUN TIME: 0 days 0 hours 47 minutes 2 seconds 108 msec
