                         Program Version 3.0.3 - RELEASE   -
|  1> ! NORI PBE0 def2-TZVP UseSym TightOPT Freq TightSCF Grid3 FinalGrid5 XYZFile
|  2> % pal
|  3>     nprocs 8
|  4> end
|  5> %method
|  6>     SymThresh 5.0e-2
|  7> end
|  8> % geom
|  9>     MaxIter 10
| 10> end
| 11> % maxcore 2000
| 12> % output
| 13>     printlevel mini
| 14>     print[ P_Basis ] 0
| 15>     print[ P_SCFInfo ] 1
| 16>     print[ P_SCFIterInfo ] 1
| 17>     print[ P_OrbEn ] 0
| 18>     print[ P_Cartesian ] 0
| 19> end
| 20> % elprop
| 21>     Dipole false
| 22> end
| 23> *xyz 1 1
| 24>  C        0.8745543406     0.1097255966     0.1535682712
| 25>  N        2.3474029116     0.0523157909    -0.0384431871
| 26>  C        2.8452095156    -1.3294146459    -0.3809017700
| 27>  C        2.4937369432    -1.7204118949    -1.8003017933
| 28>  C        3.0054294890    -0.6941348607    -2.8012059668
| 29>  C        2.5002553218     0.6990049973    -2.4517757044
| 30>  C        2.8530284373     1.0715390936    -1.0276886082
| 31>  H        0.5996676874     1.1184731355     0.4569613963
| 32>  H        0.5940913142    -0.6010036511     0.9293590310
| 33>  H        0.3718013643    -0.1430846791    -0.7746492898
| 34>  H        2.7635323140     0.2930004786     0.8611659579
| 35>  H        3.9292147717    -1.2975513452    -0.2466234872
| 36>  H        2.4255472464    -2.0112951702     0.3594441831
| 37>  H        2.9394626200    -2.7005017466    -1.9847757781
| 38>  H        1.4135887238    -1.8581703928    -1.9049365898
| 39>  H        4.1011543423    -0.6970676017    -2.8011172978
| 40>  H        2.6924794976    -0.9651582369    -3.8104124206
| 41>  H        1.4201110296     0.7708330680    -2.6115816100
| 42>  H        2.9500607411     1.4514176235    -3.1031798531
| 43>  H        2.4378444645     2.0355403419    -0.7310039161
| 44>  H        3.9368569242     1.1058940990    -0.8942615670
| 45> *
| 46>
| 47>                          ****END OF INPUT****
 Total Charge           Charge          ....    1
 Multiplicity           Mult            ....    1
 Number of Electrons    NEL             ....   56
FINAL SINGLE POINT ENERGY      -291.342433074507
FINAL SINGLE POINT ENERGY      -291.342435639881

CARTESIAN COORDINATES (ANGSTROEM)
---------------------------------
  C      1.433457    1.461840   -0.000000
  N      1.168545   -0.000682    0.000000
  C      0.456023   -0.470653    1.242727
  C     -0.996683   -0.046415    1.252898
  C     -1.721194   -0.518408   -0.000000
  C     -0.996683   -0.046415   -1.252898
  C      0.456023   -0.470653   -1.242727
  H      2.004666    1.715015   -0.891707
  H      2.004666    1.715015    0.891707
  H      0.493371    2.005354   -0.000000
  H      2.080199   -0.457971    0.000000
  H      0.541554   -1.559857    1.242126
  H      1.013323   -0.081129    2.095696
  H     -1.451203   -0.472105    2.150356
  H     -1.078479    1.039337    1.361582
  H     -1.778779   -1.612600   -0.000000
  H     -2.748898   -0.152660    0.000000
  H     -1.078479    1.039337   -1.361582
  H     -1.451203   -0.472105   -2.150356
  H      1.013323   -0.081129   -2.095696
  H      0.541554   -1.559857   -1.242126

FINAL SINGLE POINT ENERGY      -291.342436248603
                    ***********************HURRAY********************
 Multiplicity           Mult            ....    1
 Number of Electrons    NEL             ....   56
 Basis Dimension        Dim             ....  301
FINAL SINGLE POINT ENERGY      -291.342436354355

VIBRATIONAL FREQUENCIES
-----------------------

   0:         0.00 cm**-1
   1:         0.00 cm**-1
   2:         0.00 cm**-1
   3:         0.00 cm**-1
   4:         0.00 cm**-1
   5:         0.00 cm**-1
   6:       162.30 cm**-1
   7:       189.34 cm**-1
   8:       240.48 cm**-1
   9:       318.25 cm**-1
  10:       387.22 cm**-1
  11:       399.60 cm**-1
  12:       470.02 cm**-1
  13:       477.40 cm**-1
  14:       609.97 cm**-1
  15:       760.35 cm**-1
  16:       794.32 cm**-1
  17:       850.71 cm**-1
  18:       872.27 cm**-1
  19:       879.73 cm**-1
  20:       954.55 cm**-1
  21:       993.77 cm**-1
  22:      1010.34 cm**-1
  23:      1016.62 cm**-1
  24:      1055.91 cm**-1
  25:      1100.45 cm**-1
  26:      1120.96 cm**-1
  27:      1138.96 cm**-1
  28:      1176.62 cm**-1
  29:      1195.00 cm**-1
  30:      1247.62 cm**-1
  31:      1296.83 cm**-1
  32:      1310.45 cm**-1
  33:      1347.91 cm**-1
  34:      1348.88 cm**-1
  35:      1366.07 cm**-1
  36:      1395.27 cm**-1
  37:      1396.31 cm**-1
  38:      1401.41 cm**-1
  39:      1451.53 cm**-1
  40:      1451.61 cm**-1
  41:      1455.39 cm**-1
  42:      1473.54 cm**-1
  43:      1481.32 cm**-1
  44:      1484.09 cm**-1
  45:      1486.85 cm**-1
  46:      1498.89 cm**-1
  47:      1504.73 cm**-1
  48:      1511.10 cm**-1
  49:      3051.51 cm**-1
  50:      3067.76 cm**-1
  51:      3070.46 cm**-1
  52:      3083.04 cm**-1
  53:      3085.78 cm**-1
  54:      3095.73 cm**-1
  55:      3118.00 cm**-1
  56:      3118.43 cm**-1
  57:      3128.31 cm**-1
  58:      3143.27 cm**-1
  59:      3145.68 cm**-1
  60:      3185.61 cm**-1
  61:      3210.02 cm**-1
  62:      3472.60 cm**-1

IR SPECTRUM
-----------

 Mode    freq (cm**-1)   T**2         TX         TY         TZ
-------------------------------------------------------------------
   6:       162.30    0.141198  (  0.358292   0.113249  -0.000013)
   7:       189.34    0.160627  ( -0.000010  -0.000000  -0.400783)
   8:       240.48    0.008460  (  0.000021  -0.000001  -0.091979)
   9:       318.25    1.089961  (  0.781531   0.692221  -0.000008)
  10:       387.22    0.017310  (  0.000022   0.000016  -0.131567)
  11:       399.60    1.219182  (  0.718140   0.838724   0.000007)
  12:       470.02    0.051104  ( -0.000029  -0.000026  -0.226062)
  13:       477.40    0.335857  (  0.432591   0.385645  -0.000010)
  14:       609.97    2.775641  (  0.595812   1.555844  -0.000006)
  15:       760.35    1.156930  (  1.052705   0.220776  -0.000013)
  16:       794.32    0.352876  (  0.000028  -0.000011   0.594033)
  17:       850.71    1.938024  (  1.099644   0.853703   0.000026)
  18:       872.27    7.273690  (  2.663110   0.426072  -0.000030)
  19:       879.73    0.013209  ( -0.000009   0.000002   0.114932)
  20:       954.55    9.912304  ( -0.000013   0.000007  -3.148381)
  21:       993.77    9.390575  ( -1.616808  -2.603173   0.000005)
  22:      1010.34   14.434628  (  0.000022  -0.000051   3.799293)
  23:      1016.62    1.199607  (  0.351320  -1.037391  -0.000206)
  24:      1055.91    7.612027  (  1.661674   2.202468   0.000013)
  25:      1100.45    1.938781  ( -0.000007  -0.000004  -1.392401)
  26:      1120.96    2.294583  (  0.279349   1.488807  -0.000017)
  27:      1138.96    0.038326  (  0.000018   0.000004  -0.195770)
  28:      1176.62    0.147037  ( -0.000017  -0.000004   0.383454)
  29:      1195.00    4.404143  (  1.497099   1.470659  -0.000003)
  30:      1247.62    0.585166  ( -0.000019   0.000010  -0.764962)
  31:      1296.83    2.902826  ( -1.690065  -0.215654   0.000003)
  32:      1310.45    0.968493  (  0.000004  -0.000000   0.984120)
  33:      1347.91   18.166061  ( -0.000002  -0.000009   4.262166)
  34:      1348.88    2.387039  (  1.241744   0.919299  -0.000013)
  35:      1366.07    1.551244  ( -0.000007   0.000005  -1.245489)
  36:      1395.27    0.214387  ( -0.318546   0.336029  -0.000014)
  37:      1396.31    0.115253  (  0.000000   0.000012  -0.339489)
  38:      1401.41    5.804717  ( -0.715768  -2.300520  -0.000017)
  39:      1451.53    8.032639  ( -0.000106  -0.004076   2.834188)
  40:      1451.61   11.529960  (  0.075858   3.394730   0.003368)
  41:      1455.39    1.047437  ( -0.385304  -0.948144  -0.000024)
  42:      1473.54   12.829546  (  0.000079  -0.000711  -3.581836)
  43:      1481.32   25.962709  ( -0.836962  -5.026152  -0.000077)
  44:      1484.09   16.442272  ( -0.000300  -0.000666   4.054907)
  45:      1486.85    4.337945  (  2.060918   0.300934   0.000115)
  46:      1498.89   26.778462  ( -4.938329   1.546406  -0.000502)
  47:      1504.73   10.487047  (  0.000435  -0.000234  -3.238371)
  48:      1511.10   18.041384  ( -3.853960   1.785603  -0.000032)
  49:      3051.51    2.686300  (  0.889437   1.376663  -0.000002)
  50:      3067.76    3.155955  (  0.000007   0.000025   1.776501)
  51:      3070.46   17.184774  (  1.200222   3.967901  -0.000001)
  52:      3083.04    0.572129  ( -0.000004   0.000016   0.756392)
  53:      3085.78    7.840211  ( -1.824562   2.123955  -0.000015)
  54:      3095.73    0.449894  (  0.511807   0.433530   0.000021)
  55:      3118.00    2.185347  (  0.000110   0.000698  -1.478292)
  56:      3118.43    3.819698  (  0.336604   1.925200   0.000513)
  57:      3128.31    7.019518  ( -1.747536   1.991390   0.000005)
  58:      3143.27    1.372572  ( -0.000002  -0.000009  -1.171568)
  59:      3145.68    5.080666  ( -1.003768  -2.018196   0.000018)
  60:      3185.61    0.032650  ( -0.000008   0.000003   0.180693)
  61:      3210.02    0.170208  ( -0.316422   0.264735  -0.000012)
  62:      3472.60   57.840865  ( -6.922203   3.150233   0.000001)

--------------------------
THERMOCHEMISTRY AT 298.15K
--------------------------

Temperature         ... 298.15 K
Pressure            ... 1.00 atm
Total Mass          ... 100.18 AMU

Throughout the following assumptions are being made:
  (1) The electronic state is orbitally nondegenerate
  (2) There are no thermally accessible electronically excited states
  (3) Hindered rotations indicated by low frequency modes) are not
      treated as such but are treated as vibrations and this may
      case some error
  (4) All equations used are the standard statistical mechanics
      equations for an ideal gas
  (5) All vibrations are strinctly harmonic

------------
INNER ENERGY
------------

The inner energy is: U= E(el) + E(ZPE) + E(vib) + E(rot) + E(trans)
    E(el)   - is the total energy from the electronic structure calculation
              = E(kin-el) + E(nuc-el) + E(el-el) + E(nuc-nuc)
    E(ZPE)  - the the zero temperature vibrational energy from the frequency calculation
    E(vib)  - the the finite temperature correction to E(ZPE) due to population
              of excietd vibrational states
    E(rot)  - is the rotational thermal energy
    E(trans)- is the translational thermal energy

Summary of contributions to the inner energy U:
Electronic energy                ...   -291.34243635 Eh
Zero point energy                ...      0.20289612 Eh     127.32 kcal/mol
Thermal vibrational correction   ...      0.00415165 Eh       2.61 kcal/mol
Thermal rotational correction    ...      0.00141627 Eh       0.89 kcal/mol
Thermal translational correction ...      0.00141627 Eh       0.89 kcal/mol
-----------------------------------------------------------------------
Total thermal energy                   -291.13255603 Eh

Summary of corrections to the electronic energy:
(perhaps to be used in another calculation)
Total thermal correction                  0.00698420 Eh       4.38 kcal/mol
Non-thermal (ZPE) correction              0.20289612 Eh     127.32 kcal/mol
-----------------------------------------------------------------------
Total correction                          0.20988032 Eh     131.70 kcal/mol

--------
ENTHALPY
--------

The enthalpy is H = U + kB*T
                kB is Boltzmann's constant
Total free energy                 ...   -291.13255603 Eh
Thermal Enthalpy correction       ...      0.00094421 Eh       0.59 kcal/mol
-----------------------------------------------------------------------
Total Enthalpy                    ...   -291.13161182 Eh

-------
ENTROPY
-------

The entropy contributions are T*S = T*(S(el)+S(vib)+S(rot)+S(trans)
     S(el)   - electronic entropy
     S(vib)  - vibrational entropy
     S(rot)  - rotational entropy
     S(trans)- translational entropy
The entropies will be listed as mutliplied by the temperature to get
units of energy

Electronic entropy                ...      0.00000000 Eh      0.00 kcal/mol
Vibrational entropy               ...      0.00652173 Eh      4.09 kcal/mol
Rotational entropy                ...      0.01192047 Eh      7.48 kcal/mol
Translational entropy             ...      0.01887386 Eh     11.84 kcal/mol
-----------------------------------------------------------------------
Final entropy term                ...      0.03731607 Eh     23.42 kcal/mol

CAUTION: The rotational entropy is not quite correctly treated here
         because it includes a symmetry number that is not yet correctly
         implemented in ORCA!
For a nonlinear molecule the correct rotational entropy is:
    S(rot) = R*(ln(qrot/sn)+1.5)
    R    = 8.31441 J/mol/K = 1.987191683e-3 kcal/mol/K
    qrot = 203579.8911543
    sn is the rotational symmetry number. We have assumed 3 here
       if it is different for your molecule then you should correct
       the printed rotational entropy by manually evaluating the equation
       as given above

For convenience we print out the resulting values for sn=1 - 12:
 sn= 1  qrot/sn=  203579.8912 T*S(rot)=     8.13 kcal/mol T*S(tot)=    24.07 kcal/mol
 sn= 2  qrot/sn=  101789.9456 T*S(rot)=     7.72 kcal/mol T*S(tot)=    23.66 kcal/mol
 sn= 3  qrot/sn=   67859.9637 T*S(rot)=     7.48 kcal/mol T*S(tot)=    23.42 kcal/mol
 sn= 4  qrot/sn=   50894.9728 T*S(rot)=     7.31 kcal/mol T*S(tot)=    23.25 kcal/mol
 sn= 5  qrot/sn=   40715.9782 T*S(rot)=     7.18 kcal/mol T*S(tot)=    23.11 kcal/mol
 sn= 6  qrot/sn=   33929.9819 T*S(rot)=     7.07 kcal/mol T*S(tot)=    23.01 kcal/mol
 sn= 7  qrot/sn=   29082.8416 T*S(rot)=     6.98 kcal/mol T*S(tot)=    22.91 kcal/mol
 sn= 8  qrot/sn=   25447.4864 T*S(rot)=     6.90 kcal/mol T*S(tot)=    22.84 kcal/mol
 sn= 9  qrot/sn=   22619.9879 T*S(rot)=     6.83 kcal/mol T*S(tot)=    22.77 kcal/mol
 sn=10  qrot/sn=   20357.9891 T*S(rot)=     6.77 kcal/mol T*S(tot)=    22.70 kcal/mol
 sn=11  qrot/sn=   18507.2628 T*S(rot)=     6.71 kcal/mol T*S(tot)=    22.65 kcal/mol
 sn=12  qrot/sn=   16964.9909 T*S(rot)=     6.66 kcal/mol T*S(tot)=    22.59 kcal/mol

-------------------
GIBBS FREE ENTHALPY
-------------------

The Gibbs free enthalpy is G = H - T*S

Total enthalpy                    ...   -291.13161182 Eh
Total entropy correction          ...     -0.03731607 Eh    -23.42 kcal/mol
-----------------------------------------------------------------------
Final Gibbs free enthalpy         ...   -291.16892789 Eh

For completeness - the Gibbs free enthalpy minus the electronic energy
G-E(el)                           ...      0.17350846 Eh    108.88 kcal/mol

                             ****ORCA TERMINATED NORMALLY****
TOTAL RUN TIME: 0 days 0 hours 55 minutes 18 seconds 920 msec
