                         Program Version 3.0.3 - RELEASE   -
|  1> ! NORI PBE0 def2-TZVP UseSym TightOPT Freq TightSCF Grid3 FinalGrid5 XYZFile
|  2> % pal
|  3>     nprocs 8
|  4> end
|  5> %method
|  6>     SymThresh 5.0e-2
|  7> end
|  8> % geom
|  9>     MaxIter 10
| 10> end
| 11> % maxcore 2000
| 12> % output
| 13>     printlevel mini
| 14>     print[ P_Basis ] 0
| 15>     print[ P_SCFInfo ] 1
| 16>     print[ P_SCFIterInfo ] 1
| 17>     print[ P_OrbEn ] 0
| 18>     print[ P_Cartesian ] 0
| 19> end
| 20> % elprop
| 21>     Dipole false
| 22> end
| 23> *xyz 1 1
| 24>  C        1.3352384525    -0.0880768142     0.6126894893
| 25>  N        2.5396434054    -0.0416551718    -0.2474897977
| 26>  C        2.7837995914    -1.2813460252    -1.0729642306
| 27>  C        3.5309722629    -0.7391185656    -2.2441928991
| 28>  C        3.4319986863     0.5835021562    -2.3362844597
| 29>  C        3.9761227667     1.4899731061    -3.3751392754
| 30>  C        2.5928238489     1.1139665359    -1.2096513728
| 31>  H        1.2727590095     0.8323037314     1.1917919294
| 32>  H        1.4075379400    -0.9434668677     1.2831418976
| 33>  H        0.4565427658    -0.1875777583    -0.0217754758
| 34>  H        3.3557156877     0.0569973075     0.3570061343
| 35>  H        3.3235143404    -2.0110703735    -0.4667630290
| 36>  H        1.8125702070    -1.7086014645    -1.3414707532
| 37>  H        4.0472518592    -1.3854478590    -2.9409926806
| 38>  H        4.5290597012     0.9345839108    -4.1314515960
| 39>  H        4.6442700003     2.2364293353    -2.9351184337
| 40>  H        3.1710775816     2.0389851279    -3.8731414145
| 41>  H        1.5718036979     1.3491178019    -1.5253513285
| 42>  H        3.0043881955     1.9872518869    -0.7000927040
| 43> *
| 44>
| 45>                          ****END OF INPUT****
 Total Charge           Charge          ....    1
 Multiplicity           Mult            ....    1
 Number of Electrons    NEL             ....   54
FINAL SINGLE POINT ENERGY      -290.113643234620
FINAL SINGLE POINT ENERGY      -290.113644051097

CARTESIAN COORDINATES (ANGSTROEM)
---------------------------------
  C      0.936618    0.000188    2.329658
  N      0.000038   -0.000415    1.181487
  C     -0.228704    1.348184    0.543599
  C     -0.575161    0.979583   -0.859281
  C     -0.249064   -0.277211   -1.144765
  C     -0.374963   -1.005524   -2.429692
  C      0.365534   -0.933012    0.058412
  H      1.002671   -1.007134    2.738161
  H      0.567033    0.685711    3.090866
  H      1.915413    0.324883    1.981675
  H     -0.912399   -0.308604    1.518734
  H     -1.006592    1.876252    1.097973
  H      0.699190    1.923768    0.621144
  H     -1.002766    1.694961   -1.548755
  H     -0.809515   -0.370868   -3.200517
  H     -1.002282   -1.894581   -2.317535
  H      0.603379   -1.349100   -2.779582
  H      1.456775   -0.985380   -0.007424
  H     -0.013401   -1.932036    0.282685

FINAL SINGLE POINT ENERGY      -290.113644352147
                    ***********************HURRAY********************
 Multiplicity           Mult            ....    1
 Number of Electrons    NEL             ....   54
 Basis Dimension        Dim             ....  289
FINAL SINGLE POINT ENERGY      -290.113644431885

VIBRATIONAL FREQUENCIES
-----------------------

   0:         0.00 cm**-1
   1:         0.00 cm**-1
   2:         0.00 cm**-1
   3:         0.00 cm**-1
   4:         0.00 cm**-1
   5:         0.00 cm**-1
   6:        95.76 cm**-1
   7:       167.01 cm**-1
   8:       236.02 cm**-1
   9:       245.70 cm**-1
  10:       269.65 cm**-1
  11:       376.21 cm**-1
  12:       439.18 cm**-1
  13:       454.59 cm**-1
  14:       544.13 cm**-1
  15:       662.10 cm**-1
  16:       814.14 cm**-1
  17:       857.32 cm**-1
  18:       899.61 cm**-1
  19:       945.06 cm**-1
  20:       962.89 cm**-1
  21:       997.82 cm**-1
  22:      1026.99 cm**-1
  23:      1048.72 cm**-1
  24:      1065.88 cm**-1
  25:      1089.14 cm**-1
  26:      1134.34 cm**-1
  27:      1183.56 cm**-1
  28:      1189.27 cm**-1
  29:      1241.83 cm**-1
  30:      1294.27 cm**-1
  31:      1300.00 cm**-1
  32:      1371.53 cm**-1
  33:      1382.17 cm**-1
  34:      1413.53 cm**-1
  35:      1416.89 cm**-1
  36:      1421.35 cm**-1
  37:      1457.13 cm**-1
  38:      1467.58 cm**-1
  39:      1473.57 cm**-1
  40:      1488.18 cm**-1
  41:      1494.88 cm**-1
  42:      1495.52 cm**-1
  43:      1506.21 cm**-1
  44:      1744.31 cm**-1
  45:      3051.25 cm**-1
  46:      3066.30 cm**-1
  47:      3068.95 cm**-1
  48:      3086.85 cm**-1
  49:      3109.23 cm**-1
  50:      3127.71 cm**-1
  51:      3128.27 cm**-1
  52:      3162.97 cm**-1
  53:      3184.63 cm**-1
  54:      3189.26 cm**-1
  55:      3242.57 cm**-1
  56:      3472.17 cm**-1

IR SPECTRUM
-----------

 Mode    freq (cm**-1)   T**2         TX         TY         TZ
-------------------------------------------------------------------
   6:        95.76    0.547491  ( -0.229273   0.016624   0.703312)
   7:       167.01    0.688185  ( -0.663214  -0.473080   0.156613)
   8:       236.02    1.857484  ( -1.263112  -0.297145   0.416818)
   9:       245.70    1.907811  ( -1.213052  -0.221709   0.622222)
  10:       269.65    1.590997  ( -1.049825  -0.699189  -0.000427)
  11:       376.21    1.017726  (  0.281227  -0.816128  -0.522085)
  12:       439.18    1.054137  (  0.627459   0.497192  -0.642831)
  13:       454.59    5.479375  (  2.100135   1.033756   0.012589)
  14:       544.13    2.319978  (  0.187121  -0.117887   1.507006)
  15:       662.10    1.848545  (  0.850432  -0.012755   1.060730)
  16:       814.14   18.581781  ( -4.208469  -0.856053   0.371140)
  17:       857.32    7.167673  (  1.574515   0.528755  -2.099760)
  18:       899.61    1.633457  (  0.148250   1.266802   0.081806)
  19:       945.06    6.510868  ( -1.110153   2.111365   0.905851)
  20:       962.89    1.252522  ( -0.987737   0.350948   0.392088)
  21:       997.82   11.162963  (  1.599242   2.188880  -1.952996)
  22:      1026.99    0.772116  ( -0.343665   0.408904   0.697716)
  23:      1048.72   11.697387  (  1.303616  -3.137298   0.394123)
  24:      1065.88    1.662216  (  1.037579  -0.742455   0.185491)
  25:      1089.14    9.595443  (  1.157938   0.421676   2.841973)
  26:      1134.34    9.465590  (  1.319175  -0.513568   2.731596)
  27:      1183.56    1.334667  (  0.311729  -1.072597  -0.295004)
  28:      1189.27    3.291937  ( -0.399892   1.628772   0.692188)
  29:      1241.83    1.812842  (  0.417419  -1.279168   0.048306)
  30:      1294.27    0.948916  (  0.769665   0.532870   0.269408)
  31:      1300.00    1.296654  ( -0.855497   0.679517  -0.320989)
  32:      1371.53    3.049173  (  0.520436  -1.654983   0.198371)
  33:      1382.17    3.157803  ( -0.593229  -0.027309  -1.674854)
  34:      1413.53   10.627088  (  1.093308  -3.026662   0.520654)
  35:      1416.89    2.703655  ( -0.768545   0.802917  -1.211742)
  36:      1421.35   25.656554  ( -0.747715  -2.075513  -4.559575)
  37:      1457.13    2.159529  ( -1.167332  -0.840117  -0.301775)
  38:      1467.58   14.688818  ( -3.274194  -1.564316   1.233445)
  39:      1473.57   11.595302  (  1.789497  -2.874215   0.363164)
  40:      1488.18    0.521620  ( -0.163936  -0.073224  -0.699559)
  41:      1494.88   32.530891  ( -0.839050   5.495975  -1.273242)
  42:      1495.52   28.043219  ( -2.544958   0.811106   4.572583)
  43:      1506.21   11.756330  ( -2.849154  -0.790600  -1.735972)
  44:      1744.31   11.453231  (  0.192859  -2.268176  -2.504279)
  45:      3051.25    1.282510  ( -0.131941   0.967070   0.574350)
  46:      3066.30    6.042830  ( -0.852681  -1.433519  -1.805765)
  47:      3068.95    4.208022  ( -1.003420   1.785670  -0.112040)
  48:      3086.85    0.302907  ( -0.303369   0.042950  -0.457197)
  49:      3109.23    1.976946  ( -1.263562  -0.582624   0.202252)
  50:      3127.71    0.741850  (  0.296909  -0.582117  -0.561101)
  51:      3128.27    0.442791  ( -0.162872  -0.612250   0.203504)
  52:      3162.97    1.751125  (  0.457604  -0.651883   1.056774)
  53:      3184.63    0.061639  ( -0.078874   0.233294   0.031499)
  54:      3189.26    0.222286  (  0.054721  -0.050794   0.465523)
  55:      3242.57    3.844354  ( -0.743100   1.753713  -0.465452)
  56:      3472.17   57.462905  ( -6.330863  -2.219154   3.529650)

--------------------------
THERMOCHEMISTRY AT 298.15K
--------------------------

Temperature         ... 298.15 K
Pressure            ... 1.00 atm
Total Mass          ... 98.17 AMU

Throughout the following assumptions are being made:
  (1) The electronic state is orbitally nondegenerate
  (2) There are no thermally accessible electronically excited states
  (3) Hindered rotations indicated by low frequency modes) are not
      treated as such but are treated as vibrations and this may
      case some error
  (4) All equations used are the standard statistical mechanics
      equations for an ideal gas
  (5) All vibrations are strinctly harmonic

------------
INNER ENERGY
------------

The inner energy is: U= E(el) + E(ZPE) + E(vib) + E(rot) + E(trans)
    E(el)   - is the total energy from the electronic structure calculation
              = E(kin-el) + E(nuc-el) + E(el-el) + E(nuc-nuc)
    E(ZPE)  - the the zero temperature vibrational energy from the frequency calculation
    E(vib)  - the the finite temperature correction to E(ZPE) due to population
              of excietd vibrational states
    E(rot)  - is the rotational thermal energy
    E(trans)- is the translational thermal energy

Summary of contributions to the inner energy U:
Electronic energy                ...   -290.11364443 Eh
Zero point energy                ...      0.17670423 Eh     110.88 kcal/mol
Thermal vibrational correction   ...      0.00460948 Eh       2.89 kcal/mol
Thermal rotational correction    ...      0.00141627 Eh       0.89 kcal/mol
Thermal translational correction ...      0.00141627 Eh       0.89 kcal/mol
-----------------------------------------------------------------------
Total thermal energy                   -289.92949818 Eh

Summary of corrections to the electronic energy:
(perhaps to be used in another calculation)
Total thermal correction                  0.00744202 Eh       4.67 kcal/mol
Non-thermal (ZPE) correction              0.17670423 Eh     110.88 kcal/mol
-----------------------------------------------------------------------
Total correction                          0.18414625 Eh     115.55 kcal/mol

--------
ENTHALPY
--------

The enthalpy is H = U + kB*T
                kB is Boltzmann's constant
Total free energy                 ...   -289.92949818 Eh
Thermal Enthalpy correction       ...      0.00094421 Eh       0.59 kcal/mol
-----------------------------------------------------------------------
Total Enthalpy                    ...   -289.92855398 Eh

-------
ENTROPY
-------

The entropy contributions are T*S = T*(S(el)+S(vib)+S(rot)+S(trans)
     S(el)   - electronic entropy
     S(vib)  - vibrational entropy
     S(rot)  - rotational entropy
     S(trans)- translational entropy
The entropies will be listed as mutliplied by the temperature to get
units of energy

Electronic entropy                ...      0.00000000 Eh      0.00 kcal/mol
Vibrational entropy               ...      0.00774922 Eh      4.86 kcal/mol
Rotational entropy                ...      0.01197459 Eh      7.51 kcal/mol
Translational entropy             ...      0.01884507 Eh     11.83 kcal/mol
-----------------------------------------------------------------------
Final entropy term                ...      0.03856888 Eh     24.20 kcal/mol

CAUTION: The rotational entropy is not quite correctly treated here
         because it includes a symmetry number that is not yet correctly
         implemented in ORCA!
For a nonlinear molecule the correct rotational entropy is:
    S(rot) = R*(ln(qrot/sn)+1.5)
    R    = 8.31441 J/mol/K = 1.987191683e-3 kcal/mol/K
    qrot = 215589.0764639
    sn is the rotational symmetry number. We have assumed 3 here
       if it is different for your molecule then you should correct
       the printed rotational entropy by manually evaluating the equation
       as given above

For convenience we print out the resulting values for sn=1 - 12:
 sn= 1  qrot/sn=  215589.0765 T*S(rot)=     8.17 kcal/mol T*S(tot)=    24.85 kcal/mol
 sn= 2  qrot/sn=  107794.5382 T*S(rot)=     7.75 kcal/mol T*S(tot)=    24.44 kcal/mol
 sn= 3  qrot/sn=   71863.0255 T*S(rot)=     7.51 kcal/mol T*S(tot)=    24.20 kcal/mol
 sn= 4  qrot/sn=   53897.2691 T*S(rot)=     7.34 kcal/mol T*S(tot)=    24.03 kcal/mol
 sn= 5  qrot/sn=   43117.8153 T*S(rot)=     7.21 kcal/mol T*S(tot)=    23.90 kcal/mol
 sn= 6  qrot/sn=   35931.5127 T*S(rot)=     7.10 kcal/mol T*S(tot)=    23.79 kcal/mol
 sn= 7  qrot/sn=   30798.4395 T*S(rot)=     7.01 kcal/mol T*S(tot)=    23.70 kcal/mol
 sn= 8  qrot/sn=   26948.6346 T*S(rot)=     6.93 kcal/mol T*S(tot)=    23.62 kcal/mol
 sn= 9  qrot/sn=   23954.3418 T*S(rot)=     6.86 kcal/mol T*S(tot)=    23.55 kcal/mol
 sn=10  qrot/sn=   21558.9076 T*S(rot)=     6.80 kcal/mol T*S(tot)=    23.49 kcal/mol
 sn=11  qrot/sn=   19599.0070 T*S(rot)=     6.74 kcal/mol T*S(tot)=    23.43 kcal/mol
 sn=12  qrot/sn=   17965.7564 T*S(rot)=     6.69 kcal/mol T*S(tot)=    23.38 kcal/mol

-------------------
GIBBS FREE ENTHALPY
-------------------

The Gibbs free enthalpy is G = H - T*S

Total enthalpy                    ...   -289.92855398 Eh
Total entropy correction          ...     -0.03856888 Eh    -24.20 kcal/mol
-----------------------------------------------------------------------
Final Gibbs free enthalpy         ...   -289.96712286 Eh

For completeness - the Gibbs free enthalpy minus the electronic energy
G-E(el)                           ...      0.14652157 Eh     91.94 kcal/mol

                             ****ORCA TERMINATED NORMALLY****
TOTAL RUN TIME: 0 days 0 hours 43 minutes 15 seconds 147 msec
