                         Program Version 3.0.3 - RELEASE   -
|  1> ! NORI PBE0 def2-TZVP UseSym TightOPT Freq TightSCF Grid3 FinalGrid5 XYZFile
|  2> % pal
|  3>     nprocs 8
|  4> end
|  5> %method
|  6>     SymThresh 5.0e-2
|  7> end
|  8> % geom
|  9>     MaxIter 10
| 10> end
| 11> % maxcore 2000
| 12> % output
| 13>     printlevel mini
| 14>     print[ P_Basis ] 0
| 15>     print[ P_SCFInfo ] 1
| 16>     print[ P_SCFIterInfo ] 1
| 17>     print[ P_OrbEn ] 0
| 18>     print[ P_Cartesian ] 0
| 19> end
| 20> % elprop
| 21>     Dipole false
| 22> end
| 23> *xyz 1 1
| 24>  C        0.9415717369     0.0162127986     0.2863162058
| 25>  N        2.4116599520     0.0010395094     0.1921015273
| 26>  C        3.2146136351     1.0551568160     0.9242365619
| 27>  C        4.2593037963    -0.0115242783     1.3221258179
| 28>  C        4.6832716415    -0.0075007629     2.7741739293
| 29>  C        5.4529796325    -0.0292458993     0.3807813356
| 30>  C        3.1930714948    -1.0609124428     0.9358493717
| 31>  H        0.5593661246     0.9083724727    -0.2091243167
| 32>  H        0.6600703588     0.0272857905     1.3379301533
| 33>  H        0.5420406839    -0.8760890314    -0.1950200209
| 34>  H        2.6817436470    -0.0070310820    -0.7902367163
| 35>  H        2.6170030102     1.4190070894     1.7598628641
| 36>  H        3.5178862937     1.8819788580     0.2831069816
| 37>  H        5.3006186290     0.8670415861     2.9915719735
| 38>  H        5.2809294787    -0.8928374211     3.0025940602
| 39>  H        3.8244405854     0.0064485051     3.4494940431
| 40>  H        5.1611493280    -0.0318954085    -0.6747202239
| 41>  H        6.0635669362    -0.9174168802     0.5560251321
| 42>  H        6.0824515889     0.8474302131     0.5465761239
| 43>  H        3.4792346672    -1.9008727127     0.3040097719
| 44>  H        2.5884867793    -1.4038877194     1.7753554244
| 45> *
| 46>
| 47>                          ****END OF INPUT****
 Total Charge           Charge          ....    1
 Multiplicity           Mult            ....    1
 Number of Electrons    NEL             ....   56
FINAL SINGLE POINT ENERGY      -291.313046435125
FINAL SINGLE POINT ENERGY      -291.313048629480
FINAL SINGLE POINT ENERGY      -291.313051390262
FINAL SINGLE POINT ENERGY      -291.313052148450

CARTESIAN COORDINATES (ANGSTROEM)
---------------------------------
  C      2.400734    0.950660    0.000011
  N      1.273717    0.001643    0.000001
  C      0.197314    0.120364    1.057406
  C     -0.880151   -0.209556   -0.000006
  C     -2.100694    0.683432    0.000003
  C     -1.252557   -1.683794   -0.000011
  C      0.197320    0.120359   -1.057418
  H      3.004925    0.789032    0.892383
  H      2.004246    1.964524   -0.000043
  H      3.005001    0.788966   -0.892298
  H      1.639589   -0.949349    0.000012
  H      0.171532    1.154142    1.402038
  H      0.345912   -0.558008    1.896531
  H     -2.717678    0.490585    0.880356
  H     -2.717722    0.490546   -0.880310
  H     -1.831046    1.742185   -0.000027
  H     -0.377281   -2.342156   -0.000106
  H     -1.847359   -1.927381   -0.882426
  H     -1.847204   -1.927428    0.882496
  H      0.345925   -0.558016   -1.896539
  H      0.171542    1.154136   -1.402054

FINAL SINGLE POINT ENERGY      -291.313052705968
                    ***********************HURRAY********************
 Multiplicity           Mult            ....    1
 Number of Electrons    NEL             ....   56
 Basis Dimension        Dim             ....  301
FINAL SINGLE POINT ENERGY      -291.313050341420

VIBRATIONAL FREQUENCIES
-----------------------

   0:         0.00 cm**-1
   1:         0.00 cm**-1
   2:         0.00 cm**-1
   3:         0.00 cm**-1
   4:         0.00 cm**-1
   5:         0.00 cm**-1
   6:        84.77 cm**-1
   7:       211.48 cm**-1
   8:       223.67 cm**-1
   9:       248.91 cm**-1
  10:       279.63 cm**-1
  11:       308.82 cm**-1
  12:       321.40 cm**-1
  13:       373.28 cm**-1
  14:       425.49 cm**-1
  15:       443.74 cm**-1
  16:       589.81 cm**-1
  17:       749.96 cm**-1
  18:       870.89 cm**-1
  19:       890.22 cm**-1
  20:       895.01 cm**-1
  21:       923.82 cm**-1
  22:       953.54 cm**-1
  23:       968.30 cm**-1
  24:      1010.22 cm**-1
  25:      1025.95 cm**-1
  26:      1070.28 cm**-1
  27:      1103.91 cm**-1
  28:      1109.68 cm**-1
  29:      1189.46 cm**-1
  30:      1221.66 cm**-1
  31:      1252.12 cm**-1
  32:      1282.49 cm**-1
  33:      1303.65 cm**-1
  34:      1322.02 cm**-1
  35:      1342.53 cm**-1
  36:      1363.14 cm**-1
  37:      1410.54 cm**-1
  38:      1428.65 cm**-1
  39:      1435.79 cm**-1
  40:      1454.48 cm**-1
  41:      1467.66 cm**-1
  42:      1477.75 cm**-1
  43:      1482.69 cm**-1
  44:      1488.63 cm**-1
  45:      1493.07 cm**-1
  46:      1496.21 cm**-1
  47:      1503.84 cm**-1
  48:      1506.11 cm**-1
  49:      3042.88 cm**-1
  50:      3055.14 cm**-1
  51:      3081.07 cm**-1
  52:      3103.07 cm**-1
  53:      3106.46 cm**-1
  54:      3117.39 cm**-1
  55:      3133.44 cm**-1
  56:      3136.92 cm**-1
  57:      3144.52 cm**-1
  58:      3176.22 cm**-1
  59:      3177.26 cm**-1
  60:      3178.45 cm**-1
  61:      3184.05 cm**-1
  62:      3491.10 cm**-1

IR SPECTRUM
-----------

 Mode    freq (cm**-1)   T**2         TX         TY         TZ
-------------------------------------------------------------------
   6:        84.77    0.755214  (  0.865947   0.073142  -0.000350)
   7:       211.48    0.022469  ( -0.000379  -0.002552  -0.149876)
   8:       223.67    0.043686  (  0.003023  -0.003159  -0.208965)
   9:       248.91    0.002800  (  0.003452   0.005554   0.052506)
  10:       279.63    0.587025  ( -0.001378  -0.005095   0.766158)
  11:       308.82    0.007094  (  0.000386   0.001317   0.084216)
  12:       321.40    1.891360  ( -1.148351  -0.756733   0.002057)
  13:       373.28    0.514826  (  0.649559  -0.304793  -0.000584)
  14:       425.49    0.076168  ( -0.001413   0.001494   0.275977)
  15:       443.74    0.248103  ( -0.487824  -0.100655   0.000141)
  16:       589.81    1.839083  ( -0.870793  -1.039615  -0.001725)
  17:       749.96    0.679639  (  0.411179  -0.714542  -0.000694)
  18:       870.89    4.580582  (  0.002033  -0.001630   2.140228)
  19:       890.22    3.791648  ( -1.841213  -0.633704   0.001493)
  20:       895.01    0.077924  ( -0.012620  -0.002460  -0.278852)
  21:       923.82   10.248243  (  0.001196  -0.000434   3.201287)
  22:       953.54    1.378481  (  0.476684  -1.072961   0.002940)
  23:       968.30    0.402756  ( -0.367499   0.517382  -0.004120)
  24:      1010.22    0.389320  ( -0.584825  -0.217389  -0.006410)
  25:      1025.95    2.512594  ( -0.005811   0.002476   1.585104)
  26:      1070.28   10.222248  (  3.196047  -0.086745  -0.002717)
  27:      1103.91    2.070551  ( -0.006040   0.000546  -1.438928)
  28:      1109.68   16.547896  ( -3.868679  -1.257457   0.004133)
  29:      1189.46    1.930109  ( -0.006963   0.003699   1.389261)
  30:      1221.66    0.494656  ( -0.007870  -0.002334   0.703270)
  31:      1252.12    1.867740  (  1.347771   0.226192   0.009470)
  32:      1282.49    0.334392  ( -0.505449  -0.280906   0.002384)
  33:      1303.65    1.865057  ( -0.000072   0.002446  -1.365669)
  34:      1322.02    3.197250  ( -0.055685  -1.787218   0.000934)
  35:      1342.53   16.402780  (  0.000577   0.000878   4.050034)
  36:      1363.14    5.777440  ( -2.386607  -0.285490  -0.006476)
  37:      1410.54   15.715622  (  0.191735  -3.959654  -0.000125)
  38:      1428.65    9.041460  (  2.848894   0.961891   0.005192)
  39:      1435.79   15.678662  ( -3.932419  -0.463384  -0.004529)
  40:      1454.48    2.033569  ( -0.221208  -1.408771   0.000637)
  41:      1467.66    3.114140  (  0.014961  -0.006224  -1.764618)
  42:      1477.75   17.375362  (  0.001027  -0.001770   4.168376)
  43:      1482.69    2.249008  (  0.532102  -1.402068   0.008981)
  44:      1488.63   15.456022  ( -0.013303   0.001620   3.931392)
  45:      1493.07   30.570600  (  4.991824  -2.377441  -0.008214)
  46:      1496.21   14.124128  ( -0.008377   0.012062  -3.758179)
  47:      1503.84    7.783941  ( -2.075332   1.864652  -0.003449)
  48:      1506.11   21.987722  (  3.002704   3.601581   0.010109)
  49:      3042.88   12.941468  ( -2.151127   2.883421   0.001821)
  50:      3055.14    3.035366  (  0.835812  -1.528654   0.000274)
  51:      3081.07    0.161808  (  0.280520   0.288300   0.000548)
  52:      3103.07    2.799265  ( -0.001317  -0.001319   1.673099)
  53:      3106.46    0.974000  ( -0.620868  -0.767149  -0.002395)
  54:      3117.39   13.677460  ( -3.570452   0.963987   0.007980)
  55:      3133.44   10.959290  ( -1.909676  -2.704150   0.001079)
  56:      3136.92    2.036597  ( -0.002854  -0.002038   1.427090)
  57:      3144.52    4.863847  (  0.009706  -0.001829   2.205391)
  58:      3176.22    0.275408  (  0.003087  -0.005898  -0.524751)
  59:      3177.26    0.876423  ( -0.262170  -0.898710  -0.003198)
  60:      3178.45    0.666098  ( -0.002922   0.007149  -0.816112)
  61:      3184.05    0.151859  ( -0.355585   0.159357  -0.004875)
  62:      3491.10   53.006114  ( -3.591161   6.333220   0.000961)

--------------------------
THERMOCHEMISTRY AT 298.15K
--------------------------

Temperature         ... 298.15 K
Pressure            ... 1.00 atm
Total Mass          ... 100.18 AMU

Throughout the following assumptions are being made:
  (1) The electronic state is orbitally nondegenerate
  (2) There are no thermally accessible electronically excited states
  (3) Hindered rotations indicated by low frequency modes) are not
      treated as such but are treated as vibrations and this may
      case some error
  (4) All equations used are the standard statistical mechanics
      equations for an ideal gas
  (5) All vibrations are strinctly harmonic

------------
INNER ENERGY
------------

The inner energy is: U= E(el) + E(ZPE) + E(vib) + E(rot) + E(trans)
    E(el)   - is the total energy from the electronic structure calculation
              = E(kin-el) + E(nuc-el) + E(el-el) + E(nuc-nuc)
    E(ZPE)  - the the zero temperature vibrational energy from the frequency calculation
    E(vib)  - the the finite temperature correction to E(ZPE) due to population
              of excietd vibrational states
    E(rot)  - is the rotational thermal energy
    E(trans)- is the translational thermal energy

Summary of contributions to the inner energy U:
Electronic energy                ...   -291.31305034 Eh
Zero point energy                ...      0.19850418 Eh     124.56 kcal/mol
Thermal vibrational correction   ...      0.00533682 Eh       3.35 kcal/mol
Thermal rotational correction    ...      0.00141627 Eh       0.89 kcal/mol
Thermal translational correction ...      0.00141627 Eh       0.89 kcal/mol
-----------------------------------------------------------------------
Total thermal energy                   -291.10637681 Eh

Summary of corrections to the electronic energy:
(perhaps to be used in another calculation)
Total thermal correction                  0.00816936 Eh       5.13 kcal/mol
Non-thermal (ZPE) correction              0.19850418 Eh     124.56 kcal/mol
-----------------------------------------------------------------------
Total correction                          0.20667354 Eh     129.69 kcal/mol

--------
ENTHALPY
--------

The enthalpy is H = U + kB*T
                kB is Boltzmann's constant
Total free energy                 ...   -291.10637681 Eh
Thermal Enthalpy correction       ...      0.00094421 Eh       0.59 kcal/mol
-----------------------------------------------------------------------
Total Enthalpy                    ...   -291.10543260 Eh

-------
ENTROPY
-------

The entropy contributions are T*S = T*(S(el)+S(vib)+S(rot)+S(trans)
     S(el)   - electronic entropy
     S(vib)  - vibrational entropy
     S(rot)  - rotational entropy
     S(trans)- translational entropy
The entropies will be listed as mutliplied by the temperature to get
units of energy

Electronic entropy                ...      0.00000000 Eh      0.00 kcal/mol
Vibrational entropy               ...      0.00889203 Eh      5.58 kcal/mol
Rotational entropy                ...      0.01203293 Eh      7.55 kcal/mol
Translational entropy             ...      0.01887386 Eh     11.84 kcal/mol
-----------------------------------------------------------------------
Final entropy term                ...      0.03979883 Eh     24.97 kcal/mol

CAUTION: The rotational entropy is not quite correctly treated here
         because it includes a symmetry number that is not yet correctly
         implemented in ORCA!
For a nonlinear molecule the correct rotational entropy is:
    S(rot) = R*(ln(qrot/sn)+1.5)
    R    = 8.31441 J/mol/K = 1.987191683e-3 kcal/mol/K
    qrot = 229330.8093802
    sn is the rotational symmetry number. We have assumed 3 here
       if it is different for your molecule then you should correct
       the printed rotational entropy by manually evaluating the equation
       as given above

For convenience we print out the resulting values for sn=1 - 12:
 sn= 1  qrot/sn=  229330.8094 T*S(rot)=     8.20 kcal/mol T*S(tot)=    25.62 kcal/mol
 sn= 2  qrot/sn=  114665.4047 T*S(rot)=     7.79 kcal/mol T*S(tot)=    25.21 kcal/mol
 sn= 3  qrot/sn=   76443.6031 T*S(rot)=     7.55 kcal/mol T*S(tot)=    24.97 kcal/mol
 sn= 4  qrot/sn=   57332.7023 T*S(rot)=     7.38 kcal/mol T*S(tot)=    24.80 kcal/mol
 sn= 5  qrot/sn=   45866.1619 T*S(rot)=     7.25 kcal/mol T*S(tot)=    24.67 kcal/mol
 sn= 6  qrot/sn=   38221.8016 T*S(rot)=     7.14 kcal/mol T*S(tot)=    24.56 kcal/mol
 sn= 7  qrot/sn=   32761.5442 T*S(rot)=     7.05 kcal/mol T*S(tot)=    24.47 kcal/mol
 sn= 8  qrot/sn=   28666.3512 T*S(rot)=     6.97 kcal/mol T*S(tot)=    24.39 kcal/mol
 sn= 9  qrot/sn=   25481.2010 T*S(rot)=     6.90 kcal/mol T*S(tot)=    24.32 kcal/mol
 sn=10  qrot/sn=   22933.0809 T*S(rot)=     6.84 kcal/mol T*S(tot)=    24.26 kcal/mol
 sn=11  qrot/sn=   20848.2554 T*S(rot)=     6.78 kcal/mol T*S(tot)=    24.20 kcal/mol
 sn=12  qrot/sn=   19110.9008 T*S(rot)=     6.73 kcal/mol T*S(tot)=    24.15 kcal/mol

-------------------
GIBBS FREE ENTHALPY
-------------------

The Gibbs free enthalpy is G = H - T*S

Total enthalpy                    ...   -291.10543260 Eh
Total entropy correction          ...     -0.03979883 Eh    -24.97 kcal/mol
-----------------------------------------------------------------------
Final Gibbs free enthalpy         ...   -291.14523142 Eh

For completeness - the Gibbs free enthalpy minus the electronic energy
G-E(el)                           ...      0.16781892 Eh    105.31 kcal/mol

                             ****ORCA TERMINATED NORMALLY****
TOTAL RUN TIME: 0 days 0 hours 55 minutes 38 seconds 895 msec
