                         Program Version 3.0.3 - RELEASE   -
|  1> ! NORI PBE0 def2-TZVP UseSym TightOPT Freq TightSCF Grid3 FinalGrid5 XYZFile
|  2> % pal
|  3>     nprocs 8
|  4> end
|  5> %method
|  6>     SymThresh 5.0e-2
|  7> end
|  8> % geom
|  9>     MaxIter 10
| 10> end
| 11> % maxcore 2000
| 12> % output
| 13>     printlevel mini
| 14>     print[ P_Basis ] 0
| 15>     print[ P_SCFInfo ] 1
| 16>     print[ P_SCFIterInfo ] 1
| 17>     print[ P_OrbEn ] 0
| 18>     print[ P_Cartesian ] 0
| 19> end
| 20> % elprop
| 21>     Dipole false
| 22> end
| 23> *xyz 1 1
| 24>  C        0.9493278472    -0.0354281055    -0.4500780069
| 25>  N        2.2975854557    -0.0961965088     0.1753100339
| 26>  C        3.1392133680     1.1126741182    -0.1312604150
| 27>  C        3.4151553783     1.2161186012    -1.6152783874
| 28>  C        3.7890625472    -0.1050865973    -2.2018334649
| 29>  C        3.6264396968    -1.2520880059    -1.5560240845
| 30>  C        3.0359678866    -1.3507477393    -0.1892247952
| 31>  H        0.3447478767    -0.8508224350    -0.0560149601
| 32>  H        1.0553696220    -0.1428596426    -1.5267823294
| 33>  H        0.4877902476     0.9203956498    -0.2060600638
| 34>  H        2.1584933840    -0.1120513463     1.1853789646
| 35>  H        2.6127324073     1.9844444787     0.2583861903
| 36>  H        4.0657701864     0.9831414068     0.4305258102
| 37>  H        2.5636299613     1.6483729931    -2.1532720645
| 38>  H        4.2316878762     1.9315208804    -1.7513879987
| 39>  H        4.2023575886    -0.1072645708    -3.2039391073
| 40>  H        3.9212196187    -2.1929881096    -2.0059792186
| 41>  H        3.8025002137    -1.5097748000     0.5752560289
| 42>  H        2.3240388376    -2.1762802671    -0.1183721316
| 43> *
| 44>
| 45>                          ****END OF INPUT****
 Total Charge           Charge          ....    1
 Multiplicity           Mult            ....    1
 Number of Electrons    NEL             ....   54
FINAL SINGLE POINT ENERGY      -290.111067896292

CARTESIAN COORDINATES (ANGSTROEM)
---------------------------------
  C      1.483338   -0.000187    1.244455
  N     -0.000283    0.000019    1.134558
  C     -0.532984   -1.211142    0.418803
  C     -0.047894   -1.248753   -1.013654
  C     -0.146543    0.090484   -1.666291
  C     -0.368064    1.208254   -0.987550
  C     -0.521399    1.253922    0.495864
  H      1.784091    0.808249    1.908711
  H      1.909820    0.156990    0.256977
  H      1.808462   -0.956079    1.652031
  H     -0.370921   -0.030182    2.084066
  H     -0.224943   -2.088351    0.988343
  H     -1.620533   -1.130062    0.461227
  H      0.975832   -1.634519   -1.081004
  H     -0.662800   -1.975094   -1.552871
  H     -0.020550    0.131987   -2.742387
  H     -0.447434    2.163029   -1.494447
  H     -1.568920    1.358972    0.794459
  H      0.030046    2.090404    0.930701

FINAL SINGLE POINT ENERGY      -290.111068717970
                    ***********************HURRAY********************
 Multiplicity           Mult            ....    1
 Number of Electrons    NEL             ....   54
 Basis Dimension        Dim             ....  289
FINAL SINGLE POINT ENERGY      -290.111068939735

VIBRATIONAL FREQUENCIES
-----------------------

   0:         0.00 cm**-1
   1:         0.00 cm**-1
   2:         0.00 cm**-1
   3:         0.00 cm**-1
   4:         0.00 cm**-1
   5:         0.00 cm**-1
   6:       155.01 cm**-1
   7:       198.02 cm**-1
   8:       239.19 cm**-1
   9:       369.65 cm**-1
  10:       374.08 cm**-1
  11:       409.57 cm**-1
  12:       534.93 cm**-1
  13:       554.19 cm**-1
  14:       677.74 cm**-1
  15:       779.09 cm**-1
  16:       787.13 cm**-1
  17:       892.88 cm**-1
  18:       918.57 cm**-1
  19:       935.96 cm**-1
  20:       995.27 cm**-1
  21:      1009.61 cm**-1
  22:      1022.40 cm**-1
  23:      1032.52 cm**-1
  24:      1074.45 cm**-1
  25:      1094.03 cm**-1
  26:      1142.41 cm**-1
  27:      1170.30 cm**-1
  28:      1201.65 cm**-1
  29:      1260.88 cm**-1
  30:      1268.66 cm**-1
  31:      1322.06 cm**-1
  32:      1349.81 cm**-1
  33:      1377.17 cm**-1
  34:      1395.90 cm**-1
  35:      1412.69 cm**-1
  36:      1446.74 cm**-1
  37:      1453.61 cm**-1
  38:      1459.79 cm**-1
  39:      1468.51 cm**-1
  40:      1480.93 cm**-1
  41:      1489.23 cm**-1
  42:      1501.84 cm**-1
  43:      1508.91 cm**-1
  44:      1747.12 cm**-1
  45:      3052.80 cm**-1
  46:      3068.71 cm**-1
  47:      3091.35 cm**-1
  48:      3093.20 cm**-1
  49:      3101.33 cm**-1
  50:      3120.74 cm**-1
  51:      3153.71 cm**-1
  52:      3186.94 cm**-1
  53:      3199.89 cm**-1
  54:      3202.44 cm**-1
  55:      3216.50 cm**-1
  56:      3476.88 cm**-1

IR SPECTRUM
-----------

 Mode    freq (cm**-1)   T**2         TX         TY         TZ
-------------------------------------------------------------------
   6:       155.01    0.757538  ( -0.413024  -0.394657  -0.656655)
   7:       198.02    0.377991  ( -0.029275   0.488860  -0.371685)
   8:       239.19    0.044063  (  0.085991  -0.099500   0.163612)
   9:       369.65    0.328473  (  0.503526   0.031268   0.271950)
  10:       374.08    0.223857  (  0.394846   0.150961   0.212519)
  11:       409.57    0.270022  (  0.168798  -0.362832   0.331485)
  12:       534.93    1.115216  ( -0.911154   0.043625  -0.532082)
  13:       554.19    0.993812  (  0.936009  -0.240375  -0.244783)
  14:       677.74   44.494276  ( -6.619334  -0.213972  -0.795555)
  15:       779.09    2.462884  (  0.183443   0.008499   1.558577)
  16:       787.13    5.164447  ( -2.014258  -0.661009   0.818707)
  17:       892.88    0.702064  (  0.223720   0.409558   0.695899)
  18:       918.57    1.579521  (  0.670487  -0.525394  -0.924083)
  19:       935.96    3.695111  (  0.672349   1.038229   1.471441)
  20:       995.27    3.656633  ( -0.677212  -1.506203  -0.964038)
  21:      1009.61    8.791481  (  2.699903  -0.930608   0.797480)
  22:      1022.40    5.241875  ( -1.958755   0.572158  -1.038166)
  23:      1032.52   15.439363  (  0.563078   3.830925   0.668072)
  24:      1074.45    7.729142  (  2.556013  -1.029666   0.368410)
  25:      1094.03    0.971832  (  0.437761  -0.186145   0.863451)
  26:      1142.41    6.962602  (  2.029243   0.228428   1.671106)
  27:      1170.30    1.950538  (  1.019554   0.504736   0.810117)
  28:      1201.65    0.370506  ( -0.606840  -0.000399  -0.047441)
  29:      1260.88    1.322049  ( -0.924801  -0.683173  -0.008186)
  30:      1268.66    2.427515  ( -0.572173  -1.403383  -0.361456)
  31:      1322.06    3.155385  ( -0.545298  -1.686255   0.120749)
  32:      1349.81    7.182609  (  0.044257   2.550131  -0.823094)
  33:      1377.17    2.374567  ( -0.112507  -1.281373  -0.848523)
  34:      1395.90    7.805283  ( -2.443080  -0.057466  -1.354009)
  35:      1412.69    2.440266  (  0.034874  -1.278500   0.896932)
  36:      1446.74   15.283967  ( -3.681137  -1.268584   0.351982)
  37:      1453.61    4.308083  ( -0.380107   2.017008   0.308673)
  38:      1459.79   11.159688  ( -1.655570   2.716340   1.019938)
  39:      1468.51   24.013511  ( -2.538337   3.336210   2.537727)
  40:      1480.93   17.578668  (  0.527981  -4.140682  -0.393269)
  41:      1489.23   12.283018  (  2.332915   1.329856   2.252112)
  42:      1501.84   10.017962  ( -0.620235  -3.099252  -0.167058)
  43:      1508.91   26.694299  (  1.252462   1.172744  -4.873429)
  44:      1747.12    2.722290  (  0.180297  -1.614079  -0.290746)
  45:      3052.80    3.505909  ( -1.529645   1.079512   0.027377)
  46:      3068.71    3.370627  ( -0.601677   0.994704   1.420977)
  47:      3091.35    1.074869  (  0.825210   0.348723  -0.521815)
  48:      3093.20    0.846667  (  0.050893  -0.478981   0.783999)
  49:      3101.33    1.841498  (  0.788747   0.359174  -1.044208)
  50:      3120.74    0.266433  (  0.195949   0.382285   0.286173)
  51:      3153.71    1.014283  (  0.511864  -0.682292   0.535496)
  52:      3186.94    0.008206  ( -0.016847  -0.040668   0.079175)
  53:      3199.89    1.014536  ( -0.099587   1.001842   0.030520)
  54:      3202.44    0.109703  ( -0.042304   0.253556  -0.208862)
  55:      3216.50    0.389527  (  0.023554   0.449605  -0.432236)
  56:      3476.88   61.071853  (  2.641572   0.156122  -7.353202)

--------------------------
THERMOCHEMISTRY AT 298.15K
--------------------------

Temperature         ... 298.15 K
Pressure            ... 1.00 atm
Total Mass          ... 98.17 AMU

Throughout the following assumptions are being made:
  (1) The electronic state is orbitally nondegenerate
  (2) There are no thermally accessible electronically excited states
  (3) Hindered rotations indicated by low frequency modes) are not
      treated as such but are treated as vibrations and this may
      case some error
  (4) All equations used are the standard statistical mechanics
      equations for an ideal gas
  (5) All vibrations are strinctly harmonic

------------
INNER ENERGY
------------

The inner energy is: U= E(el) + E(ZPE) + E(vib) + E(rot) + E(trans)
    E(el)   - is the total energy from the electronic structure calculation
              = E(kin-el) + E(nuc-el) + E(el-el) + E(nuc-nuc)
    E(ZPE)  - the the zero temperature vibrational energy from the frequency calculation
    E(vib)  - the the finite temperature correction to E(ZPE) due to population
              of excietd vibrational states
    E(rot)  - is the rotational thermal energy
    E(trans)- is the translational thermal energy

Summary of contributions to the inner energy U:
Electronic energy                ...   -290.11106894 Eh
Zero point energy                ...      0.17878376 Eh     112.19 kcal/mol
Thermal vibrational correction   ...      0.00386678 Eh       2.43 kcal/mol
Thermal rotational correction    ...      0.00141627 Eh       0.89 kcal/mol
Thermal translational correction ...      0.00141627 Eh       0.89 kcal/mol
-----------------------------------------------------------------------
Total thermal energy                   -289.92558586 Eh

Summary of corrections to the electronic energy:
(perhaps to be used in another calculation)
Total thermal correction                  0.00669932 Eh       4.20 kcal/mol
Non-thermal (ZPE) correction              0.17878376 Eh     112.19 kcal/mol
-----------------------------------------------------------------------
Total correction                          0.18548308 Eh     116.39 kcal/mol

--------
ENTHALPY
--------

The enthalpy is H = U + kB*T
                kB is Boltzmann's constant
Total free energy                 ...   -289.92558586 Eh
Thermal Enthalpy correction       ...      0.00094421 Eh       0.59 kcal/mol
-----------------------------------------------------------------------
Total Enthalpy                    ...   -289.92464165 Eh

-------
ENTROPY
-------

The entropy contributions are T*S = T*(S(el)+S(vib)+S(rot)+S(trans)
     S(el)   - electronic entropy
     S(vib)  - vibrational entropy
     S(rot)  - rotational entropy
     S(trans)- translational entropy
The entropies will be listed as mutliplied by the temperature to get
units of energy

Electronic entropy                ...      0.00000000 Eh      0.00 kcal/mol
Vibrational entropy               ...      0.00609405 Eh      3.82 kcal/mol
Rotational entropy                ...      0.01182709 Eh      7.42 kcal/mol
Translational entropy             ...      0.01884507 Eh     11.83 kcal/mol
-----------------------------------------------------------------------
Final entropy term                ...      0.03676621 Eh     23.07 kcal/mol

CAUTION: The rotational entropy is not quite correctly treated here
         because it includes a symmetry number that is not yet correctly
         implemented in ORCA!
For a nonlinear molecule the correct rotational entropy is:
    S(rot) = R*(ln(qrot/sn)+1.5)
    R    = 8.31441 J/mol/K = 1.987191683e-3 kcal/mol/K
    qrot = 184409.3771278
    sn is the rotational symmetry number. We have assumed 3 here
       if it is different for your molecule then you should correct
       the printed rotational entropy by manually evaluating the equation
       as given above

For convenience we print out the resulting values for sn=1 - 12:
 sn= 1  qrot/sn=  184409.3771 T*S(rot)=     8.07 kcal/mol T*S(tot)=    23.72 kcal/mol
 sn= 2  qrot/sn=   92204.6886 T*S(rot)=     7.66 kcal/mol T*S(tot)=    23.31 kcal/mol
 sn= 3  qrot/sn=   61469.7924 T*S(rot)=     7.42 kcal/mol T*S(tot)=    23.07 kcal/mol
 sn= 4  qrot/sn=   46102.3443 T*S(rot)=     7.25 kcal/mol T*S(tot)=    22.90 kcal/mol
 sn= 5  qrot/sn=   36881.8754 T*S(rot)=     7.12 kcal/mol T*S(tot)=    22.77 kcal/mol
 sn= 6  qrot/sn=   30734.8962 T*S(rot)=     7.01 kcal/mol T*S(tot)=    22.66 kcal/mol
 sn= 7  qrot/sn=   26344.1967 T*S(rot)=     6.92 kcal/mol T*S(tot)=    22.57 kcal/mol
 sn= 8  qrot/sn=   23051.1721 T*S(rot)=     6.84 kcal/mol T*S(tot)=    22.49 kcal/mol
 sn= 9  qrot/sn=   20489.9308 T*S(rot)=     6.77 kcal/mol T*S(tot)=    22.42 kcal/mol
 sn=10  qrot/sn=   18440.9377 T*S(rot)=     6.71 kcal/mol T*S(tot)=    22.36 kcal/mol
 sn=11  qrot/sn=   16764.4888 T*S(rot)=     6.65 kcal/mol T*S(tot)=    22.30 kcal/mol
 sn=12  qrot/sn=   15367.4481 T*S(rot)=     6.60 kcal/mol T*S(tot)=    22.25 kcal/mol

-------------------
GIBBS FREE ENTHALPY
-------------------

The Gibbs free enthalpy is G = H - T*S

Total enthalpy                    ...   -289.92464165 Eh
Total entropy correction          ...     -0.03676621 Eh    -23.07 kcal/mol
-----------------------------------------------------------------------
Final Gibbs free enthalpy         ...   -289.96140786 Eh

For completeness - the Gibbs free enthalpy minus the electronic energy
G-E(el)                           ...      0.14966108 Eh     93.91 kcal/mol

                             ****ORCA TERMINATED NORMALLY****
TOTAL RUN TIME: 0 days 0 hours 47 minutes 25 seconds 319 msec
