                         Program Version 3.0.3 - RELEASE   -
|  1> ! NORI PBE0 def2-TZVP UseSym TightOPT Freq TightSCF Grid3 FinalGrid5 XYZFile
|  2> % pal
|  3>     nprocs 8
|  4> end
|  5> %method
|  6>     SymThresh 5.0e-2
|  7> end
|  8> % geom
|  9>     MaxIter 10
| 10> end
| 11> % maxcore 2000
| 12> % output
| 13>     printlevel mini
| 14>     print[ P_Basis ] 0
| 15>     print[ P_SCFInfo ] 1
| 16>     print[ P_SCFIterInfo ] 1
| 17>     print[ P_OrbEn ] 0
| 18>     print[ P_Cartesian ] 0
| 19> end
| 20> % elprop
| 21>     Dipole false
| 22> end
| 23> *xyz 1 1
| 24>  C        1.1073803749    -0.0706498020    -0.1210332646
| 25>  N        2.5539116804    -0.1041920663     0.1903563483
| 26>  C        3.0513295267     1.0647707979     0.9948773628
| 27>  C        4.4290970363     0.6245249037     1.4636120670
| 28>  C        4.3479798636    -0.8871244173     1.5070312874
| 29>  C        5.2826689182    -1.7243623811     1.9233087996
| 30>  C        3.0063227809    -1.3021555280     0.9720699030
| 31>  H        0.8454381099    -0.9506280489    -0.7070998233
| 32>  H        0.8840066672     0.8325269773    -0.6875123002
| 33>  H        0.5515093798    -0.0689791488     0.8149482931
| 34>  H        3.0697711587    -0.1068709312    -0.6916070212
| 35>  H        2.3504235734     1.1823831903     1.8226755939
| 36>  H        3.0293880742     1.9625700061     0.3785276512
| 37>  H        4.6688352541     1.0591772030     2.4346979317
| 38>  H        5.2043118140     0.9500020566     0.7645730769
| 39>  H        5.1430481501    -2.7990318411     1.8905140296
| 40>  H        6.2234536180    -1.3640500921     2.3220022238
| 41>  H        3.0153123118    -2.1826352163     0.3298606027
| 42>  H        2.2677017078    -1.4472756617     1.7657972384
| 43> *
| 44>
| 45>                          ****END OF INPUT****
 Total Charge           Charge          ....    1
 Multiplicity           Mult            ....    1
 Number of Electrons    NEL             ....   54
FINAL SINGLE POINT ENERGY      -290.106428068559

CARTESIAN COORDINATES (ANGSTROEM)
---------------------------------
  C      0.814456   -0.000068    2.360080
  N      0.000201    0.000016    1.124172
  C     -0.127796    1.340619    0.455101
  C     -0.684584    1.009963   -0.920512
  C     -0.208877   -0.402260   -1.191084
  C     -0.384211   -1.104930   -2.297116
  C      0.500083   -0.903275    0.035573
  H      0.843687   -1.008184    2.770738
  H      0.368611    0.682240    3.082266
  H      1.822089    0.328857    2.111461
  H     -0.943260   -0.310431    1.364206
  H      0.881702    1.751829    0.405456
  H     -0.748369    1.992215    1.068681
  H     -0.330172    1.721609   -1.667039
  H     -1.776987    1.056957   -0.923613
  H     -0.029878   -2.125189   -2.388088
  H     -0.883980   -0.680762   -3.159898
  H      0.299907   -1.942610    0.294765
  H      1.582287   -0.751173   -0.016780

FINAL SINGLE POINT ENERGY      -290.106428839664
                    ***********************HURRAY********************
 Multiplicity           Mult            ....    1
 Number of Electrons    NEL             ....   54
 Basis Dimension        Dim             ....  289
FINAL SINGLE POINT ENERGY      -290.106429181548

VIBRATIONAL FREQUENCIES
-----------------------

   0:         0.00 cm**-1
   1:         0.00 cm**-1
   2:         0.00 cm**-1
   3:         0.00 cm**-1
   4:         0.00 cm**-1
   5:         0.00 cm**-1
   6:        52.33 cm**-1
   7:       170.78 cm**-1
   8:       228.17 cm**-1
   9:       274.50 cm**-1
  10:       391.76 cm**-1
  11:       423.14 cm**-1
  12:       445.20 cm**-1
  13:       545.62 cm**-1
  14:       595.24 cm**-1
  15:       694.42 cm**-1
  16:       809.17 cm**-1
  17:       852.16 cm**-1
  18:       887.13 cm**-1
  19:       939.16 cm**-1
  20:       968.37 cm**-1
  21:       982.16 cm**-1
  22:       989.93 cm**-1
  23:      1029.04 cm**-1
  24:      1037.83 cm**-1
  25:      1079.29 cm**-1
  26:      1126.42 cm**-1
  27:      1168.90 cm**-1
  28:      1185.94 cm**-1
  29:      1250.36 cm**-1
  30:      1277.35 cm**-1
  31:      1301.96 cm**-1
  32:      1332.10 cm**-1
  33:      1344.79 cm**-1
  34:      1373.26 cm**-1
  35:      1407.65 cm**-1
  36:      1434.95 cm**-1
  37:      1454.21 cm**-1
  38:      1459.61 cm**-1
  39:      1477.26 cm**-1
  40:      1479.48 cm**-1
  41:      1492.05 cm**-1
  42:      1496.57 cm**-1
  43:      1508.41 cm**-1
  44:      1757.14 cm**-1
  45:      3072.56 cm**-1
  46:      3077.16 cm**-1
  47:      3086.67 cm**-1
  48:      3101.13 cm**-1
  49:      3133.44 cm**-1
  50:      3151.58 cm**-1
  51:      3168.09 cm**-1
  52:      3169.65 cm**-1
  53:      3186.12 cm**-1
  54:      3187.05 cm**-1
  55:      3258.15 cm**-1
  56:      3454.99 cm**-1

IR SPECTRUM
-----------

 Mode    freq (cm**-1)   T**2         TX         TY         TZ
-------------------------------------------------------------------
   6:        52.33    0.519896  (  0.048390   0.406435   0.593603)
   7:       170.78    0.594131  (  0.118361   0.219168  -0.729443)
   8:       228.17    0.053612  ( -0.052367   0.218456   0.056092)
   9:       274.50    0.226276  ( -0.109037   0.428092  -0.176421)
  10:       391.76    0.303970  ( -0.195656   0.113305   0.502843)
  11:       423.14   13.112700  ( -3.320273  -1.247666   0.729258)
  12:       445.20    0.311639  (  0.245253   0.047212   0.499261)
  13:       545.62    6.095032  (  0.510802   0.091815  -2.413645)
  14:       595.24    1.256932  ( -0.598049   0.899552   0.300127)
  15:       694.42    0.386522  (  0.132700  -0.568698  -0.213296)
  16:       809.17    2.668216  (  0.344545  -1.539549  -0.423430)
  17:       852.16    3.936188  (  0.136060   0.272122  -1.960517)
  18:       887.13    5.408970  ( -0.831199   0.089685   2.170261)
  19:       939.16    3.201842  (  0.496503  -1.082910  -1.335153)
  20:       968.37   21.365643  ( -3.980079   1.297148   1.960108)
  21:       982.16   12.243740  ( -2.071886  -2.313022   1.612748)
  22:       989.93   15.236725  (  3.151690   2.294029  -0.202498)
  23:      1029.04    4.589390  (  0.182065  -1.779373   1.179013)
  24:      1037.83    0.403461  ( -0.626598  -0.040567   0.095866)
  25:      1079.29    7.691993  (  1.682200   0.353433   2.176530)
  26:      1126.42   17.262664  (  1.061808  -1.246010   3.818728)
  27:      1168.90    0.766242  (  0.230813  -0.836369   0.115992)
  28:      1185.94    0.233814  (  0.057611  -0.387195   0.283857)
  29:      1250.36    3.534731  ( -0.222382   1.630747   0.908813)
  30:      1277.35    1.490510  ( -0.457766   1.096368   0.280957)
  31:      1301.96    0.822750  ( -0.802416   0.126564   0.403560)
  32:      1332.10    1.637796  (  0.953947   0.846693  -0.104368)
  33:      1344.79    0.521495  (  0.542051   0.372216   0.298549)
  34:      1373.26    1.140486  ( -0.041496   0.677378  -0.824574)
  35:      1407.65   15.655466  ( -0.934328   3.677852   1.120670)
  36:      1434.95   23.334823  ( -1.570893   0.106987  -4.566801)
  37:      1454.21    4.266811  (  0.305841  -1.247125  -1.618008)
  38:      1459.61    9.419304  (  1.191690   1.577835   2.347257)
  39:      1477.26    7.617329  (  1.511196  -1.657896   1.607793)
  40:      1479.48   11.874991  (  2.119265  -1.189185   2.443266)
  41:      1492.05   21.875742  ( -1.458074   4.397580  -0.641135)
  42:      1496.57   29.382875  (  3.082929  -0.194782  -4.454265)
  43:      1508.41   18.992235  ( -3.334784  -2.324508  -1.571022)
  44:      1757.14    3.841978  (  0.233192   1.277471   1.468219)
  45:      3072.56    1.838412  (  0.859487   0.065380   1.046623)
  46:      3077.16    0.802906  ( -0.814314   0.308322   0.211510)
  47:      3086.67    0.136242  (  0.154787  -0.026015   0.334075)
  48:      3101.13    2.417811  ( -1.031977  -0.567596  -1.015219)
  49:      3133.44    0.307643  ( -0.010780   0.065987   0.550611)
  50:      3151.58    0.104916  (  0.292226  -0.138659   0.017140)
  51:      3168.09    0.484194  (  0.308519  -0.477055  -0.401782)
  52:      3169.65    0.440429  ( -0.241326  -0.081564  -0.612812)
  53:      3186.12    0.029433  ( -0.051551   0.120678  -0.110508)
  54:      3187.05    0.300791  (  0.016590   0.005718   0.548164)
  55:      3258.15    0.045933  ( -0.069963  -0.107214  -0.171883)
  56:      3454.99   50.201219  ( -6.189056  -2.049947   2.773900)

--------------------------
THERMOCHEMISTRY AT 298.15K
--------------------------

Temperature         ... 298.15 K
Pressure            ... 1.00 atm
Total Mass          ... 98.17 AMU

Throughout the following assumptions are being made:
  (1) The electronic state is orbitally nondegenerate
  (2) There are no thermally accessible electronically excited states
  (3) Hindered rotations indicated by low frequency modes) are not
      treated as such but are treated as vibrations and this may
      case some error
  (4) All equations used are the standard statistical mechanics
      equations for an ideal gas
  (5) All vibrations are strinctly harmonic

------------
INNER ENERGY
------------

The inner energy is: U= E(el) + E(ZPE) + E(vib) + E(rot) + E(trans)
    E(el)   - is the total energy from the electronic structure calculation
              = E(kin-el) + E(nuc-el) + E(el-el) + E(nuc-nuc)
    E(ZPE)  - the the zero temperature vibrational energy from the frequency calculation
    E(vib)  - the the finite temperature correction to E(ZPE) due to population
              of excietd vibrational states
    E(rot)  - is the rotational thermal energy
    E(trans)- is the translational thermal energy

Summary of contributions to the inner energy U:
Electronic energy                ...   -290.10642918 Eh
Zero point energy                ...      0.17717399 Eh     111.18 kcal/mol
Thermal vibrational correction   ...      0.00438314 Eh       2.75 kcal/mol
Thermal rotational correction    ...      0.00141627 Eh       0.89 kcal/mol
Thermal translational correction ...      0.00141627 Eh       0.89 kcal/mol
-----------------------------------------------------------------------
Total thermal energy                   -289.92203951 Eh

Summary of corrections to the electronic energy:
(perhaps to be used in another calculation)
Total thermal correction                  0.00721569 Eh       4.53 kcal/mol
Non-thermal (ZPE) correction              0.17717399 Eh     111.18 kcal/mol
-----------------------------------------------------------------------
Total correction                          0.18438967 Eh     115.71 kcal/mol

--------
ENTHALPY
--------

The enthalpy is H = U + kB*T
                kB is Boltzmann's constant
Total free energy                 ...   -289.92203951 Eh
Thermal Enthalpy correction       ...      0.00094421 Eh       0.59 kcal/mol
-----------------------------------------------------------------------
Total Enthalpy                    ...   -289.92109530 Eh

-------
ENTROPY
-------

The entropy contributions are T*S = T*(S(el)+S(vib)+S(rot)+S(trans)
     S(el)   - electronic entropy
     S(vib)  - vibrational entropy
     S(rot)  - rotational entropy
     S(trans)- translational entropy
The entropies will be listed as mutliplied by the temperature to get
units of energy

Electronic entropy                ...      0.00000000 Eh      0.00 kcal/mol
Vibrational entropy               ...      0.00770956 Eh      4.84 kcal/mol
Rotational entropy                ...      0.01196214 Eh      7.51 kcal/mol
Translational entropy             ...      0.01884507 Eh     11.83 kcal/mol
-----------------------------------------------------------------------
Final entropy term                ...      0.03851677 Eh     24.17 kcal/mol

CAUTION: The rotational entropy is not quite correctly treated here
         because it includes a symmetry number that is not yet correctly
         implemented in ORCA!
For a nonlinear molecule the correct rotational entropy is:
    S(rot) = R*(ln(qrot/sn)+1.5)
    R    = 8.31441 J/mol/K = 1.987191683e-3 kcal/mol/K
    qrot = 212764.4826392
    sn is the rotational symmetry number. We have assumed 3 here
       if it is different for your molecule then you should correct
       the printed rotational entropy by manually evaluating the equation
       as given above

For convenience we print out the resulting values for sn=1 - 12:
 sn= 1  qrot/sn=  212764.4826 T*S(rot)=     8.16 kcal/mol T*S(tot)=    24.82 kcal/mol
 sn= 2  qrot/sn=  106382.2413 T*S(rot)=     7.75 kcal/mol T*S(tot)=    24.41 kcal/mol
 sn= 3  qrot/sn=   70921.4942 T*S(rot)=     7.51 kcal/mol T*S(tot)=    24.17 kcal/mol
 sn= 4  qrot/sn=   53191.1207 T*S(rot)=     7.34 kcal/mol T*S(tot)=    24.00 kcal/mol
 sn= 5  qrot/sn=   42552.8965 T*S(rot)=     7.20 kcal/mol T*S(tot)=    23.87 kcal/mol
 sn= 6  qrot/sn=   35460.7471 T*S(rot)=     7.10 kcal/mol T*S(tot)=    23.76 kcal/mol
 sn= 7  qrot/sn=   30394.9261 T*S(rot)=     7.00 kcal/mol T*S(tot)=    23.67 kcal/mol
 sn= 8  qrot/sn=   26595.5603 T*S(rot)=     6.93 kcal/mol T*S(tot)=    23.59 kcal/mol
 sn= 9  qrot/sn=   23640.4981 T*S(rot)=     6.86 kcal/mol T*S(tot)=    23.52 kcal/mol
 sn=10  qrot/sn=   21276.4483 T*S(rot)=     6.79 kcal/mol T*S(tot)=    23.46 kcal/mol
 sn=11  qrot/sn=   19342.2257 T*S(rot)=     6.74 kcal/mol T*S(tot)=    23.40 kcal/mol
 sn=12  qrot/sn=   17730.3736 T*S(rot)=     6.68 kcal/mol T*S(tot)=    23.35 kcal/mol

-------------------
GIBBS FREE ENTHALPY
-------------------

The Gibbs free enthalpy is G = H - T*S

Total enthalpy                    ...   -289.92109530 Eh
Total entropy correction          ...     -0.03851677 Eh    -24.17 kcal/mol
-----------------------------------------------------------------------
Final Gibbs free enthalpy         ...   -289.95961207 Eh

For completeness - the Gibbs free enthalpy minus the electronic energy
G-E(el)                           ...      0.14681711 Eh     92.13 kcal/mol

                             ****ORCA TERMINATED NORMALLY****
TOTAL RUN TIME: 0 days 0 hours 42 minutes 44 seconds 420 msec
