                         Program Version 3.0.3 - RELEASE   -
|  1> ! NORI PBE0 def2-TZVP UseSym TightOPT Freq TightSCF Grid3 FinalGrid5 XYZFile
|  2> % pal
|  3>     nprocs 8
|  4> end
|  5> %method
|  6>     SymThresh 5.0e-2
|  7> end
|  8> % geom
|  9>     MaxIter 10
| 10> end
| 11> % maxcore 2000
| 12> % output
| 13>     printlevel mini
| 14>     print[ P_Basis ] 0
| 15>     print[ P_SCFInfo ] 1
| 16>     print[ P_SCFIterInfo ] 1
| 17>     print[ P_OrbEn ] 0
| 18>     print[ P_Cartesian ] 0
| 19> end
| 20> % elprop
| 21>     Dipole false
| 22> end
| 23> *xyz 1 1
| 24>  C        3.0534377373     0.6608865440     0.8344755429
| 25>  N        2.1804364354     0.1483245221    -0.2579853702
| 26>  C        2.7911480484     0.2276051559    -1.6014408138
| 27>  C        1.9121409833     0.0593804539    -2.7957551948
| 28>  C        2.5079781541     1.4058046663    -2.4885070955
| 29>  C        1.5784724523     2.4974556898    -2.0178023182
| 30>  C        3.6577556196     1.8881158173    -3.3357544576
| 31>  H        2.5202611646     0.5903428111     1.7814227523
| 32>  H        3.3042916006     1.6957864285     0.6150219273
| 33>  H        3.9574053775     0.0569236171     0.8674086857
| 34>  H        1.9163515342    -0.8195151749    -0.0606440836
| 35>  H        1.3107229337     0.6854451554    -0.2697232525
| 36>  H        3.7814445137    -0.2110611908    -1.5934325683
| 37>  H        2.3051953032    -0.5263575461    -3.6174611660
| 38>  H        0.8459283362    -0.0637229766    -2.6320422301
| 39>  H        1.1790088707     3.0285050389    -2.8839358147
| 40>  H        2.0984767157     3.2325232751    -1.3976996713
| 41>  H        0.7016906708     2.1321022347    -1.4711184002
| 42>  H        3.2804400978     2.3563651680    -4.2470752559
| 43>  H        4.3145888922     1.0677438405    -3.6316025342
| 44>  H        4.2565045589     2.6288964696    -2.8004086813
| 45> *
| 46>
| 47>                          ****END OF INPUT****
 Total Charge           Charge          ....    1
 Multiplicity           Mult            ....    1
 Number of Electrons    NEL             ....   56
FINAL SINGLE POINT ENERGY      -291.305554391881
FINAL SINGLE POINT ENERGY      -291.305556678477
FINAL SINGLE POINT ENERGY      -291.305558287994

CARTESIAN COORDINATES (ANGSTROEM)
---------------------------------
  C      1.417801   -0.001340    2.093401
  N      0.000877    0.002795    1.634569
  C     -0.214027   -0.695266    0.349825
  C     -1.501849   -0.483415   -0.374674
  C     -0.225947    0.082033   -0.935141
  C     -0.050787    1.580711   -0.908594
  C      0.398752   -0.598862   -2.126479
  H      1.491816    0.543959    3.032647
  H      2.026704    0.473489    1.327715
  H      1.733077   -1.033344    2.233015
  H     -0.594154   -0.416500    2.352623
  H     -0.313937    0.969899    1.529661
  H      0.235112   -1.680675    0.375207
  H     -1.954018   -1.351779   -0.837111
  H     -2.215035    0.218939    0.045054
  H     -0.467818    2.008766   -1.822347
  H      1.004041    1.864759   -0.869692
  H     -0.580413    2.076069   -0.087132
  H     -0.063910   -0.240061   -3.048390
  H      0.266750   -1.681897   -2.088698
  H      1.469123   -0.387158   -2.183541

FINAL SINGLE POINT ENERGY      -291.305558919366
                    ***********************HURRAY********************
 Multiplicity           Mult            ....    1
 Number of Electrons    NEL             ....   56
 Basis Dimension        Dim             ....  301
FINAL SINGLE POINT ENERGY      -291.305559256143

VIBRATIONAL FREQUENCIES
-----------------------

   0:         0.00 cm**-1
   1:         0.00 cm**-1
   2:         0.00 cm**-1
   3:         0.00 cm**-1
   4:         0.00 cm**-1
   5:         0.00 cm**-1
   6:        76.71 cm**-1
   7:       144.28 cm**-1
   8:       175.73 cm**-1
   9:       212.20 cm**-1
  10:       231.07 cm**-1
  11:       276.10 cm**-1
  12:       345.05 cm**-1
  13:       355.53 cm**-1
  14:       383.24 cm**-1
  15:       436.74 cm**-1
  16:       495.56 cm**-1
  17:       706.70 cm**-1
  18:       765.33 cm**-1
  19:       851.57 cm**-1
  20:       877.35 cm**-1
  21:       918.42 cm**-1
  22:       970.89 cm**-1
  23:       977.21 cm**-1
  24:       997.67 cm**-1
  25:      1028.57 cm**-1
  26:      1054.54 cm**-1
  27:      1072.10 cm**-1
  28:      1085.37 cm**-1
  29:      1140.29 cm**-1
  30:      1148.00 cm**-1
  31:      1184.99 cm**-1
  32:      1208.57 cm**-1
  33:      1305.55 cm**-1
  34:      1340.95 cm**-1
  35:      1358.23 cm**-1
  36:      1400.26 cm**-1
  37:      1417.19 cm**-1
  38:      1427.04 cm**-1
  39:      1434.97 cm**-1
  40:      1458.80 cm**-1
  41:      1464.97 cm**-1
  42:      1485.62 cm**-1
  43:      1486.41 cm**-1
  44:      1492.08 cm**-1
  45:      1494.07 cm**-1
  46:      1498.14 cm**-1
  47:      1522.48 cm**-1
  48:      1639.59 cm**-1
  49:      3034.39 cm**-1
  50:      3056.08 cm**-1
  51:      3094.36 cm**-1
  52:      3105.57 cm**-1
  53:      3132.06 cm**-1
  54:      3133.34 cm**-1
  55:      3138.65 cm**-1
  56:      3146.00 cm**-1
  57:      3193.43 cm**-1
  58:      3199.76 cm**-1
  59:      3202.10 cm**-1
  60:      3238.44 cm**-1
  61:      3429.64 cm**-1
  62:      3476.37 cm**-1

IR SPECTRUM
-----------

 Mode    freq (cm**-1)   T**2         TX         TY         TZ
-------------------------------------------------------------------
   6:        76.71    1.865295  (  0.651926   1.160280  -0.306656)
   7:       144.28    1.007501  ( -0.538404  -0.671849   0.515985)
   8:       175.73    2.978892  (  0.190047  -0.927964   1.442795)
   9:       212.20    0.157223  (  0.141282   0.148838   0.339278)
  10:       231.07    0.812100  (  0.423288   0.681409  -0.410621)
  11:       276.10    7.031600  ( -0.027415   1.733225  -2.006684)
  12:       345.05    1.009286  (  0.320491  -0.441876   0.843396)
  13:       355.53    1.557162  (  0.458668   0.263904  -1.130106)
  14:       383.24    1.759249  ( -0.979109  -0.075101   0.891602)
  15:       436.74    7.586278  (  1.185432  -0.009819   2.486148)
  16:       495.56    3.065840  (  0.462088   1.431488  -0.896190)
  17:       706.70    1.526230  ( -0.444610   0.759186  -0.867288)
  18:       765.33   12.735352  ( -0.467783   1.883170  -2.995030)
  19:       851.57    7.258674  ( -1.413756   1.752096  -1.479909)
  20:       877.35    9.654641  (  1.901336   2.141768  -1.205152)
  21:       918.42    1.465901  ( -0.967372  -0.187260   0.703581)
  22:       970.89    2.752637  ( -0.130772  -1.252243  -1.080474)
  23:       977.21    4.107754  ( -0.418398  -1.683243   1.048519)
  24:       997.67    6.729114  ( -0.338143   0.625234  -2.494766)
  25:      1028.57    6.994827  ( -2.419961  -0.020802  -1.066856)
  26:      1054.54   10.234959  (  2.228403   1.154449   1.984043)
  27:      1072.10   13.661706  (  0.381030   1.295298  -3.440745)
  28:      1085.37    0.185830  ( -0.123189  -0.411570  -0.035569)
  29:      1140.29    0.732192  (  0.108303   0.158663   0.833840)
  30:      1148.00    6.947526  ( -1.728371   0.853305  -1.797813)
  31:      1184.99    2.187294  ( -1.061317  -0.772890  -0.680840)
  32:      1208.57    1.662499  (  1.053608   0.045748   0.741832)
  33:      1305.55    2.850794  ( -0.427781  -1.038861   1.260383)
  34:      1340.95    1.665287  ( -0.388322   0.937082  -0.797728)
  35:      1358.23    4.929717  (  0.398634  -0.694700   2.070797)
  36:      1400.26   32.416664  (  3.937219   1.326994   3.892821)
  37:      1417.19   11.051417  (  0.598299  -2.877488  -1.553550)
  38:      1427.04    3.458889  ( -1.306680  -0.815787   1.042097)
  39:      1434.97    8.374294  (  0.009148   1.043181   2.699256)
  40:      1458.80    2.770859  (  1.334473   0.498810   0.860947)
  41:      1464.97    1.841702  ( -0.536776  -0.528138   1.129001)
  42:      1485.62    6.474463  ( -1.582246  -0.273575  -1.973859)
  43:      1486.41   14.492865  ( -1.462047  -3.006199   1.821552)
  44:      1492.08   16.025140  (  1.308509   3.756401  -0.449887)
  45:      1494.07   22.491793  ( -2.784337  -0.252385  -3.830870)
  46:      1498.14   26.751113  ( -3.609268   2.290901   2.911369)
  47:      1522.48    6.303289  ( -0.040322   0.612298  -2.434493)
  48:      1639.59   54.252056  ( -4.808898   3.176377   4.586631)
  49:      3034.39   21.955042  ( -0.060828  -2.613834  -3.888343)
  50:      3056.08    5.776991  (  1.487972  -0.931416  -1.641766)
  51:      3094.36    0.203835  (  0.330931   0.020916   0.306402)
  52:      3105.57   17.111685  ( -2.664136  -0.225390   3.156464)
  53:      3132.06    0.432596  ( -0.584128  -0.252923   0.165591)
  54:      3133.34    9.379215  ( -2.815870  -0.964647  -0.720797)
  55:      3138.65    7.740577  ( -0.079249  -2.449722   1.316496)
  56:      3146.00    2.253107  (  0.229399  -0.448197  -1.414073)
  57:      3193.43    0.156822  ( -0.308212   0.168047  -0.183270)
  58:      3199.76    0.248797  ( -0.118290  -0.089850  -0.476163)
  59:      3202.10    0.012096  ( -0.004251  -0.051315  -0.097185)
  60:      3238.44    0.036106  (  0.139214   0.121826  -0.043400)
  61:      3429.64   31.613192  (  4.586442  -2.631613  -1.911113)
  62:      3476.37   87.195746  (  1.669909   7.279671  -5.604779)

--------------------------
THERMOCHEMISTRY AT 298.15K
--------------------------

Temperature         ... 298.15 K
Pressure            ... 1.00 atm
Total Mass          ... 100.18 AMU

Throughout the following assumptions are being made:
  (1) The electronic state is orbitally nondegenerate
  (2) There are no thermally accessible electronically excited states
  (3) Hindered rotations indicated by low frequency modes) are not
      treated as such but are treated as vibrations and this may
      case some error
  (4) All equations used are the standard statistical mechanics
      equations for an ideal gas
  (5) All vibrations are strinctly harmonic

------------
INNER ENERGY
------------

The inner energy is: U= E(el) + E(ZPE) + E(vib) + E(rot) + E(trans)
    E(el)   - is the total energy from the electronic structure calculation
              = E(kin-el) + E(nuc-el) + E(el-el) + E(nuc-nuc)
    E(ZPE)  - the the zero temperature vibrational energy from the frequency calculation
    E(vib)  - the the finite temperature correction to E(ZPE) due to population
              of excietd vibrational states
    E(rot)  - is the rotational thermal energy
    E(trans)- is the translational thermal energy

Summary of contributions to the inner energy U:
Electronic energy                ...   -291.30555926 Eh
Zero point energy                ...      0.19803271 Eh     124.27 kcal/mol
Thermal vibrational correction   ...      0.00587610 Eh       3.69 kcal/mol
Thermal rotational correction    ...      0.00141627 Eh       0.89 kcal/mol
Thermal translational correction ...      0.00141627 Eh       0.89 kcal/mol
-----------------------------------------------------------------------
Total thermal energy                   -291.09881790 Eh

Summary of corrections to the electronic energy:
(perhaps to be used in another calculation)
Total thermal correction                  0.00870864 Eh       5.46 kcal/mol
Non-thermal (ZPE) correction              0.19803271 Eh     124.27 kcal/mol
-----------------------------------------------------------------------
Total correction                          0.20674135 Eh     129.73 kcal/mol

--------
ENTHALPY
--------

The enthalpy is H = U + kB*T
                kB is Boltzmann's constant
Total free energy                 ...   -291.09881790 Eh
Thermal Enthalpy correction       ...      0.00094421 Eh       0.59 kcal/mol
-----------------------------------------------------------------------
Total Enthalpy                    ...   -291.09787369 Eh

-------
ENTROPY
-------

The entropy contributions are T*S = T*(S(el)+S(vib)+S(rot)+S(trans)
     S(el)   - electronic entropy
     S(vib)  - vibrational entropy
     S(rot)  - rotational entropy
     S(trans)- translational entropy
The entropies will be listed as mutliplied by the temperature to get
units of energy

Electronic entropy                ...      0.00000000 Eh      0.00 kcal/mol
Vibrational entropy               ...      0.01017962 Eh      6.39 kcal/mol
Rotational entropy                ...      0.01213449 Eh      7.61 kcal/mol
Translational entropy             ...      0.01887386 Eh     11.84 kcal/mol
-----------------------------------------------------------------------
Final entropy term                ...      0.04118797 Eh     25.85 kcal/mol

CAUTION: The rotational entropy is not quite correctly treated here
         because it includes a symmetry number that is not yet correctly
         implemented in ORCA!
For a nonlinear molecule the correct rotational entropy is:
    S(rot) = R*(ln(qrot/sn)+1.5)
    R    = 8.31441 J/mol/K = 1.987191683e-3 kcal/mol/K
    qrot = 255373.5388889
    sn is the rotational symmetry number. We have assumed 3 here
       if it is different for your molecule then you should correct
       the printed rotational entropy by manually evaluating the equation
       as given above

For convenience we print out the resulting values for sn=1 - 12:
 sn= 1  qrot/sn=  255373.5389 T*S(rot)=     8.27 kcal/mol T*S(tot)=    26.50 kcal/mol
 sn= 2  qrot/sn=  127686.7694 T*S(rot)=     7.85 kcal/mol T*S(tot)=    26.09 kcal/mol
 sn= 3  qrot/sn=   85124.5130 T*S(rot)=     7.61 kcal/mol T*S(tot)=    25.85 kcal/mol
 sn= 4  qrot/sn=   63843.3847 T*S(rot)=     7.44 kcal/mol T*S(tot)=    25.68 kcal/mol
 sn= 5  qrot/sn=   51074.7078 T*S(rot)=     7.31 kcal/mol T*S(tot)=    25.54 kcal/mol
 sn= 6  qrot/sn=   42562.2565 T*S(rot)=     7.20 kcal/mol T*S(tot)=    25.44 kcal/mol
 sn= 7  qrot/sn=   36481.9341 T*S(rot)=     7.11 kcal/mol T*S(tot)=    25.34 kcal/mol
 sn= 8  qrot/sn=   31921.6924 T*S(rot)=     7.03 kcal/mol T*S(tot)=    25.26 kcal/mol
 sn= 9  qrot/sn=   28374.8377 T*S(rot)=     6.96 kcal/mol T*S(tot)=    25.19 kcal/mol
 sn=10  qrot/sn=   25537.3539 T*S(rot)=     6.90 kcal/mol T*S(tot)=    25.13 kcal/mol
 sn=11  qrot/sn=   23215.7763 T*S(rot)=     6.84 kcal/mol T*S(tot)=    25.08 kcal/mol
 sn=12  qrot/sn=   21281.1282 T*S(rot)=     6.79 kcal/mol T*S(tot)=    25.02 kcal/mol

-------------------
GIBBS FREE ENTHALPY
-------------------

The Gibbs free enthalpy is G = H - T*S

Total enthalpy                    ...   -291.09787369 Eh
Total entropy correction          ...     -0.04118797 Eh    -25.85 kcal/mol
-----------------------------------------------------------------------
Final Gibbs free enthalpy         ...   -291.13906166 Eh

For completeness - the Gibbs free enthalpy minus the electronic energy
G-E(el)                           ...      0.16649759 Eh    104.48 kcal/mol

                             ****ORCA TERMINATED NORMALLY****
TOTAL RUN TIME: 0 days 0 hours 51 minutes 5 seconds 298 msec
