                         Program Version 3.0.3 - RELEASE   -
|  1> ! NORI PBE0 def2-TZVP UseSym TightOPT Freq TightSCF Grid3 FinalGrid5 XYZFile
|  2> % pal
|  3>     nprocs 8
|  4> end
|  5> %method
|  6>     SymThresh 5.0e-2
|  7> end
|  8> % geom
|  9>     MaxIter 10
| 10> end
| 11> % maxcore 2000
| 12> % output
| 13>     printlevel mini
| 14>     print[ P_Basis ] 0
| 15>     print[ P_SCFInfo ] 1
| 16>     print[ P_SCFIterInfo ] 1
| 17>     print[ P_OrbEn ] 0
| 18>     print[ P_Cartesian ] 0
| 19> end
| 20> % elprop
| 21>     Dipole false
| 22> end
| 23> *xyz 1 1
| 24>  C        1.8043863309     1.0899059774    -0.1126801554
| 25>  N        2.3145584985    -0.3045114736     0.0176141408
| 26>  C        2.9082414818    -0.6074971175     1.3376665953
| 27>  C        3.8788108390    -1.7325971605     1.4419334894
| 28>  C        4.3608750259    -0.3176900812     1.5609186913
| 29>  C        4.8007433767     0.2749055119     2.8466556588
| 30>  C        5.2352895288    -0.4216914735     3.8854420079
| 31>  H        1.4004299650     1.2311239915    -1.1137167493
| 32>  H        2.6308366197     1.7739430084     0.0660011742
| 33>  H        1.0259971824     1.2427598549     0.6320159652
| 34>  H        3.0181690798    -0.4762854862    -0.7037651201
| 35>  H        1.5563196605    -0.9654257692    -0.1697591477
| 36>  H        2.1993123427    -0.4278149566     2.1364972262
| 37>  H        4.1420898191    -2.2796029772     0.5431499385
| 38>  H        3.8105957691    -2.3458070423     2.3308579754
| 39>  H        4.8909319394     0.0568624463     0.6850574828
| 40>  H        4.7649501656     1.3602058501     2.8995771068
| 41>  H        5.3154173199    -1.5034877485     3.8656190772
| 42>  H        5.5446850551     0.0720346457     4.7980846426
| 43> *
| 44>
| 45>                          ****END OF INPUT****
 Total Charge           Charge          ....    1
 Multiplicity           Mult            ....    1
 Number of Electrons    NEL             ....   54
FINAL SINGLE POINT ENERGY      -290.067253840223
FINAL SINGLE POINT ENERGY      -290.067254984725

CARTESIAN COORDINATES (ANGSTROEM)
---------------------------------
  C      1.433335   -0.000185    2.347617
  N     -0.000309   -0.000034    1.939996
  C     -0.231208   -0.448906    0.550069
  C     -1.485192   -0.030158   -0.135259
  C     -0.171765    0.559512   -0.555884
  C      0.491667    0.208795   -1.834398
  C     -0.133695   -0.269959   -2.898524
  H      1.513349    0.352602    3.374406
  H      1.980153    0.655910    1.674333
  H      1.813734   -1.016359    2.268400
  H     -0.382526    0.941956    2.047093
  H     -0.537424   -0.592671    2.578068
  H      0.168401   -1.442396    0.388317
  H     -2.179289    0.613896    0.393434
  H     -1.959644   -0.770105   -0.766122
  H     -0.008097    1.586253   -0.228193
  H      1.563564    0.385539   -1.870780
  H     -1.205728   -0.434397   -2.915308
  H      0.408892   -0.503585   -3.806136

FINAL SINGLE POINT ENERGY      -290.067255586525
                    ***********************HURRAY********************
 Multiplicity           Mult            ....    1
 Number of Electrons    NEL             ....   54
 Basis Dimension        Dim             ....  289
FINAL SINGLE POINT ENERGY      -290.067255755477

VIBRATIONAL FREQUENCIES
-----------------------

   0:         0.00 cm**-1
   1:         0.00 cm**-1
   2:         0.00 cm**-1
   3:         0.00 cm**-1
   4:         0.00 cm**-1
   5:         0.00 cm**-1
   6:        75.25 cm**-1
   7:        92.16 cm**-1
   8:       141.13 cm**-1
   9:       207.03 cm**-1
  10:       279.26 cm**-1
  11:       280.56 cm**-1
  12:       377.82 cm**-1
  13:       437.92 cm**-1
  14:       534.16 cm**-1
  15:       656.15 cm**-1
  16:       784.40 cm**-1
  17:       824.73 cm**-1
  18:       845.19 cm**-1
  19:       907.23 cm**-1
  20:       965.06 cm**-1
  21:       987.67 cm**-1
  22:       997.29 cm**-1
  23:      1021.25 cm**-1
  24:      1029.76 cm**-1
  25:      1054.93 cm**-1
  26:      1094.55 cm**-1
  27:      1097.71 cm**-1
  28:      1111.19 cm**-1
  29:      1145.81 cm**-1
  30:      1183.00 cm**-1
  31:      1212.28 cm**-1
  32:      1247.09 cm**-1
  33:      1328.79 cm**-1
  34:      1332.43 cm**-1
  35:      1383.70 cm**-1
  36:      1401.87 cm**-1
  37:      1437.91 cm**-1
  38:      1453.60 cm**-1
  39:      1459.44 cm**-1
  40:      1490.99 cm**-1
  41:      1495.46 cm**-1
  42:      1502.47 cm**-1
  43:      1647.39 cm**-1
  44:      1725.98 cm**-1
  45:      3094.19 cm**-1
  46:      3117.02 cm**-1
  47:      3157.89 cm**-1
  48:      3164.33 cm**-1
  49:      3171.68 cm**-1
  50:      3194.54 cm**-1
  51:      3201.42 cm**-1
  52:      3207.39 cm**-1
  53:      3249.53 cm**-1
  54:      3257.82 cm**-1
  55:      3430.28 cm**-1
  56:      3480.40 cm**-1

IR SPECTRUM
-----------

 Mode    freq (cm**-1)   T**2         TX         TY         TZ
-------------------------------------------------------------------
   6:        75.25    0.498164  (  0.449128  -0.512523   0.183761)
   7:        92.16    2.234662  ( -0.233876  -1.473846   0.087993)
   8:       141.13    1.611374  ( -0.558095  -1.111065   0.255811)
   9:       207.03    0.778226  (  0.411068   0.461732   0.629327)
  10:       279.26    2.887297  ( -0.381398   1.331972  -0.983708)
  11:       280.56    0.706040  (  0.017493  -0.714242  -0.442258)
  12:       377.82    3.829348  (  0.603061   0.042136  -1.861153)
  13:       437.92    3.543781  (  1.540681   0.651669   0.863373)
  14:       534.16    0.542809  (  0.641043  -0.185989   0.311899)
  15:       656.15   14.710328  (  0.410036   3.703128  -0.910516)
  16:       784.40   18.301784  ( -0.009736   3.205972  -2.832567)
  17:       824.73    2.828762  ( -0.452926  -1.375947   0.854628)
  18:       845.19    7.748556  (  1.268913  -2.181492   1.174524)
  19:       907.23    3.606677  (  1.868283   0.077927   0.331850)
  20:       965.06    2.654696  ( -1.135665   1.005967   0.594130)
  21:       987.67    3.033033  ( -0.952695  -1.089484   0.968726)
  22:       997.29   47.365792  (  0.929451  -6.478113   2.129781)
  23:      1021.25    9.122340  ( -0.254570  -2.969481   0.489609)
  24:      1029.76    4.001173  ( -1.548064  -1.259802   0.132553)
  25:      1054.93   33.966049  (  2.890076  -0.578018   5.027863)
  26:      1094.55    3.792890  ( -1.836896   0.524479  -0.378977)
  27:      1097.71    9.309273  ( -1.713980  -2.066007   1.450227)
  28:      1111.19    4.473680  (  0.550659  -0.794805   1.881154)
  29:      1145.81    0.819977  ( -0.412229  -0.513178  -0.621846)
  30:      1183.00    3.878148  ( -1.388013  -0.355399  -1.351022)
  31:      1212.28    0.154889  ( -0.157683  -0.312163   0.180498)
  32:      1247.09    1.917386  (  1.282752  -0.493806  -0.167601)
  33:      1328.79    1.315812  (  0.396296   0.202448   1.057250)
  34:      1332.43    3.785625  ( -0.591651   0.892605  -1.624448)
  35:      1383.70    3.462373  (  0.101197   0.166670   1.850501)
  36:      1401.87   30.919076  ( -4.099195  -1.739060  -3.330367)
  37:      1437.91   14.465154  (  0.661661   0.573817   3.701093)
  38:      1453.60   13.389123  (  2.918266   1.477300   1.640254)
  39:      1459.44    0.499353  (  0.571313   0.402120  -0.106088)
  40:      1490.99   21.708499  (  0.317941   4.615977  -0.547874)
  41:      1495.46   24.085318  ( -0.143806   0.874291   4.827034)
  42:      1502.47   10.584844  (  3.099866  -0.112915   0.981287)
  43:      1647.39   54.406848  (  4.956350  -2.939556  -4.604395)
  44:      1725.98    3.367589  (  0.106875   0.292523   1.808479)
  45:      3094.19    0.071899  ( -0.216702  -0.025461  -0.155855)
  46:      3117.02    9.235686  (  0.255780   1.100320   2.821269)
  47:      3157.89    2.040825  ( -0.171109  -0.340215  -1.376881)
  48:      3164.33    4.151845  ( -1.915104  -0.360117   0.595431)
  49:      3171.68    0.425415  ( -0.560084  -0.329139  -0.058209)
  50:      3194.54    0.182542  (  0.365874  -0.200641   0.091768)
  51:      3201.42    0.062334  ( -0.003377   0.156408  -0.194574)
  52:      3207.39    0.707866  (  0.159888  -0.727578  -0.391066)
  53:      3249.53    0.574555  (  0.245887   0.653774   0.294405)
  54:      3257.82    0.817529  (  0.879953   0.131534  -0.160969)
  55:      3430.28   46.194733  (  4.764712   0.057072  -4.846545)
  56:      3480.40   64.505494  (  0.308770   7.809109  -1.851480)

--------------------------
THERMOCHEMISTRY AT 298.15K
--------------------------

Temperature         ... 298.15 K
Pressure            ... 1.00 atm
Total Mass          ... 98.17 AMU

Throughout the following assumptions are being made:
  (1) The electronic state is orbitally nondegenerate
  (2) There are no thermally accessible electronically excited states
  (3) Hindered rotations indicated by low frequency modes) are not
      treated as such but are treated as vibrations and this may
      case some error
  (4) All equations used are the standard statistical mechanics
      equations for an ideal gas
  (5) All vibrations are strinctly harmonic

------------
INNER ENERGY
------------

The inner energy is: U= E(el) + E(ZPE) + E(vib) + E(rot) + E(trans)
    E(el)   - is the total energy from the electronic structure calculation
              = E(kin-el) + E(nuc-el) + E(el-el) + E(nuc-nuc)
    E(ZPE)  - the the zero temperature vibrational energy from the frequency calculation
    E(vib)  - the the finite temperature correction to E(ZPE) due to population
              of excietd vibrational states
    E(rot)  - is the rotational thermal energy
    E(trans)- is the translational thermal energy

Summary of contributions to the inner energy U:
Electronic energy                ...   -290.06725576 Eh
Zero point energy                ...      0.17536681 Eh     110.04 kcal/mol
Thermal vibrational correction   ...      0.00527480 Eh       3.31 kcal/mol
Thermal rotational correction    ...      0.00141627 Eh       0.89 kcal/mol
Thermal translational correction ...      0.00141627 Eh       0.89 kcal/mol
-----------------------------------------------------------------------
Total thermal energy                   -289.88378160 Eh

Summary of corrections to the electronic energy:
(perhaps to be used in another calculation)
Total thermal correction                  0.00810734 Eh       5.09 kcal/mol
Non-thermal (ZPE) correction              0.17536681 Eh     110.04 kcal/mol
-----------------------------------------------------------------------
Total correction                          0.18347416 Eh     115.13 kcal/mol

--------
ENTHALPY
--------

The enthalpy is H = U + kB*T
                kB is Boltzmann's constant
Total free energy                 ...   -289.88378160 Eh
Thermal Enthalpy correction       ...      0.00094421 Eh       0.59 kcal/mol
-----------------------------------------------------------------------
Total Enthalpy                    ...   -289.88283739 Eh

-------
ENTROPY
-------

The entropy contributions are T*S = T*(S(el)+S(vib)+S(rot)+S(trans)
     S(el)   - electronic entropy
     S(vib)  - vibrational entropy
     S(rot)  - rotational entropy
     S(trans)- translational entropy
The entropies will be listed as mutliplied by the temperature to get
units of energy

Electronic entropy                ...      0.00000000 Eh      0.00 kcal/mol
Vibrational entropy               ...      0.00958168 Eh      6.01 kcal/mol
Rotational entropy                ...      0.01217724 Eh      7.64 kcal/mol
Translational entropy             ...      0.01884507 Eh     11.83 kcal/mol
-----------------------------------------------------------------------
Final entropy term                ...      0.04060398 Eh     25.48 kcal/mol

CAUTION: The rotational entropy is not quite correctly treated here
         because it includes a symmetry number that is not yet correctly
         implemented in ORCA!
For a nonlinear molecule the correct rotational entropy is:
    S(rot) = R*(ln(qrot/sn)+1.5)
    R    = 8.31441 J/mol/K = 1.987191683e-3 kcal/mol/K
    qrot = 267200.5698239
    sn is the rotational symmetry number. We have assumed 3 here
       if it is different for your molecule then you should correct
       the printed rotational entropy by manually evaluating the equation
       as given above

For convenience we print out the resulting values for sn=1 - 12:
 sn= 1  qrot/sn=  267200.5698 T*S(rot)=     8.29 kcal/mol T*S(tot)=    26.13 kcal/mol
 sn= 2  qrot/sn=  133600.2849 T*S(rot)=     7.88 kcal/mol T*S(tot)=    25.72 kcal/mol
 sn= 3  qrot/sn=   89066.8566 T*S(rot)=     7.64 kcal/mol T*S(tot)=    25.48 kcal/mol
 sn= 4  qrot/sn=   66800.1425 T*S(rot)=     7.47 kcal/mol T*S(tot)=    25.31 kcal/mol
 sn= 5  qrot/sn=   53440.1140 T*S(rot)=     7.34 kcal/mol T*S(tot)=    25.18 kcal/mol
 sn= 6  qrot/sn=   44533.4283 T*S(rot)=     7.23 kcal/mol T*S(tot)=    25.07 kcal/mol
 sn= 7  qrot/sn=   38171.5100 T*S(rot)=     7.14 kcal/mol T*S(tot)=    24.98 kcal/mol
 sn= 8  qrot/sn=   33400.0712 T*S(rot)=     7.06 kcal/mol T*S(tot)=    24.90 kcal/mol
 sn= 9  qrot/sn=   29688.9522 T*S(rot)=     6.99 kcal/mol T*S(tot)=    24.83 kcal/mol
 sn=10  qrot/sn=   26720.0570 T*S(rot)=     6.93 kcal/mol T*S(tot)=    24.77 kcal/mol
 sn=11  qrot/sn=   24290.9609 T*S(rot)=     6.87 kcal/mol T*S(tot)=    24.71 kcal/mol
 sn=12  qrot/sn=   22266.7142 T*S(rot)=     6.82 kcal/mol T*S(tot)=    24.66 kcal/mol

-------------------
GIBBS FREE ENTHALPY
-------------------

The Gibbs free enthalpy is G = H - T*S

Total enthalpy                    ...   -289.88283739 Eh
Total entropy correction          ...     -0.04060398 Eh    -25.48 kcal/mol
-----------------------------------------------------------------------
Final Gibbs free enthalpy         ...   -289.92344137 Eh

For completeness - the Gibbs free enthalpy minus the electronic energy
G-E(el)                           ...      0.14381439 Eh     90.24 kcal/mol

                             ****ORCA TERMINATED NORMALLY****
TOTAL RUN TIME: 0 days 0 hours 40 minutes 22 seconds 311 msec
