                         Program Version 3.0.3 - RELEASE   -
|  1> ! NORI PBE0 def2-TZVP UseSym TightOPT Freq TightSCF Grid3 FinalGrid5 XYZFile
|  2> % pal
|  3>     nprocs 8
|  4> end
|  5> %method
|  6>     SymThresh 5.0e-2
|  7> end
|  8> % geom
|  9>     MaxIter 10
| 10> end
| 11> % maxcore 2000
| 12> % output
| 13>     printlevel mini
| 14>     print[ P_Basis ] 0
| 15>     print[ P_SCFInfo ] 1
| 16>     print[ P_SCFIterInfo ] 1
| 17>     print[ P_OrbEn ] 0
| 18>     print[ P_Cartesian ] 0
| 19> end
| 20> % elprop
| 21>     Dipole false
| 22> end
| 23> *xyz 1 1
| 24>  C        3.4344009740    -0.7498444942     0.5039047002
| 25>  N        2.4127030317     0.0753141192    -0.2047086363
| 26>  C        2.9804323778     1.2107243536    -0.9593996958
| 27>  C        2.1256998429     2.3883909403    -1.2510981768
| 28>  C        3.2325720413     2.4956362875    -0.2261695678
| 29>  C        4.4308195843     3.2274825710    -0.5009303300
| 30>  C        5.4340105236     3.8412788337    -0.7332822442
| 31>  H        2.9323564565    -1.5519812788     1.0418488938
| 32>  H        3.9761456901    -0.1051895930     1.1925303086
| 33>  H        4.1173902693    -1.1617274681    -0.2360565502
| 34>  H        1.8773697169    -0.5173770138    -0.8449412663
| 35>  H        1.7360535752     0.4313936638     0.4742496401
| 36>  H        3.7080985966     0.8749070954    -1.6870716682
| 37>  H        1.1090799100     2.4066153874    -0.8748299593
| 38>  H        2.2654541454     2.8691315090    -2.2101060821
| 39>  H        2.8952686355     2.5322246029     0.8079289943
| 40>  H        6.3217146288     4.3961104842    -0.9373483600
| 41> *
| 42>
| 43>                          ****END OF INPUT****
 Total Charge           Charge          ....    1
 Multiplicity           Mult            ....    1
 Number of Electrons    NEL             ....   52
FINAL SINGLE POINT ENERGY      -288.811701734045
FINAL SINGLE POINT ENERGY      -288.811702496924

CARTESIAN COORDINATES (ANGSTROEM)
---------------------------------
  C      1.468048   -0.001587    2.150219
  N      0.000261    0.002413    1.880460
  C     -0.357918   -0.462745    0.525477
  C     -1.646518   -0.033760   -0.073169
  C     -0.345709    0.536468   -0.593972
  C      0.180123    0.147845   -1.866616
  C      0.618257   -0.178045   -2.933706
  H      1.644882    0.365385    3.159760
  H      1.951746    0.640154    1.417399
  H      1.833008   -1.021603    2.050284
  H     -0.476869   -0.582766    2.571489
  H     -0.366634    0.946946    2.016330
  H      0.021712   -1.459107    0.338976
  H     -2.287286    0.641394    0.483285
  H     -2.169058   -0.759137   -0.682103
  H     -0.155972    1.570758   -0.312659
  H      1.002015   -0.460932   -3.887776

FINAL SINGLE POINT ENERGY      -288.811702994998
                    ***********************HURRAY********************
 Multiplicity           Mult            ....    1
 Number of Electrons    NEL             ....   52
 Basis Dimension        Dim             ....  277
FINAL SINGLE POINT ENERGY      -288.811703145140

VIBRATIONAL FREQUENCIES
-----------------------

   0:         0.00 cm**-1
   1:         0.00 cm**-1
   2:         0.00 cm**-1
   3:         0.00 cm**-1
   4:         0.00 cm**-1
   5:         0.00 cm**-1
   6:        90.73 cm**-1
   7:       114.83 cm**-1
   8:       163.76 cm**-1
   9:       215.03 cm**-1
  10:       261.27 cm**-1
  11:       356.96 cm**-1
  12:       434.34 cm**-1
  13:       488.75 cm**-1
  14:       510.42 cm**-1
  15:       712.84 cm**-1
  16:       744.31 cm**-1
  17:       780.76 cm**-1
  18:       810.77 cm**-1
  19:       842.83 cm**-1
  20:       915.76 cm**-1
  21:       965.21 cm**-1
  22:       988.99 cm**-1
  23:      1052.15 cm**-1
  24:      1057.89 cm**-1
  25:      1094.59 cm**-1
  26:      1103.86 cm**-1
  27:      1145.68 cm**-1
  28:      1184.67 cm**-1
  29:      1214.67 cm**-1
  30:      1242.77 cm**-1
  31:      1330.03 cm**-1
  32:      1378.85 cm**-1
  33:      1403.62 cm**-1
  34:      1442.94 cm**-1
  35:      1459.13 cm**-1
  36:      1490.49 cm**-1
  37:      1494.90 cm**-1
  38:      1500.47 cm**-1
  39:      1647.95 cm**-1
  40:      2256.78 cm**-1
  41:      3094.33 cm**-1
  42:      3135.26 cm**-1
  43:      3159.06 cm**-1
  44:      3195.75 cm**-1
  45:      3202.11 cm**-1
  46:      3215.47 cm**-1
  47:      3257.78 cm**-1
  48:      3427.71 cm**-1
  49:      3464.67 cm**-1
  50:      3477.99 cm**-1

IR SPECTRUM
-----------

 Mode    freq (cm**-1)   T**2         TX         TY         TZ
-------------------------------------------------------------------
   6:        90.73    1.812881  (  0.028103   1.341917   0.106531)
   7:       114.83    3.237688  (  1.295771   1.184167  -0.395490)
   8:       163.76    3.386135  ( -0.438746   1.700747  -0.548723)
   9:       215.03    3.306945  ( -0.660378  -1.624532  -0.481398)
  10:       261.27    3.249798  (  1.622638  -0.432104   0.655842)
  11:       356.96    3.786126  (  0.596606  -0.084678  -1.850140)
  12:       434.34    0.370987  (  0.363545  -0.386246   0.299393)
  13:       488.75   12.145396  (  0.221417   2.953880  -1.836019)
  14:       510.42   10.174439  ( -2.711358  -1.289607  -1.076983)
  15:       712.84   39.675587  (  5.772588  -0.983712   2.320586)
  16:       744.31   35.649529  (  1.486426   5.700814  -0.969943)
  17:       780.76   18.391956  ( -0.627968   3.063161  -2.935074)
  18:       810.77    1.025307  (  0.627013  -0.051972   0.793386)
  19:       842.83    8.393014  ( -0.943026   2.558502  -0.978665)
  20:       915.76    9.025792  ( -2.684211  -1.149691  -0.706410)
  21:       965.21    6.058674  (  0.687363  -0.925555  -2.174754)
  22:       988.99    4.445038  (  0.229748   1.556914  -1.402952)
  23:      1052.15   11.735933  (  3.009697   1.479344   0.699426)
  24:      1057.89   20.344247  ( -2.080389   0.918534  -3.895192)
  25:      1094.59    5.145935  (  1.171596  -1.775337   0.788338)
  26:      1103.86    4.961460  (  2.029482   0.698482   0.595640)
  27:      1145.68    1.022914  (  0.386640   0.793455  -0.493813)
  28:      1184.67    3.387292  ( -1.544752  -0.411408  -0.912017)
  29:      1214.67    0.115284  (  0.325238   0.017922   0.095829)
  30:      1242.77    2.800752  (  1.537051  -0.637847   0.177136)
  31:      1330.03    2.748219  (  0.084994   0.572063  -1.553621)
  32:      1378.85    8.375734  (  0.686878  -0.538200  -2.759397)
  33:      1403.62   35.171408  (  4.573315   1.855152   3.288558)
  34:      1442.94    5.253948  (  0.021753  -0.071585   2.290928)
  35:      1459.13    1.824731  ( -0.972100  -0.514995  -0.783921)
  36:      1490.49   22.141229  (  0.197990   4.676267  -0.484307)
  37:      1494.90   23.533058  ( -0.136933  -0.823756  -4.778675)
  38:      1500.47   15.868770  ( -3.863967   0.226023  -0.942040)
  39:      1647.95   55.871352  (  4.634432  -3.024048  -5.024791)
  40:      2256.78    2.722348  (  0.439220  -0.757082  -1.398664)
  41:      3094.33    0.010168  (  0.005676   0.015165  -0.099526)
  42:      3135.26    8.660185  (  0.513019   0.024567  -2.897653)
  43:      3159.06    3.429708  (  0.904520   0.552129   1.518784)
  44:      3195.75    0.212002  (  0.352092  -0.285494  -0.080785)
  45:      3202.11    0.239810  ( -0.096951  -0.308292   0.367923)
  46:      3215.47    1.698630  (  0.168604  -1.260364  -0.285807)
  47:      3257.78    2.641266  (  0.681877   1.274849   0.742340)
  48:      3427.71   52.615318  (  4.564232   0.133963  -5.636058)
  49:      3464.67   99.897869  ( -3.515938   2.058259   9.126862)
  50:      3477.99   66.881783  (  0.006965   8.022237  -1.589164)

--------------------------
THERMOCHEMISTRY AT 298.15K
--------------------------

Temperature         ... 298.15 K
Pressure            ... 1.00 atm
Total Mass          ... 96.15 AMU

Throughout the following assumptions are being made:
  (1) The electronic state is orbitally nondegenerate
  (2) There are no thermally accessible electronically excited states
  (3) Hindered rotations indicated by low frequency modes) are not
      treated as such but are treated as vibrations and this may
      case some error
  (4) All equations used are the standard statistical mechanics
      equations for an ideal gas
  (5) All vibrations are strinctly harmonic

------------
INNER ENERGY
------------

The inner energy is: U= E(el) + E(ZPE) + E(vib) + E(rot) + E(trans)
    E(el)   - is the total energy from the electronic structure calculation
              = E(kin-el) + E(nuc-el) + E(el-el) + E(nuc-nuc)
    E(ZPE)  - the the zero temperature vibrational energy from the frequency calculation
    E(vib)  - the the finite temperature correction to E(ZPE) due to population
              of excietd vibrational states
    E(rot)  - is the rotational thermal energy
    E(trans)- is the translational thermal energy

Summary of contributions to the inner energy U:
Electronic energy                ...   -288.81170315 Eh
Zero point energy                ...      0.15156448 Eh      95.11 kcal/mol
Thermal vibrational correction   ...      0.00496257 Eh       3.11 kcal/mol
Thermal rotational correction    ...      0.00141627 Eh       0.89 kcal/mol
Thermal translational correction ...      0.00141627 Eh       0.89 kcal/mol
-----------------------------------------------------------------------
Total thermal energy                   -288.65234355 Eh

Summary of corrections to the electronic energy:
(perhaps to be used in another calculation)
Total thermal correction                  0.00779511 Eh       4.89 kcal/mol
Non-thermal (ZPE) correction              0.15156448 Eh      95.11 kcal/mol
-----------------------------------------------------------------------
Total correction                          0.15935959 Eh     100.00 kcal/mol

--------
ENTHALPY
--------

The enthalpy is H = U + kB*T
                kB is Boltzmann's constant
Total free energy                 ...   -288.65234355 Eh
Thermal Enthalpy correction       ...      0.00094421 Eh       0.59 kcal/mol
-----------------------------------------------------------------------
Total Enthalpy                    ...   -288.65139934 Eh

-------
ENTROPY
-------

The entropy contributions are T*S = T*(S(el)+S(vib)+S(rot)+S(trans)
     S(el)   - electronic entropy
     S(vib)  - vibrational entropy
     S(rot)  - rotational entropy
     S(trans)- translational entropy
The entropies will be listed as mutliplied by the temperature to get
units of energy

Electronic entropy                ...      0.00000000 Eh      0.00 kcal/mol
Vibrational entropy               ...      0.00871849 Eh      5.47 kcal/mol
Rotational entropy                ...      0.01218901 Eh      7.65 kcal/mol
Translational entropy             ...      0.01881568 Eh     11.81 kcal/mol
-----------------------------------------------------------------------
Final entropy term                ...      0.03972318 Eh     24.93 kcal/mol

CAUTION: The rotational entropy is not quite correctly treated here
         because it includes a symmetry number that is not yet correctly
         implemented in ORCA!
For a nonlinear molecule the correct rotational entropy is:
    S(rot) = R*(ln(qrot/sn)+1.5)
    R    = 8.31441 J/mol/K = 1.987191683e-3 kcal/mol/K
    qrot = 270552.9114580
    sn is the rotational symmetry number. We have assumed 3 here
       if it is different for your molecule then you should correct
       the printed rotational entropy by manually evaluating the equation
       as given above

For convenience we print out the resulting values for sn=1 - 12:
 sn= 1  qrot/sn=  270552.9115 T*S(rot)=     8.30 kcal/mol T*S(tot)=    25.58 kcal/mol
 sn= 2  qrot/sn=  135276.4557 T*S(rot)=     7.89 kcal/mol T*S(tot)=    25.17 kcal/mol
 sn= 3  qrot/sn=   90184.3038 T*S(rot)=     7.65 kcal/mol T*S(tot)=    24.93 kcal/mol
 sn= 4  qrot/sn=   67638.2279 T*S(rot)=     7.48 kcal/mol T*S(tot)=    24.76 kcal/mol
 sn= 5  qrot/sn=   54110.5823 T*S(rot)=     7.35 kcal/mol T*S(tot)=    24.62 kcal/mol
 sn= 6  qrot/sn=   45092.1519 T*S(rot)=     7.24 kcal/mol T*S(tot)=    24.52 kcal/mol
 sn= 7  qrot/sn=   38650.4159 T*S(rot)=     7.15 kcal/mol T*S(tot)=    24.42 kcal/mol
 sn= 8  qrot/sn=   33819.1139 T*S(rot)=     7.07 kcal/mol T*S(tot)=    24.35 kcal/mol
 sn= 9  qrot/sn=   30061.4346 T*S(rot)=     7.00 kcal/mol T*S(tot)=    24.28 kcal/mol
 sn=10  qrot/sn=   27055.2911 T*S(rot)=     6.94 kcal/mol T*S(tot)=    24.21 kcal/mol
 sn=11  qrot/sn=   24595.7192 T*S(rot)=     6.88 kcal/mol T*S(tot)=    24.16 kcal/mol
 sn=12  qrot/sn=   22546.0760 T*S(rot)=     6.83 kcal/mol T*S(tot)=    24.11 kcal/mol

-------------------
GIBBS FREE ENTHALPY
-------------------

The Gibbs free enthalpy is G = H - T*S

Total enthalpy                    ...   -288.65139934 Eh
Total entropy correction          ...     -0.03972318 Eh    -24.93 kcal/mol
-----------------------------------------------------------------------
Final Gibbs free enthalpy         ...   -288.69112253 Eh

For completeness - the Gibbs free enthalpy minus the electronic energy
G-E(el)                           ...      0.12058062 Eh     75.67 kcal/mol

                             ****ORCA TERMINATED NORMALLY****
TOTAL RUN TIME: 0 days 0 hours 34 minutes 43 seconds 412 msec
