                         Program Version 3.0.3 - RELEASE   -
|  1> ! NORI PBE0 def2-TZVP UseSym TightOPT Freq TightSCF Grid3 FinalGrid5 XYZFile
|  2> % pal
|  3>     nprocs 8
|  4> end
|  5> %method
|  6>     SymThresh 5.0e-2
|  7> end
|  8> % geom
|  9>     MaxIter 10
| 10> end
| 11> % maxcore 2000
| 12> % output
| 13>     printlevel mini
| 14>     print[ P_Basis ] 0
| 15>     print[ P_SCFInfo ] 1
| 16>     print[ P_SCFIterInfo ] 1
| 17>     print[ P_OrbEn ] 0
| 18>     print[ P_Cartesian ] 0
| 19> end
| 20> % elprop
| 21>     Dipole false
| 22> end
| 23> *xyz 1 1
| 24>  C        3.3523969617     0.0583541076     0.8899788333
| 25>  N        2.3596588827    -0.0236393303    -0.2243592490
| 26>  C        2.8751228663     0.4547234425    -1.5218579369
| 27>  C        1.9349044727     0.9441706291    -2.5588798547
| 28>  C        2.8128700666     1.9244223845    -1.8155132435
| 29>  C        3.9437828553     2.5290398272    -2.4575326470
| 30>  N        4.8599816144     2.9924134163    -2.9732232629
| 31>  H        2.8884171162    -0.3116668734     1.8025030322
| 32>  H        3.6528281051     1.0969848163     1.0064608825
| 33>  H        4.2134774481    -0.5534251005     0.6295142772
| 34>  H        2.0486190631    -0.9930623486    -0.3328658196
| 35>  H        1.5224582233     0.5075128115     0.0271730639
| 36>  H        3.7606859861    -0.0938948536    -1.8181892379
| 37>  H        2.1742762131     0.7114597786    -3.5882385427
| 38>  H        0.8745551610     0.9893876738    -2.3353944875
| 39>  H        2.3101549643     2.5649196190    -1.0957758073
| 40> *
| 41>
| 42>                          ****END OF INPUT****
 Total Charge           Charge          ....    1
 Multiplicity           Mult            ....    1
 Number of Electrons    NEL             ....   52
FINAL SINGLE POINT ENERGY      -304.890148250807

CARTESIAN COORDINATES (ANGSTROEM)
---------------------------------
  C      1.392123    0.477592    2.151452
  N     -0.000134    0.000434    1.890461
  C     -0.200645   -0.547455    0.534932
  C     -1.555349   -0.559425   -0.068412
  C     -0.511851    0.406625   -0.579996
  C      0.128066    0.192245   -1.845298
  N      0.650842    0.001056   -2.850368
  H      1.447071    0.863632    3.167760
  H      1.628526    1.257851    1.431418
  H      2.072327   -0.362831    2.029381
  H     -0.247318   -0.719844    2.575045
  H     -0.657228    0.768060    2.048592
  H      0.479867   -1.366665    0.338758
  H     -1.813430   -1.414360   -0.679341
  H     -2.383516   -0.121490    0.477316
  H     -0.663823    1.452147   -0.325473

FINAL SINGLE POINT ENERGY      -304.890149112029
                    ***********************HURRAY********************
 Multiplicity           Mult            ....    1
 Number of Electrons    NEL             ....   52
 Basis Dimension        Dim             ....  271
FINAL SINGLE POINT ENERGY      -304.890149485401

VIBRATIONAL FREQUENCIES
-----------------------

   0:         0.00 cm**-1
   1:         0.00 cm**-1
   2:         0.00 cm**-1
   3:         0.00 cm**-1
   4:         0.00 cm**-1
   5:         0.00 cm**-1
   6:        91.77 cm**-1
   7:       114.05 cm**-1
   8:       168.82 cm**-1
   9:       217.04 cm**-1
  10:       268.26 cm**-1
  11:       363.43 cm**-1
  12:       439.09 cm**-1
  13:       520.49 cm**-1
  14:       538.04 cm**-1
  15:       783.91 cm**-1
  16:       812.25 cm**-1
  17:       843.68 cm**-1
  18:       925.29 cm**-1
  19:       964.78 cm**-1
  20:       984.97 cm**-1
  21:      1053.83 cm**-1
  22:      1058.87 cm**-1
  23:      1104.65 cm**-1
  24:      1106.55 cm**-1
  25:      1143.18 cm**-1
  26:      1186.63 cm**-1
  27:      1217.40 cm**-1
  28:      1245.14 cm**-1
  29:      1332.07 cm**-1
  30:      1380.92 cm**-1
  31:      1406.83 cm**-1
  32:      1446.25 cm**-1
  33:      1460.56 cm**-1
  34:      1490.23 cm**-1
  35:      1493.88 cm**-1
  36:      1505.29 cm**-1
  37:      1649.04 cm**-1
  38:      2396.55 cm**-1
  39:      3093.79 cm**-1
  40:      3160.58 cm**-1
  41:      3164.44 cm**-1
  42:      3196.74 cm**-1
  43:      3201.30 cm**-1
  44:      3212.65 cm**-1
  45:      3259.49 cm**-1
  46:      3425.30 cm**-1
  47:      3474.63 cm**-1

IR SPECTRUM
-----------

 Mode    freq (cm**-1)   T**2         TX         TY         TZ
-------------------------------------------------------------------
   6:        91.77    1.918357  (  0.358114   1.177194   0.635867)
   7:       114.05    3.389508  ( -1.203450   0.452078  -1.317893)
   8:       168.82    1.961099  ( -0.301819   1.105090  -0.805469)
   9:       217.04    0.738106  (  0.206664   0.051987  -0.832282)
  10:       268.26    1.476041  (  0.451933   1.125490   0.071204)
  11:       363.43    6.311040  (  0.132611  -0.739651   2.397159)
  12:       439.09    2.571010  (  1.254076   0.983954   0.173604)
  13:       520.49    1.327974  ( -0.779327  -0.553952   0.643242)
  14:       538.04    0.209486  (  0.082512   0.448949  -0.033503)
  15:       783.91   14.111609  ( -0.960966   2.806151  -2.305139)
  16:       812.25    2.245617  ( -0.775036   0.180472  -1.269789)
  17:       843.68    8.807690  ( -1.973231   1.993966  -0.968581)
  18:       925.29    5.303316  ( -1.388374  -1.702733  -0.690241)
  19:       964.78    5.938096  ( -1.387873   0.186225   1.994298)
  20:       984.97    5.733185  (  0.508618  -1.654268   1.654657)
  21:      1053.83    8.874468  (  1.461140   2.358488  -1.084929)
  22:      1058.87   25.801959  (  3.190702   0.947963   3.837023)
  23:      1104.65    4.330435  (  0.010182  -2.050864   0.352545)
  24:      1106.55    8.410469  ( -2.593998  -0.329871  -1.254124)
  25:      1143.18    1.011658  ( -0.070166  -0.825860   0.569817)
  26:      1186.63    3.158281  (  1.216647   0.895681   0.935846)
  27:      1217.40    0.027985  ( -0.144356  -0.022876  -0.081385)
  28:      1245.14    2.847308  ( -1.680685  -0.144870   0.040251)
  29:      1332.07    0.913797  (  0.505431  -0.470029   0.661369)
  30:      1380.92    1.906952  (  0.164635  -0.386446  -1.315487)
  31:      1406.83   36.042681  (  4.154016   3.268836   2.846321)
  32:      1446.25    5.832101  (  0.424956   0.351248  -2.351199)
  33:      1460.56    1.289770  (  0.543733   0.636203   0.767705)
  34:      1490.23   23.433140  ( -1.428270   4.600813  -0.475079)
  35:      1493.88   23.947461  ( -0.015709  -0.746652  -4.836292)
  36:      1505.29   17.547455  ( -3.422166  -0.867570  -2.254675)
  37:      1649.04   57.074876  ( -5.367665   1.220055   5.174410)
  38:      2396.55    1.564606  (  0.287517   0.529698  -1.096066)
  39:      3093.79    0.141422  ( -0.315476  -0.067043  -0.193397)
  40:      3160.58    4.623559  (  0.953855   1.847946  -0.546641)
  41:      3164.44    6.185381  ( -1.195435   0.199800  -2.171727)
  42:      3196.74    0.501655  (  0.483564  -0.344680  -0.386026)
  43:      3201.30    0.408693  ( -0.065804   0.454191  -0.445054)
  44:      3212.65    3.794771  (  1.035099  -1.617566  -0.326834)
  45:      3259.49    5.766194  (  0.016050   2.017393   1.302330)
  46:      3425.30   60.001003  (  4.290896   1.789197  -6.195804)
  47:      3474.63   73.673173  (  2.701526  -7.946785   1.795422)

--------------------------
THERMOCHEMISTRY AT 298.15K
--------------------------

Temperature         ... 298.15 K
Pressure            ... 1.00 atm
Total Mass          ... 97.14 AMU

Throughout the following assumptions are being made:
  (1) The electronic state is orbitally nondegenerate
  (2) There are no thermally accessible electronically excited states
  (3) Hindered rotations indicated by low frequency modes) are not
      treated as such but are treated as vibrations and this may
      case some error
  (4) All equations used are the standard statistical mechanics
      equations for an ideal gas
  (5) All vibrations are strinctly harmonic

------------
INNER ENERGY
------------

The inner energy is: U= E(el) + E(ZPE) + E(vib) + E(rot) + E(trans)
    E(el)   - is the total energy from the electronic structure calculation
              = E(kin-el) + E(nuc-el) + E(el-el) + E(nuc-nuc)
    E(ZPE)  - the the zero temperature vibrational energy from the frequency calculation
    E(vib)  - the the finite temperature correction to E(ZPE) due to population
              of excietd vibrational states
    E(rot)  - is the rotational thermal energy
    E(trans)- is the translational thermal energy

Summary of contributions to the inner energy U:
Electronic energy                ...   -304.89014949 Eh
Zero point energy                ...      0.14102468 Eh      88.49 kcal/mol
Thermal vibrational correction   ...      0.00467882 Eh       2.94 kcal/mol
Thermal rotational correction    ...      0.00141627 Eh       0.89 kcal/mol
Thermal translational correction ...      0.00141627 Eh       0.89 kcal/mol
-----------------------------------------------------------------------
Total thermal energy                   -304.74161345 Eh

Summary of corrections to the electronic energy:
(perhaps to be used in another calculation)
Total thermal correction                  0.00751136 Eh       4.71 kcal/mol
Non-thermal (ZPE) correction              0.14102468 Eh      88.49 kcal/mol
-----------------------------------------------------------------------
Total correction                          0.14853604 Eh      93.21 kcal/mol

--------
ENTHALPY
--------

The enthalpy is H = U + kB*T
                kB is Boltzmann's constant
Total free energy                 ...   -304.74161345 Eh
Thermal Enthalpy correction       ...      0.00094421 Eh       0.59 kcal/mol
-----------------------------------------------------------------------
Total Enthalpy                    ...   -304.74066924 Eh

-------
ENTROPY
-------

The entropy contributions are T*S = T*(S(el)+S(vib)+S(rot)+S(trans)
     S(el)   - electronic entropy
     S(vib)  - vibrational entropy
     S(rot)  - rotational entropy
     S(trans)- translational entropy
The entropies will be listed as mutliplied by the temperature to get
units of energy

Electronic entropy                ...      0.00000000 Eh      0.00 kcal/mol
Vibrational entropy               ...      0.00830242 Eh      5.21 kcal/mol
Rotational entropy                ...      0.01217682 Eh      7.64 kcal/mol
Translational entropy             ...      0.01883016 Eh     11.82 kcal/mol
-----------------------------------------------------------------------
Final entropy term                ...      0.03930939 Eh     24.67 kcal/mol

CAUTION: The rotational entropy is not quite correctly treated here
         because it includes a symmetry number that is not yet correctly
         implemented in ORCA!
For a nonlinear molecule the correct rotational entropy is:
    S(rot) = R*(ln(qrot/sn)+1.5)
    R    = 8.31441 J/mol/K = 1.987191683e-3 kcal/mol/K
    qrot = 267082.0377581
    sn is the rotational symmetry number. We have assumed 3 here
       if it is different for your molecule then you should correct
       the printed rotational entropy by manually evaluating the equation
       as given above

For convenience we print out the resulting values for sn=1 - 12:
 sn= 1  qrot/sn=  267082.0378 T*S(rot)=     8.29 kcal/mol T*S(tot)=    25.32 kcal/mol
 sn= 2  qrot/sn=  133541.0189 T*S(rot)=     7.88 kcal/mol T*S(tot)=    24.91 kcal/mol
 sn= 3  qrot/sn=   89027.3459 T*S(rot)=     7.64 kcal/mol T*S(tot)=    24.67 kcal/mol
 sn= 4  qrot/sn=   66770.5094 T*S(rot)=     7.47 kcal/mol T*S(tot)=    24.50 kcal/mol
 sn= 5  qrot/sn=   53416.4076 T*S(rot)=     7.34 kcal/mol T*S(tot)=    24.36 kcal/mol
 sn= 6  qrot/sn=   44513.6730 T*S(rot)=     7.23 kcal/mol T*S(tot)=    24.26 kcal/mol
 sn= 7  qrot/sn=   38154.5768 T*S(rot)=     7.14 kcal/mol T*S(tot)=    24.16 kcal/mol
 sn= 8  qrot/sn=   33385.2547 T*S(rot)=     7.06 kcal/mol T*S(tot)=    24.09 kcal/mol
 sn= 9  qrot/sn=   29675.7820 T*S(rot)=     6.99 kcal/mol T*S(tot)=    24.02 kcal/mol
 sn=10  qrot/sn=   26708.2038 T*S(rot)=     6.93 kcal/mol T*S(tot)=    23.95 kcal/mol
 sn=11  qrot/sn=   24280.1853 T*S(rot)=     6.87 kcal/mol T*S(tot)=    23.90 kcal/mol
 sn=12  qrot/sn=   22256.8365 T*S(rot)=     6.82 kcal/mol T*S(tot)=    23.85 kcal/mol

-------------------
GIBBS FREE ENTHALPY
-------------------

The Gibbs free enthalpy is G = H - T*S

Total enthalpy                    ...   -304.74066924 Eh
Total entropy correction          ...     -0.03930939 Eh    -24.67 kcal/mol
-----------------------------------------------------------------------
Final Gibbs free enthalpy         ...   -304.77997863 Eh

For completeness - the Gibbs free enthalpy minus the electronic energy
G-E(el)                           ...      0.11017085 Eh     69.13 kcal/mol

                             ****ORCA TERMINATED NORMALLY****
TOTAL RUN TIME: 0 days 0 hours 27 minutes 21 seconds 966 msec
