                         Program Version 3.0.3 - RELEASE   -
|  1> ! NORI PBE0 def2-TZVP UseSym TightOPT Freq TightSCF Grid3 FinalGrid5 XYZFile
|  2> % pal
|  3>     nprocs 8
|  4> end
|  5> %method
|  6>     SymThresh 5.0e-2
|  7> end
|  8> % geom
|  9>     MaxIter 10
| 10> end
| 11> % maxcore 2000
| 12> % output
| 13>     printlevel mini
| 14>     print[ P_Basis ] 0
| 15>     print[ P_SCFInfo ] 1
| 16>     print[ P_SCFIterInfo ] 1
| 17>     print[ P_OrbEn ] 0
| 18>     print[ P_Cartesian ] 0
| 19> end
| 20> % elprop
| 21>     Dipole false
| 22> end
| 23> *xyz 1 1
| 24>  C        1.0861629300     0.4220250143    -0.3541600620
| 25>  N        2.3332246973    -0.0132604224     0.3301595733
| 26>  C        2.9950136540    -1.2225599150    -0.2635261843
| 27>  C        4.2229625822    -1.7584583918     0.4712720053
| 28>  C        3.7127880551    -3.1714428103     0.1239046125
| 29>  C        2.2986656720    -2.5835435296    -0.0993558287
| 30>  C        1.4379892588    -3.1370947110    -1.2087820445
| 31>  H        0.6941721498     1.3070493841     0.1437864057
| 32>  H        0.3622650743    -0.3879307400    -0.3039451659
| 33>  H        1.3204557678     0.6483790907    -1.3922423596
| 34>  H        2.1303629189    -0.2147334310     1.3114947734
| 35>  H        3.0058568802     0.7567970366     0.3351919884
| 36>  H        3.1942602911    -0.9799800720    -1.3095735755
| 37>  H        4.1654776434    -1.5742194228     1.5486769466
| 38>  H        5.2021316600    -1.4482723819     0.1107137889
| 39>  H        4.1400050658    -3.5355724184    -0.8115372915
| 40>  H        3.8185795702    -3.9414931983     0.8851631523
| 41>  H        1.7592471497    -2.5967773701     0.8571238356
| 42>  H        1.9647593852    -3.1050207902    -2.1658562552
| 43>  H        0.4951442181    -2.5974906380    -1.3205796248
| 44>  H        1.1901253764    -4.1804902829    -1.0052086902
| 45> *
| 46>
| 47>                          ****END OF INPUT****
 Total Charge           Charge          ....    1
 Multiplicity           Mult            ....    1
 Number of Electrons    NEL             ....   56
FINAL SINGLE POINT ENERGY      -291.311810497975
FINAL SINGLE POINT ENERGY      -291.311811859986

CARTESIAN COORDINATES (ANGSTROEM)
---------------------------------
  C      1.438231    0.000389    2.044878
  N     -0.000029   -0.001177    1.665810
  C     -0.286343   -0.447133    0.261347
  C     -1.740999   -0.364579   -0.198926
  C     -1.195413    0.072991   -1.573075
  C      0.134451    0.477715   -0.892919
  C      1.436150    0.242908   -1.620517
  H      1.536589    0.326112    3.079020
  H      1.969630    0.681902    1.385451
  H      1.828869   -1.008725    1.930577
  H     -0.383451    0.939035    1.782604
  H     -0.522100   -0.598759    2.310444
  H      0.136469   -1.449636    0.167009
  H     -2.276137    0.454757    0.290218
  H     -2.343438   -1.269468   -0.135165
  H     -1.053441   -0.778557   -2.240547
  H     -1.741708    0.850617   -2.102509
  H      0.054715    1.521946   -0.562666
  H      1.529251   -0.800864   -1.930319
  H      2.309952    0.497300   -1.015500
  H      1.477938    0.857983   -2.521597

FINAL SINGLE POINT ENERGY      -291.311812291125
                    ***********************HURRAY********************
 Multiplicity           Mult            ....    1
 Number of Electrons    NEL             ....   56
 Basis Dimension        Dim             ....  301
FINAL SINGLE POINT ENERGY      -291.311812570649

VIBRATIONAL FREQUENCIES
-----------------------

   0:         0.00 cm**-1
   1:         0.00 cm**-1
   2:         0.00 cm**-1
   3:         0.00 cm**-1
   4:         0.00 cm**-1
   5:         0.00 cm**-1
   6:        76.44 cm**-1
   7:       121.90 cm**-1
   8:       189.12 cm**-1
   9:       214.46 cm**-1
  10:       223.67 cm**-1
  11:       305.90 cm**-1
  12:       315.68 cm**-1
  13:       408.49 cm**-1
  14:       471.28 cm**-1
  15:       602.37 cm**-1
  16:       753.28 cm**-1
  17:       797.95 cm**-1
  18:       844.65 cm**-1
  19:       907.33 cm**-1
  20:       934.28 cm**-1
  21:       950.61 cm**-1
  22:       960.40 cm**-1
  23:       999.27 cm**-1
  24:      1033.46 cm**-1
  25:      1053.05 cm**-1
  26:      1094.64 cm**-1
  27:      1145.38 cm**-1
  28:      1147.64 cm**-1
  29:      1194.71 cm**-1
  30:      1203.54 cm**-1
  31:      1233.72 cm**-1
  32:      1259.45 cm**-1
  33:      1269.98 cm**-1
  34:      1279.80 cm**-1
  35:      1293.38 cm**-1
  36:      1350.67 cm**-1
  37:      1370.85 cm**-1
  38:      1410.25 cm**-1
  39:      1418.15 cm**-1
  40:      1423.66 cm**-1
  41:      1458.60 cm**-1
  42:      1477.21 cm**-1
  43:      1483.54 cm**-1
  44:      1486.64 cm**-1
  45:      1494.30 cm**-1
  46:      1497.91 cm**-1
  47:      1500.33 cm**-1
  48:      1647.82 cm**-1
  49:      3030.04 cm**-1
  50:      3053.65 cm**-1
  51:      3070.32 cm**-1
  52:      3095.24 cm**-1
  53:      3098.15 cm**-1
  54:      3108.20 cm**-1
  55:      3126.39 cm**-1
  56:      3136.89 cm**-1
  57:      3151.14 cm**-1
  58:      3167.75 cm**-1
  59:      3192.14 cm**-1
  60:      3203.38 cm**-1
  61:      3435.40 cm**-1
  62:      3486.14 cm**-1

IR SPECTRUM
-----------

 Mode    freq (cm**-1)   T**2         TX         TY         TZ
-------------------------------------------------------------------
   6:        76.44    1.532375  ( -0.307048  -1.194262   0.108788)
   7:       121.90    0.418226  ( -0.285439   0.554844   0.169996)
   8:       189.12    1.223910  ( -0.096090  -0.631727   0.903104)
   9:       214.46    0.790877  (  0.332979   0.820873  -0.078549)
  10:       223.67    1.086803  ( -0.336179  -0.975523  -0.148797)
  11:       305.90    1.405489  ( -0.536235   0.933555  -0.496402)
  12:       315.68    1.548085  ( -0.428773  -0.446792   1.079174)
  13:       408.49    3.094577  ( -1.179164  -0.624578  -1.146320)
  14:       471.28    1.767709  (  0.195070   0.110052  -1.310551)
  15:       602.37    1.807699  ( -0.137699   1.142591   0.695144)
  16:       753.28    4.091737  (  0.038285   0.687521  -1.901995)
  17:       797.95    1.702356  ( -0.213968   1.106665  -0.657164)
  18:       844.65    9.829273  ( -0.002377  -2.877027   1.245786)
  19:       907.33    1.111304  ( -0.847775  -0.623992   0.056702)
  20:       934.28    4.321004  ( -1.005399  -1.816058  -0.110046)
  21:       950.61   18.806423  ( -0.578385   0.028099  -4.297802)
  22:       960.40    2.244573  (  1.111859  -0.387143   0.926533)
  23:       999.27    1.876499  ( -0.096606   1.239014   0.576203)
  24:      1033.46   28.510916  (  3.691245   0.578332   3.814598)
  25:      1053.05    0.815696  ( -0.247065   0.541260  -0.679480)
  26:      1094.64    0.173973  ( -0.112072  -0.347764   0.201178)
  27:      1145.38    1.525667  ( -0.639795  -0.111885  -1.050624)
  28:      1147.64    5.825327  (  1.763045   0.153315   1.641186)
  29:      1194.71    1.951789  (  0.953298   0.803570   0.630308)
  30:      1203.54    1.184927  (  0.779876   0.656051   0.382517)
  31:      1233.72    0.366818  ( -0.361199   0.141451  -0.465128)
  32:      1259.45    1.249655  ( -0.544505  -0.058559  -0.974546)
  33:      1269.98    0.972760  ( -0.198664  -0.111160   0.959654)
  34:      1279.80    6.566190  (  2.189369   0.326931   1.290725)
  35:      1293.38    1.557533  ( -0.251817  -1.140156   0.440642)
  36:      1350.67    4.101826  ( -0.762413  -1.613357   0.957931)
  37:      1370.85    4.214995  ( -1.958389  -0.221056  -0.575190)
  38:      1410.25   29.469988  ( -3.276023  -1.132245  -4.178000)
  39:      1418.15    6.372556  (  1.927242  -1.024538  -1.268313)
  40:      1423.66   20.474738  ( -1.190868  -0.622306  -4.320799)
  41:      1458.60    5.383702  ( -2.133035  -0.144427  -0.901668)
  42:      1477.21   13.415871  ( -1.230695  -0.089130   3.448669)
  43:      1483.54   12.027336  ( -1.061402   2.557918  -2.087539)
  44:      1486.64    1.142552  (  0.819439  -0.044261   0.684918)
  45:      1494.30   17.106223  (  0.763304   3.461821  -2.130583)
  46:      1497.91   42.079438  (  1.944308   4.037602   4.690082)
  47:      1500.33    5.843753  (  1.933625  -1.440962   0.168750)
  48:      1647.82   53.830175  ( -5.117733   2.533749   4.606419)
  49:      3030.04   12.659362  ( -0.588587   2.526790   2.434802)
  50:      3053.65    8.835837  ( -2.892677   0.682543   0.048911)
  51:      3070.32   10.139127  (  1.610804  -0.929776  -2.584561)
  52:      3095.24    0.121575  (  0.332369   0.101780   0.027329)
  53:      3098.15    7.371951  (  0.250833   0.516084   2.653807)
  54:      3108.20    3.701750  (  1.413934  -1.256658  -0.351213)
  55:      3126.39   17.275639  ( -2.220030  -2.264514  -2.686834)
  56:      3136.89    5.124789  ( -0.610477   1.882376  -1.099440)
  57:      3151.14    5.580741  (  1.697080   1.621806   0.265338)
  58:      3167.75    4.881282  ( -0.662523   2.068715  -0.403439)
  59:      3192.14    0.102292  (  0.262791  -0.170298   0.065049)
  60:      3203.38    0.083363  (  0.161284   0.072463   0.228252)
  61:      3435.40   39.783374  ( -4.258342   0.850548   4.574545)
  62:      3486.14   61.128702  ( -0.726624  -7.298854   2.706927)

--------------------------
THERMOCHEMISTRY AT 298.15K
--------------------------

Temperature         ... 298.15 K
Pressure            ... 1.00 atm
Total Mass          ... 100.18 AMU

Throughout the following assumptions are being made:
  (1) The electronic state is orbitally nondegenerate
  (2) There are no thermally accessible electronically excited states
  (3) Hindered rotations indicated by low frequency modes) are not
      treated as such but are treated as vibrations and this may
      case some error
  (4) All equations used are the standard statistical mechanics
      equations for an ideal gas
  (5) All vibrations are strinctly harmonic

------------
INNER ENERGY
------------

The inner energy is: U= E(el) + E(ZPE) + E(vib) + E(rot) + E(trans)
    E(el)   - is the total energy from the electronic structure calculation
              = E(kin-el) + E(nuc-el) + E(el-el) + E(nuc-nuc)
    E(ZPE)  - the the zero temperature vibrational energy from the frequency calculation
    E(vib)  - the the finite temperature correction to E(ZPE) due to population
              of excietd vibrational states
    E(rot)  - is the rotational thermal energy
    E(trans)- is the translational thermal energy

Summary of contributions to the inner energy U:
Electronic energy                ...   -291.31181257 Eh
Zero point energy                ...      0.19970552 Eh     125.32 kcal/mol
Thermal vibrational correction   ...      0.00540269 Eh       3.39 kcal/mol
Thermal rotational correction    ...      0.00141627 Eh       0.89 kcal/mol
Thermal translational correction ...      0.00141627 Eh       0.89 kcal/mol
-----------------------------------------------------------------------
Total thermal energy                   -291.10387182 Eh

Summary of corrections to the electronic energy:
(perhaps to be used in another calculation)
Total thermal correction                  0.00823523 Eh       5.17 kcal/mol
Non-thermal (ZPE) correction              0.19970552 Eh     125.32 kcal/mol
-----------------------------------------------------------------------
Total correction                          0.20794075 Eh     130.48 kcal/mol

--------
ENTHALPY
--------

The enthalpy is H = U + kB*T
                kB is Boltzmann's constant
Total free energy                 ...   -291.10387182 Eh
Thermal Enthalpy correction       ...      0.00094421 Eh       0.59 kcal/mol
-----------------------------------------------------------------------
Total Enthalpy                    ...   -291.10292761 Eh

-------
ENTROPY
-------

The entropy contributions are T*S = T*(S(el)+S(vib)+S(rot)+S(trans)
     S(el)   - electronic entropy
     S(vib)  - vibrational entropy
     S(rot)  - rotational entropy
     S(trans)- translational entropy
The entropies will be listed as mutliplied by the temperature to get
units of energy

Electronic entropy                ...      0.00000000 Eh      0.00 kcal/mol
Vibrational entropy               ...      0.00950618 Eh      5.97 kcal/mol
Rotational entropy                ...      0.01216244 Eh      7.63 kcal/mol
Translational entropy             ...      0.01887386 Eh     11.84 kcal/mol
-----------------------------------------------------------------------
Final entropy term                ...      0.04054249 Eh     25.44 kcal/mol

CAUTION: The rotational entropy is not quite correctly treated here
         because it includes a symmetry number that is not yet correctly
         implemented in ORCA!
For a nonlinear molecule the correct rotational entropy is:
    S(rot) = R*(ln(qrot/sn)+1.5)
    R    = 8.31441 J/mol/K = 1.987191683e-3 kcal/mol/K
    qrot = 263046.8519676
    sn is the rotational symmetry number. We have assumed 3 here
       if it is different for your molecule then you should correct
       the printed rotational entropy by manually evaluating the equation
       as given above

For convenience we print out the resulting values for sn=1 - 12:
 sn= 1  qrot/sn=  263046.8520 T*S(rot)=     8.28 kcal/mol T*S(tot)=    26.09 kcal/mol
 sn= 2  qrot/sn=  131523.4260 T*S(rot)=     7.87 kcal/mol T*S(tot)=    25.68 kcal/mol
 sn= 3  qrot/sn=   87682.2840 T*S(rot)=     7.63 kcal/mol T*S(tot)=    25.44 kcal/mol
 sn= 4  qrot/sn=   65761.7130 T*S(rot)=     7.46 kcal/mol T*S(tot)=    25.27 kcal/mol
 sn= 5  qrot/sn=   52609.3704 T*S(rot)=     7.33 kcal/mol T*S(tot)=    25.14 kcal/mol
 sn= 6  qrot/sn=   43841.1420 T*S(rot)=     7.22 kcal/mol T*S(tot)=    25.03 kcal/mol
 sn= 7  qrot/sn=   37578.1217 T*S(rot)=     7.13 kcal/mol T*S(tot)=    24.94 kcal/mol
 sn= 8  qrot/sn=   32880.8565 T*S(rot)=     7.05 kcal/mol T*S(tot)=    24.86 kcal/mol
 sn= 9  qrot/sn=   29227.4280 T*S(rot)=     6.98 kcal/mol T*S(tot)=    24.79 kcal/mol
 sn=10  qrot/sn=   26304.6852 T*S(rot)=     6.92 kcal/mol T*S(tot)=    24.73 kcal/mol
 sn=11  qrot/sn=   23913.3502 T*S(rot)=     6.86 kcal/mol T*S(tot)=    24.67 kcal/mol
 sn=12  qrot/sn=   21920.5710 T*S(rot)=     6.81 kcal/mol T*S(tot)=    24.62 kcal/mol

-------------------
GIBBS FREE ENTHALPY
-------------------

The Gibbs free enthalpy is G = H - T*S

Total enthalpy                    ...   -291.10292761 Eh
Total entropy correction          ...     -0.04054249 Eh    -25.44 kcal/mol
-----------------------------------------------------------------------
Final Gibbs free enthalpy         ...   -291.14347010 Eh

For completeness - the Gibbs free enthalpy minus the electronic energy
G-E(el)                           ...      0.16834247 Eh    105.64 kcal/mol

                             ****ORCA TERMINATED NORMALLY****
TOTAL RUN TIME: 0 days 0 hours 49 minutes 11 seconds 286 msec
