                         Program Version 3.0.3 - RELEASE   -
|  1> ! NORI PBE0 def2-TZVP UseSym TightOPT Freq TightSCF Grid3 FinalGrid5 XYZFile
|  2> % pal
|  3>     nprocs 8
|  4> end
|  5> %method
|  6>     SymThresh 5.0e-2
|  7> end
|  8> % geom
|  9>     MaxIter 10
| 10> end
| 11> % maxcore 2000
| 12> % output
| 13>     printlevel mini
| 14>     print[ P_Basis ] 0
| 15>     print[ P_SCFInfo ] 1
| 16>     print[ P_SCFIterInfo ] 1
| 17>     print[ P_OrbEn ] 0
| 18>     print[ P_Cartesian ] 0
| 19> end
| 20> % elprop
| 21>     Dipole false
| 22> end
| 23> *xyz 1 1
| 24>  C        2.7369947468     0.7715192258    -0.3569155491
| 25>  N        3.4648672964    -0.0899121296     0.6155231478
| 26>  C        3.0672480062    -1.5271228664     0.6341238889
| 27>  C        1.6139027031    -1.7262551575     0.9424674408
| 28>  C        4.1082245206    -2.4549211007     1.1756568354
| 29>  C        3.8141604486    -2.4340446334    -0.2984493662
| 30>  C        4.8551036829    -1.9624678468    -1.2768455366
| 31>  H        3.1727544435     1.7689763070    -0.3356929244
| 32>  H        1.6890278389     0.8197498325    -0.0742719303
| 33>  H        2.8401754591     0.3342253845    -1.3472449140
| 34>  H        3.3516725259     0.2898454120     1.5586479033
| 35>  H        4.4638741923    -0.0429256305     0.4083354563
| 36>  H        0.9603608698    -1.3671234026     0.1447958110
| 37>  H        1.3279197775    -1.2421949147     1.8816040369
| 38>  H        1.4221418017    -2.7923264744     1.0613081549
| 39>  H        5.0631433655    -2.0413590423     1.4855796708
| 40>  H        3.7664968526    -3.2803726288     1.7869423055
| 41>  H        3.2014530255    -3.2496287436    -0.6691837566
| 42>  H        5.5092073534    -1.1797733353    -0.8748510319
| 43>  H        4.4108470332    -1.5986405314    -2.2056695379
| 44>  H        5.5162440564    -2.7913977240    -1.5349901045
| 45> *
| 46>
| 47>                          ****END OF INPUT****
 Total Charge           Charge          ....    1
 Multiplicity           Mult            ....    1
 Number of Electrons    NEL             ....   56
FINAL SINGLE POINT ENERGY      -291.307002058474
FINAL SINGLE POINT ENERGY      -291.307005002913
FINAL SINGLE POINT ENERGY      -291.307007297373
FINAL SINGLE POINT ENERGY      -291.307007904521

CARTESIAN COORDINATES (ANGSTROEM)
---------------------------------
  C      1.422271    0.005774    1.727015
  N      0.001219   -0.002375    1.280916
  C     -0.249954    0.516089   -0.094958
  C      0.223309    1.924994   -0.287281
  C     -1.522073    0.036134   -0.718196
  C     -0.201994   -0.495366   -1.202269
  C      0.157374   -1.943692   -1.008602
  H      1.487118   -0.480869    2.698748
  H      1.764802    1.033882    1.804970
  H      2.016124   -0.533475    0.992852
  H     -0.565733    0.535720    1.940560
  H     -0.348242   -0.961144    1.320962
  H      1.310710    2.013656   -0.246763
  H     -0.217257    2.606527    0.447104
  H     -0.091730    2.268874   -1.272319
  H     -2.148990   -0.652350   -0.159203
  H     -2.076307    0.744891   -1.319981
  H      0.160839   -0.074857   -2.134686
  H     -0.262229   -2.379312   -0.094858
  H      1.238204   -2.100680   -1.002236
  H     -0.252404   -2.533661   -1.830198

FINAL SINGLE POINT ENERGY      -291.307008292044
                    ***********************HURRAY********************
 Multiplicity           Mult            ....    1
 Number of Electrons    NEL             ....   56
 Basis Dimension        Dim             ....  301
FINAL SINGLE POINT ENERGY      -291.307008427671

VIBRATIONAL FREQUENCIES
-----------------------

   0:         0.00 cm**-1
   1:         0.00 cm**-1
   2:         0.00 cm**-1
   3:         0.00 cm**-1
   4:         0.00 cm**-1
   5:         0.00 cm**-1
   6:        90.55 cm**-1
   7:       158.41 cm**-1
   8:       200.83 cm**-1
   9:       205.46 cm**-1
  10:       228.60 cm**-1
  11:       269.13 cm**-1
  12:       292.18 cm**-1
  13:       353.49 cm**-1
  14:       408.77 cm**-1
  15:       434.41 cm**-1
  16:       521.46 cm**-1
  17:       681.55 cm**-1
  18:       792.51 cm**-1
  19:       835.31 cm**-1
  20:       879.80 cm**-1
  21:       882.95 cm**-1
  22:       946.70 cm**-1
  23:       974.21 cm**-1
  24:      1014.55 cm**-1
  25:      1026.53 cm**-1
  26:      1067.26 cm**-1
  27:      1093.97 cm**-1
  28:      1120.86 cm**-1
  29:      1134.74 cm**-1
  30:      1159.61 cm**-1
  31:      1186.24 cm**-1
  32:      1204.31 cm**-1
  33:      1281.64 cm**-1
  34:      1310.99 cm**-1
  35:      1371.50 cm**-1
  36:      1403.81 cm**-1
  37:      1415.99 cm**-1
  38:      1423.00 cm**-1
  39:      1451.49 cm**-1
  40:      1457.42 cm**-1
  41:      1471.37 cm**-1
  42:      1479.10 cm**-1
  43:      1484.75 cm**-1
  44:      1492.69 cm**-1
  45:      1499.21 cm**-1
  46:      1504.00 cm**-1
  47:      1524.37 cm**-1
  48:      1633.55 cm**-1
  49:      3037.41 cm**-1
  50:      3052.96 cm**-1
  51:      3099.35 cm**-1
  52:      3109.95 cm**-1
  53:      3127.49 cm**-1
  54:      3138.88 cm**-1
  55:      3142.01 cm**-1
  56:      3156.07 cm**-1
  57:      3175.57 cm**-1
  58:      3195.78 cm**-1
  59:      3210.14 cm**-1
  60:      3238.10 cm**-1
  61:      3432.59 cm**-1
  62:      3484.28 cm**-1

IR SPECTRUM
-----------

 Mode    freq (cm**-1)   T**2         TX         TY         TZ
-------------------------------------------------------------------
   6:        90.55    1.239213  ( -0.530155   0.962847   0.176279)
   7:       158.41    1.686301  ( -0.272433   0.919795   0.875248)
   8:       200.83    0.032355  (  0.053448  -0.024423   0.170004)
   9:       205.46    0.496220  (  0.158426   0.267540   0.632094)
  10:       228.60    0.426494  ( -0.313440   0.017243  -0.572671)
  11:       269.13    7.769700  (  0.339939  -1.689164  -2.191088)
  12:       292.18    0.024344  (  0.038751  -0.092851  -0.119253)
  13:       353.49    4.456408  (  0.757013  -1.816658   0.763606)
  14:       408.77    5.666815  (  1.329995   0.747564   1.827314)
  15:       434.41    1.897282  (  0.302414   0.028646   1.343506)
  16:       521.46    3.408926  (  1.140981  -1.309168  -0.627031)
  17:       681.55    1.951450  ( -1.252934   0.008034  -0.617690)
  18:       792.51    3.373621  (  0.350048  -1.623437   0.784564)
  19:       835.31   20.153171  (  0.530231   3.782929   2.358277)
  20:       879.80    3.086244  ( -1.658521  -0.346574   0.464154)
  21:       882.95    1.026288  ( -0.495459   0.876947  -0.108500)
  22:       946.70    0.545434  ( -0.284063  -0.022913   0.681334)
  23:       974.21    0.992385  (  0.037565   0.873575  -0.477325)
  24:      1014.55    5.915880  (  0.098890   1.156080   2.137658)
  25:      1026.53   11.463822  ( -2.640508  -0.626731  -2.024536)
  26:      1067.26   14.385898  (  0.517940   1.637075   3.381956)
  27:      1093.97    2.422997  ( -1.427038  -0.561143  -0.267729)
  28:      1120.86    7.427066  ( -0.750749   0.869815  -2.471207)
  29:      1134.74    1.310451  (  0.009379   0.870561   0.743294)
  30:      1159.61    7.672405  ( -0.644705  -0.329711  -2.673584)
  31:      1186.24    1.445459  ( -0.865306   0.800148   0.237631)
  32:      1204.31    5.924679  ( -1.775891   1.188281  -1.165708)
  33:      1281.64    5.778442  (  0.164957  -1.679391   1.711981)
  34:      1310.99    0.482153  ( -0.025831  -0.455635  -0.523337)
  35:      1371.50    1.107985  (  0.037831   0.722692   0.764375)
  36:      1403.81   41.726150  ( -4.121475   1.691775  -4.677338)
  37:      1415.99    5.525562  ( -0.675282  -0.983227   2.025542)
  38:      1423.00   12.316412  (  0.461590   3.019924  -1.727254)
  39:      1451.49    6.004855  (  2.257670  -0.446727   0.841557)
  40:      1457.42    1.654167  (  0.388123   0.475149   1.130381)
  41:      1471.37   10.686766  (  0.395930   2.095531   2.477651)
  42:      1479.10    8.372501  ( -2.497796   0.826100   1.204607)
  43:      1484.75   11.371667  ( -0.805420  -1.394477  -2.962836)
  44:      1492.69   15.393744  (  1.803225  -3.373008   0.874609)
  45:      1499.21   20.083482  ( -2.875898  -1.855589   2.893005)
  46:      1504.00   16.070017  (  0.640849   0.383842  -3.938527)
  47:      1524.37    3.579003  ( -1.244713  -0.576552  -1.302797)
  48:      1633.55   69.444586  ( -5.303590  -2.086144   6.079846)
  49:      3037.41   18.497860  ( -0.206586   1.919715  -3.843160)
  50:      3052.96    7.905765  (  0.780317   1.843289   1.974629)
  51:      3099.35    0.183553  (  0.224460   0.091909   0.353162)
  52:      3109.95   12.538348  ( -2.274594   0.802544   2.592392)
  53:      3127.49    5.616844  (  2.098015  -0.717154  -0.837179)
  54:      3138.88    2.470732  ( -1.509091  -0.070317  -0.434087)
  55:      3142.01    2.149556  ( -0.038814  -0.438655   1.398439)
  56:      3156.07    2.358681  ( -1.102617  -0.946774  -0.496524)
  57:      3175.57    0.588665  (  0.397375   0.451153  -0.476675)
  58:      3195.78    0.018723  ( -0.078151  -0.031568   0.107793)
  59:      3210.14    0.009781  ( -0.019319   0.096993   0.000776)
  60:      3238.10    0.061425  ( -0.214428  -0.081098  -0.094176)
  61:      3432.59   28.859289  (  4.347176   1.043351  -2.978720)
  62:      3484.28   69.581128  ( -0.646973   7.555107   3.476049)

--------------------------
THERMOCHEMISTRY AT 298.15K
--------------------------

Temperature         ... 298.15 K
Pressure            ... 1.00 atm
Total Mass          ... 100.18 AMU

Throughout the following assumptions are being made:
  (1) The electronic state is orbitally nondegenerate
  (2) There are no thermally accessible electronically excited states
  (3) Hindered rotations indicated by low frequency modes) are not
      treated as such but are treated as vibrations and this may
      case some error
  (4) All equations used are the standard statistical mechanics
      equations for an ideal gas
  (5) All vibrations are strinctly harmonic

------------
INNER ENERGY
------------

The inner energy is: U= E(el) + E(ZPE) + E(vib) + E(rot) + E(trans)
    E(el)   - is the total energy from the electronic structure calculation
              = E(kin-el) + E(nuc-el) + E(el-el) + E(nuc-nuc)
    E(ZPE)  - the the zero temperature vibrational energy from the frequency calculation
    E(vib)  - the the finite temperature correction to E(ZPE) due to population
              of excietd vibrational states
    E(rot)  - is the rotational thermal energy
    E(trans)- is the translational thermal energy

Summary of contributions to the inner energy U:
Electronic energy                ...   -291.30700843 Eh
Zero point energy                ...      0.19813180 Eh     124.33 kcal/mol
Thermal vibrational correction   ...      0.00583985 Eh       3.66 kcal/mol
Thermal rotational correction    ...      0.00141627 Eh       0.89 kcal/mol
Thermal translational correction ...      0.00141627 Eh       0.89 kcal/mol
-----------------------------------------------------------------------
Total thermal energy                   -291.10020424 Eh

Summary of corrections to the electronic energy:
(perhaps to be used in another calculation)
Total thermal correction                  0.00867239 Eh       5.44 kcal/mol
Non-thermal (ZPE) correction              0.19813180 Eh     124.33 kcal/mol
-----------------------------------------------------------------------
Total correction                          0.20680419 Eh     129.77 kcal/mol

--------
ENTHALPY
--------

The enthalpy is H = U + kB*T
                kB is Boltzmann's constant
Total free energy                 ...   -291.10020424 Eh
Thermal Enthalpy correction       ...      0.00094421 Eh       0.59 kcal/mol
-----------------------------------------------------------------------
Total Enthalpy                    ...   -291.09926003 Eh

-------
ENTROPY
-------

The entropy contributions are T*S = T*(S(el)+S(vib)+S(rot)+S(trans)
     S(el)   - electronic entropy
     S(vib)  - vibrational entropy
     S(rot)  - rotational entropy
     S(trans)- translational entropy
The entropies will be listed as mutliplied by the temperature to get
units of energy

Electronic entropy                ...      0.00000000 Eh      0.00 kcal/mol
Vibrational entropy               ...      0.00995583 Eh      6.25 kcal/mol
Rotational entropy                ...      0.01208999 Eh      7.59 kcal/mol
Translational entropy             ...      0.01887386 Eh     11.84 kcal/mol
-----------------------------------------------------------------------
Final entropy term                ...      0.04091968 Eh     25.68 kcal/mol

CAUTION: The rotational entropy is not quite correctly treated here
         because it includes a symmetry number that is not yet correctly
         implemented in ORCA!
For a nonlinear molecule the correct rotational entropy is:
    S(rot) = R*(ln(qrot/sn)+1.5)
    R    = 8.31441 J/mol/K = 1.987191683e-3 kcal/mol/K
    qrot = 243616.2277130
    sn is the rotational symmetry number. We have assumed 3 here
       if it is different for your molecule then you should correct
       the printed rotational entropy by manually evaluating the equation
       as given above

For convenience we print out the resulting values for sn=1 - 12:
 sn= 1  qrot/sn=  243616.2277 T*S(rot)=     8.24 kcal/mol T*S(tot)=    26.33 kcal/mol
 sn= 2  qrot/sn=  121808.1139 T*S(rot)=     7.83 kcal/mol T*S(tot)=    25.92 kcal/mol
 sn= 3  qrot/sn=   81205.4092 T*S(rot)=     7.59 kcal/mol T*S(tot)=    25.68 kcal/mol
 sn= 4  qrot/sn=   60904.0569 T*S(rot)=     7.42 kcal/mol T*S(tot)=    25.51 kcal/mol
 sn= 5  qrot/sn=   48723.2455 T*S(rot)=     7.28 kcal/mol T*S(tot)=    25.37 kcal/mol
 sn= 6  qrot/sn=   40602.7046 T*S(rot)=     7.18 kcal/mol T*S(tot)=    25.27 kcal/mol
 sn= 7  qrot/sn=   34802.3182 T*S(rot)=     7.08 kcal/mol T*S(tot)=    25.18 kcal/mol
 sn= 8  qrot/sn=   30452.0285 T*S(rot)=     7.01 kcal/mol T*S(tot)=    25.10 kcal/mol
 sn= 9  qrot/sn=   27068.4697 T*S(rot)=     6.94 kcal/mol T*S(tot)=    25.03 kcal/mol
 sn=10  qrot/sn=   24361.6228 T*S(rot)=     6.87 kcal/mol T*S(tot)=    24.96 kcal/mol
 sn=11  qrot/sn=   22146.9298 T*S(rot)=     6.82 kcal/mol T*S(tot)=    24.91 kcal/mol
 sn=12  qrot/sn=   20301.3523 T*S(rot)=     6.77 kcal/mol T*S(tot)=    24.86 kcal/mol

-------------------
GIBBS FREE ENTHALPY
-------------------

The Gibbs free enthalpy is G = H - T*S

Total enthalpy                    ...   -291.09926003 Eh
Total entropy correction          ...     -0.04091968 Eh    -25.68 kcal/mol
-----------------------------------------------------------------------
Final Gibbs free enthalpy         ...   -291.14017971 Eh

For completeness - the Gibbs free enthalpy minus the electronic energy
G-E(el)                           ...      0.16682872 Eh    104.69 kcal/mol

                             ****ORCA TERMINATED NORMALLY****
TOTAL RUN TIME: 0 days 0 hours 53 minutes 37 seconds 108 msec
