                         Program Version 3.0.3 - RELEASE   -
|  1> ! NORI PBE0 def2-TZVP UseSym TightOPT Freq TightSCF Grid3 FinalGrid5 XYZFile
|  2> % pal
|  3>     nprocs 8
|  4> end
|  5> %method
|  6>     SymThresh 5.0e-2
|  7> end
|  8> % geom
|  9>     MaxIter 10
| 10> end
| 11> % maxcore 2000
| 12> % output
| 13>     printlevel mini
| 14>     print[ P_Basis ] 0
| 15>     print[ P_SCFInfo ] 1
| 16>     print[ P_SCFIterInfo ] 1
| 17>     print[ P_OrbEn ] 0
| 18>     print[ P_Cartesian ] 0
| 19> end
| 20> % elprop
| 21>     Dipole false
| 22> end
| 23> *xyz 1 1
| 24>  C        3.0603775783     0.2556652572     1.1323155903
| 25>  N        2.2650115335     0.0069918335    -0.1022836558
| 26>  C        2.8624003030     0.5678079237    -1.3321026428
| 27>  C        1.9624471811     0.9855830902    -2.4556752691
| 28>  C        0.4664520758     0.8350862403    -2.3934088338
| 29>  C        2.6762211290     2.0205670220    -1.6324892961
| 30>  C        3.8176684215     2.8330843806    -2.1739097519
| 31>  H        2.5444092638    -0.1818662960     1.9854180473
| 32>  H        3.1657816102     1.3304409031     1.2589116018
| 33>  H        4.0395663949    -0.2021394208     1.0103914847
| 34>  H        2.1309063953    -0.9994633668    -0.2244183782
| 35>  H        1.3269644778     0.3974124298     0.0082277659
| 36>  H        3.8127526421     0.0928593872    -1.5455470328
| 37>  H        2.3900648108     0.7873165989    -3.4338582216
| 38>  H        0.0424126647     1.1363137593    -1.4289802627
| 39>  H        0.1473771935    -0.1870978116    -2.6107652535
| 40>  H        0.0007308533     1.4854656927    -3.1353944703
| 41>  H        2.0228691376     2.5508749952    -0.9400767532
| 42>  H        4.4313260921     2.2440299844    -2.8589339761
| 43>  H        4.4614124498     3.2012057022    -1.3725898583
| 44>  H        3.4404077921     3.6958916950    -2.7252108339
| 45> *
| 46>
| 47>                          ****END OF INPUT****
 Total Charge           Charge          ....    1
 Multiplicity           Mult            ....    1
 Number of Electrons    NEL             ....   56
FINAL SINGLE POINT ENERGY      -291.305574859487
FINAL SINGLE POINT ENERGY      -291.305575949877

CARTESIAN COORDINATES (ANGSTROEM)
---------------------------------
  C      1.341727   -0.000264    2.201260
  N      0.000374    0.000708    1.554416
  C     -0.026400   -0.615199    0.211087
  C     -1.034523   -0.138501   -0.790949
  C     -2.042820    0.933658   -0.477280
  C      0.420999    0.188388   -0.967747
  C      1.263490   -0.445380   -2.038147
  H      1.268814    0.474595    3.178370
  H      2.030045    0.546502    1.561088
  H      1.673043   -1.031109    2.307726
  H     -0.668680   -0.483459    2.157697
  H     -0.343883    0.959833    1.477700
  H      0.224740   -1.667538    0.270020
  H     -1.415198   -0.937954   -1.419153
  H     -1.614413    1.779897    0.071135
  H     -2.892518    0.544805    0.089029
  H     -2.434763    1.352036   -1.405868
  H      0.663370    1.227537   -0.748348
  H      0.970871   -1.483866   -2.207259
  H      2.322986   -0.430192   -1.774762
  H      1.143788    0.090486   -2.981215

FINAL SINGLE POINT ENERGY      -291.305576624492
                    ***********************HURRAY********************
 Multiplicity           Mult            ....    1
 Number of Electrons    NEL             ....   56
 Basis Dimension        Dim             ....  301
FINAL SINGLE POINT ENERGY      -291.305576796526

VIBRATIONAL FREQUENCIES
-----------------------

   0:         0.00 cm**-1
   1:         0.00 cm**-1
   2:         0.00 cm**-1
   3:         0.00 cm**-1
   4:         0.00 cm**-1
   5:         0.00 cm**-1
   6:        78.40 cm**-1
   7:       136.74 cm**-1
   8:       186.56 cm**-1
   9:       196.22 cm**-1
  10:       206.44 cm**-1
  11:       234.94 cm**-1
  12:       280.87 cm**-1
  13:       300.29 cm**-1
  14:       378.07 cm**-1
  15:       456.76 cm**-1
  16:       543.91 cm**-1
  17:       786.60 cm**-1
  18:       814.55 cm**-1
  19:       830.07 cm**-1
  20:       872.32 cm**-1
  21:       957.07 cm**-1
  22:       970.11 cm**-1
  23:       983.34 cm**-1
  24:      1048.75 cm**-1
  25:      1071.77 cm**-1
  26:      1086.87 cm**-1
  27:      1125.16 cm**-1
  28:      1129.92 cm**-1
  29:      1143.85 cm**-1
  30:      1186.56 cm**-1
  31:      1200.59 cm**-1
  32:      1218.28 cm**-1
  33:      1243.76 cm**-1
  34:      1328.03 cm**-1
  35:      1353.09 cm**-1
  36:      1397.93 cm**-1
  37:      1404.34 cm**-1
  38:      1422.65 cm**-1
  39:      1425.46 cm**-1
  40:      1454.05 cm**-1
  41:      1473.13 cm**-1
  42:      1480.94 cm**-1
  43:      1485.64 cm**-1
  44:      1490.03 cm**-1
  45:      1495.39 cm**-1
  46:      1498.56 cm**-1
  47:      1519.14 cm**-1
  48:      1649.06 cm**-1
  49:      3037.66 cm**-1
  50:      3060.42 cm**-1
  51:      3093.50 cm**-1
  52:      3108.93 cm**-1
  53:      3121.96 cm**-1
  54:      3137.95 cm**-1
  55:      3139.09 cm**-1
  56:      3143.63 cm**-1
  57:      3171.89 cm**-1
  58:      3192.70 cm**-1
  59:      3197.61 cm**-1
  60:      3201.27 cm**-1
  61:      3433.85 cm**-1
  62:      3480.80 cm**-1

IR SPECTRUM
-----------

 Mode    freq (cm**-1)   T**2         TX         TY         TZ
-------------------------------------------------------------------
   6:        78.40    3.040092  (  0.930423   1.460490   0.203403)
   7:       136.74    1.972120  ( -1.271499  -0.017763  -0.595898)
   8:       186.56    1.055349  (  0.342954  -0.333926   0.908969)
   9:       196.22    0.244501  (  0.224692  -0.213146   0.385465)
  10:       206.44    0.770569  ( -0.472917  -0.204236  -0.710778)
  11:       234.94    0.847243  (  0.517400  -0.063429   0.758628)
  12:       280.87    3.608414  (  0.244146  -1.223599   1.432345)
  13:       300.29    1.845735  ( -0.680157   0.673239  -0.964298)
  14:       378.07    1.259603  (  1.044304   0.064602   0.406028)
  15:       456.76    3.712063  ( -0.702205  -0.771798   1.619660)
  16:       543.91    3.547958  (  1.098982   0.665177   1.377584)
  17:       786.60   11.141574  (  0.475073  -1.737635   2.810072)
  18:       814.55   10.620989  (  1.601640   2.171490  -1.827668)
  19:       830.07    1.039628  (  0.041363   0.204194  -0.998109)
  20:       872.32    4.945321  (  0.146882  -2.208215   0.218022)
  21:       957.07    1.083515  (  0.662765   0.498301  -0.629249)
  22:       970.11   13.160639  (  3.251226   1.497140   0.590543)
  23:       983.34    2.486271  (  0.347739   1.537622   0.032652)
  24:      1048.75    3.814635  ( -1.245823  -0.674969  -1.344238)
  25:      1071.77   16.296451  (  2.554550  -0.421315   3.097292)
  26:      1086.87    1.632919  ( -0.842410   0.955970  -0.096878)
  27:      1125.16    1.448283  (  0.204116  -0.290005   1.150007)
  28:      1129.92    4.410836  (  0.858836   0.558367   1.833429)
  29:      1143.85    4.516463  ( -0.514061  -0.133746  -2.057746)
  30:      1186.56    2.850977  (  0.819459  -0.088317   1.473657)
  31:      1200.59    1.733886  (  1.062829   0.481154   0.610550)
  32:      1218.28    1.893472  (  0.635548   1.182790  -0.300931)
  33:      1243.76    1.523878  (  1.149139   0.008366   0.450874)
  34:      1328.03    0.848193  ( -0.713336  -0.195839  -0.548628)
  35:      1353.09    0.674736  (  0.048830   0.262711   0.776746)
  36:      1397.93    2.441804  (  1.049487   1.136780  -0.219342)
  37:      1404.34   49.927292  (  3.878178   0.016491   5.906501)
  38:      1422.65   12.466158  (  0.064194   2.282959   2.692608)
  39:      1425.46    3.868030  (  1.024209   1.210682   1.163304)
  40:      1454.05    3.542452  (  1.808221   0.279533   0.441193)
  41:      1473.13    5.299028  (  0.633799  -1.299445   1.791304)
  42:      1480.94    3.695999  (  0.643730  -1.332630   1.227073)
  43:      1485.64    7.812353  (  2.134707   0.950636   1.533516)
  44:      1490.03    8.960728  ( -0.453383   2.820263  -0.895149)
  45:      1495.39   21.259539  ( -1.917816  -1.316088   3.981134)
  46:      1498.56   38.022523  (  2.610004   5.224066   1.979780)
  47:      1519.14    7.961455  ( -2.097648  -0.590331  -1.792439)
  48:      1649.06   48.836846  ( -5.053615   3.879751   2.871471)
  49:      3037.66   17.676786  (  0.123797   2.554231   3.337269)
  50:      3060.42    7.026252  ( -1.791230   1.298411   1.460094)
  51:      3093.50    0.340546  (  0.390888   0.017729   0.432942)
  52:      3108.93   14.759852  ( -3.500141  -1.305467  -0.897008)
  53:      3121.96    5.512561  ( -0.913218   0.862606   1.983558)
  54:      3137.95    1.966464  (  0.764355   0.426753  -1.095494)
  55:      3139.09    9.153503  ( -2.329624  -1.302853  -1.424404)
  56:      3143.63    5.195107  (  0.090161   2.197309  -0.599009)
  57:      3171.89    1.115511  ( -0.228838  -0.923890  -0.457789)
  58:      3192.70    0.231772  ( -0.330787   0.192685  -0.291932)
  59:      3197.61    0.126497  (  0.033265  -0.095867   0.340881)
  60:      3201.27    0.015277  ( -0.058375  -0.045605   0.098942)
  61:      3433.85   43.527076  ( -6.019330   0.842823   2.566007)
  62:      3480.80   68.583740  (  0.027117  -7.322943   3.867495)

--------------------------
THERMOCHEMISTRY AT 298.15K
--------------------------

Temperature         ... 298.15 K
Pressure            ... 1.00 atm
Total Mass          ... 100.18 AMU

Throughout the following assumptions are being made:
  (1) The electronic state is orbitally nondegenerate
  (2) There are no thermally accessible electronically excited states
  (3) Hindered rotations indicated by low frequency modes) are not
      treated as such but are treated as vibrations and this may
      case some error
  (4) All equations used are the standard statistical mechanics
      equations for an ideal gas
  (5) All vibrations are strinctly harmonic

------------
INNER ENERGY
------------

The inner energy is: U= E(el) + E(ZPE) + E(vib) + E(rot) + E(trans)
    E(el)   - is the total energy from the electronic structure calculation
              = E(kin-el) + E(nuc-el) + E(el-el) + E(nuc-nuc)
    E(ZPE)  - the the zero temperature vibrational energy from the frequency calculation
    E(vib)  - the the finite temperature correction to E(ZPE) due to population
              of excietd vibrational states
    E(rot)  - is the rotational thermal energy
    E(trans)- is the translational thermal energy

Summary of contributions to the inner energy U:
Electronic energy                ...   -291.30557680 Eh
Zero point energy                ...      0.19835437 Eh     124.47 kcal/mol
Thermal vibrational correction   ...      0.00601538 Eh       3.77 kcal/mol
Thermal rotational correction    ...      0.00141627 Eh       0.89 kcal/mol
Thermal translational correction ...      0.00141627 Eh       0.89 kcal/mol
-----------------------------------------------------------------------
Total thermal energy                   -291.09837450 Eh

Summary of corrections to the electronic energy:
(perhaps to be used in another calculation)
Total thermal correction                  0.00884792 Eh       5.55 kcal/mol
Non-thermal (ZPE) correction              0.19835437 Eh     124.47 kcal/mol
-----------------------------------------------------------------------
Total correction                          0.20720229 Eh     130.02 kcal/mol

--------
ENTHALPY
--------

The enthalpy is H = U + kB*T
                kB is Boltzmann's constant
Total free energy                 ...   -291.09837450 Eh
Thermal Enthalpy correction       ...      0.00094421 Eh       0.59 kcal/mol
-----------------------------------------------------------------------
Total Enthalpy                    ...   -291.09743029 Eh

-------
ENTROPY
-------

The entropy contributions are T*S = T*(S(el)+S(vib)+S(rot)+S(trans)
     S(el)   - electronic entropy
     S(vib)  - vibrational entropy
     S(rot)  - rotational entropy
     S(trans)- translational entropy
The entropies will be listed as mutliplied by the temperature to get
units of energy

Electronic entropy                ...      0.00000000 Eh      0.00 kcal/mol
Vibrational entropy               ...      0.01058318 Eh      6.64 kcal/mol
Rotational entropy                ...      0.01226551 Eh      7.70 kcal/mol
Translational entropy             ...      0.01887386 Eh     11.84 kcal/mol
-----------------------------------------------------------------------
Final entropy term                ...      0.04172255 Eh     26.18 kcal/mol

CAUTION: The rotational entropy is not quite correctly treated here
         because it includes a symmetry number that is not yet correctly
         implemented in ORCA!
For a nonlinear molecule the correct rotational entropy is:
    S(rot) = R*(ln(qrot/sn)+1.5)
    R    = 8.31441 J/mol/K = 1.987191683e-3 kcal/mol/K
    qrot = 293387.1440818
    sn is the rotational symmetry number. We have assumed 3 here
       if it is different for your molecule then you should correct
       the printed rotational entropy by manually evaluating the equation
       as given above

For convenience we print out the resulting values for sn=1 - 12:
 sn= 1  qrot/sn=  293387.1441 T*S(rot)=     8.35 kcal/mol T*S(tot)=    26.83 kcal/mol
 sn= 2  qrot/sn=  146693.5720 T*S(rot)=     7.94 kcal/mol T*S(tot)=    26.42 kcal/mol
 sn= 3  qrot/sn=   97795.7147 T*S(rot)=     7.70 kcal/mol T*S(tot)=    26.18 kcal/mol
 sn= 4  qrot/sn=   73346.7860 T*S(rot)=     7.53 kcal/mol T*S(tot)=    26.01 kcal/mol
 sn= 5  qrot/sn=   58677.4288 T*S(rot)=     7.39 kcal/mol T*S(tot)=    25.88 kcal/mol
 sn= 6  qrot/sn=   48897.8573 T*S(rot)=     7.29 kcal/mol T*S(tot)=    25.77 kcal/mol
 sn= 7  qrot/sn=   41912.4492 T*S(rot)=     7.19 kcal/mol T*S(tot)=    25.68 kcal/mol
 sn= 8  qrot/sn=   36673.3930 T*S(rot)=     7.12 kcal/mol T*S(tot)=    25.60 kcal/mol
 sn= 9  qrot/sn=   32598.5716 T*S(rot)=     7.05 kcal/mol T*S(tot)=    25.53 kcal/mol
 sn=10  qrot/sn=   29338.7144 T*S(rot)=     6.98 kcal/mol T*S(tot)=    25.47 kcal/mol
 sn=11  qrot/sn=   26671.5586 T*S(rot)=     6.93 kcal/mol T*S(tot)=    25.41 kcal/mol
 sn=12  qrot/sn=   24448.9287 T*S(rot)=     6.88 kcal/mol T*S(tot)=    25.36 kcal/mol

-------------------
GIBBS FREE ENTHALPY
-------------------

The Gibbs free enthalpy is G = H - T*S

Total enthalpy                    ...   -291.09743029 Eh
Total entropy correction          ...     -0.04172255 Eh    -26.18 kcal/mol
-----------------------------------------------------------------------
Final Gibbs free enthalpy         ...   -291.13915284 Eh

For completeness - the Gibbs free enthalpy minus the electronic energy
G-E(el)                           ...      0.16642395 Eh    104.43 kcal/mol

                             ****ORCA TERMINATED NORMALLY****
TOTAL RUN TIME: 0 days 0 hours 47 minutes 20 seconds 145 msec
