                         Program Version 3.0.3 - RELEASE   -
|  1> ! NORI PBE0 def2-TZVP UseSym TightOPT Freq TightSCF Grid3 FinalGrid5 XYZFile
|  2> % pal
|  3>     nprocs 8
|  4> end
|  5> %method
|  6>     SymThresh 5.0e-2
|  7> end
|  8> % geom
|  9>     MaxIter 10
| 10> end
| 11> % maxcore 2000
| 12> % output
| 13>     printlevel mini
| 14>     print[ P_Basis ] 0
| 15>     print[ P_SCFInfo ] 1
| 16>     print[ P_SCFIterInfo ] 1
| 17>     print[ P_OrbEn ] 0
| 18>     print[ P_Cartesian ] 0
| 19> end
| 20> % elprop
| 21>     Dipole false
| 22> end
| 23> *xyz 1 1
| 24>  C        3.2807514841     0.3615074381    -0.9691823623
| 25>  N        2.4216008600    -0.0227695112     0.1819426835
| 26>  C        2.8595080455    -1.2486961612     0.9367301034
| 27>  C        1.9638510610    -1.5045513201     2.1440212787
| 28>  C        2.1255738363    -3.0117594828     2.4241465673
| 29>  C        2.8645986871    -3.5965329178     1.2036256628
| 30>  C        2.7745264094    -2.5244156900     0.1179947660
| 31>  H        2.8926845442     1.2765729711    -1.4131258357
| 32>  H        3.2681307203    -0.4424180058    -1.7009724231
| 33>  H        4.2943301716     0.5225686701    -0.6080856234
| 34>  H        1.4649961997    -0.1788139790    -0.1440402090
| 35>  H        2.3692654545     0.7583104569     0.8387309482
| 36>  H        3.8910457664    -1.0484605387     1.2396418544
| 37>  H        0.9236082331    -1.2808755795     1.8781287867
| 38>  H        2.2206376055    -0.8767880943     2.9990098449
| 39>  H        2.6868819061    -3.1840785246     3.3420295334
| 40>  H        1.1493831199    -3.4753112116     2.5620302937
| 41>  H        3.9135522280    -3.7809631735     1.4455563827
| 42>  H        2.4465189588    -4.5451635959     0.8701215723
| 43>  H        3.5521042979    -2.6232147634    -0.6409369543
| 44>  H        1.7995804107    -2.5727869867    -0.3843168702
| 45> *
| 46>
| 47>                          ****END OF INPUT****
 Total Charge           Charge          ....    1
 Multiplicity           Mult            ....    1
 Number of Electrons    NEL             ....   56
FINAL SINGLE POINT ENERGY      -291.338315717508
FINAL SINGLE POINT ENERGY      -291.338317014813

CARTESIAN COORDINATES (ANGSTROEM)
---------------------------------
  C      1.315144    0.001151    2.410322
  N     -0.000100    0.000313    1.716105
  C      0.037532   -0.361147    0.255843
  C     -1.366571   -0.415640   -0.336073
  C     -1.151956   -0.184188   -1.844916
  C      0.311315    0.276635   -2.003330
  C      0.776356    0.654988   -0.597084
  H      1.162994    0.238955    3.461808
  H      1.955616    0.747639    1.947759
  H      1.760646   -0.986696    2.311287
  H     -0.430334    0.924230    1.799649
  H     -0.631973   -0.646205    2.192354
  H      0.528338   -1.337345    0.211849
  H     -1.970340    0.396088    0.087027
  H     -1.881790   -1.351489   -0.112605
  H     -1.340561   -1.093917   -2.414212
  H     -1.851137    0.566140   -2.213505
  H      0.929105   -0.540377   -2.383030
  H      0.421175    1.105504   -2.701702
  H      1.861054    0.627925   -0.486593
  H      0.432208    1.665894   -0.342368

FINAL SINGLE POINT ENERGY      -291.338317559608
                    ***********************HURRAY********************
 Multiplicity           Mult            ....    1
 Number of Electrons    NEL             ....   56
 Basis Dimension        Dim             ....  301
FINAL SINGLE POINT ENERGY      -291.338317725154

VIBRATIONAL FREQUENCIES
-----------------------

   0:         0.00 cm**-1
   1:         0.00 cm**-1
   2:         0.00 cm**-1
   3:         0.00 cm**-1
   4:         0.00 cm**-1
   5:         0.00 cm**-1
   6:       -12.59 cm**-1
   7:        94.81 cm**-1
   8:       154.57 cm**-1
   9:       210.56 cm**-1
  10:       241.58 cm**-1
  11:       388.37 cm**-1
  12:       422.57 cm**-1
  13:       540.56 cm**-1
  14:       624.17 cm**-1
  15:       773.70 cm**-1
  16:       802.09 cm**-1
  17:       837.06 cm**-1
  18:       889.14 cm**-1
  19:       914.23 cm**-1
  20:       963.45 cm**-1
  21:       972.69 cm**-1
  22:       987.09 cm**-1
  23:      1002.56 cm**-1
  24:      1048.42 cm**-1
  25:      1076.73 cm**-1
  26:      1078.05 cm**-1
  27:      1119.82 cm**-1
  28:      1190.07 cm**-1
  29:      1210.80 cm**-1
  30:      1227.55 cm**-1
  31:      1254.33 cm**-1
  32:      1286.88 cm**-1
  33:      1303.18 cm**-1
  34:      1320.86 cm**-1
  35:      1334.65 cm**-1
  36:      1346.02 cm**-1
  37:      1352.74 cm**-1
  38:      1369.71 cm**-1
  39:      1418.94 cm**-1
  40:      1425.73 cm**-1
  41:      1458.58 cm**-1
  42:      1477.57 cm**-1
  43:      1490.54 cm**-1
  44:      1491.90 cm**-1
  45:      1494.07 cm**-1
  46:      1497.91 cm**-1
  47:      1517.24 cm**-1
  48:      1646.37 cm**-1
  49:      3031.51 cm**-1
  50:      3040.63 cm**-1
  51:      3083.29 cm**-1
  52:      3090.02 cm**-1
  53:      3095.46 cm**-1
  54:      3102.62 cm**-1
  55:      3117.68 cm**-1
  56:      3129.31 cm**-1
  57:      3138.34 cm**-1
  58:      3153.50 cm**-1
  59:      3191.58 cm**-1
  60:      3204.08 cm**-1
  61:      3435.75 cm**-1
  62:      3487.58 cm**-1

IR SPECTRUM
-----------

 Mode    freq (cm**-1)   T**2         TX         TY         TZ
-------------------------------------------------------------------
   7:        94.81    1.941506  ( -0.292682  -1.358908   0.095977)
   8:       154.57    0.620124  (  0.276156  -0.511748   0.531013)
   9:       210.56    0.131038  ( -0.139069  -0.328513   0.061458)
  10:       241.58    2.899454  (  0.112876   1.697816   0.064291)
  11:       388.37    3.776093  ( -1.331397  -0.863069  -1.121868)
  12:       422.57    5.642652  (  0.252629  -0.741875   2.242421)
  13:       540.56    1.476741  (  0.788651  -0.632683  -0.674154)
  14:       624.17    0.525591  (  0.717861  -0.079882   0.062334)
  15:       773.70    1.257445  ( -0.032013  -0.886510  -0.685945)
  16:       802.09    6.843482  ( -0.293187  -1.891435   1.783255)
  17:       837.06    8.222630  (  0.206997  -2.371073   1.599312)
  18:       889.14    5.603281  ( -0.971570  -0.924242  -1.950669)
  19:       914.23    0.161691  (  0.285023   0.242665   0.146853)
  20:       963.45    3.023685  ( -0.047198  -1.571152  -0.743599)
  21:       972.69    2.463359  ( -1.029854  -1.150864   0.279774)
  22:       987.09    9.561657  ( -1.047842   0.092240   2.907778)
  23:      1002.56    0.253094  (  0.131359  -0.058760  -0.482064)
  24:      1048.42   16.380226  ( -2.440788  -0.002727  -3.228432)
  25:      1076.73    6.514468  ( -0.644453  -0.305788  -2.450641)
  26:      1078.05    5.589170  (  0.744752   0.282875   2.225870)
  27:      1119.82    2.515409  (  0.670595  -0.034171   1.436852)
  28:      1190.07    5.065435  ( -1.449317  -0.775662  -1.537291)
  29:      1210.80    1.542795  ( -1.122116  -0.448737   0.286853)
  30:      1227.55    2.740700  (  0.086974   0.449007   1.591078)
  31:      1254.33    0.165350  ( -0.241970  -0.321634  -0.057893)
  32:      1286.88    1.222213  ( -0.372148  -0.358235  -0.977439)
  33:      1303.18    1.074640  (  1.028092  -0.059622   0.118798)
  34:      1320.86    2.027479  (  1.034003   0.142723   0.968476)
  35:      1334.65    3.406845  ( -0.324006  -0.262993  -1.797971)
  36:      1346.02    3.916332  ( -1.459425   0.015351  -1.336478)
  37:      1352.74    0.771141  (  0.073790  -0.557248  -0.674664)
  38:      1369.71    2.433048  ( -0.213975   1.251909  -0.905531)
  39:      1418.94   45.052711  (  2.310318   1.253426   6.176088)
  40:      1425.73   12.463320  ( -0.464253   0.196413  -3.494168)
  41:      1458.58    8.601931  (  2.261228   0.262288   1.849319)
  42:      1477.57    3.155316  (  0.979052   1.311838  -0.689820)
  43:      1490.54    7.247841  ( -1.649356  -2.121794   0.159545)
  44:      1491.90   12.554508  (  2.251298   0.842140  -2.603261)
  45:      1494.07   14.753798  (  0.766046  -3.475770   1.444297)
  46:      1497.91   33.633476  ( -0.314635   2.986170   4.961579)
  47:      1517.24    2.935967  ( -1.023363   0.809310  -1.110727)
  48:      1646.37   50.753377  ( -5.900195   1.982338   3.465748)
  49:      3031.51    9.576769  ( -0.583622  -2.321774  -1.961000)
  50:      3040.63   20.466797  (  1.676199  -1.730703  -3.829076)
  51:      3083.29    8.410681  ( -1.871109   0.906577   2.021819)
  52:      3090.02    3.495551  ( -0.943625   1.436404   0.736115)
  53:      3095.46    0.053437  ( -0.131016   0.066996  -0.178278)
  54:      3102.62   10.141018  (  2.164982   0.111121   2.332707)
  55:      3117.68    7.665304  (  1.838319   1.989487  -0.572563)
  56:      3129.31    7.844525  ( -2.718332   0.632043  -0.236041)
  57:      3138.34    1.508324  ( -0.252022  -0.255663  -1.174498)
  58:      3153.50    9.896872  ( -0.813961   3.034838  -0.155226)
  59:      3191.58    0.114415  ( -0.306905   0.070486  -0.123515)
  60:      3204.08    0.017837  ( -0.028064  -0.079429   0.103634)
  61:      3435.75   35.309206  (  4.793816  -1.509323  -3.170249)
  62:      3487.58   60.860283  (  1.729039   7.198617  -2.459800)

--------------------------
THERMOCHEMISTRY AT 298.15K
--------------------------

Temperature         ... 298.15 K
Pressure            ... 1.00 atm
Total Mass          ... 100.18 AMU

Throughout the following assumptions are being made:
  (1) The electronic state is orbitally nondegenerate
  (2) There are no thermally accessible electronically excited states
  (3) Hindered rotations indicated by low frequency modes) are not
      treated as such but are treated as vibrations and this may
      case some error
  (4) All equations used are the standard statistical mechanics
      equations for an ideal gas
  (5) All vibrations are strinctly harmonic

------------
INNER ENERGY
------------

The inner energy is: U= E(el) + E(ZPE) + E(vib) + E(rot) + E(trans)
    E(el)   - is the total energy from the electronic structure calculation
              = E(kin-el) + E(nuc-el) + E(el-el) + E(nuc-nuc)
    E(ZPE)  - the the zero temperature vibrational energy from the frequency calculation
    E(vib)  - the the finite temperature correction to E(ZPE) due to population
              of excietd vibrational states
    E(rot)  - is the rotational thermal energy
    E(trans)- is the translational thermal energy

Summary of contributions to the inner energy U:
Electronic energy                ...   -291.33831773 Eh
Zero point energy                ...      0.20175272 Eh     126.60 kcal/mol
Thermal vibrational correction   ...      0.00416522 Eh       2.61 kcal/mol
Thermal rotational correction    ...      0.00141627 Eh       0.89 kcal/mol
Thermal translational correction ...      0.00141627 Eh       0.89 kcal/mol
-----------------------------------------------------------------------
Total thermal energy                   -291.12956724 Eh

Summary of corrections to the electronic energy:
(perhaps to be used in another calculation)
Total thermal correction                  0.00699776 Eh       4.39 kcal/mol
Non-thermal (ZPE) correction              0.20175272 Eh     126.60 kcal/mol
-----------------------------------------------------------------------
Total correction                          0.20875048 Eh     130.99 kcal/mol

--------
ENTHALPY
--------

The enthalpy is H = U + kB*T
                kB is Boltzmann's constant
Total free energy                 ...   -291.12956724 Eh
Thermal Enthalpy correction       ...      0.00094421 Eh       0.59 kcal/mol
-----------------------------------------------------------------------
Total Enthalpy                    ...   -291.12862303 Eh

-------
ENTROPY
-------

The entropy contributions are T*S = T*(S(el)+S(vib)+S(rot)+S(trans)
     S(el)   - electronic entropy
     S(vib)  - vibrational entropy
     S(rot)  - rotational entropy
     S(trans)- translational entropy
The entropies will be listed as mutliplied by the temperature to get
units of energy

Electronic entropy                ...      0.00000000 Eh      0.00 kcal/mol
Vibrational entropy               ...      0.00707105 Eh      4.44 kcal/mol
Rotational entropy                ...      0.01208433 Eh      7.58 kcal/mol
Translational entropy             ...      0.01887386 Eh     11.84 kcal/mol
-----------------------------------------------------------------------
Final entropy term                ...      0.03802924 Eh     23.86 kcal/mol

CAUTION: The rotational entropy is not quite correctly treated here
         because it includes a symmetry number that is not yet correctly
         implemented in ORCA!
For a nonlinear molecule the correct rotational entropy is:
    S(rot) = R*(ln(qrot/sn)+1.5)
    R    = 8.31441 J/mol/K = 1.987191683e-3 kcal/mol/K
    qrot = 242161.7228665
    sn is the rotational symmetry number. We have assumed 3 here
       if it is different for your molecule then you should correct
       the printed rotational entropy by manually evaluating the equation
       as given above

For convenience we print out the resulting values for sn=1 - 12:
 sn= 1  qrot/sn=  242161.7229 T*S(rot)=     8.23 kcal/mol T*S(tot)=    24.51 kcal/mol
 sn= 2  qrot/sn=  121080.8614 T*S(rot)=     7.82 kcal/mol T*S(tot)=    24.10 kcal/mol
 sn= 3  qrot/sn=   80720.5743 T*S(rot)=     7.58 kcal/mol T*S(tot)=    23.86 kcal/mol
 sn= 4  qrot/sn=   60540.4307 T*S(rot)=     7.41 kcal/mol T*S(tot)=    23.69 kcal/mol
 sn= 5  qrot/sn=   48432.3446 T*S(rot)=     7.28 kcal/mol T*S(tot)=    23.56 kcal/mol
 sn= 6  qrot/sn=   40360.2871 T*S(rot)=     7.17 kcal/mol T*S(tot)=    23.45 kcal/mol
 sn= 7  qrot/sn=   34594.5318 T*S(rot)=     7.08 kcal/mol T*S(tot)=    23.36 kcal/mol
 sn= 8  qrot/sn=   30270.2154 T*S(rot)=     7.00 kcal/mol T*S(tot)=    23.28 kcal/mol
 sn= 9  qrot/sn=   26906.8581 T*S(rot)=     6.93 kcal/mol T*S(tot)=    23.21 kcal/mol
 sn=10  qrot/sn=   24216.1723 T*S(rot)=     6.87 kcal/mol T*S(tot)=    23.15 kcal/mol
 sn=11  qrot/sn=   22014.7021 T*S(rot)=     6.81 kcal/mol T*S(tot)=    23.09 kcal/mol
 sn=12  qrot/sn=   20180.1436 T*S(rot)=     6.76 kcal/mol T*S(tot)=    23.04 kcal/mol

-------------------
GIBBS FREE ENTHALPY
-------------------

The Gibbs free enthalpy is G = H - T*S

Total enthalpy                    ...   -291.12862303 Eh
Total entropy correction          ...     -0.03802924 Eh    -23.86 kcal/mol
-----------------------------------------------------------------------
Final Gibbs free enthalpy         ...   -291.16665228 Eh

For completeness - the Gibbs free enthalpy minus the electronic energy
G-E(el)                           ...      0.17166545 Eh    107.72 kcal/mol

                             ****ORCA TERMINATED NORMALLY****
TOTAL RUN TIME: 0 days 0 hours 49 minutes 2 seconds 11 msec
