                         Program Version 3.0.3 - RELEASE   -
|  1> ! NORI PBE0 def2-TZVP UseSym TightOPT Freq TightSCF Grid3 FinalGrid5 XYZFile
|  2> % pal
|  3>     nprocs 8
|  4> end
|  5> %method
|  6>     SymThresh 5.0e-2
|  7> end
|  8> % geom
|  9>     MaxIter 10
| 10> end
| 11> % maxcore 2000
| 12> % output
| 13>     printlevel mini
| 14>     print[ P_Basis ] 0
| 15>     print[ P_SCFInfo ] 1
| 16>     print[ P_SCFIterInfo ] 1
| 17>     print[ P_OrbEn ] 0
| 18>     print[ P_Cartesian ] 0
| 19> end
| 20> % elprop
| 21>     Dipole false
| 22> end
| 23> *xyz 1 1
| 24>  C        2.7585058633    -0.6257242687     0.9152901396
| 25>  N        2.3900829744     0.6681537802     0.2832723040
| 26>  C        2.9105617854     0.9244260169    -1.1249988084
| 27>  C        2.4382149648    -0.1667464362    -2.0470446034
| 28>  C        2.6032460224     2.3992951556    -1.4613313149
| 29>  C        4.0134164111     2.7862263763    -0.9714635774
| 30>  C        4.4054777417     1.2974870282    -1.0531070015
| 31>  H        2.4267882167    -0.6167576427     1.9521317123
| 32>  H        3.8387700575    -0.7446759084     0.8719621047
| 33>  H        2.2711300038    -1.4355486705     0.3799718308
| 34>  H        1.3715273363     0.7517873747     0.2582298337
| 35>  H        2.7195077169     1.4352057607     0.8732982390
| 36>  H        2.7254516780     0.0918125643    -3.0664266816
| 37>  H        1.3490274346    -0.2740646467    -2.0340691912
| 38>  H        2.8918412430    -1.1336438239    -1.8209641839
| 39>  H        1.7361167917     2.8599454924    -0.9802024581
| 40>  H        2.4910791876     2.5213739174    -2.5385118020
| 41>  H        4.0234175747     3.1785351124     0.0484092482
| 42>  H        4.5761979490     3.4778958976    -1.5940839694
| 43>  H        4.8897413943     1.0498636924    -1.9981092631
| 44>  H        5.0077876531     0.8703632279    -0.2488825576
| 45> *
| 46>
| 47>                          ****END OF INPUT****
 Total Charge           Charge          ....    1
 Multiplicity           Mult            ....    1
 Number of Electrons    NEL             ....   56
FINAL SINGLE POINT ENERGY      -291.310992021708
FINAL SINGLE POINT ENERGY      -291.310993909790

CARTESIAN COORDINATES (ANGSTROEM)
---------------------------------
  C      1.330112    0.003233    1.935667
  N     -0.000498   -0.002736    1.273440
  C     -0.034545   -0.353828   -0.207929
  C      0.562523   -1.718599   -0.419247
  C     -1.461237   -0.054301   -0.715489
  C     -0.991648    1.347435   -1.154969
  C      0.463820    0.855192   -1.026233
  H      1.217555    0.392037    2.946386
  H      2.004246    0.638779    1.366407
  H      1.715146   -1.012053    1.972628
  H     -0.616632   -0.655460    1.762597
  H     -0.430104    0.918818    1.377087
  H      0.429741   -1.998104   -1.464494
  H      0.065434   -2.483169    0.186387
  H      1.634234   -1.744442   -0.212512
  H     -2.282710   -0.132000    0.002278
  H     -1.697318   -0.696443   -1.563721
  H     -1.246241    2.132640   -0.438888
  H     -1.310902    1.685744   -2.138114
  H      0.867832    0.510819   -1.978287
  H      1.202537    1.518411   -0.571923

FINAL SINGLE POINT ENERGY      -291.310994518038
                    ***********************HURRAY********************
 Multiplicity           Mult            ....    1
 Number of Electrons    NEL             ....   56
 Basis Dimension        Dim             ....  301
FINAL SINGLE POINT ENERGY      -291.310994656521

VIBRATIONAL FREQUENCIES
-----------------------

   0:         0.00 cm**-1
   1:         0.00 cm**-1
   2:         0.00 cm**-1
   3:         0.00 cm**-1
   4:         0.00 cm**-1
   5:         0.00 cm**-1
   6:       111.97 cm**-1
   7:       135.66 cm**-1
   8:       193.58 cm**-1
   9:       237.77 cm**-1
  10:       258.86 cm**-1
  11:       322.81 cm**-1
  12:       356.86 cm**-1
  13:       384.45 cm**-1
  14:       459.21 cm**-1
  15:       620.12 cm**-1
  16:       695.85 cm**-1
  17:       761.64 cm**-1
  18:       809.25 cm**-1
  19:       829.84 cm**-1
  20:       898.10 cm**-1
  21:       925.90 cm**-1
  22:       960.92 cm**-1
  23:       988.19 cm**-1
  24:       990.66 cm**-1
  25:      1024.06 cm**-1
  26:      1055.56 cm**-1
  27:      1099.46 cm**-1
  28:      1127.03 cm**-1
  29:      1174.46 cm**-1
  30:      1203.03 cm**-1
  31:      1231.18 cm**-1
  32:      1254.52 cm**-1
  33:      1262.93 cm**-1
  34:      1276.13 cm**-1
  35:      1286.52 cm**-1
  36:      1323.24 cm**-1
  37:      1394.72 cm**-1
  38:      1404.37 cm**-1
  39:      1432.71 cm**-1
  40:      1451.18 cm**-1
  41:      1464.16 cm**-1
  42:      1475.21 cm**-1
  43:      1483.41 cm**-1
  44:      1489.49 cm**-1
  45:      1495.44 cm**-1
  46:      1504.47 cm**-1
  47:      1507.98 cm**-1
  48:      1640.35 cm**-1
  49:      3051.86 cm**-1
  50:      3073.28 cm**-1
  51:      3081.18 cm**-1
  52:      3090.17 cm**-1
  53:      3099.92 cm**-1
  54:      3129.53 cm**-1
  55:      3143.78 cm**-1
  56:      3146.90 cm**-1
  57:      3154.65 cm**-1
  58:      3164.88 cm**-1
  59:      3193.26 cm**-1
  60:      3209.13 cm**-1
  61:      3434.46 cm**-1
  62:      3486.44 cm**-1

IR SPECTRUM
-----------

 Mode    freq (cm**-1)   T**2         TX         TY         TZ
-------------------------------------------------------------------
   6:       111.97    1.502426  ( -0.570781  -0.400723  -1.007996)
   7:       135.66    3.144169  (  0.184400  -1.143427   1.342662)
   8:       193.58    0.099970  ( -0.037036   0.259936  -0.176157)
   9:       237.77    0.190062  (  0.157183   0.406533  -0.009292)
  10:       258.86    0.432797  ( -0.431997  -0.491960   0.064427)
  11:       322.81    0.545453  ( -0.176903  -0.651528   0.299449)
  12:       356.86    4.765134  ( -0.519415   1.737232  -1.215470)
  13:       384.45    5.891568  (  0.682156   0.566288   2.259546)
  14:       459.21    1.492429  (  1.141530   0.431236   0.058082)
  15:       620.12    2.809008  (  0.508232   0.106835   1.593516)
  16:       695.85    0.134702  (  0.338998  -0.109325  -0.088490)
  17:       761.64    0.136316  (  0.210378  -0.268404  -0.141480)
  18:       809.25    8.612336  (  0.274826   2.141187   1.987995)
  19:       829.84   10.095714  (  0.015660   2.633480  -1.777710)
  20:       898.10    0.953994  (  0.381491  -0.856289  -0.274277)
  21:       925.90    2.334923  (  0.445682  -0.687040   1.290065)
  22:       960.92    2.277105  ( -1.396368  -0.566202  -0.081714)
  23:       988.19    2.187617  (  0.005683   1.179243  -0.892732)
  24:       990.66    0.446622  ( -0.064546   0.371902   0.551493)
  25:      1024.06    8.330225  ( -2.121026  -0.034104  -1.957118)
  26:      1055.56    1.302830  (  0.441106   0.093727  -1.048557)
  27:      1099.46    3.018522  (  0.676192   0.235245   1.583018)
  28:      1127.03   17.610010  ( -0.765129  -0.346860  -4.111481)
  29:      1174.46   15.412230  ( -0.933277  -1.139789  -3.638971)
  30:      1203.03    4.044159  ( -1.867454  -0.740503  -0.091811)
  31:      1231.18    0.936518  ( -0.879912  -0.326283  -0.236246)
  32:      1254.52    0.486876  ( -0.401746  -0.516192   0.242945)
  33:      1262.93    0.398245  ( -0.546690  -0.253129   0.187887)
  34:      1276.13    8.516669  ( -0.507534  -0.383948  -2.848098)
  35:      1286.52    2.066772  ( -0.896877  -0.384270  -1.055803)
  36:      1323.24    8.007051  (  0.600670  -2.730516  -0.436499)
  37:      1394.72    8.779804  ( -1.336305  -1.986914  -1.745355)
  38:      1404.37   49.113113  ( -2.189578  -1.640269  -6.452006)
  39:      1432.71   25.057844  (  2.849552  -3.821985   1.526540)
  40:      1451.18    5.161123  (  1.141674  -0.229861   1.950607)
  41:      1464.16   16.343451  ( -3.580472  -1.859850   0.254221)
  42:      1475.21    1.555880  ( -1.205240  -0.131486  -0.293237)
  43:      1483.41    1.492519  (  0.169123   0.575303   1.064398)
  44:      1489.49   27.939601  (  3.097469   1.936550  -3.820348)
  45:      1495.44   22.970352  (  0.103337  -3.784817  -2.938509)
  46:      1504.47    9.512415  (  0.469357  -0.994348   2.881561)
  47:      1507.98    5.151167  (  0.865331  -2.092565  -0.153434)
  48:      1640.35   48.981671  ( -5.409102   1.781435   4.068142)
  49:      3051.86    4.541533  ( -0.378226   1.332308  -1.619701)
  50:      3073.28   12.187145  ( -1.964587  -2.548537   1.353700)
  51:      3081.18   13.318998  (  2.523702  -1.813474  -1.913436)
  52:      3090.17    9.505481  (  2.411098   1.195358   1.504395)
  53:      3099.92    0.451315  (  0.565889   0.013071   0.361819)
  54:      3129.53    5.152527  (  1.959729   1.074867  -0.395793)
  55:      3143.78    3.446499  (  1.034061  -1.401345  -0.642999)
  56:      3146.90    2.368067  ( -1.153716  -1.007104  -0.150823)
  57:      3154.65    1.214536  (  0.808112  -0.213326   0.718320)
  58:      3164.88    5.410471  ( -0.611663   0.057630  -2.243439)
  59:      3193.26    0.043108  ( -0.058872   0.073158   0.185176)
  60:      3209.13    0.004376  ( -0.013101  -0.052541   0.038001)
  61:      3434.46   30.886344  (  4.715560  -1.070210  -2.739432)
  62:      3486.44   52.613353  ( -0.661461  -6.904999   2.120569)

--------------------------
THERMOCHEMISTRY AT 298.15K
--------------------------

Temperature         ... 298.15 K
Pressure            ... 1.00 atm
Total Mass          ... 100.18 AMU

Throughout the following assumptions are being made:
  (1) The electronic state is orbitally nondegenerate
  (2) There are no thermally accessible electronically excited states
  (3) Hindered rotations indicated by low frequency modes) are not
      treated as such but are treated as vibrations and this may
      case some error
  (4) All equations used are the standard statistical mechanics
      equations for an ideal gas
  (5) All vibrations are strinctly harmonic

------------
INNER ENERGY
------------

The inner energy is: U= E(el) + E(ZPE) + E(vib) + E(rot) + E(trans)
    E(el)   - is the total energy from the electronic structure calculation
              = E(kin-el) + E(nuc-el) + E(el-el) + E(nuc-nuc)
    E(ZPE)  - the the zero temperature vibrational energy from the frequency calculation
    E(vib)  - the the finite temperature correction to E(ZPE) due to population
              of excietd vibrational states
    E(rot)  - is the rotational thermal energy
    E(trans)- is the translational thermal energy

Summary of contributions to the inner energy U:
Electronic energy                ...   -291.31099466 Eh
Zero point energy                ...      0.19925460 Eh     125.03 kcal/mol
Thermal vibrational correction   ...      0.00526715 Eh       3.31 kcal/mol
Thermal rotational correction    ...      0.00141627 Eh       0.89 kcal/mol
Thermal translational correction ...      0.00141627 Eh       0.89 kcal/mol
-----------------------------------------------------------------------
Total thermal energy                   -291.10364036 Eh

Summary of corrections to the electronic energy:
(perhaps to be used in another calculation)
Total thermal correction                  0.00809969 Eh       5.08 kcal/mol
Non-thermal (ZPE) correction              0.19925460 Eh     125.03 kcal/mol
-----------------------------------------------------------------------
Total correction                          0.20735429 Eh     130.12 kcal/mol

--------
ENTHALPY
--------

The enthalpy is H = U + kB*T
                kB is Boltzmann's constant
Total free energy                 ...   -291.10364036 Eh
Thermal Enthalpy correction       ...      0.00094421 Eh       0.59 kcal/mol
-----------------------------------------------------------------------
Total Enthalpy                    ...   -291.10269616 Eh

-------
ENTROPY
-------

The entropy contributions are T*S = T*(S(el)+S(vib)+S(rot)+S(trans)
     S(el)   - electronic entropy
     S(vib)  - vibrational entropy
     S(rot)  - rotational entropy
     S(trans)- translational entropy
The entropies will be listed as mutliplied by the temperature to get
units of energy

Electronic entropy                ...      0.00000000 Eh      0.00 kcal/mol
Vibrational entropy               ...      0.00885451 Eh      5.56 kcal/mol
Rotational entropy                ...      0.01201964 Eh      7.54 kcal/mol
Translational entropy             ...      0.01887386 Eh     11.84 kcal/mol
-----------------------------------------------------------------------
Final entropy term                ...      0.03974801 Eh     24.94 kcal/mol

CAUTION: The rotational entropy is not quite correctly treated here
         because it includes a symmetry number that is not yet correctly
         implemented in ORCA!
For a nonlinear molecule the correct rotational entropy is:
    S(rot) = R*(ln(qrot/sn)+1.5)
    R    = 8.31441 J/mol/K = 1.987191683e-3 kcal/mol/K
    qrot = 226124.0142481
    sn is the rotational symmetry number. We have assumed 3 here
       if it is different for your molecule then you should correct
       the printed rotational entropy by manually evaluating the equation
       as given above

For convenience we print out the resulting values for sn=1 - 12:
 sn= 1  qrot/sn=  226124.0142 T*S(rot)=     8.19 kcal/mol T*S(tot)=    25.59 kcal/mol
 sn= 2  qrot/sn=  113062.0071 T*S(rot)=     7.78 kcal/mol T*S(tot)=    25.18 kcal/mol
 sn= 3  qrot/sn=   75374.6714 T*S(rot)=     7.54 kcal/mol T*S(tot)=    24.94 kcal/mol
 sn= 4  qrot/sn=   56531.0036 T*S(rot)=     7.37 kcal/mol T*S(tot)=    24.77 kcal/mol
 sn= 5  qrot/sn=   45224.8028 T*S(rot)=     7.24 kcal/mol T*S(tot)=    24.64 kcal/mol
 sn= 6  qrot/sn=   37687.3357 T*S(rot)=     7.13 kcal/mol T*S(tot)=    24.53 kcal/mol
 sn= 7  qrot/sn=   32303.4306 T*S(rot)=     7.04 kcal/mol T*S(tot)=    24.44 kcal/mol
 sn= 8  qrot/sn=   28265.5018 T*S(rot)=     6.96 kcal/mol T*S(tot)=    24.36 kcal/mol
 sn= 9  qrot/sn=   25124.8905 T*S(rot)=     6.89 kcal/mol T*S(tot)=    24.29 kcal/mol
 sn=10  qrot/sn=   22612.4014 T*S(rot)=     6.83 kcal/mol T*S(tot)=    24.23 kcal/mol
 sn=11  qrot/sn=   20556.7286 T*S(rot)=     6.77 kcal/mol T*S(tot)=    24.17 kcal/mol
 sn=12  qrot/sn=   18843.6679 T*S(rot)=     6.72 kcal/mol T*S(tot)=    24.12 kcal/mol

-------------------
GIBBS FREE ENTHALPY
-------------------

The Gibbs free enthalpy is G = H - T*S

Total enthalpy                    ...   -291.10269616 Eh
Total entropy correction          ...     -0.03974801 Eh    -24.94 kcal/mol
-----------------------------------------------------------------------
Final Gibbs free enthalpy         ...   -291.14244417 Eh

For completeness - the Gibbs free enthalpy minus the electronic energy
G-E(el)                           ...      0.16855049 Eh    105.77 kcal/mol

                             ****ORCA TERMINATED NORMALLY****
TOTAL RUN TIME: 0 days 0 hours 53 minutes 35 seconds 115 msec
