                         Program Version 3.0.3 - RELEASE   -
|  1> ! NORI PBE0 def2-TZVP UseSym TightOPT Freq TightSCF Grid3 FinalGrid5 XYZFile
|  2> % pal
|  3>     nprocs 8
|  4> end
|  5> %method
|  6>     SymThresh 5.0e-2
|  7> end
|  8> % geom
|  9>     MaxIter 10
| 10> end
| 11> % maxcore 2000
| 12> % output
| 13>     printlevel mini
| 14>     print[ P_Basis ] 0
| 15>     print[ P_SCFInfo ] 1
| 16>     print[ P_SCFIterInfo ] 1
| 17>     print[ P_OrbEn ] 0
| 18>     print[ P_Cartesian ] 0
| 19> end
| 20> % elprop
| 21>     Dipole false
| 22> end
| 23> *xyz 1 1
| 24>  C        2.1198060428     0.4519739648     1.5277534520
| 25>  N        2.3248733553    -0.1007919949     0.1619071225
| 26>  C        3.2858540890    -1.2588466409     0.0659174345
| 27>  C        3.4925571073    -1.6645513300    -1.3658013846
| 28>  C        3.1975874887    -2.9626431903    -1.4806397729
| 29>  C        2.7419582497    -3.4800955414    -0.1827086439
| 30>  C        2.7550192409    -2.4995007364     0.7260676586
| 31>  H        1.4285979599     1.2911737695     1.4677444700
| 32>  H        3.0800854896     0.7846239441     1.9166140304
| 33>  H        1.7057335531    -0.3267363158     2.1630342862
| 34>  H        1.4314671698    -0.4177249362    -0.2226772778
| 35>  H        2.6525106865     0.6443769335    -0.4556037385
| 36>  H        4.2210636066    -0.9230146041     0.5295000244
| 37>  H        3.8759284434    -1.0057228144    -2.1336035803
| 38>  H        3.2894274468    -3.5585719095    -2.3786933971
| 39>  H        2.4571369414    -4.5077205934    -0.0011251344
| 40>  H        2.5137031294    -2.5830680046     1.7759944510
| 41> *
| 42>
| 43>                          ****END OF INPUT****
 Total Charge           Charge          ....    1
 Multiplicity           Mult            ....    1
 Number of Electrons    NEL             ....   52
FINAL SINGLE POINT ENERGY      -288.878158883698

CARTESIAN COORDINATES (ANGSTROEM)
---------------------------------
  C      1.278707   -0.000912    2.304018
  N     -0.000634    0.000354    1.544700
  C      0.078178    0.540724    0.139194
  C     -1.283977    0.588175   -0.492766
  C     -1.242156   -0.108306   -1.632360
  C      0.097707   -0.686804   -1.806314
  C      0.874873   -0.348996   -0.772014
  H      1.094146   -0.388774    3.304380
  H      1.650838    1.020147    2.360866
  H      1.994039   -0.634034    1.785606
  H     -0.368657   -0.952182    1.481399
  H     -0.696678    0.541025    2.061396
  H      0.522251    1.540297    0.217400
  H     -2.117734    1.151996   -0.095492
  H     -2.054602   -0.224085   -2.337002
  H      0.400255   -1.281148   -2.658008
  H      1.919950   -0.589249   -0.638431

FINAL SINGLE POINT ENERGY      -288.878159671194
                    ***********************HURRAY********************
 Multiplicity           Mult            ....    1
 Number of Electrons    NEL             ....   52
 Basis Dimension        Dim             ....  277
FINAL SINGLE POINT ENERGY      -288.878159901728

VIBRATIONAL FREQUENCIES
-----------------------

   0:         0.00 cm**-1
   1:         0.00 cm**-1
   2:         0.00 cm**-1
   3:         0.00 cm**-1
   4:         0.00 cm**-1
   5:         0.00 cm**-1
   6:        96.13 cm**-1
   7:       146.91 cm**-1
   8:       215.88 cm**-1
   9:       256.35 cm**-1
  10:       383.85 cm**-1
  11:       521.83 cm**-1
  12:       559.04 cm**-1
  13:       714.63 cm**-1
  14:       729.89 cm**-1
  15:       784.12 cm**-1
  16:       806.64 cm**-1
  17:       857.73 cm**-1
  18:       917.94 cm**-1
  19:       968.35 cm**-1
  20:       987.53 cm**-1
  21:      1000.69 cm**-1
  22:      1016.41 cm**-1
  23:      1037.25 cm**-1
  24:      1054.51 cm**-1
  25:      1127.43 cm**-1
  26:      1136.20 cm**-1
  27:      1137.96 cm**-1
  28:      1160.10 cm**-1
  29:      1270.43 cm**-1
  30:      1320.49 cm**-1
  31:      1323.66 cm**-1
  32:      1389.61 cm**-1
  33:      1409.43 cm**-1
  34:      1415.63 cm**-1
  35:      1456.42 cm**-1
  36:      1491.58 cm**-1
  37:      1497.20 cm**-1
  38:      1605.06 cm**-1
  39:      1639.23 cm**-1
  40:      1674.74 cm**-1
  41:      3070.15 cm**-1
  42:      3095.75 cm**-1
  43:      3192.12 cm**-1
  44:      3205.25 cm**-1
  45:      3229.34 cm**-1
  46:      3238.37 cm**-1
  47:      3251.71 cm**-1
  48:      3259.98 cm**-1
  49:      3435.09 cm**-1
  50:      3488.27 cm**-1

IR SPECTRUM
-----------

 Mode    freq (cm**-1)   T**2         TX         TY         TZ
-------------------------------------------------------------------
   6:        96.13    0.998726  (  0.496300  -0.839592   0.217941)
   7:       146.91    5.072671  (  0.650293   1.644515   1.394761)
   8:       215.88    0.037947  ( -0.134343  -0.137605  -0.031039)
   9:       256.35    6.247090  (  0.008716   2.398199   0.704029)
  10:       383.85    4.162266  ( -1.667928   0.472953  -1.075452)
  11:       521.83    3.673329  ( -0.322423  -0.149471  -1.883356)
  12:       559.04    1.299268  (  0.586641  -0.902164  -0.375792)
  13:       714.63   53.820810  ( -2.111320  -6.304137   3.101773)
  14:       729.89    9.448352  ( -0.622409  -2.335099   1.899546)
  15:       784.12   36.358193  (  1.744093   2.082109  -5.383415)
  16:       806.64    8.469628  ( -1.712495   1.500827  -1.812321)
  17:       857.73    8.843011  (  1.031023   2.682041   0.765937)
  18:       917.94   52.438469  ( -0.022821  -4.826932   5.398025)
  19:       968.35    4.202012  (  0.875138   1.386149  -1.230747)
  20:       987.53    1.318658  (  0.469495   0.929931   0.483178)
  21:      1000.69    0.052949  ( -0.197080   0.111625   0.040603)
  22:      1016.41    3.620879  (  1.143172  -0.055170   1.520195)
  23:      1037.25   13.272246  ( -2.041113   1.131539   2.797449)
  24:      1054.51    8.683327  ( -2.119790   0.399732  -2.007494)
  25:      1127.43    5.999926  (  2.233738  -0.914861  -0.416381)
  26:      1136.20   12.202585  (  1.716820  -1.679275   2.536760)
  27:      1137.96    0.927091  ( -0.904056   0.207399  -0.258379)
  28:      1160.10    6.114294  (  1.956912  -0.429527   1.449240)
  29:      1270.43    1.146366  ( -1.000429   0.366189  -0.106830)
  30:      1320.49    3.102895  ( -0.556355  -1.079785  -1.275707)
  31:      1323.66    1.284597  ( -0.739725   0.857789  -0.040015)
  32:      1389.61    7.277818  (  0.624585   0.653109   2.541881)
  33:      1409.43   63.929331  ( -2.292115  -0.303863  -7.653967)
  34:      1415.63    6.029778  ( -0.538820   2.196908  -0.955534)
  35:      1456.42    5.441269  ( -2.120502   0.152609  -0.959922)
  36:      1491.58   21.784858  (  1.558413  -2.703120  -3.471217)
  37:      1497.20   24.498606  (  0.153216   3.923444  -3.013588)
  38:      1605.06    5.689440  ( -0.142178  -0.120710   2.377952)
  39:      1639.23   46.751072  ( -5.408824  -2.826343   3.083420)
  40:      1674.74    0.360058  ( -0.183985  -0.568953   0.049995)
  41:      3070.15    0.291524  ( -0.231492  -0.474197   0.114337)
  42:      3095.75    0.078335  (  0.248556   0.098250   0.083074)
  43:      3192.12    0.134235  (  0.291320   0.188272  -0.117989)
  44:      3205.25    0.101410  (  0.009401   0.098008   0.302847)
  45:      3229.34    2.096317  (  1.183129  -0.786644  -0.278771)
  46:      3238.37    0.401875  (  0.529677   0.252404   0.240019)
  47:      3251.71    2.043935  (  1.367118  -0.269938   0.319462)
  48:      3259.98    1.693564  ( -0.333667   0.526900   1.142194)
  49:      3435.09   43.562240  ( -5.212675  -3.013507   2.703523)
  50:      3488.27   69.827120  (  2.324859  -7.323565  -3.284440)

--------------------------
THERMOCHEMISTRY AT 298.15K
--------------------------

Temperature         ... 298.15 K
Pressure            ... 1.00 atm
Total Mass          ... 96.15 AMU

Throughout the following assumptions are being made:
  (1) The electronic state is orbitally nondegenerate
  (2) There are no thermally accessible electronically excited states
  (3) Hindered rotations indicated by low frequency modes) are not
      treated as such but are treated as vibrations and this may
      case some error
  (4) All equations used are the standard statistical mechanics
      equations for an ideal gas
  (5) All vibrations are strinctly harmonic

------------
INNER ENERGY
------------

The inner energy is: U= E(el) + E(ZPE) + E(vib) + E(rot) + E(trans)
    E(el)   - is the total energy from the electronic structure calculation
              = E(kin-el) + E(nuc-el) + E(el-el) + E(nuc-nuc)
    E(ZPE)  - the the zero temperature vibrational energy from the frequency calculation
    E(vib)  - the the finite temperature correction to E(ZPE) due to population
              of excietd vibrational states
    E(rot)  - is the rotational thermal energy
    E(trans)- is the translational thermal energy

Summary of contributions to the inner energy U:
Electronic energy                ...   -288.87815990 Eh
Zero point energy                ...      0.15395143 Eh      96.61 kcal/mol
Thermal vibrational correction   ...      0.00398178 Eh       2.50 kcal/mol
Thermal rotational correction    ...      0.00141627 Eh       0.89 kcal/mol
Thermal translational correction ...      0.00141627 Eh       0.89 kcal/mol
-----------------------------------------------------------------------
Total thermal energy                   -288.71739415 Eh

Summary of corrections to the electronic energy:
(perhaps to be used in another calculation)
Total thermal correction                  0.00681432 Eh       4.28 kcal/mol
Non-thermal (ZPE) correction              0.15395143 Eh      96.61 kcal/mol
-----------------------------------------------------------------------
Total correction                          0.16076575 Eh     100.88 kcal/mol

--------
ENTHALPY
--------

The enthalpy is H = U + kB*T
                kB is Boltzmann's constant
Total free energy                 ...   -288.71739415 Eh
Thermal Enthalpy correction       ...      0.00094421 Eh       0.59 kcal/mol
-----------------------------------------------------------------------
Total Enthalpy                    ...   -288.71644994 Eh

-------
ENTROPY
-------

The entropy contributions are T*S = T*(S(el)+S(vib)+S(rot)+S(trans)
     S(el)   - electronic entropy
     S(vib)  - vibrational entropy
     S(rot)  - rotational entropy
     S(trans)- translational entropy
The entropies will be listed as mutliplied by the temperature to get
units of energy

Electronic entropy                ...      0.00000000 Eh      0.00 kcal/mol
Vibrational entropy               ...      0.00679556 Eh      4.26 kcal/mol
Rotational entropy                ...      0.01189782 Eh      7.47 kcal/mol
Translational entropy             ...      0.01881568 Eh     11.81 kcal/mol
-----------------------------------------------------------------------
Final entropy term                ...      0.03750906 Eh     23.54 kcal/mol

CAUTION: The rotational entropy is not quite correctly treated here
         because it includes a symmetry number that is not yet correctly
         implemented in ORCA!
For a nonlinear molecule the correct rotational entropy is:
    S(rot) = R*(ln(qrot/sn)+1.5)
    R    = 8.31441 J/mol/K = 1.987191683e-3 kcal/mol/K
    qrot = 198752.7320245
    sn is the rotational symmetry number. We have assumed 3 here
       if it is different for your molecule then you should correct
       the printed rotational entropy by manually evaluating the equation
       as given above

For convenience we print out the resulting values for sn=1 - 12:
 sn= 1  qrot/sn=  198752.7320 T*S(rot)=     8.12 kcal/mol T*S(tot)=    24.19 kcal/mol
 sn= 2  qrot/sn=   99376.3660 T*S(rot)=     7.71 kcal/mol T*S(tot)=    23.78 kcal/mol
 sn= 3  qrot/sn=   66250.9107 T*S(rot)=     7.47 kcal/mol T*S(tot)=    23.54 kcal/mol
 sn= 4  qrot/sn=   49688.1830 T*S(rot)=     7.30 kcal/mol T*S(tot)=    23.37 kcal/mol
 sn= 5  qrot/sn=   39750.5464 T*S(rot)=     7.16 kcal/mol T*S(tot)=    23.23 kcal/mol
 sn= 6  qrot/sn=   33125.4553 T*S(rot)=     7.06 kcal/mol T*S(tot)=    23.13 kcal/mol
 sn= 7  qrot/sn=   28393.2474 T*S(rot)=     6.96 kcal/mol T*S(tot)=    23.04 kcal/mol
 sn= 8  qrot/sn=   24844.0915 T*S(rot)=     6.88 kcal/mol T*S(tot)=    22.96 kcal/mol
 sn= 9  qrot/sn=   22083.6369 T*S(rot)=     6.82 kcal/mol T*S(tot)=    22.89 kcal/mol
 sn=10  qrot/sn=   19875.2732 T*S(rot)=     6.75 kcal/mol T*S(tot)=    22.82 kcal/mol
 sn=11  qrot/sn=   18068.4302 T*S(rot)=     6.70 kcal/mol T*S(tot)=    22.77 kcal/mol
 sn=12  qrot/sn=   16562.7277 T*S(rot)=     6.64 kcal/mol T*S(tot)=    22.72 kcal/mol

-------------------
GIBBS FREE ENTHALPY
-------------------

The Gibbs free enthalpy is G = H - T*S

Total enthalpy                    ...   -288.71644994 Eh
Total entropy correction          ...     -0.03750906 Eh    -23.54 kcal/mol
-----------------------------------------------------------------------
Final Gibbs free enthalpy         ...   -288.75395900 Eh

For completeness - the Gibbs free enthalpy minus the electronic energy
G-E(el)                           ...      0.12420090 Eh     77.94 kcal/mol

                             ****ORCA TERMINATED NORMALLY****
TOTAL RUN TIME: 0 days 0 hours 35 minutes 38 seconds 572 msec
