                         Program Version 3.0.3 - RELEASE   -
|  1> ! NORI PBE0 def2-TZVP UseSym TightOPT Freq TightSCF Grid3 FinalGrid5 XYZFile
|  2> % pal
|  3>     nprocs 8
|  4> end
|  5> %method
|  6>     SymThresh 5.0e-2
|  7> end
|  8> % geom
|  9>     MaxIter 10
| 10> end
| 11> % maxcore 2000
| 12> % output
| 13>     printlevel mini
| 14>     print[ P_Basis ] 0
| 15>     print[ P_SCFInfo ] 1
| 16>     print[ P_SCFIterInfo ] 1
| 17>     print[ P_OrbEn ] 0
| 18>     print[ P_Cartesian ] 0
| 19> end
| 20> % elprop
| 21>     Dipole false
| 22> end
| 23> *xyz 1 1
| 24>  C        1.5436513926     0.9255887453    -0.9333811686
| 25>  N        2.2071410261    -0.0921381489    -0.0803746555
| 26>  C        3.0053982794    -1.1554269714    -0.8074290250
| 27>  C        3.7608191573    -1.9667183216     0.2469657797
| 28>  C        2.7750943395    -3.0486971801     0.5926489220
| 29>  C        1.8287401106    -3.1512997401    -0.3349004294
| 30>  C        2.0340707737    -2.1523031851    -1.4412258348
| 31>  H        0.9908864110     1.6158272009    -0.2982039099
| 32>  H        0.8613444727     0.4315370801    -1.6199325474
| 33>  H        2.3076647665     1.4635118338    -1.4916686297
| 34>  H        1.5163272305    -0.5874456232     0.4923355848
| 35>  H        2.8303258859     0.3805524478     0.5759336639
| 36>  H        3.6421449237    -0.6235497523    -1.5142294166
| 37>  H        4.0946387433    -1.3655437799     1.1001132538
| 38>  H        4.6704218100    -2.3911573089    -0.1919346947
| 39>  H        2.8848594014    -3.6909306325     1.4568784660
| 40>  H        1.0386796969    -3.8910572552    -0.3517227673
| 41>  H        2.5050630077    -2.6213030250    -2.3119821124
| 42>  H        1.1123785712    -1.6965263838    -1.8120604790
| 43> *
| 44>
| 45>                          ****END OF INPUT****
 Total Charge           Charge          ....    1
 Multiplicity           Mult            ....    1
 Number of Electrons    NEL             ....   54
FINAL SINGLE POINT ENERGY      -290.111426384166
FINAL SINGLE POINT ENERGY      -290.111427504794

CARTESIAN COORDINATES (ANGSTROEM)
---------------------------------
  C      1.187873   -0.001748    2.293411
  N      0.001141    0.002112    1.400733
  C      0.153133   -0.732907    0.084032
  C     -1.225797   -0.786772   -0.576777
  C     -1.253267    0.487036   -1.376289
  C     -0.030118    0.983081   -1.532463
  C      1.002414    0.119482   -0.859869
  H      0.958145    0.570058    3.190898
  H      2.030819    0.448605    1.776364
  H      1.420473   -1.031780    2.556955
  H     -0.272548    0.962404    1.168987
  H     -0.790787   -0.402940    1.901908
  H      0.577222   -1.706309    0.330054
  H     -2.046810   -0.891569    0.141137
  H     -1.289528   -1.662428   -1.232355
  H     -2.158239    0.888281   -1.813451
  H      0.226601    1.856798   -2.117079
  H      1.506579   -0.527893   -1.585915
  H      1.797437    0.676834   -0.357191

FINAL SINGLE POINT ENERGY      -290.111427862669
                    ***********************HURRAY********************
 Multiplicity           Mult            ....    1
 Number of Electrons    NEL             ....   54
 Basis Dimension        Dim             ....  289
FINAL SINGLE POINT ENERGY      -290.111427917884

VIBRATIONAL FREQUENCIES
-----------------------

   0:         0.00 cm**-1
   1:         0.00 cm**-1
   2:         0.00 cm**-1
   3:         0.00 cm**-1
   4:         0.00 cm**-1
   5:         0.00 cm**-1
   6:        88.55 cm**-1
   7:       131.27 cm**-1
   8:       213.37 cm**-1
   9:       266.17 cm**-1
  10:       372.00 cm**-1
  11:       384.03 cm**-1
  12:       446.40 cm**-1
  13:       686.29 cm**-1
  14:       755.00 cm**-1
  15:       782.28 cm**-1
  16:       817.21 cm**-1
  17:       859.20 cm**-1
  18:       900.70 cm**-1
  19:       945.82 cm**-1
  20:       950.30 cm**-1
  21:       991.07 cm**-1
  22:       994.70 cm**-1
  23:      1017.43 cm**-1
  24:      1035.80 cm**-1
  25:      1046.45 cm**-1
  26:      1124.81 cm**-1
  27:      1138.57 cm**-1
  28:      1140.63 cm**-1
  29:      1184.23 cm**-1
  30:      1245.93 cm**-1
  31:      1274.97 cm**-1
  32:      1312.98 cm**-1
  33:      1338.96 cm**-1
  34:      1340.81 cm**-1
  35:      1373.41 cm**-1
  36:      1410.40 cm**-1
  37:      1411.90 cm**-1
  38:      1456.12 cm**-1
  39:      1468.92 cm**-1
  40:      1483.70 cm**-1
  41:      1494.58 cm**-1
  42:      1496.74 cm**-1
  43:      1650.05 cm**-1
  44:      1689.51 cm**-1
  45:      3049.02 cm**-1
  46:      3060.52 cm**-1
  47:      3083.02 cm**-1
  48:      3095.45 cm**-1
  49:      3100.98 cm**-1
  50:      3136.37 cm**-1
  51:      3190.15 cm**-1
  52:      3205.10 cm**-1
  53:      3225.82 cm**-1
  54:      3245.91 cm**-1
  55:      3413.74 cm**-1
  56:      3484.45 cm**-1

IR SPECTRUM
-----------

 Mode    freq (cm**-1)   T**2         TX         TY         TZ
-------------------------------------------------------------------
   6:        88.55    2.420123  (  0.776615   0.834804   1.058345)
   7:       131.27    6.188472  ( -0.149288   0.951331  -2.293720)
   8:       213.37    1.314593  ( -0.258606  -0.887007   0.678921)
   9:       266.17    1.399029  (  0.061476  -1.130926   0.340962)
  10:       372.00    5.367392  (  0.415163  -0.607572   2.196791)
  11:       384.03    0.364017  ( -0.103735  -0.279434   0.524569)
  12:       446.40    2.519079  ( -1.302683  -0.808132  -0.411119)
  13:       686.29   35.788273  ( -0.747795   2.905941   5.175382)
  14:       755.00   10.261968  ( -0.486489   2.941920   1.170642)
  15:       782.28   18.492855  (  0.298934  -1.206563  -4.116758)
  16:       817.21   16.152611  (  0.134313  -0.322433  -4.003824)
  17:       859.20    8.206382  (  0.010086   2.712895   0.920045)
  18:       900.70    5.049079  (  1.978029   1.056810  -0.140110)
  19:       945.82    1.619846  ( -0.993043  -0.570443   0.555254)
  20:       950.30    8.042103  ( -2.082382  -1.268752   1.447776)
  21:       991.07    0.172619  (  0.055584  -0.363798  -0.192822)
  22:       994.70    0.372673  ( -0.582171  -0.128109  -0.131676)
  23:      1017.43    0.803077  (  0.764141  -0.460764  -0.082835)
  24:      1035.80   11.456834  ( -2.746258  -0.586580  -1.889663)
  25:      1046.45    0.775824  ( -0.655468  -0.579050  -0.104337)
  26:      1124.81    4.636199  (  0.490037   0.649886   1.993417)
  27:      1138.57    3.901586  (  0.021746   0.119578   1.971500)
  28:      1140.63   14.995735  ( -0.315984  -1.615107  -3.505327)
  29:      1184.23    4.158562  (  1.634352   0.876389   0.848173)
  30:      1245.93    3.963877  ( -0.051385  -1.551964  -1.246051)
  31:      1274.97    1.561227  ( -0.815517  -0.257313   0.911016)
  32:      1312.98    3.243122  ( -1.652990  -0.676282   0.231057)
  33:      1338.96    4.465052  ( -0.597804   1.969784   0.477110)
  34:      1340.81    2.091190  (  0.496664  -0.021249   1.357963)
  35:      1373.41   19.167768  (  3.026776   2.276891   2.195943)
  36:      1410.40   33.682939  (  1.607097  -0.210621   5.572775)
  37:      1411.90   41.104285  (  0.982911   2.103154   5.976196)
  38:      1456.12    5.742014  ( -0.365907   0.110972  -2.365547)
  39:      1468.92   17.965421  ( -4.118943  -0.968614  -0.248021)
  40:      1483.70    3.220762  (  0.046543   1.793595   0.040171)
  41:      1494.58   29.697078  ( -3.175917  -2.698499   3.511230)
  42:      1496.74   25.602213  (  1.006207  -3.647046  -3.359883)
  43:      1650.05   38.200225  ( -4.774843   3.504635   1.765965)
  44:      1689.51    0.064521  (  0.085975  -0.201507   0.128545)
  45:      3049.02   11.470769  (  1.884659   1.624393  -2.297864)
  46:      3060.52    5.353029  (  2.162969   0.027808   0.820866)
  47:      3083.02    4.230939  ( -1.099334  -0.224610   1.723936)
  48:      3095.45    0.412514  ( -0.384679  -0.318821  -0.403595)
  49:      3100.98    7.578509  ( -2.129398  -0.697690  -1.599188)
  50:      3136.37    4.550482  ( -0.703260   1.370933  -1.475280)
  51:      3190.15    0.077331  (  0.158615  -0.159673  -0.163328)
  52:      3205.10    0.036827  (  0.001093   0.155493   0.112464)
  53:      3225.82    0.874746  (  0.860288   0.358514  -0.078216)
  54:      3245.91    0.147856  ( -0.159635   0.331475  -0.111789)
  55:      3413.74   40.987380  (  4.169424  -4.713597   1.176980)
  56:      3484.45   59.858121  ( -3.899646  -4.903232   4.539735)

--------------------------
THERMOCHEMISTRY AT 298.15K
--------------------------

Temperature         ... 298.15 K
Pressure            ... 1.00 atm
Total Mass          ... 98.17 AMU

Throughout the following assumptions are being made:
  (1) The electronic state is orbitally nondegenerate
  (2) There are no thermally accessible electronically excited states
  (3) Hindered rotations indicated by low frequency modes) are not
      treated as such but are treated as vibrations and this may
      case some error
  (4) All equations used are the standard statistical mechanics
      equations for an ideal gas
  (5) All vibrations are strinctly harmonic

------------
INNER ENERGY
------------

The inner energy is: U= E(el) + E(ZPE) + E(vib) + E(rot) + E(trans)
    E(el)   - is the total energy from the electronic structure calculation
              = E(kin-el) + E(nuc-el) + E(el-el) + E(nuc-nuc)
    E(ZPE)  - the the zero temperature vibrational energy from the frequency calculation
    E(vib)  - the the finite temperature correction to E(ZPE) due to population
              of excietd vibrational states
    E(rot)  - is the rotational thermal energy
    E(trans)- is the translational thermal energy

Summary of contributions to the inner energy U:
Electronic energy                ...   -290.11142792 Eh
Zero point energy                ...      0.17772391 Eh     111.52 kcal/mol
Thermal vibrational correction   ...      0.00430842 Eh       2.70 kcal/mol
Thermal rotational correction    ...      0.00141627 Eh       0.89 kcal/mol
Thermal translational correction ...      0.00141627 Eh       0.89 kcal/mol
-----------------------------------------------------------------------
Total thermal energy                   -289.92656305 Eh

Summary of corrections to the electronic energy:
(perhaps to be used in another calculation)
Total thermal correction                  0.00714096 Eh       4.48 kcal/mol
Non-thermal (ZPE) correction              0.17772391 Eh     111.52 kcal/mol
-----------------------------------------------------------------------
Total correction                          0.18486487 Eh     116.00 kcal/mol

--------
ENTHALPY
--------

The enthalpy is H = U + kB*T
                kB is Boltzmann's constant
Total free energy                 ...   -289.92656305 Eh
Thermal Enthalpy correction       ...      0.00094421 Eh       0.59 kcal/mol
-----------------------------------------------------------------------
Total Enthalpy                    ...   -289.92561884 Eh

-------
ENTROPY
-------

The entropy contributions are T*S = T*(S(el)+S(vib)+S(rot)+S(trans)
     S(el)   - electronic entropy
     S(vib)  - vibrational entropy
     S(rot)  - rotational entropy
     S(trans)- translational entropy
The entropies will be listed as mutliplied by the temperature to get
units of energy

Electronic entropy                ...      0.00000000 Eh      0.00 kcal/mol
Vibrational entropy               ...      0.00740637 Eh      4.65 kcal/mol
Rotational entropy                ...      0.01195081 Eh      7.50 kcal/mol
Translational entropy             ...      0.01884507 Eh     11.83 kcal/mol
-----------------------------------------------------------------------
Final entropy term                ...      0.03820224 Eh     23.97 kcal/mol

CAUTION: The rotational entropy is not quite correctly treated here
         because it includes a symmetry number that is not yet correctly
         implemented in ORCA!
For a nonlinear molecule the correct rotational entropy is:
    S(rot) = R*(ln(qrot/sn)+1.5)
    R    = 8.31441 J/mol/K = 1.987191683e-3 kcal/mol/K
    qrot = 210225.8606091
    sn is the rotational symmetry number. We have assumed 3 here
       if it is different for your molecule then you should correct
       the printed rotational entropy by manually evaluating the equation
       as given above

For convenience we print out the resulting values for sn=1 - 12:
 sn= 1  qrot/sn=  210225.8606 T*S(rot)=     8.15 kcal/mol T*S(tot)=    24.62 kcal/mol
 sn= 2  qrot/sn=  105112.9303 T*S(rot)=     7.74 kcal/mol T*S(tot)=    24.21 kcal/mol
 sn= 3  qrot/sn=   70075.2869 T*S(rot)=     7.50 kcal/mol T*S(tot)=    23.97 kcal/mol
 sn= 4  qrot/sn=   52556.4652 T*S(rot)=     7.33 kcal/mol T*S(tot)=    23.80 kcal/mol
 sn= 5  qrot/sn=   42045.1721 T*S(rot)=     7.20 kcal/mol T*S(tot)=    23.67 kcal/mol
 sn= 6  qrot/sn=   35037.6434 T*S(rot)=     7.09 kcal/mol T*S(tot)=    23.56 kcal/mol
 sn= 7  qrot/sn=   30032.2658 T*S(rot)=     7.00 kcal/mol T*S(tot)=    23.47 kcal/mol
 sn= 8  qrot/sn=   26278.2326 T*S(rot)=     6.92 kcal/mol T*S(tot)=    23.39 kcal/mol
 sn= 9  qrot/sn=   23358.4290 T*S(rot)=     6.85 kcal/mol T*S(tot)=    23.32 kcal/mol
 sn=10  qrot/sn=   21022.5861 T*S(rot)=     6.79 kcal/mol T*S(tot)=    23.26 kcal/mol
 sn=11  qrot/sn=   19111.4419 T*S(rot)=     6.73 kcal/mol T*S(tot)=    23.20 kcal/mol
 sn=12  qrot/sn=   17518.8217 T*S(rot)=     6.68 kcal/mol T*S(tot)=    23.15 kcal/mol

-------------------
GIBBS FREE ENTHALPY
-------------------

The Gibbs free enthalpy is G = H - T*S

Total enthalpy                    ...   -289.92561884 Eh
Total entropy correction          ...     -0.03820224 Eh    -23.97 kcal/mol
-----------------------------------------------------------------------
Final Gibbs free enthalpy         ...   -289.96382108 Eh

For completeness - the Gibbs free enthalpy minus the electronic energy
G-E(el)                           ...      0.14760684 Eh     92.62 kcal/mol

                             ****ORCA TERMINATED NORMALLY****
TOTAL RUN TIME: 0 days 0 hours 44 minutes 37 seconds 144 msec
