                         Program Version 3.0.3 - RELEASE   -
|  1> ! NORI PBE0 def2-TZVP UseSym TightOPT Freq TightSCF Grid3 FinalGrid5 XYZFile
|  2> % pal
|  3>     nprocs 8
|  4> end
|  5> %method
|  6>     SymThresh 5.0e-2
|  7> end
|  8> % geom
|  9>     MaxIter 10
| 10> end
| 11> % maxcore 2000
| 12> % output
| 13>     printlevel mini
| 14>     print[ P_Basis ] 0
| 15>     print[ P_SCFInfo ] 1
| 16>     print[ P_SCFIterInfo ] 1
| 17>     print[ P_OrbEn ] 0
| 18>     print[ P_Cartesian ] 0
| 19> end
| 20> % elprop
| 21>     Dipole false
| 22> end
| 23> *xyz 1 1
| 24>  C        1.1515954674    -0.0832145750     0.2918943076
| 25>  N        2.6191184609    -0.1227877094     0.0544807276
| 26>  C        3.0187448586    -0.7941311077    -1.2253591323
| 27>  C        4.5154469990    -0.9928435705    -1.4646128950
| 28>  C        4.1702985105    -2.3927020623    -2.0403935457
| 29>  C        4.0782518070    -2.4441253375    -3.5501232062
| 30>  C        2.7999264020    -2.3042574960    -1.3161614674
| 31>  H        0.9533819874     0.3961713740     1.2489313939
| 32>  H        0.7756579783    -1.1040867632     0.2987362211
| 33>  H        0.6847901659     0.4801028570    -0.5136323158
| 34>  H        2.9949030667     0.8278677577     0.0607239960
| 35>  H        3.0766970965    -0.6118135403     0.8266957119
| 36>  H        2.5235818069    -0.2375731893    -2.0218340556
| 37>  H        5.0173109474    -0.2777727542    -2.1167257920
| 38>  H        5.0731477860    -1.0733955220    -0.5269280133
| 39>  H        4.8141410703    -3.1933289735    -1.6764154310
| 40>  H        3.4389033917    -1.6523403184    -3.9525145460
| 41>  H        3.6676121559    -3.4008108407    -3.8792672633
| 42>  H        5.0662791532    -2.3337114872    -4.0014611318
| 43>  H        2.8365924421    -2.7842972503    -0.3334992037
| 44>  H        1.9160884461    -2.6544794912    -1.8492643590
| 45> *
| 46>
| 47>                          ****END OF INPUT****
 Total Charge           Charge          ....    1
 Multiplicity           Mult            ....    1
 Number of Electrons    NEL             ....   56
FINAL SINGLE POINT ENERGY      -291.310395109825

CARTESIAN COORDINATES (ANGSTROEM)
---------------------------------
  C      1.348464   -0.000679    2.482112
  N      0.000199    0.000330    1.854465
  C      0.001590   -0.322480    0.390036
  C     -1.332977   -0.203631   -0.346247
  C     -0.547472    0.416753   -1.532665
  C     -0.201032   -0.561506   -2.634302
  C      0.616412    0.714778   -0.549529
  H      1.257481    0.266397    3.533465
  H      1.970926    0.724879    1.962845
  H      1.776183   -0.996330    2.383643
  H     -0.605941   -0.664887    2.339464
  H     -0.432879    0.917957    1.977666
  H      0.457766   -1.308960    0.301984
  H     -1.890446   -1.123247   -0.523231
  H     -1.995545    0.530841    0.121525
  H     -1.011436    1.308006   -1.954365
  H      0.267328   -1.471360   -2.247083
  H      0.491679   -0.110005   -3.347294
  H     -1.097075   -0.857905   -3.183153
  H      0.545920    1.728686   -0.143698
  H      1.635177    0.540713   -0.895098

FINAL SINGLE POINT ENERGY      -291.310396045729
                    ***********************HURRAY********************
 Multiplicity           Mult            ....    1
 Number of Electrons    NEL             ....   56
 Basis Dimension        Dim             ....  301
FINAL SINGLE POINT ENERGY      -291.310396422589

VIBRATIONAL FREQUENCIES
-----------------------

   0:         0.00 cm**-1
   1:         0.00 cm**-1
   2:         0.00 cm**-1
   3:         0.00 cm**-1
   4:         0.00 cm**-1
   5:         0.00 cm**-1
   6:        86.53 cm**-1
   7:       106.78 cm**-1
   8:       177.40 cm**-1
   9:       227.20 cm**-1
  10:       245.94 cm**-1
  11:       319.93 cm**-1
  12:       330.03 cm**-1
  13:       420.16 cm**-1
  14:       438.06 cm**-1
  15:       629.81 cm**-1
  16:       807.98 cm**-1
  17:       817.76 cm**-1
  18:       832.38 cm**-1
  19:       898.67 cm**-1
  20:       907.32 cm**-1
  21:       925.67 cm**-1
  22:       989.43 cm**-1
  23:      1002.95 cm**-1
  24:      1041.44 cm**-1
  25:      1049.65 cm**-1
  26:      1071.45 cm**-1
  27:      1117.24 cm**-1
  28:      1134.41 cm**-1
  29:      1182.97 cm**-1
  30:      1209.92 cm**-1
  31:      1227.77 cm**-1
  32:      1268.75 cm**-1
  33:      1274.75 cm**-1
  34:      1283.93 cm**-1
  35:      1299.68 cm**-1
  36:      1351.81 cm**-1
  37:      1372.58 cm**-1
  38:      1403.91 cm**-1
  39:      1417.69 cm**-1
  40:      1425.56 cm**-1
  41:      1457.94 cm**-1
  42:      1463.24 cm**-1
  43:      1484.14 cm**-1
  44:      1489.87 cm**-1
  45:      1493.35 cm**-1
  46:      1495.68 cm**-1
  47:      1497.00 cm**-1
  48:      1648.40 cm**-1
  49:      3049.84 cm**-1
  50:      3064.39 cm**-1
  51:      3068.24 cm**-1
  52:      3093.51 cm**-1
  53:      3111.12 cm**-1
  54:      3122.09 cm**-1
  55:      3130.46 cm**-1
  56:      3139.38 cm**-1
  57:      3144.48 cm**-1
  58:      3147.31 cm**-1
  59:      3193.15 cm**-1
  60:      3197.62 cm**-1
  61:      3435.58 cm**-1
  62:      3486.99 cm**-1

IR SPECTRUM
-----------

 Mode    freq (cm**-1)   T**2         TX         TY         TZ
-------------------------------------------------------------------
   6:        86.53    0.264957  (  0.320784  -0.287761  -0.281511)
   7:       106.78    2.374249  (  0.200735   1.523604   0.112187)
   8:       177.40    0.720868  (  0.168856   0.829740  -0.062348)
   9:       227.20    2.474888  ( -0.280722  -1.360878  -0.737627)
  10:       245.94    0.048954  (  0.221082  -0.006290   0.006109)
  11:       319.93    2.696593  (  0.358180  -0.353279   1.563168)
  12:       330.03    0.863788  (  0.773434   0.277494  -0.434264)
  13:       420.16    1.538612  ( -0.821262  -0.925637   0.085659)
  14:       438.06    3.910765  ( -0.690089   0.466149  -1.793669)
  15:       629.81    1.735103  ( -0.210783   0.588261   1.159578)
  16:       807.98    7.105175  (  0.051053  -2.055971   1.695745)
  17:       817.76    0.622105  (  0.771463   0.160419  -0.034855)
  18:       832.38   10.214342  ( -0.246765   1.996944  -2.483075)
  19:       898.67   16.226118  ( -0.452287  -1.869696  -3.539180)
  20:       907.32    0.305675  ( -0.231981   0.054933   0.498841)
  21:       925.67    1.501688  ( -0.210819   0.506254  -1.095879)
  22:       989.43    3.955411  ( -1.229912  -1.123700   1.086289)
  23:      1002.95    3.667195  ( -1.867273   0.418905  -0.070746)
  24:      1041.44   14.661473  ( -2.230306  -0.270617  -3.100641)
  25:      1049.65    3.655546  ( -0.506256   0.223083  -1.830160)
  26:      1071.45   15.991098  (  1.681556   0.463383   3.598436)
  27:      1117.24    1.467251  ( -0.037355  -0.229800  -1.188717)
  28:      1134.41    1.267303  ( -0.697160  -0.392580   0.791929)
  29:      1182.97    4.807194  ( -1.258166  -0.620844  -1.684864)
  30:      1209.92    0.816520  (  0.255841  -0.821721  -0.275389)
  31:      1227.77    0.874055  (  0.762324   0.513123   0.172108)
  32:      1268.75    2.113989  (  1.021822  -0.616069   0.830860)
  33:      1274.75    0.251412  (  0.290524   0.139853   0.383990)
  34:      1283.93   12.800748  (  0.895757  -1.104878   3.282927)
  35:      1299.68    1.090788  (  0.764827   0.379620   0.601429)
  36:      1351.81    4.359147  (  0.522883  -1.263269   1.577939)
  37:      1372.58    3.466818  ( -0.269989   0.030970  -1.842000)
  38:      1403.91   24.929349  ( -2.564105  -1.378599  -4.056375)
  39:      1417.69    5.902164  (  1.092885  -2.168930   0.059238)
  40:      1425.56   33.384226  (  1.082169   0.687994   5.633809)
  41:      1457.94    9.974153  ( -2.522037  -0.526028  -1.826685)
  42:      1463.24   13.053199  (  3.141728   1.535639  -0.908053)
  43:      1484.14    2.661372  ( -1.512849  -0.609715  -0.030141)
  44:      1489.87    1.704931  (  0.057797  -0.809060   1.023236)
  45:      1493.35   18.015764  ( -0.806973  -3.828617   1.645068)
  46:      1495.68   21.550034  (  0.113084   0.306216   4.630710)
  47:      1497.00   17.410991  ( -1.426884   3.765463   1.093747)
  48:      1648.40   50.803074  (  5.684854  -2.025038  -3.792721)
  49:      3049.84    9.807831  (  1.089924  -2.619163  -1.326605)
  50:      3064.39    8.826247  (  2.479013   1.491895   0.674529)
  51:      3068.24   13.996872  ( -1.033221   1.396387   3.313522)
  52:      3093.51    0.086861  ( -0.240707   0.018777  -0.169022)
  53:      3111.12    1.412062  (  0.172899  -0.532394  -1.048201)
  54:      3122.09    0.986902  (  0.251671  -0.355539   0.892835)
  55:      3130.46   20.625310  ( -1.650763   2.778692  -3.190480)
  56:      3139.38    4.278603  ( -1.870207  -0.868055   0.165561)
  57:      3144.48    8.014093  ( -2.582981  -1.132488   0.244487)
  58:      3147.31    8.341174  ( -0.996133   2.598464   0.772580)
  59:      3193.15    0.111583  ( -0.319459   0.097181  -0.009205)
  60:      3197.62    0.029368  (  0.048910   0.101270  -0.129308)
  61:      3435.58   39.272580  (  4.995397  -0.591883  -3.737413)
  62:      3486.99   62.039343  (  1.021907   7.553640  -1.984333)

--------------------------
THERMOCHEMISTRY AT 298.15K
--------------------------

Temperature         ... 298.15 K
Pressure            ... 1.00 atm
Total Mass          ... 100.18 AMU

Throughout the following assumptions are being made:
  (1) The electronic state is orbitally nondegenerate
  (2) There are no thermally accessible electronically excited states
  (3) Hindered rotations indicated by low frequency modes) are not
      treated as such but are treated as vibrations and this may
      case some error
  (4) All equations used are the standard statistical mechanics
      equations for an ideal gas
  (5) All vibrations are strinctly harmonic

------------
INNER ENERGY
------------

The inner energy is: U= E(el) + E(ZPE) + E(vib) + E(rot) + E(trans)
    E(el)   - is the total energy from the electronic structure calculation
              = E(kin-el) + E(nuc-el) + E(el-el) + E(nuc-nuc)
    E(ZPE)  - the the zero temperature vibrational energy from the frequency calculation
    E(vib)  - the the finite temperature correction to E(ZPE) due to population
              of excietd vibrational states
    E(rot)  - is the rotational thermal energy
    E(trans)- is the translational thermal energy

Summary of contributions to the inner energy U:
Electronic energy                ...   -291.31039642 Eh
Zero point energy                ...      0.19982106 Eh     125.39 kcal/mol
Thermal vibrational correction   ...      0.00533937 Eh       3.35 kcal/mol
Thermal rotational correction    ...      0.00141627 Eh       0.89 kcal/mol
Thermal translational correction ...      0.00141627 Eh       0.89 kcal/mol
-----------------------------------------------------------------------
Total thermal energy                   -291.10240345 Eh

Summary of corrections to the electronic energy:
(perhaps to be used in another calculation)
Total thermal correction                  0.00817191 Eh       5.13 kcal/mol
Non-thermal (ZPE) correction              0.19982106 Eh     125.39 kcal/mol
-----------------------------------------------------------------------
Total correction                          0.20799297 Eh     130.52 kcal/mol

--------
ENTHALPY
--------

The enthalpy is H = U + kB*T
                kB is Boltzmann's constant
Total free energy                 ...   -291.10240345 Eh
Thermal Enthalpy correction       ...      0.00094421 Eh       0.59 kcal/mol
-----------------------------------------------------------------------
Total Enthalpy                    ...   -291.10145924 Eh

-------
ENTROPY
-------

The entropy contributions are T*S = T*(S(el)+S(vib)+S(rot)+S(trans)
     S(el)   - electronic entropy
     S(vib)  - vibrational entropy
     S(rot)  - rotational entropy
     S(trans)- translational entropy
The entropies will be listed as mutliplied by the temperature to get
units of energy

Electronic entropy                ...      0.00000000 Eh      0.00 kcal/mol
Vibrational entropy               ...      0.00936451 Eh      5.88 kcal/mol
Rotational entropy                ...      0.01212284 Eh      7.61 kcal/mol
Translational entropy             ...      0.01887386 Eh     11.84 kcal/mol
-----------------------------------------------------------------------
Final entropy term                ...      0.04036121 Eh     25.33 kcal/mol

CAUTION: The rotational entropy is not quite correctly treated here
         because it includes a symmetry number that is not yet correctly
         implemented in ORCA!
For a nonlinear molecule the correct rotational entropy is:
    S(rot) = R*(ln(qrot/sn)+1.5)
    R    = 8.31441 J/mol/K = 1.987191683e-3 kcal/mol/K
    qrot = 252241.5897204
    sn is the rotational symmetry number. We have assumed 3 here
       if it is different for your molecule then you should correct
       the printed rotational entropy by manually evaluating the equation
       as given above

For convenience we print out the resulting values for sn=1 - 12:
 sn= 1  qrot/sn=  252241.5897 T*S(rot)=     8.26 kcal/mol T*S(tot)=    25.98 kcal/mol
 sn= 2  qrot/sn=  126120.7949 T*S(rot)=     7.85 kcal/mol T*S(tot)=    25.57 kcal/mol
 sn= 3  qrot/sn=   84080.5299 T*S(rot)=     7.61 kcal/mol T*S(tot)=    25.33 kcal/mol
 sn= 4  qrot/sn=   63060.3974 T*S(rot)=     7.44 kcal/mol T*S(tot)=    25.16 kcal/mol
 sn= 5  qrot/sn=   50448.3179 T*S(rot)=     7.30 kcal/mol T*S(tot)=    25.02 kcal/mol
 sn= 6  qrot/sn=   42040.2650 T*S(rot)=     7.20 kcal/mol T*S(tot)=    24.92 kcal/mol
 sn= 7  qrot/sn=   36034.5128 T*S(rot)=     7.11 kcal/mol T*S(tot)=    24.82 kcal/mol
 sn= 8  qrot/sn=   31530.1987 T*S(rot)=     7.03 kcal/mol T*S(tot)=    24.75 kcal/mol
 sn= 9  qrot/sn=   28026.8433 T*S(rot)=     6.96 kcal/mol T*S(tot)=    24.68 kcal/mol
 sn=10  qrot/sn=   25224.1590 T*S(rot)=     6.89 kcal/mol T*S(tot)=    24.61 kcal/mol
 sn=11  qrot/sn=   22931.0536 T*S(rot)=     6.84 kcal/mol T*S(tot)=    24.56 kcal/mol
 sn=12  qrot/sn=   21020.1325 T*S(rot)=     6.79 kcal/mol T*S(tot)=    24.51 kcal/mol

-------------------
GIBBS FREE ENTHALPY
-------------------

The Gibbs free enthalpy is G = H - T*S

Total enthalpy                    ...   -291.10145924 Eh
Total entropy correction          ...     -0.04036121 Eh    -25.33 kcal/mol
-----------------------------------------------------------------------
Final Gibbs free enthalpy         ...   -291.14182045 Eh

For completeness - the Gibbs free enthalpy minus the electronic energy
G-E(el)                           ...      0.16857597 Eh    105.78 kcal/mol

                             ****ORCA TERMINATED NORMALLY****
TOTAL RUN TIME: 0 days 0 hours 46 minutes 11 seconds 80 msec
