                         Program Version 3.0.3 - RELEASE   -
|  1> ! NORI PBE0 def2-TZVP UseSym TightOPT Freq TightSCF Grid3 FinalGrid5 XYZFile
|  2> % pal
|  3>     nprocs 8
|  4> end
|  5> %method
|  6>     SymThresh 5.0e-2
|  7> end
|  8> % geom
|  9>     MaxIter 10
| 10> end
| 11> % maxcore 2000
| 12> % output
| 13>     printlevel mini
| 14>     print[ P_Basis ] 0
| 15>     print[ P_SCFInfo ] 1
| 16>     print[ P_SCFIterInfo ] 1
| 17>     print[ P_OrbEn ] 0
| 18>     print[ P_Cartesian ] 0
| 19> end
| 20> % elprop
| 21>     Dipole false
| 22> end
| 23> *xyz 1 1
| 24>  C        2.8454683798     1.3663804409     0.0138816570
| 25>  N        2.4449919551    -0.0605180035    -0.0765249854
| 26>  C        3.0031812694    -0.8153728790    -1.2855137913
| 27>  C        2.4758724432    -2.2540935752    -1.3103748534
| 28>  C        3.6271372282    -3.1340780142    -0.7959474567
| 29>  C        4.8099325746    -2.2253500004    -0.8652482418
| 30>  C        4.4856749045    -0.9668977259    -1.1534675865
| 31>  H        2.3753801447     1.8160402517     0.8868089401
| 32>  H        2.5193416742     1.8778780019    -0.8899523854
| 33>  H        3.9274778734     1.4224621359     0.1060826788
| 34>  H        2.7533859095    -0.5540517526     0.7637836864
| 35>  H        1.4260461034    -0.1262599549    -0.0983610372
| 36>  H        2.6789338651    -0.2174629958    -2.1404873335
| 37>  H        2.2448634406    -2.5089679403    -2.3450795060
| 38>  H        1.5463143717    -2.3798517460    -0.7484758813
| 39>  H        3.7639387385    -4.0237807701    -1.4143291168
| 40>  H        3.4726004460    -3.5021618990     0.2240561308
| 41>  H        5.8240527753    -2.5722548024    -0.7051240959
| 42>  H        5.1852059029    -0.1525187711    -1.2918168220
| 43> *
| 44>
| 45>                          ****END OF INPUT****
 Total Charge           Charge          ....    1
 Multiplicity           Mult            ....    1
 Number of Electrons    NEL             ....   54
FINAL SINGLE POINT ENERGY      -290.112610962491

CARTESIAN COORDINATES (ANGSTROEM)
---------------------------------
  C      1.263504   -0.000630    2.307390
  N     -0.000498    0.000708    1.528119
  C      0.085845    0.670473    0.154489
  C     -1.284815    0.667448   -0.531187
  C     -1.230972   -0.459262   -1.576271
  C      0.227424   -0.763729   -1.676502
  C      0.956282   -0.138133   -0.754950
  H      1.088482   -0.470981    3.273478
  H      1.587496    1.029024    2.447097
  H      2.015939   -0.558129    1.755088
  H     -0.311223   -0.962122    1.382221
  H     -0.731726    0.466304    2.068203
  H      0.460923    1.672649    0.374487
  H     -1.414423    1.630372   -1.026390
  H     -2.116365    0.570032    0.172534
  H     -1.644612   -0.141408   -2.535897
  H     -1.800318   -1.349737   -1.287674
  H      0.636823   -1.421293   -2.434363
  H      2.034245   -0.183492   -0.667588

FINAL SINGLE POINT ENERGY      -290.112611792605
                    ***********************HURRAY********************
 Multiplicity           Mult            ....    1
 Number of Electrons    NEL             ....   54
 Basis Dimension        Dim             ....  289
FINAL SINGLE POINT ENERGY      -290.112612208321

VIBRATIONAL FREQUENCIES
-----------------------

   0:         0.00 cm**-1
   1:         0.00 cm**-1
   2:         0.00 cm**-1
   3:         0.00 cm**-1
   4:         0.00 cm**-1
   5:         0.00 cm**-1
   6:        76.49 cm**-1
   7:       103.25 cm**-1
   8:       214.24 cm**-1
   9:       243.04 cm**-1
  10:       290.37 cm**-1
  11:       388.32 cm**-1
  12:       505.13 cm**-1
  13:       689.41 cm**-1
  14:       733.63 cm**-1
  15:       767.86 cm**-1
  16:       795.96 cm**-1
  17:       846.32 cm**-1
  18:       879.29 cm**-1
  19:       939.25 cm**-1
  20:       950.69 cm**-1
  21:       989.76 cm**-1
  22:      1002.53 cm**-1
  23:      1023.78 cm**-1
  24:      1048.21 cm**-1
  25:      1070.94 cm**-1
  26:      1134.03 cm**-1
  27:      1143.51 cm**-1
  28:      1153.95 cm**-1
  29:      1205.36 cm**-1
  30:      1245.61 cm**-1
  31:      1295.11 cm**-1
  32:      1322.36 cm**-1
  33:      1335.05 cm**-1
  34:      1354.52 cm**-1
  35:      1380.16 cm**-1
  36:      1405.41 cm**-1
  37:      1418.95 cm**-1
  38:      1455.81 cm**-1
  39:      1469.19 cm**-1
  40:      1486.77 cm**-1
  41:      1492.89 cm**-1
  42:      1498.61 cm**-1
  43:      1637.45 cm**-1
  44:      1686.68 cm**-1
  45:      3056.36 cm**-1
  46:      3076.50 cm**-1
  47:      3094.52 cm**-1
  48:      3100.44 cm**-1
  49:      3106.63 cm**-1
  50:      3134.37 cm**-1
  51:      3190.06 cm**-1
  52:      3201.47 cm**-1
  53:      3215.51 cm**-1
  54:      3236.08 cm**-1
  55:      3436.42 cm**-1
  56:      3496.31 cm**-1

IR SPECTRUM
-----------

 Mode    freq (cm**-1)   T**2         TX         TY         TZ
-------------------------------------------------------------------
   6:        76.49    0.536912  (  0.515900  -0.056006   0.517322)
   7:       103.25    2.929620  (  0.159783  -1.552320  -0.703130)
   8:       214.24    0.445662  ( -0.023809   0.025495  -0.666667)
   9:       243.04    2.159174  (  0.341572  -1.428914  -0.026619)
  10:       290.37    2.910602  (  0.215123  -0.864139  -1.455193)
  11:       388.32    4.030822  (  1.259874  -0.335867   1.526673)
  12:       505.13    1.689296  (  0.676948  -1.041811   0.381664)
  13:       689.41    9.094987  (  0.927668   2.558285  -1.299844)
  14:       733.63    9.704064  (  0.794041   2.788178   1.140011)
  15:       767.86   38.248390  (  0.925846   2.416678  -5.617016)
  16:       795.96    9.815764  (  0.332190  -0.986452   2.955051)
  17:       846.32    9.537801  ( -1.002463  -2.522757  -1.472606)
  18:       879.29   11.548959  ( -0.292920   2.576182  -2.196917)
  19:       939.25    5.088800  ( -0.918555   1.110774  -1.735292)
  20:       950.69    3.069626  (  1.627653   0.474067  -0.442301)
  21:       989.76   13.941997  ( -0.488692   2.165838  -3.002053)
  22:      1002.53   12.905984  (  0.263533  -2.196682  -2.830392)
  23:      1023.78   17.951326  (  2.476205  -0.133441   3.435394)
  24:      1048.21   17.249086  (  0.005794  -1.864512   3.711152)
  25:      1070.94    0.464827  (  0.207773   0.425895  -0.490174)
  26:      1134.03    1.972733  (  0.256574   1.353132  -0.275564)
  27:      1143.51    4.109396  ( -0.602316   0.817268  -1.754618)
  28:      1153.95   12.850567  (  2.322222  -1.067693   2.513540)
  29:      1205.36    0.745714  ( -0.670932   0.507556  -0.194811)
  30:      1245.61    2.014878  (  1.026694  -0.717383   0.667936)
  31:      1295.11    7.859212  (  0.613938   0.203019   2.727833)
  32:      1322.36    0.984443  (  0.757174   0.638552   0.058159)
  33:      1335.05    8.512887  (  1.972826   0.084505   2.147953)
  34:      1354.52    3.575292  ( -1.075622   1.554855   0.027502)
  35:      1380.16    5.505715  (  0.587289  -0.237241   2.259319)
  36:      1405.41   34.965248  (  1.603760  -2.936746   4.875318)
  37:      1418.95   35.710169  ( -0.722138  -2.221667  -5.500262)
  38:      1455.81    8.037769  ( -2.026797  -0.496422  -1.919226)
  39:      1469.19    3.612023  ( -0.089542  -1.761487  -0.707932)
  40:      1486.77   19.748281  (  3.992381  -0.259784   1.934344)
  41:      1492.89   22.021463  ( -2.308305   2.077258   3.518265)
  42:      1498.61   21.958312  (  0.629766   4.157072  -2.068928)
  43:      1637.45   42.699688  ( -4.997368  -2.847173   3.101549)
  44:      1686.68   17.003271  ( -2.413616  -1.359736  -3.054316)
  45:      3056.36    5.455981  ( -0.936196  -1.968079  -0.840346)
  46:      3076.50   10.534368  ( -2.143738   0.442378   2.396467)
  47:      3094.52    0.148502  (  0.366428  -0.016444   0.118162)
  48:      3100.44    8.016061  ( -0.201191  -1.648808  -2.292819)
  49:      3106.63    0.423255  (  0.357023   0.014238   0.543679)
  50:      3134.37    1.528623  ( -0.747194  -0.732370   0.658756)
  51:      3190.06    0.070729  (  0.248485   0.085039  -0.041865)
  52:      3201.47    0.080106  ( -0.044262   0.058500   0.273357)
  53:      3215.51    0.161571  (  0.335140   0.208901   0.074917)
  54:      3236.08    0.232715  (  0.047817  -0.006804   0.479981)
  55:      3436.42   30.552793  (  4.393040   2.464775  -2.275714)
  56:      3496.31   57.222965  (  2.438500  -6.387682  -3.236387)

--------------------------
THERMOCHEMISTRY AT 298.15K
--------------------------

Temperature         ... 298.15 K
Pressure            ... 1.00 atm
Total Mass          ... 98.17 AMU

Throughout the following assumptions are being made:
  (1) The electronic state is orbitally nondegenerate
  (2) There are no thermally accessible electronically excited states
  (3) Hindered rotations indicated by low frequency modes) are not
      treated as such but are treated as vibrations and this may
      case some error
  (4) All equations used are the standard statistical mechanics
      equations for an ideal gas
  (5) All vibrations are strinctly harmonic

------------
INNER ENERGY
------------

The inner energy is: U= E(el) + E(ZPE) + E(vib) + E(rot) + E(trans)
    E(el)   - is the total energy from the electronic structure calculation
              = E(kin-el) + E(nuc-el) + E(el-el) + E(nuc-nuc)
    E(ZPE)  - the the zero temperature vibrational energy from the frequency calculation
    E(vib)  - the the finite temperature correction to E(ZPE) due to population
              of excietd vibrational states
    E(rot)  - is the rotational thermal energy
    E(trans)- is the translational thermal energy

Summary of contributions to the inner energy U:
Electronic energy                ...   -290.11261221 Eh
Zero point energy                ...      0.17775304 Eh     111.54 kcal/mol
Thermal vibrational correction   ...      0.00447245 Eh       2.81 kcal/mol
Thermal rotational correction    ...      0.00141627 Eh       0.89 kcal/mol
Thermal translational correction ...      0.00141627 Eh       0.89 kcal/mol
-----------------------------------------------------------------------
Total thermal energy                   -289.92755417 Eh

Summary of corrections to the electronic energy:
(perhaps to be used in another calculation)
Total thermal correction                  0.00730499 Eh       4.58 kcal/mol
Non-thermal (ZPE) correction              0.17775304 Eh     111.54 kcal/mol
-----------------------------------------------------------------------
Total correction                          0.18505803 Eh     116.13 kcal/mol

--------
ENTHALPY
--------

The enthalpy is H = U + kB*T
                kB is Boltzmann's constant
Total free energy                 ...   -289.92755417 Eh
Thermal Enthalpy correction       ...      0.00094421 Eh       0.59 kcal/mol
-----------------------------------------------------------------------
Total Enthalpy                    ...   -289.92660997 Eh

-------
ENTROPY
-------

The entropy contributions are T*S = T*(S(el)+S(vib)+S(rot)+S(trans)
     S(el)   - electronic entropy
     S(vib)  - vibrational entropy
     S(rot)  - rotational entropy
     S(trans)- translational entropy
The entropies will be listed as mutliplied by the temperature to get
units of energy

Electronic entropy                ...      0.00000000 Eh      0.00 kcal/mol
Vibrational entropy               ...      0.00796089 Eh      5.00 kcal/mol
Rotational entropy                ...      0.01198251 Eh      7.52 kcal/mol
Translational entropy             ...      0.01884507 Eh     11.83 kcal/mol
-----------------------------------------------------------------------
Final entropy term                ...      0.03878846 Eh     24.34 kcal/mol

CAUTION: The rotational entropy is not quite correctly treated here
         because it includes a symmetry number that is not yet correctly
         implemented in ORCA!
For a nonlinear molecule the correct rotational entropy is:
    S(rot) = R*(ln(qrot/sn)+1.5)
    R    = 8.31441 J/mol/K = 1.987191683e-3 kcal/mol/K
    qrot = 217403.8418483
    sn is the rotational symmetry number. We have assumed 3 here
       if it is different for your molecule then you should correct
       the printed rotational entropy by manually evaluating the equation
       as given above

For convenience we print out the resulting values for sn=1 - 12:
 sn= 1  qrot/sn=  217403.8418 T*S(rot)=     8.17 kcal/mol T*S(tot)=    24.99 kcal/mol
 sn= 2  qrot/sn=  108701.9209 T*S(rot)=     7.76 kcal/mol T*S(tot)=    24.58 kcal/mol
 sn= 3  qrot/sn=   72467.9473 T*S(rot)=     7.52 kcal/mol T*S(tot)=    24.34 kcal/mol
 sn= 4  qrot/sn=   54350.9605 T*S(rot)=     7.35 kcal/mol T*S(tot)=    24.17 kcal/mol
 sn= 5  qrot/sn=   43480.7684 T*S(rot)=     7.22 kcal/mol T*S(tot)=    24.04 kcal/mol
 sn= 6  qrot/sn=   36233.9736 T*S(rot)=     7.11 kcal/mol T*S(tot)=    23.93 kcal/mol
 sn= 7  qrot/sn=   31057.6917 T*S(rot)=     7.02 kcal/mol T*S(tot)=    23.84 kcal/mol
 sn= 8  qrot/sn=   27175.4802 T*S(rot)=     6.94 kcal/mol T*S(tot)=    23.76 kcal/mol
 sn= 9  qrot/sn=   24155.9824 T*S(rot)=     6.87 kcal/mol T*S(tot)=    23.69 kcal/mol
 sn=10  qrot/sn=   21740.3842 T*S(rot)=     6.81 kcal/mol T*S(tot)=    23.63 kcal/mol
 sn=11  qrot/sn=   19763.9856 T*S(rot)=     6.75 kcal/mol T*S(tot)=    23.57 kcal/mol
 sn=12  qrot/sn=   18116.9868 T*S(rot)=     6.70 kcal/mol T*S(tot)=    23.52 kcal/mol

-------------------
GIBBS FREE ENTHALPY
-------------------

The Gibbs free enthalpy is G = H - T*S

Total enthalpy                    ...   -289.92660997 Eh
Total entropy correction          ...     -0.03878846 Eh    -24.34 kcal/mol
-----------------------------------------------------------------------
Final Gibbs free enthalpy         ...   -289.96539843 Eh

For completeness - the Gibbs free enthalpy minus the electronic energy
G-E(el)                           ...      0.14721378 Eh     92.38 kcal/mol

                             ****ORCA TERMINATED NORMALLY****
TOTAL RUN TIME: 0 days 0 hours 42 minutes 59 seconds 214 msec
