                         Program Version 3.0.3 - RELEASE   -
|  1> ! NORI PBE0 def2-TZVP UseSym TightOPT Freq TightSCF Grid3 FinalGrid5 XYZFile
|  2> % pal
|  3>     nprocs 8
|  4> end
|  5> %method
|  6>     SymThresh 5.0e-2
|  7> end
|  8> % geom
|  9>     MaxIter 10
| 10> end
| 11> % maxcore 2000
| 12> % output
| 13>     printlevel mini
| 14>     print[ P_Basis ] 0
| 15>     print[ P_SCFInfo ] 1
| 16>     print[ P_SCFIterInfo ] 1
| 17>     print[ P_OrbEn ] 0
| 18>     print[ P_Cartesian ] 0
| 19> end
| 20> % elprop
| 21>     Dipole false
| 22> end
| 23> *xyz 1 1
| 24>  C        1.8146875628     0.8887595130    -0.0928061787
| 25>  N        3.2325099939     0.6102113493    -0.4381045717
| 26>  C        3.7790419812    -0.6898987357     0.1008532476
| 27>  C        5.2228417405    -0.8218022395    -0.2380463023
| 28>  C        6.2403486362    -0.0128571298     0.5338417391
| 29>  C        6.1564976179    -1.4890829141     0.7335982428
| 30>  C        7.2382184050    -2.3983522428     0.2276763568
| 31>  H        1.5193589519     1.8436211910    -0.5239326874
| 32>  H        1.7206399778     0.9226221246     0.9909390651
| 33>  H        1.1940941476     0.0899402115    -0.4941936478
| 34>  H        3.8381279394     1.3591351498    -0.0939159623
| 35>  H        3.3476564382     0.6110889570    -1.4532102953
| 36>  H        3.1618074755    -1.4832902505    -0.3256892117
| 37>  H        3.6156085755    -0.6617589863     1.1799139361
| 38>  H        5.4358274137    -1.0019870269    -1.2883232412
| 39>  H        5.8940613746     0.6293082548     1.3378371349
| 40>  H        7.0860628559     0.3794899386    -0.0173539938
| 41>  H        5.6976559121    -1.8004458851     1.6677991066
| 42>  H        7.6603433275    -2.0263701959    -0.7085422062
| 43>  H        6.8579154104    -3.4064343193     0.0516615111
| 44>  H        8.0502342622    -2.4678367638     0.9542779583
| 45> *
| 46>
| 47>                          ****END OF INPUT****
 Total Charge           Charge          ....    1
 Multiplicity           Mult            ....    1
 Number of Electrons    NEL             ....   56
FINAL SINGLE POINT ENERGY      -291.308462571350
FINAL SINGLE POINT ENERGY      -291.308463957092
FINAL SINGLE POINT ENERGY      -291.308465150455

CARTESIAN COORDINATES (ANGSTROEM)
---------------------------------
  C      0.928497    0.003763    3.136725
  N     -0.001994   -0.006285    1.978814
  C      0.617977   -0.405956    0.661610
  C     -0.382050   -0.288238   -0.434777
  C     -0.738226    1.081232   -0.965659
  C      0.062844    0.142201   -1.804922
  C     -0.533476   -0.502933   -3.022291
  H      0.385827    0.301255    4.032330
  H      1.730187    0.710733    2.933282
  H      1.339677   -0.995728    3.263598
  H     -0.420023    0.918044    1.849069
  H     -0.783985   -0.635240    2.169774
  H      0.994861   -1.422000    0.795456
  H      1.466787    0.263550    0.511658
  H     -1.178858   -1.026895   -0.413746
  H     -0.232962    1.948051   -0.550801
  H     -1.771235    1.255678   -1.240194
  H      1.118298    0.385888   -1.887569
  H     -1.594712   -0.717688   -2.876354
  H     -0.027126   -1.440155   -3.262142
  H     -0.444007    0.157855   -3.886466

FINAL SINGLE POINT ENERGY      -291.308465522154
                    ***********************HURRAY********************
 Multiplicity           Mult            ....    1
 Number of Electrons    NEL             ....   56
 Basis Dimension        Dim             ....  301
FINAL SINGLE POINT ENERGY      -291.308465708208

VIBRATIONAL FREQUENCIES
-----------------------

   0:         0.00 cm**-1
   1:         0.00 cm**-1
   2:         0.00 cm**-1
   3:         0.00 cm**-1
   4:         0.00 cm**-1
   5:         0.00 cm**-1
   6:        71.37 cm**-1
   7:        99.91 cm**-1
   8:       119.49 cm**-1
   9:       217.24 cm**-1
  10:       226.56 cm**-1
  11:       260.40 cm**-1
  12:       308.78 cm**-1
  13:       344.72 cm**-1
  14:       418.43 cm**-1
  15:       484.81 cm**-1
  16:       784.97 cm**-1
  17:       808.84 cm**-1
  18:       849.21 cm**-1
  19:       876.63 cm**-1
  20:       894.20 cm**-1
  21:       932.52 cm**-1
  22:       935.62 cm**-1
  23:      1000.66 cm**-1
  24:      1029.41 cm**-1
  25:      1066.05 cm**-1
  26:      1069.35 cm**-1
  27:      1096.74 cm**-1
  28:      1121.21 cm**-1
  29:      1138.09 cm**-1
  30:      1171.25 cm**-1
  31:      1208.95 cm**-1
  32:      1222.21 cm**-1
  33:      1247.27 cm**-1
  34:      1309.04 cm**-1
  35:      1337.25 cm**-1
  36:      1377.52 cm**-1
  37:      1391.94 cm**-1
  38:      1417.32 cm**-1
  39:      1419.57 cm**-1
  40:      1444.58 cm**-1
  41:      1460.47 cm**-1
  42:      1480.57 cm**-1
  43:      1484.91 cm**-1
  44:      1488.74 cm**-1
  45:      1493.83 cm**-1
  46:      1498.66 cm**-1
  47:      1510.82 cm**-1
  48:      1656.80 cm**-1
  49:      3057.24 cm**-1
  50:      3086.63 cm**-1
  51:      3092.55 cm**-1
  52:      3130.15 cm**-1
  53:      3137.29 cm**-1
  54:      3137.72 cm**-1
  55:      3141.04 cm**-1
  56:      3156.65 cm**-1
  57:      3162.78 cm**-1
  58:      3191.93 cm**-1
  59:      3194.75 cm**-1
  60:      3231.82 cm**-1
  61:      3438.58 cm**-1
  62:      3489.49 cm**-1

IR SPECTRUM
-----------

 Mode    freq (cm**-1)   T**2         TX         TY         TZ
-------------------------------------------------------------------
   6:        71.37    0.803409  (  0.390377   0.453271   0.667503)
   7:        99.91    4.978264  (  0.490010   2.032697  -0.778652)
   8:       119.49    1.455633  ( -0.258942   0.278682  -1.144954)
   9:       217.24    0.348797  ( -0.112848   0.191090   0.547309)
  10:       226.56    2.282409  (  0.171304   1.480821  -0.245422)
  11:       260.40    2.574053  ( -0.216085   0.689193   1.432611)
  12:       308.78    1.412885  (  1.006429  -0.105014   0.623666)
  13:       344.72    4.609107  ( -0.159610   0.532762   2.073595)
  14:       418.43    0.576463  (  0.580471  -0.060345  -0.485669)
  15:       484.81    0.314850  (  0.086625  -0.191239  -0.520359)
  16:       784.97   18.792659  ( -1.346567  -3.428105   2.286375)
  17:       808.84    3.930335  (  0.653813  -1.645731  -0.891310)
  18:       849.21    2.555265  (  0.413024   0.364703   1.500556)
  19:       876.63    2.260761  (  0.230390   0.460447   1.412682)
  20:       894.20   11.637393  (  1.427867  -1.494642  -2.713786)
  21:       932.52   16.915182  ( -0.672884   1.501182  -3.769464)
  22:       935.62    5.989384  (  0.443303  -1.987887  -1.356898)
  23:      1000.66   21.686388  ( -0.094311   0.113551  -4.654525)
  24:      1029.41   11.867151  (  2.005841  -0.126348   2.797818)
  25:      1066.05   11.409816  ( -0.187553   1.583684  -2.977681)
  26:      1069.35   12.534016  ( -1.218353  -0.583739   3.272443)
  27:      1096.74    2.887701  ( -0.411686  -1.377989  -0.905187)
  28:      1121.21    4.431950  (  1.053431  -1.822141  -0.045106)
  29:      1138.09    1.559467  (  0.289145   0.158441  -1.204474)
  30:      1171.25    8.889361  ( -0.642689  -0.122736  -2.908822)
  31:      1208.95    1.054925  ( -0.907254   0.044581  -0.479403)
  32:      1222.21    2.342840  ( -0.442746   0.027237  -1.464948)
  33:      1247.27    4.290827  ( -0.596520  -1.007224   1.708944)
  34:      1309.04    1.185833  ( -0.006844   1.048197   0.295075)
  35:      1337.25    2.697974  ( -0.084240   1.397554   0.858907)
  36:      1377.52   15.305777  (  0.431245   0.722522   3.820702)
  37:      1391.94    5.270567  (  0.371931  -0.476361   2.214794)
  38:      1417.32   38.983925  (  1.497122   1.372336   5.904172)
  39:      1419.57   45.883733  ( -0.737820  -0.455943   6.717996)
  40:      1444.58    9.561403  (  1.081838  -0.927520   2.744219)
  41:      1460.47    7.010051  (  1.117590  -0.545683   2.337365)
  42:      1480.57    5.573951  (  0.685279  -2.125423   0.766109)
  43:      1484.91   11.768832  (  2.238260   0.521059   2.547061)
  44:      1488.74   25.145292  (  3.207482  -0.501947  -3.821702)
  45:      1493.83   21.980223  ( -0.092556  -4.675946   0.327392)
  46:      1498.66   18.676201  (  3.260917  -0.786962  -2.724575)
  47:      1510.82    9.667600  ( -2.217205  -1.684564  -1.383418)
  48:      1656.80   41.192647  (  6.094464  -1.964787  -0.435627)
  49:      3057.24   10.259702  (  1.351739   1.536777   2.463903)
  50:      3086.63    4.777192  (  1.533397  -0.555660   1.455035)
  51:      3092.55    0.501383  (  0.533989  -0.091413   0.455942)
  52:      3130.15    6.737279  (  1.948871  -0.479812  -1.645893)
  53:      3137.29    8.102057  (  0.377532  -2.698181  -0.824225)
  54:      3137.72    4.175785  (  0.237420  -0.854045   1.841202)
  55:      3141.04    0.685861  (  0.586845  -0.564167  -0.152279)
  56:      3156.65    2.616263  ( -1.276206   0.740004  -0.663291)
  57:      3162.78    8.949893  (  2.615534   1.319285  -0.606928)
  58:      3191.93    0.134711  (  0.331360  -0.139812   0.073241)
  59:      3194.75    0.006434  ( -0.012536  -0.070869  -0.035411)
  60:      3231.82    1.749975  (  0.765529   0.700041   0.820904)
  61:      3438.58   36.660493  ( -5.620265   2.247965   0.140601)
  62:      3489.49   67.566823  (  2.780217   7.227047  -2.758081)

--------------------------
THERMOCHEMISTRY AT 298.15K
--------------------------

Temperature         ... 298.15 K
Pressure            ... 1.00 atm
Total Mass          ... 100.18 AMU

Throughout the following assumptions are being made:
  (1) The electronic state is orbitally nondegenerate
  (2) There are no thermally accessible electronically excited states
  (3) Hindered rotations indicated by low frequency modes) are not
      treated as such but are treated as vibrations and this may
      case some error
  (4) All equations used are the standard statistical mechanics
      equations for an ideal gas
  (5) All vibrations are strinctly harmonic

------------
INNER ENERGY
------------

The inner energy is: U= E(el) + E(ZPE) + E(vib) + E(rot) + E(trans)
    E(el)   - is the total energy from the electronic structure calculation
              = E(kin-el) + E(nuc-el) + E(el-el) + E(nuc-nuc)
    E(ZPE)  - the the zero temperature vibrational energy from the frequency calculation
    E(vib)  - the the finite temperature correction to E(ZPE) due to population
              of excietd vibrational states
    E(rot)  - is the rotational thermal energy
    E(trans)- is the translational thermal energy

Summary of contributions to the inner energy U:
Electronic energy                ...   -291.30846571 Eh
Zero point energy                ...      0.19917004 Eh     124.98 kcal/mol
Thermal vibrational correction   ...      0.00584253 Eh       3.67 kcal/mol
Thermal rotational correction    ...      0.00141627 Eh       0.89 kcal/mol
Thermal translational correction ...      0.00141627 Eh       0.89 kcal/mol
-----------------------------------------------------------------------
Total thermal energy                   -291.10062059 Eh

Summary of corrections to the electronic energy:
(perhaps to be used in another calculation)
Total thermal correction                  0.00867507 Eh       5.44 kcal/mol
Non-thermal (ZPE) correction              0.19917004 Eh     124.98 kcal/mol
-----------------------------------------------------------------------
Total correction                          0.20784512 Eh     130.42 kcal/mol

--------
ENTHALPY
--------

The enthalpy is H = U + kB*T
                kB is Boltzmann's constant
Total free energy                 ...   -291.10062059 Eh
Thermal Enthalpy correction       ...      0.00094421 Eh       0.59 kcal/mol
-----------------------------------------------------------------------
Total Enthalpy                    ...   -291.09967638 Eh

-------
ENTROPY
-------

The entropy contributions are T*S = T*(S(el)+S(vib)+S(rot)+S(trans)
     S(el)   - electronic entropy
     S(vib)  - vibrational entropy
     S(rot)  - rotational entropy
     S(trans)- translational entropy
The entropies will be listed as mutliplied by the temperature to get
units of energy

Electronic entropy                ...      0.00000000 Eh      0.00 kcal/mol
Vibrational entropy               ...      0.01063885 Eh      6.68 kcal/mol
Rotational entropy                ...      0.01222618 Eh      7.67 kcal/mol
Translational entropy             ...      0.01887386 Eh     11.84 kcal/mol
-----------------------------------------------------------------------
Final entropy term                ...      0.04173889 Eh     26.19 kcal/mol

CAUTION: The rotational entropy is not quite correctly treated here
         because it includes a symmetry number that is not yet correctly
         implemented in ORCA!
For a nonlinear molecule the correct rotational entropy is:
    S(rot) = R*(ln(qrot/sn)+1.5)
    R    = 8.31441 J/mol/K = 1.987191683e-3 kcal/mol/K
    qrot = 281415.7603234
    sn is the rotational symmetry number. We have assumed 3 here
       if it is different for your molecule then you should correct
       the printed rotational entropy by manually evaluating the equation
       as given above

For convenience we print out the resulting values for sn=1 - 12:
 sn= 1  qrot/sn=  281415.7603 T*S(rot)=     8.32 kcal/mol T*S(tot)=    26.84 kcal/mol
 sn= 2  qrot/sn=  140707.8802 T*S(rot)=     7.91 kcal/mol T*S(tot)=    26.43 kcal/mol
 sn= 3  qrot/sn=   93805.2534 T*S(rot)=     7.67 kcal/mol T*S(tot)=    26.19 kcal/mol
 sn= 4  qrot/sn=   70353.9401 T*S(rot)=     7.50 kcal/mol T*S(tot)=    26.02 kcal/mol
 sn= 5  qrot/sn=   56283.1521 T*S(rot)=     7.37 kcal/mol T*S(tot)=    25.89 kcal/mol
 sn= 6  qrot/sn=   46902.6267 T*S(rot)=     7.26 kcal/mol T*S(tot)=    25.78 kcal/mol
 sn= 7  qrot/sn=   40202.2515 T*S(rot)=     7.17 kcal/mol T*S(tot)=    25.69 kcal/mol
 sn= 8  qrot/sn=   35176.9700 T*S(rot)=     7.09 kcal/mol T*S(tot)=    25.61 kcal/mol
 sn= 9  qrot/sn=   31268.4178 T*S(rot)=     7.02 kcal/mol T*S(tot)=    25.54 kcal/mol
 sn=10  qrot/sn=   28141.5760 T*S(rot)=     6.96 kcal/mol T*S(tot)=    25.48 kcal/mol
 sn=11  qrot/sn=   25583.2509 T*S(rot)=     6.90 kcal/mol T*S(tot)=    25.42 kcal/mol
 sn=12  qrot/sn=   23451.3134 T*S(rot)=     6.85 kcal/mol T*S(tot)=    25.37 kcal/mol

-------------------
GIBBS FREE ENTHALPY
-------------------

The Gibbs free enthalpy is G = H - T*S

Total enthalpy                    ...   -291.09967638 Eh
Total entropy correction          ...     -0.04173889 Eh    -26.19 kcal/mol
-----------------------------------------------------------------------
Final Gibbs free enthalpy         ...   -291.14141527 Eh

For completeness - the Gibbs free enthalpy minus the electronic energy
G-E(el)                           ...      0.16705044 Eh    104.83 kcal/mol

                             ****ORCA TERMINATED NORMALLY****
TOTAL RUN TIME: 0 days 0 hours 44 minutes 20 seconds 726 msec
