                         Program Version 3.0.3 - RELEASE   -
|  1> ! NORI PBE0 def2-TZVP UseSym TightOPT Freq TightSCF Grid3 FinalGrid5 XYZFile
|  2> % pal
|  3>     nprocs 8
|  4> end
|  5> %method
|  6>     SymThresh 5.0e-2
|  7> end
|  8> % geom
|  9>     MaxIter 10
| 10> end
| 11> % maxcore 2000
| 12> % output
| 13>     printlevel mini
| 14>     print[ P_Basis ] 0
| 15>     print[ P_SCFInfo ] 1
| 16>     print[ P_SCFIterInfo ] 1
| 17>     print[ P_OrbEn ] 0
| 18>     print[ P_Cartesian ] 0
| 19> end
| 20> % elprop
| 21>     Dipole false
| 22> end
| 23> *xyz 1 1
| 24>  C        1.1994949913    -0.9157513561     0.4449015912
| 25>  N        2.6494920021    -0.5934861382     0.3850647767
| 26>  C        3.2187403306     0.0144890557     1.6360522156
| 27>  C        4.7016744086     0.2228034871     1.4879419657
| 28>  C        5.4934401873     0.6119175906     2.7545024329
| 29>  C        6.6297266620    -0.3063852884     2.2674238046
| 30>  C        5.6171914368    -1.0164754645     1.3468824900
| 31>  H        0.8880033206    -1.3496186987    -0.5038090019
| 32>  H        0.6461645339     0.0013375726     0.6361887341
| 33>  H        1.0338707350    -1.6252453820     1.2533398501
| 34>  H        2.8282874072     0.0422663011    -0.3945925294
| 35>  H        3.1853259524    -1.4401503407     0.1794084069
| 36>  H        2.9905887943    -0.6827222513     2.4449938049
| 37>  H        2.6745484958     0.9447911485     1.8121331231
| 38>  H        4.9032996435     0.9450665802     0.6885516823
| 39>  H        5.0184763721     0.2180765321     3.6563175590
| 40>  H        5.7088834988     1.6688128532     2.9047565904
| 41>  H        7.3741168101     0.2443697413     1.6915183126
| 42>  H        7.1415844892    -0.9137746266     3.0112258690
| 43>  H        5.9516584735    -1.3033696047     0.3485598465
| 44>  H        5.1851914548    -1.8919017110     1.8436284757
| 45> *
| 46>
| 47>                          ****END OF INPUT****
 Total Charge           Charge          ....    1
 Multiplicity           Mult            ....    1
 Number of Electrons    NEL             ....   56
FINAL SINGLE POINT ENERGY      -291.306624910249

CARTESIAN COORDINATES (ANGSTROEM)
---------------------------------
  C      0.894886    0.000921    3.045560
  N     -0.000283   -0.000416    1.858693
  C      0.622618    0.514708    0.591577
  C     -0.345121    0.393275   -0.554368
  C      0.201589    0.648655   -1.975004
  C     -0.684987   -0.508971   -2.471515
  C     -0.776331   -1.018106   -1.019166
  H      0.352656   -0.388496    3.905533
  H      1.217357    1.022297    3.237592
  H      1.757390   -0.626702    2.831241
  H     -0.835544    0.553563    2.057747
  H     -0.335120   -0.949686    1.677085
  H      1.518655   -0.087253    0.425467
  H      0.925307    1.546105    0.784570
  H     -1.222049    1.025982   -0.375665
  H      1.263342    0.398302   -2.043151
  H      0.047247    1.639477   -2.399848
  H     -1.650812   -0.151755   -2.830498
  H     -0.263921   -1.184845   -3.213166
  H     -1.736883   -1.406364   -0.675879
  H      0.002319   -1.761711   -0.816376

FINAL SINGLE POINT ENERGY      -291.306625901098
                    ***********************HURRAY********************
 Multiplicity           Mult            ....    1
 Number of Electrons    NEL             ....   56
 Basis Dimension        Dim             ....  301
FINAL SINGLE POINT ENERGY      -291.306626330562

VIBRATIONAL FREQUENCIES
-----------------------

   0:         0.00 cm**-1
   1:         0.00 cm**-1
   2:         0.00 cm**-1
   3:         0.00 cm**-1
   4:         0.00 cm**-1
   5:         0.00 cm**-1
   6:        72.19 cm**-1
   7:        96.21 cm**-1
   8:       125.87 cm**-1
   9:       178.84 cm**-1
  10:       230.53 cm**-1
  11:       321.61 cm**-1
  12:       379.86 cm**-1
  13:       431.25 cm**-1
  14:       634.65 cm**-1
  15:       775.73 cm**-1
  16:       790.32 cm**-1
  17:       802.52 cm**-1
  18:       894.63 cm**-1
  19:       911.81 cm**-1
  20:       925.33 cm**-1
  21:       961.33 cm**-1
  22:       980.82 cm**-1
  23:       991.49 cm**-1
  24:      1031.58 cm**-1
  25:      1050.84 cm**-1
  26:      1085.20 cm**-1
  27:      1125.81 cm**-1
  28:      1174.19 cm**-1
  29:      1202.57 cm**-1
  30:      1218.03 cm**-1
  31:      1261.10 cm**-1
  32:      1262.52 cm**-1
  33:      1264.57 cm**-1
  34:      1286.22 cm**-1
  35:      1290.86 cm**-1
  36:      1316.55 cm**-1
  37:      1351.09 cm**-1
  38:      1394.74 cm**-1
  39:      1403.53 cm**-1
  40:      1421.76 cm**-1
  41:      1459.66 cm**-1
  42:      1470.59 cm**-1
  43:      1481.45 cm**-1
  44:      1488.15 cm**-1
  45:      1493.67 cm**-1
  46:      1499.18 cm**-1
  47:      1509.10 cm**-1
  48:      1656.52 cm**-1
  49:      3044.95 cm**-1
  50:      3053.05 cm**-1
  51:      3077.39 cm**-1
  52:      3083.33 cm**-1
  53:      3092.82 cm**-1
  54:      3099.58 cm**-1
  55:      3118.71 cm**-1
  56:      3141.93 cm**-1
  57:      3147.42 cm**-1
  58:      3164.60 cm**-1
  59:      3192.21 cm**-1
  60:      3196.45 cm**-1
  61:      3436.43 cm**-1
  62:      3486.20 cm**-1

IR SPECTRUM
-----------

 Mode    freq (cm**-1)   T**2         TX         TY         TZ
-------------------------------------------------------------------
   6:        72.19    1.566423  (  0.543195  -0.597381   0.956293)
   7:        96.21    5.722482  (  0.431037  -1.857226  -1.444784)
   8:       125.87    1.256431  (  0.390130  -0.535403   0.904197)
   9:       178.84    1.645983  ( -0.233974   0.247889   1.236847)
  10:       230.53    1.819793  (  0.248177  -1.266114  -0.393898)
  11:       321.61    2.252996  ( -1.051041  -0.189085  -1.054778)
  12:       379.86    6.114833  ( -0.006406  -0.628735   2.391544)
  13:       431.25    0.569154  ( -0.517930   0.518964  -0.177706)
  14:       634.65    2.737607  ( -1.425469   0.826172   0.151932)
  15:       775.73    1.971696  (  0.126713   1.263052   0.600282)
  16:       790.32    0.614570  (  0.384980   0.030099  -0.682243)
  17:       802.52   11.586575  (  0.927123  -3.119614  -0.997511)
  18:       894.63    1.811875  (  0.089536  -0.548974   1.225760)
  19:       911.81   13.322372  (  0.938204   1.092144  -3.354007)
  20:       925.33    1.113348  ( -0.236346   0.972226   0.335061)
  21:       961.33    2.783545  (  0.603058   1.315647  -0.830024)
  22:       980.82    2.514038  (  0.308519  -0.022838  -1.555099)
  23:       991.49    0.362381  (  0.214625  -0.347733   0.442039)
  24:      1031.58   22.222435  (  1.530980  -0.611915   4.416344)
  25:      1050.84    1.424815  (  0.334117   1.056080  -0.444832)
  26:      1085.20    9.168754  ( -0.502007  -0.007631   2.986082)
  27:      1125.81    0.512299  ( -0.295448   0.408133   0.508367)
  28:      1174.19    7.581653  ( -0.323917   0.650855  -2.655771)
  29:      1202.57    0.662650  ( -0.214519   0.069049   0.782217)
  30:      1218.03    1.257064  (  0.710939   0.497491   0.710023)
  31:      1261.10    1.686229  (  0.591168   0.163058  -1.144623)
  32:      1262.52    1.652935  (  1.117035  -0.490704   0.405434)
  33:      1264.57    0.223909  (  0.208654  -0.384359   0.180668)
  34:      1286.22    2.466099  (  0.069775  -0.758045  -1.373535)
  35:      1290.86    4.618216  ( -0.558536  -1.912977   0.804223)
  36:      1316.55    0.653107  (  0.063672   0.788908  -0.163331)
  37:      1351.09    2.921874  ( -0.385522   1.444724  -0.828263)
  38:      1394.74    8.844929  (  0.573435   0.098127   2.916586)
  39:      1403.53    8.984833  (  0.571053  -0.062460   2.941909)
  40:      1421.76   71.914492  (  0.113319  -0.899984   8.431588)
  41:      1459.66    2.529216  (  0.773845  -0.014476   1.389306)
  42:      1470.59    3.920134  ( -0.941927  -1.597258   0.694027)
  43:      1481.45    3.974408  (  1.985525   0.177975  -0.020554)
  44:      1488.15   25.957852  ( -0.967317   0.791238  -4.939240)
  45:      1493.67   23.190131  ( -1.280117   4.587916   0.708843)
  46:      1499.18   18.733100  (  3.827052   1.362082  -1.493823)
  47:      1509.10    6.042531  ( -2.261058   0.318861   0.910206)
  48:      1656.52   38.343156  ( -5.741844  -2.314904  -0.124912)
  49:      3044.95   15.803565  ( -0.089360  -1.980478   3.445763)
  50:      3053.05   14.898316  (  1.338156  -3.618940   0.104542)
  51:      3077.39   10.027017  (  2.831593   0.789615  -1.177118)
  52:      3083.33    8.020440  (  2.704226   0.385138   0.747845)
  53:      3092.82    0.344398  (  0.412482   0.051546   0.414245)
  54:      3099.58   10.608177  (  1.048298   0.433523   3.053081)
  55:      3118.71   18.529855  ( -4.062416  -1.423592   0.004567)
  56:      3141.93    2.120669  ( -0.613380   0.756469   1.082677)
  57:      3147.42    9.384882  (  0.502264  -2.273152   1.991329)
  58:      3164.60   11.738889  (  2.172951  -2.390129  -1.142128)
  59:      3192.21    0.190532  ( -0.356563  -0.171355  -0.184478)
  60:      3196.45    0.021222  ( -0.097543   0.103663  -0.031011)
  61:      3436.43   37.079200  ( -5.480361  -2.640533  -0.269119)
  62:      3486.20   67.181351  (  3.115933  -7.016966  -2.869583)

--------------------------
THERMOCHEMISTRY AT 298.15K
--------------------------

Temperature         ... 298.15 K
Pressure            ... 1.00 atm
Total Mass          ... 100.18 AMU

Throughout the following assumptions are being made:
  (1) The electronic state is orbitally nondegenerate
  (2) There are no thermally accessible electronically excited states
  (3) Hindered rotations indicated by low frequency modes) are not
      treated as such but are treated as vibrations and this may
      case some error
  (4) All equations used are the standard statistical mechanics
      equations for an ideal gas
  (5) All vibrations are strinctly harmonic

------------
INNER ENERGY
------------

The inner energy is: U= E(el) + E(ZPE) + E(vib) + E(rot) + E(trans)
    E(el)   - is the total energy from the electronic structure calculation
              = E(kin-el) + E(nuc-el) + E(el-el) + E(nuc-nuc)
    E(ZPE)  - the the zero temperature vibrational energy from the frequency calculation
    E(vib)  - the the finite temperature correction to E(ZPE) due to population
              of excietd vibrational states
    E(rot)  - is the rotational thermal energy
    E(trans)- is the translational thermal energy

Summary of contributions to the inner energy U:
Electronic energy                ...   -291.30662633 Eh
Zero point energy                ...      0.20056882 Eh     125.86 kcal/mol
Thermal vibrational correction   ...      0.00529849 Eh       3.32 kcal/mol
Thermal rotational correction    ...      0.00141627 Eh       0.89 kcal/mol
Thermal translational correction ...      0.00141627 Eh       0.89 kcal/mol
-----------------------------------------------------------------------
Total thermal energy                   -291.09792648 Eh

Summary of corrections to the electronic energy:
(perhaps to be used in another calculation)
Total thermal correction                  0.00813103 Eh       5.10 kcal/mol
Non-thermal (ZPE) correction              0.20056882 Eh     125.86 kcal/mol
-----------------------------------------------------------------------
Total correction                          0.20869985 Eh     130.96 kcal/mol

--------
ENTHALPY
--------

The enthalpy is H = U + kB*T
                kB is Boltzmann's constant
Total free energy                 ...   -291.09792648 Eh
Thermal Enthalpy correction       ...      0.00094421 Eh       0.59 kcal/mol
-----------------------------------------------------------------------
Total Enthalpy                    ...   -291.09698227 Eh

-------
ENTROPY
-------

The entropy contributions are T*S = T*(S(el)+S(vib)+S(rot)+S(trans)
     S(el)   - electronic entropy
     S(vib)  - vibrational entropy
     S(rot)  - rotational entropy
     S(trans)- translational entropy
The entropies will be listed as mutliplied by the temperature to get
units of energy

Electronic entropy                ...      0.00000000 Eh      0.00 kcal/mol
Vibrational entropy               ...      0.00976252 Eh      6.13 kcal/mol
Rotational entropy                ...      0.01218756 Eh      7.65 kcal/mol
Translational entropy             ...      0.01887386 Eh     11.84 kcal/mol
-----------------------------------------------------------------------
Final entropy term                ...      0.04082394 Eh     25.62 kcal/mol

CAUTION: The rotational entropy is not quite correctly treated here
         because it includes a symmetry number that is not yet correctly
         implemented in ORCA!
For a nonlinear molecule the correct rotational entropy is:
    S(rot) = R*(ln(qrot/sn)+1.5)
    R    = 8.31441 J/mol/K = 1.987191683e-3 kcal/mol/K
    qrot = 270136.9297947
    sn is the rotational symmetry number. We have assumed 3 here
       if it is different for your molecule then you should correct
       the printed rotational entropy by manually evaluating the equation
       as given above

For convenience we print out the resulting values for sn=1 - 12:
 sn= 1  qrot/sn=  270136.9298 T*S(rot)=     8.30 kcal/mol T*S(tot)=    26.27 kcal/mol
 sn= 2  qrot/sn=  135068.4649 T*S(rot)=     7.89 kcal/mol T*S(tot)=    25.86 kcal/mol
 sn= 3  qrot/sn=   90045.6433 T*S(rot)=     7.65 kcal/mol T*S(tot)=    25.62 kcal/mol
 sn= 4  qrot/sn=   67534.2324 T*S(rot)=     7.48 kcal/mol T*S(tot)=    25.45 kcal/mol
 sn= 5  qrot/sn=   54027.3860 T*S(rot)=     7.35 kcal/mol T*S(tot)=    25.31 kcal/mol
 sn= 6  qrot/sn=   45022.8216 T*S(rot)=     7.24 kcal/mol T*S(tot)=    25.21 kcal/mol
 sn= 7  qrot/sn=   38590.9900 T*S(rot)=     7.15 kcal/mol T*S(tot)=    25.12 kcal/mol
 sn= 8  qrot/sn=   33767.1162 T*S(rot)=     7.07 kcal/mol T*S(tot)=    25.04 kcal/mol
 sn= 9  qrot/sn=   30015.2144 T*S(rot)=     7.00 kcal/mol T*S(tot)=    24.97 kcal/mol
 sn=10  qrot/sn=   27013.6930 T*S(rot)=     6.93 kcal/mol T*S(tot)=    24.90 kcal/mol
 sn=11  qrot/sn=   24557.9027 T*S(rot)=     6.88 kcal/mol T*S(tot)=    24.85 kcal/mol
 sn=12  qrot/sn=   22511.4108 T*S(rot)=     6.83 kcal/mol T*S(tot)=    24.80 kcal/mol

-------------------
GIBBS FREE ENTHALPY
-------------------

The Gibbs free enthalpy is G = H - T*S

Total enthalpy                    ...   -291.09698227 Eh
Total entropy correction          ...     -0.04082394 Eh    -25.62 kcal/mol
-----------------------------------------------------------------------
Final Gibbs free enthalpy         ...   -291.13780621 Eh

For completeness - the Gibbs free enthalpy minus the electronic energy
G-E(el)                           ...      0.16882012 Eh    105.94 kcal/mol

                             ****ORCA TERMINATED NORMALLY****
TOTAL RUN TIME: 0 days 0 hours 43 minutes 52 seconds 655 msec
