                         Program Version 3.0.3 - RELEASE   -
|  1> ! NORI PBE0 def2-TZVP UseSym TightOPT Freq TightSCF Grid3 FinalGrid5 XYZFile
|  2> % pal
|  3>     nprocs 8
|  4> end
|  5> %method
|  6>     SymThresh 5.0e-2
|  7> end
|  8> % geom
|  9>     MaxIter 10
| 10> end
| 11> % maxcore 2000
| 12> % output
| 13>     printlevel mini
| 14>     print[ P_Basis ] 0
| 15>     print[ P_SCFInfo ] 1
| 16>     print[ P_SCFIterInfo ] 1
| 17>     print[ P_OrbEn ] 0
| 18>     print[ P_Cartesian ] 0
| 19> end
| 20> % elprop
| 21>     Dipole false
| 22> end
| 23> *xyz 1 1
| 24>  C        2.4784177991    -0.9135649725     0.9036063379
| 25>  N        2.2116647498     0.1895830999    -0.0578914627
| 26>  C        0.7534192039     0.3479629343    -0.2911402478
| 27>  C        2.9315790562     1.4479862582     0.3683599130
| 28>  C        2.8234911457     2.7278584461    -0.4611003670
| 29>  C        2.9641401274     3.4841814124     0.8791949192
| 30>  C        2.4814408445     2.2124429050     1.6133217148
| 31>  H        2.0137718497    -1.8282666294     0.5401762243
| 32>  H        2.0528729520    -0.6393071265     1.8672826762
| 33>  H        3.5537850246    -1.0524893679     0.9979820528
| 34>  H        2.6278907476    -0.0767783643    -0.9522237168
| 35>  H        0.2684100776     0.5942577686     0.6502037901
| 36>  H        0.3601907240    -0.5948052855    -0.6676418619
| 37>  H        0.5814364996     1.1344889424    -1.0214858267
| 38>  H        3.9764709760     1.1446975445     0.4636256009
| 39>  H        1.8269161804     2.8805035787    -0.8782050100
| 40>  H        3.5678877902     2.8886972052    -1.2396540589
| 41>  H        2.3652288971     4.3828337649     1.0032111928
| 42>  H        4.0042417682     3.7128043481     1.1091139518
| 43>  H        2.9401442198     1.9494666143     2.5649368387
| 44>  H        1.3958293666     2.2301269236     1.7273673394
| 45> *
| 46>
| 47>                          ****END OF INPUT****
 Total Charge           Charge          ....    1
 Multiplicity           Mult            ....    1
 Number of Electrons    NEL             ....   56
FINAL SINGLE POINT ENERGY      -291.302671202670
FINAL SINGLE POINT ENERGY      -291.302674643674

CARTESIAN COORDINATES (ANGSTROEM)
---------------------------------
  C      1.358336   -0.000604    1.833262
  N      0.000537   -0.001583    1.225327
  C     -0.631679    1.337746    1.338875
  C      0.047496   -0.566378   -0.175506
  C     -1.226764   -0.680168   -1.012439
  C     -0.318742   -0.435198   -2.238763
  C      0.721107    0.219232   -1.300637
  H      1.291279    0.344098    2.863749
  H      1.991348    0.672036    1.257359
  H      1.764142   -1.010197    1.802298
  H     -0.576250   -0.648855    1.766111
  H     -0.022086    2.063639    0.806229
  H     -0.682650    1.607250    2.392567
  H     -1.633519    1.306881    0.919248
  H      0.514608   -1.546864   -0.059775
  H     -1.904628    0.162854   -0.869853
  H     -1.790293   -1.610026   -0.948905
  H     -0.722755    0.183832   -3.036088
  H      0.050295   -1.368705   -2.663081
  H      1.779536    0.040351   -1.483049
  H      0.542337    1.293614   -1.227977

FINAL SINGLE POINT ENERGY      -291.302675372289
                    ***********************HURRAY********************
 Multiplicity           Mult            ....    1
 Number of Electrons    NEL             ....   56
 Basis Dimension        Dim             ....  301
FINAL SINGLE POINT ENERGY      -291.302675730401

VIBRATIONAL FREQUENCIES
-----------------------

   0:         0.00 cm**-1
   1:         0.00 cm**-1
   2:         0.00 cm**-1
   3:         0.00 cm**-1
   4:         0.00 cm**-1
   5:         0.00 cm**-1
   6:        42.64 cm**-1
   7:       151.82 cm**-1
   8:       198.16 cm**-1
   9:       231.73 cm**-1
  10:       251.15 cm**-1
  11:       307.86 cm**-1
  12:       374.38 cm**-1
  13:       452.91 cm**-1
  14:       530.73 cm**-1
  15:       596.06 cm**-1
  16:       753.84 cm**-1
  17:       795.09 cm**-1
  18:       866.12 cm**-1
  19:       924.55 cm**-1
  20:       944.17 cm**-1
  21:       958.52 cm**-1
  22:       985.25 cm**-1
  23:      1018.27 cm**-1
  24:      1042.43 cm**-1
  25:      1056.00 cm**-1
  26:      1087.14 cm**-1
  27:      1109.26 cm**-1
  28:      1186.94 cm**-1
  29:      1190.27 cm**-1
  30:      1222.99 cm**-1
  31:      1250.38 cm**-1
  32:      1256.73 cm**-1
  33:      1262.46 cm**-1
  34:      1269.07 cm**-1
  35:      1284.97 cm**-1
  36:      1308.51 cm**-1
  37:      1383.39 cm**-1
  38:      1411.29 cm**-1
  39:      1435.62 cm**-1
  40:      1446.84 cm**-1
  41:      1468.91 cm**-1
  42:      1471.78 cm**-1
  43:      1479.36 cm**-1
  44:      1486.03 cm**-1
  45:      1490.09 cm**-1
  46:      1501.19 cm**-1
  47:      1505.76 cm**-1
  48:      1515.62 cm**-1
  49:      3088.38 cm**-1
  50:      3090.98 cm**-1
  51:      3093.66 cm**-1
  52:      3100.72 cm**-1
  53:      3103.47 cm**-1
  54:      3110.36 cm**-1
  55:      3156.49 cm**-1
  56:      3157.75 cm**-1
  57:      3178.10 cm**-1
  58:      3188.11 cm**-1
  59:      3190.47 cm**-1
  60:      3191.89 cm**-1
  61:      3208.47 cm**-1
  62:      3452.97 cm**-1

IR SPECTRUM
-----------

 Mode    freq (cm**-1)   T**2         TX         TY         TZ
-------------------------------------------------------------------
   6:        42.64    0.049175  ( -0.028376   0.199677  -0.092190)
   7:       151.82    0.004200  (  0.019060   0.046330   0.041111)
   8:       198.16    0.003059  ( -0.016208  -0.027907  -0.044919)
   9:       231.73    0.066304  ( -0.181534   0.080063  -0.164132)
  10:       251.15    0.301384  (  0.017021   0.472998   0.278149)
  11:       307.86    0.846419  (  0.450072  -0.678391  -0.428533)
  12:       374.38    0.327117  (  0.403927   0.062554   0.400059)
  13:       452.91    0.758675  ( -0.646295   0.190373  -0.552029)
  14:       530.73    3.812426  ( -0.605009   1.354690   1.269333)
  15:       596.06    0.860336  ( -0.303382   0.759500  -0.437556)
  16:       753.84    1.082890  (  0.423873  -0.847834  -0.429418)
  17:       795.09    1.210650  ( -0.895180  -0.508043  -0.388840)
  18:       866.12    6.461729  (  0.286454  -0.180714   2.519329)
  19:       924.55   19.240944  (  1.427133   1.351928   3.921292)
  20:       944.17    2.705745  ( -1.468281  -0.740885  -0.031375)
  21:       958.52   14.077553  ( -1.032921  -1.806680  -3.121944)
  22:       985.25    1.750631  (  1.077491   0.222011  -0.735088)
  23:      1018.27   16.611683  (  3.236119  -2.123605   1.276526)
  24:      1042.43    2.632840  (  0.013916  -0.400655  -1.572298)
  25:      1056.00    5.634478  ( -0.453658   1.244895   1.969494)
  26:      1087.14    9.107035  (  0.527526   1.242169   2.699216)
  27:      1109.26    2.892993  (  0.443907  -1.278493  -1.030241)
  28:      1186.94    3.605398  (  1.435782  -0.893005  -0.863986)
  29:      1190.27    4.660335  (  1.134777   1.077519   1.487135)
  30:      1222.99    1.600727  (  0.670236   0.248877   1.043825)
  31:      1250.38    0.388709  (  0.067149  -0.550987  -0.283926)
  32:      1256.73    0.128326  (  0.174844   0.309754  -0.042521)
  33:      1262.46    1.252129  (  0.400918  -0.223429   1.020526)
  34:      1269.07    0.331572  (  0.504430   0.175947  -0.214860)
  35:      1284.97   16.072534  ( -0.399399  -0.223681  -3.982836)
  36:      1308.51    4.624086  (  1.694479   1.112233   0.718168)
  37:      1383.39   15.540520  (  0.261224   1.407809   3.672922)
  38:      1411.29    6.292556  ( -2.140944   0.212252  -1.289909)
  39:      1435.62    2.327185  ( -1.435749   0.515255  -0.017903)
  40:      1446.84    5.997150  (  1.144590  -2.140417   0.325080)
  41:      1468.91    7.778963  (  1.322238   2.454657  -0.072882)
  42:      1471.78    1.968834  (  0.070685  -1.279759  -0.571013)
  43:      1479.36    1.158652  ( -0.797390   0.710868  -0.132239)
  44:      1486.03    3.414578  ( -0.183495   1.824752   0.226246)
  45:      1490.09   21.268171  (  4.145109  -1.745782   1.019064)
  46:      1501.19   26.283226  (  2.722841   4.038570   1.599785)
  47:      1505.76   50.292007  (  1.550101   0.845256  -6.868387)
  48:      1515.62   10.796040  (  2.142254  -2.119404  -1.309549)
  49:      3088.38    0.106333  ( -0.284108   0.106259  -0.119684)
  50:      3090.98    5.175021  ( -1.181356  -1.511505  -1.222609)
  51:      3093.66    7.434612  ( -2.413955  -0.658195   1.083612)
  52:      3100.72    1.020114  ( -0.258382   0.338213   0.915950)
  53:      3103.47    4.639570  ( -1.112956   1.841329  -0.102006)
  54:      3110.36    7.331601  (  0.170438  -1.176303  -2.432871)
  55:      3156.49    6.011440  ( -0.202620   2.136439   1.185755)
  56:      3157.75    6.781269  ( -2.453760  -0.696914   0.524061)
  57:      3178.10    5.557514  (  1.064876  -2.027055   0.560894)
  58:      3188.11    0.211203  (  0.008455  -0.329651  -0.320096)
  59:      3190.47    0.030476  ( -0.068626   0.159215  -0.020414)
  60:      3191.89    0.284762  ( -0.190472   0.337594  -0.366760)
  61:      3208.47    0.173149  ( -0.310670   0.250326   0.118196)
  62:      3452.97   51.260037  ( -3.833639  -4.391279   4.156913)

--------------------------
THERMOCHEMISTRY AT 298.15K
--------------------------

Temperature         ... 298.15 K
Pressure            ... 1.00 atm
Total Mass          ... 100.18 AMU

Throughout the following assumptions are being made:
  (1) The electronic state is orbitally nondegenerate
  (2) There are no thermally accessible electronically excited states
  (3) Hindered rotations indicated by low frequency modes) are not
      treated as such but are treated as vibrations and this may
      case some error
  (4) All equations used are the standard statistical mechanics
      equations for an ideal gas
  (5) All vibrations are strinctly harmonic

------------
INNER ENERGY
------------

The inner energy is: U= E(el) + E(ZPE) + E(vib) + E(rot) + E(trans)
    E(el)   - is the total energy from the electronic structure calculation
              = E(kin-el) + E(nuc-el) + E(el-el) + E(nuc-nuc)
    E(ZPE)  - the the zero temperature vibrational energy from the frequency calculation
    E(vib)  - the the finite temperature correction to E(ZPE) due to population
              of excietd vibrational states
    E(rot)  - is the rotational thermal energy
    E(trans)- is the translational thermal energy

Summary of contributions to the inner energy U:
Electronic energy                ...   -291.30267573 Eh
Zero point energy                ...      0.20006440 Eh     125.54 kcal/mol
Thermal vibrational correction   ...      0.00517444 Eh       3.25 kcal/mol
Thermal rotational correction    ...      0.00141627 Eh       0.89 kcal/mol
Thermal translational correction ...      0.00141627 Eh       0.89 kcal/mol
-----------------------------------------------------------------------
Total thermal energy                   -291.09460434 Eh

Summary of corrections to the electronic energy:
(perhaps to be used in another calculation)
Total thermal correction                  0.00800699 Eh       5.02 kcal/mol
Non-thermal (ZPE) correction              0.20006440 Eh     125.54 kcal/mol
-----------------------------------------------------------------------
Total correction                          0.20807139 Eh     130.57 kcal/mol

--------
ENTHALPY
--------

The enthalpy is H = U + kB*T
                kB is Boltzmann's constant
Total free energy                 ...   -291.09460434 Eh
Thermal Enthalpy correction       ...      0.00094421 Eh       0.59 kcal/mol
-----------------------------------------------------------------------
Total Enthalpy                    ...   -291.09366013 Eh

-------
ENTROPY
-------

The entropy contributions are T*S = T*(S(el)+S(vib)+S(rot)+S(trans)
     S(el)   - electronic entropy
     S(vib)  - vibrational entropy
     S(rot)  - rotational entropy
     S(trans)- translational entropy
The entropies will be listed as mutliplied by the temperature to get
units of energy

Electronic entropy                ...      0.00000000 Eh      0.00 kcal/mol
Vibrational entropy               ...      0.00935926 Eh      5.87 kcal/mol
Rotational entropy                ...      0.01205536 Eh      7.56 kcal/mol
Translational entropy             ...      0.01887386 Eh     11.84 kcal/mol
-----------------------------------------------------------------------
Final entropy term                ...      0.04028848 Eh     25.28 kcal/mol

CAUTION: The rotational entropy is not quite correctly treated here
         because it includes a symmetry number that is not yet correctly
         implemented in ORCA!
For a nonlinear molecule the correct rotational entropy is:
    S(rot) = R*(ln(qrot/sn)+1.5)
    R    = 8.31441 J/mol/K = 1.987191683e-3 kcal/mol/K
    qrot = 234842.7093765
    sn is the rotational symmetry number. We have assumed 3 here
       if it is different for your molecule then you should correct
       the printed rotational entropy by manually evaluating the equation
       as given above

For convenience we print out the resulting values for sn=1 - 12:
 sn= 1  qrot/sn=  234842.7094 T*S(rot)=     8.22 kcal/mol T*S(tot)=    25.93 kcal/mol
 sn= 2  qrot/sn=  117421.3547 T*S(rot)=     7.81 kcal/mol T*S(tot)=    25.52 kcal/mol
 sn= 3  qrot/sn=   78280.9031 T*S(rot)=     7.56 kcal/mol T*S(tot)=    25.28 kcal/mol
 sn= 4  qrot/sn=   58710.6773 T*S(rot)=     7.39 kcal/mol T*S(tot)=    25.11 kcal/mol
 sn= 5  qrot/sn=   46968.5419 T*S(rot)=     7.26 kcal/mol T*S(tot)=    24.98 kcal/mol
 sn= 6  qrot/sn=   39140.4516 T*S(rot)=     7.15 kcal/mol T*S(tot)=    24.87 kcal/mol
 sn= 7  qrot/sn=   33548.9585 T*S(rot)=     7.06 kcal/mol T*S(tot)=    24.78 kcal/mol
 sn= 8  qrot/sn=   29355.3387 T*S(rot)=     6.98 kcal/mol T*S(tot)=    24.70 kcal/mol
 sn= 9  qrot/sn=   26093.6344 T*S(rot)=     6.91 kcal/mol T*S(tot)=    24.63 kcal/mol
 sn=10  qrot/sn=   23484.2709 T*S(rot)=     6.85 kcal/mol T*S(tot)=    24.57 kcal/mol
 sn=11  qrot/sn=   21349.3372 T*S(rot)=     6.80 kcal/mol T*S(tot)=    24.51 kcal/mol
 sn=12  qrot/sn=   19570.2258 T*S(rot)=     6.74 kcal/mol T*S(tot)=    24.46 kcal/mol

-------------------
GIBBS FREE ENTHALPY
-------------------

The Gibbs free enthalpy is G = H - T*S

Total enthalpy                    ...   -291.09366013 Eh
Total entropy correction          ...     -0.04028848 Eh    -25.28 kcal/mol
-----------------------------------------------------------------------
Final Gibbs free enthalpy         ...   -291.13394861 Eh

For completeness - the Gibbs free enthalpy minus the electronic energy
G-E(el)                           ...      0.16872712 Eh    105.88 kcal/mol

                             ****ORCA TERMINATED NORMALLY****
TOTAL RUN TIME: 0 days 0 hours 50 minutes 45 seconds 770 msec
