                         Program Version 3.0.3 - RELEASE   -
|  1> ! NORI PBE0 def2-TZVP UseSym TightOPT Freq TightSCF Grid3 FinalGrid5 XYZFile
|  2> % pal
|  3>     nprocs 8
|  4> end
|  5> %method
|  6>     SymThresh 5.0e-2
|  7> end
|  8> % geom
|  9>     MaxIter 10
| 10> end
| 11> % maxcore 2000
| 12> % output
| 13>     printlevel mini
| 14>     print[ P_Basis ] 0
| 15>     print[ P_SCFInfo ] 1
| 16>     print[ P_SCFIterInfo ] 1
| 17>     print[ P_OrbEn ] 0
| 18>     print[ P_Cartesian ] 0
| 19> end
| 20> % elprop
| 21>     Dipole false
| 22> end
| 23> *xyz 1 1
| 24>  C        1.2726389848    -0.4717120196     0.2781069495
| 25>  N        2.6377588332     0.1145853801     0.1909419351
| 26>  C        3.6761697659    -0.9370336558     0.0168321528
| 27>  C        2.7419029388     1.2123929085    -0.8227467394
| 28>  C        2.4944634436     0.7881177980    -2.2390934007
| 29>  C        3.7599365507     2.2543418006    -0.4962428025
| 30>  C        2.2962808493     2.5495441642    -0.3307006751
| 31>  H        0.5504867204     0.3345966599     0.3895268144
| 32>  H        1.2310833531    -1.1392218365     1.1376556809
| 33>  H        1.0704668183    -1.0338514052    -0.6303626436
| 34>  H        2.8225402556     0.5612670321     1.0904962028
| 35>  H        3.4671646240    -1.4950168351    -0.8925732267
| 36>  H        3.6436941955    -1.6091721573     0.8732042310
| 37>  H        4.6515393276    -0.4591284940    -0.0519949792
| 38>  H        2.6151791487     1.6592235722    -2.8834558102
| 39>  H        1.4797940106     0.4158758139    -2.3941126145
| 40>  H        3.2089487850     0.0371598203    -2.5827760391
| 41>  H        4.2964766637     2.6971438616    -1.3251782126
| 42>  H        4.3523887159     2.1497719394     0.4065921908
| 43>  H        1.9163767228     2.6421556432     0.6813337369
| 44>  H        1.8051892925     3.1993700094    -1.0434827506
| 45> *
| 46>
| 47>                          ****END OF INPUT****
 Total Charge           Charge          ....    1
 Multiplicity           Mult            ....    1
 Number of Electrons    NEL             ....   56
FINAL SINGLE POINT ENERGY      -291.301027254344
FINAL SINGLE POINT ENERGY      -291.301030510333
FINAL SINGLE POINT ENERGY      -291.301032307140

CARTESIAN COORDINATES (ANGSTROEM)
---------------------------------
  C      1.384446   -0.003649    1.458321
  N     -0.002497   -0.000167    0.917696
  C     -0.794353    1.139786    1.455274
  C     -0.049209   -0.094671   -0.576439
  C      0.566528    1.064269   -1.301233
  C     -1.261268   -0.783559   -1.110083
  C      0.067230   -1.485098   -1.106724
  H      1.927196   -0.843872    1.029968
  H      1.338347   -0.094747    2.542291
  H      1.869801    0.931819    1.191261
  H     -0.450588   -0.853901    1.254043
  H     -0.300750    2.070021    1.185469
  H     -0.842970    1.052980    2.539484
  H     -1.793963    1.106817    1.026935
  H      0.468242    0.888823   -2.372610
  H      1.632826    1.170055   -1.092069
  H      0.063024    2.008761   -1.086120
  H     -1.663799   -0.420651   -2.046764
  H     -2.015586   -1.140473   -0.416563
  H      0.195041   -2.308314   -0.411336
  H      0.597605   -1.614410   -2.041047

FINAL SINGLE POINT ENERGY      -291.301032893088
                    ***********************HURRAY********************
 Multiplicity           Mult            ....    1
 Number of Electrons    NEL             ....   56
 Basis Dimension        Dim             ....  301
FINAL SINGLE POINT ENERGY      -291.301033386174

VIBRATIONAL FREQUENCIES
-----------------------

   0:         0.00 cm**-1
   1:         0.00 cm**-1
   2:         0.00 cm**-1
   3:         0.00 cm**-1
   4:         0.00 cm**-1
   5:         0.00 cm**-1
   6:        78.37 cm**-1
   7:       191.16 cm**-1
   8:       224.37 cm**-1
   9:       249.21 cm**-1
  10:       251.17 cm**-1
  11:       283.08 cm**-1
  12:       314.84 cm**-1
  13:       341.49 cm**-1
  14:       396.10 cm**-1
  15:       498.64 cm**-1
  16:       507.97 cm**-1
  17:       678.50 cm**-1
  18:       775.48 cm**-1
  19:       857.45 cm**-1
  20:       903.18 cm**-1
  21:       944.06 cm**-1
  22:       956.07 cm**-1
  23:       958.95 cm**-1
  24:      1020.82 cm**-1
  25:      1044.23 cm**-1
  26:      1048.42 cm**-1
  27:      1074.47 cm**-1
  28:      1104.21 cm**-1
  29:      1135.08 cm**-1
  30:      1164.52 cm**-1
  31:      1183.01 cm**-1
  32:      1196.25 cm**-1
  33:      1251.51 cm**-1
  34:      1284.51 cm**-1
  35:      1338.76 cm**-1
  36:      1405.69 cm**-1
  37:      1416.64 cm**-1
  38:      1435.38 cm**-1
  39:      1464.50 cm**-1
  40:      1465.55 cm**-1
  41:      1467.42 cm**-1
  42:      1474.54 cm**-1
  43:      1482.38 cm**-1
  44:      1488.36 cm**-1
  45:      1495.65 cm**-1
  46:      1500.18 cm**-1
  47:      1508.88 cm**-1
  48:      1520.78 cm**-1
  49:      3067.11 cm**-1
  50:      3092.58 cm**-1
  51:      3095.24 cm**-1
  52:      3141.27 cm**-1
  53:      3148.35 cm**-1
  54:      3151.59 cm**-1
  55:      3155.15 cm**-1
  56:      3189.41 cm**-1
  57:      3191.13 cm**-1
  58:      3200.87 cm**-1
  59:      3201.90 cm**-1
  60:      3237.79 cm**-1
  61:      3248.35 cm**-1
  62:      3457.72 cm**-1

IR SPECTRUM
-----------

 Mode    freq (cm**-1)   T**2         TX         TY         TZ
-------------------------------------------------------------------
   6:        78.37    0.251739  ( -0.445296   0.231193   0.000978)
   7:       191.16    0.004682  (  0.063789  -0.024656  -0.002178)
   8:       224.37    0.328010  (  0.507583  -0.265267   0.001716)
   9:       249.21    0.029542  ( -0.037311  -0.139246   0.093596)
  10:       251.17    0.023321  ( -0.142160   0.050069   0.024579)
  11:       283.08    0.780268  ( -0.084568  -0.164650  -0.863717)
  12:       314.84    3.091190  ( -0.007435  -0.028456  -1.757932)
  13:       341.49    0.002683  ( -0.046428   0.022421  -0.004940)
  14:       396.10    1.360225  ( -0.051254  -0.094632   1.161311)
  15:       498.64    0.942523  (  0.172574   0.339807  -0.892901)
  16:       507.97    5.665813  (  2.105235  -1.110764  -0.000011)
  17:       678.50    3.349140  (  0.212880   0.419318   1.768614)
  18:       775.48    0.542322  ( -0.271934  -0.496999  -0.470496)
  19:       857.45    6.847202  (  1.186785   2.255807   0.591675)
  20:       903.18    1.529780  (  1.092389  -0.580054  -0.002070)
  21:       944.06    4.275079  ( -0.171414  -0.336092  -2.032914)
  22:       956.07    0.049941  (  0.203173  -0.092862   0.006202)
  23:       958.95   11.477772  ( -1.146233  -2.175913  -2.330091)
  24:      1020.82   11.942391  (  3.058101  -1.609474   0.001503)
  25:      1044.23    8.490633  ( -1.178897  -2.255959  -1.418268)
  26:      1048.42    0.586063  ( -0.683863   0.343918  -0.010770)
  27:      1074.47    9.193104  (  1.281799   2.420012   1.301398)
  28:      1104.21    2.186267  ( -1.304304   0.696412  -0.008198)
  29:      1135.08    0.671813  ( -0.723969   0.384291   0.001262)
  30:      1164.52   27.487688  (  0.783981   1.484572   4.966801)
  31:      1183.01    1.483102  ( -1.072699   0.576353   0.015346)
  32:      1196.25    4.735121  (  1.923498  -1.017457  -0.007515)
  33:      1251.51    0.822519  ( -0.040151  -0.084871  -0.902056)
  34:      1284.51    6.868122  (  0.201812   0.377687   2.585488)
  35:      1338.76    3.225040  (  0.287663   0.557315   1.682763)
  36:      1405.69    9.397084  (  2.716265  -1.420911  -0.000783)
  37:      1416.64   29.405495  (  0.407393   0.756937  -5.354117)
  38:      1435.38    7.337725  ( -2.395697   1.264258  -0.003579)
  39:      1464.50    1.561387  (  0.407901   0.807012   0.862401)
  40:      1465.55   22.164779  ( -4.170468   2.184362  -0.023146)
  41:      1467.42    5.501280  ( -0.869893  -1.742231  -1.307363)
  42:      1474.54    9.767882  (  2.763205  -1.459992  -0.031644)
  43:      1482.38    5.666012  (  2.098001  -1.124450  -0.004034)
  44:      1488.36    7.986278  (  1.189061   2.162650   1.376720)
  45:      1495.65    0.058400  ( -0.226208   0.083348   0.016834)
  46:      1500.18   27.597551  ( -2.225075  -4.253153   2.134779)
  47:      1508.88   33.262974  ( -0.119149  -0.241719   5.761107)
  48:      1520.78    8.537996  ( -1.215662  -2.300513  -1.329586)
  49:      3067.11    5.265364  (  1.009734   1.906362   0.782039)
  50:      3092.58    0.133316  ( -0.332395   0.146941  -0.035183)
  51:      3095.24    0.581562  ( -0.187084  -0.431824  -0.600074)
  52:      3141.27    5.693076  ( -2.113177   1.107944  -0.004499)
  53:      3148.35    0.434326  (  0.589516  -0.275609   0.104098)
  54:      3151.59    4.457044  (  0.307096   0.672397   1.977528)
  55:      3155.15    1.537262  ( -0.552349  -1.062986   0.319739)
  56:      3189.41    0.000646  (  0.014980  -0.008392  -0.018743)
  57:      3191.13    0.082236  (  0.030325   0.054770  -0.279850)
  58:      3200.87    0.024398  (  0.023928  -0.098285   0.119018)
  59:      3201.90    0.078887  ( -0.102467  -0.126577   0.228835)
  60:      3237.79    0.179413  ( -0.372247   0.201948   0.007927)
  61:      3248.35    0.047901  (  0.012709  -0.014815  -0.217991)
  62:      3457.72   36.601077  (  2.629753   4.989478  -2.188741)

--------------------------
THERMOCHEMISTRY AT 298.15K
--------------------------

Temperature         ... 298.15 K
Pressure            ... 1.00 atm
Total Mass          ... 100.18 AMU

Throughout the following assumptions are being made:
  (1) The electronic state is orbitally nondegenerate
  (2) There are no thermally accessible electronically excited states
  (3) Hindered rotations indicated by low frequency modes) are not
      treated as such but are treated as vibrations and this may
      case some error
  (4) All equations used are the standard statistical mechanics
      equations for an ideal gas
  (5) All vibrations are strinctly harmonic

------------
INNER ENERGY
------------

The inner energy is: U= E(el) + E(ZPE) + E(vib) + E(rot) + E(trans)
    E(el)   - is the total energy from the electronic structure calculation
              = E(kin-el) + E(nuc-el) + E(el-el) + E(nuc-nuc)
    E(ZPE)  - the the zero temperature vibrational energy from the frequency calculation
    E(vib)  - the the finite temperature correction to E(ZPE) due to population
              of excietd vibrational states
    E(rot)  - is the rotational thermal energy
    E(trans)- is the translational thermal energy

Summary of contributions to the inner energy U:
Electronic energy                ...   -291.30103339 Eh
Zero point energy                ...      0.19811011 Eh     124.32 kcal/mol
Thermal vibrational correction   ...      0.00560682 Eh       3.52 kcal/mol
Thermal rotational correction    ...      0.00141627 Eh       0.89 kcal/mol
Thermal translational correction ...      0.00141627 Eh       0.89 kcal/mol
-----------------------------------------------------------------------
Total thermal energy                   -291.09448391 Eh

Summary of corrections to the electronic energy:
(perhaps to be used in another calculation)
Total thermal correction                  0.00843936 Eh       5.30 kcal/mol
Non-thermal (ZPE) correction              0.19811011 Eh     124.32 kcal/mol
-----------------------------------------------------------------------
Total correction                          0.20654948 Eh     129.61 kcal/mol

--------
ENTHALPY
--------

The enthalpy is H = U + kB*T
                kB is Boltzmann's constant
Total free energy                 ...   -291.09448391 Eh
Thermal Enthalpy correction       ...      0.00094421 Eh       0.59 kcal/mol
-----------------------------------------------------------------------
Total Enthalpy                    ...   -291.09353970 Eh

-------
ENTROPY
-------

The entropy contributions are T*S = T*(S(el)+S(vib)+S(rot)+S(trans)
     S(el)   - electronic entropy
     S(vib)  - vibrational entropy
     S(rot)  - rotational entropy
     S(trans)- translational entropy
The entropies will be listed as mutliplied by the temperature to get
units of energy

Electronic entropy                ...      0.00000000 Eh      0.00 kcal/mol
Vibrational entropy               ...      0.00944936 Eh      5.93 kcal/mol
Rotational entropy                ...      0.01201443 Eh      7.54 kcal/mol
Translational entropy             ...      0.01887386 Eh     11.84 kcal/mol
-----------------------------------------------------------------------
Final entropy term                ...      0.04033765 Eh     25.31 kcal/mol

CAUTION: The rotational entropy is not quite correctly treated here
         because it includes a symmetry number that is not yet correctly
         implemented in ORCA!
For a nonlinear molecule the correct rotational entropy is:
    S(rot) = R*(ln(qrot/sn)+1.5)
    R    = 8.31441 J/mol/K = 1.987191683e-3 kcal/mol/K
    qrot = 224879.3991488
    sn is the rotational symmetry number. We have assumed 3 here
       if it is different for your molecule then you should correct
       the printed rotational entropy by manually evaluating the equation
       as given above

For convenience we print out the resulting values for sn=1 - 12:
 sn= 1  qrot/sn=  224879.3991 T*S(rot)=     8.19 kcal/mol T*S(tot)=    25.96 kcal/mol
 sn= 2  qrot/sn=  112439.6996 T*S(rot)=     7.78 kcal/mol T*S(tot)=    25.55 kcal/mol
 sn= 3  qrot/sn=   74959.7997 T*S(rot)=     7.54 kcal/mol T*S(tot)=    25.31 kcal/mol
 sn= 4  qrot/sn=   56219.8498 T*S(rot)=     7.37 kcal/mol T*S(tot)=    25.14 kcal/mol
 sn= 5  qrot/sn=   44975.8798 T*S(rot)=     7.24 kcal/mol T*S(tot)=    25.01 kcal/mol
 sn= 6  qrot/sn=   37479.8999 T*S(rot)=     7.13 kcal/mol T*S(tot)=    24.90 kcal/mol
 sn= 7  qrot/sn=   32125.6284 T*S(rot)=     7.04 kcal/mol T*S(tot)=    24.81 kcal/mol
 sn= 8  qrot/sn=   28109.9249 T*S(rot)=     6.96 kcal/mol T*S(tot)=    24.73 kcal/mol
 sn= 9  qrot/sn=   24986.5999 T*S(rot)=     6.89 kcal/mol T*S(tot)=    24.66 kcal/mol
 sn=10  qrot/sn=   22487.9399 T*S(rot)=     6.83 kcal/mol T*S(tot)=    24.60 kcal/mol
 sn=11  qrot/sn=   20443.5817 T*S(rot)=     6.77 kcal/mol T*S(tot)=    24.54 kcal/mol
 sn=12  qrot/sn=   18739.9499 T*S(rot)=     6.72 kcal/mol T*S(tot)=    24.49 kcal/mol

-------------------
GIBBS FREE ENTHALPY
-------------------

The Gibbs free enthalpy is G = H - T*S

Total enthalpy                    ...   -291.09353970 Eh
Total entropy correction          ...     -0.04033765 Eh    -25.31 kcal/mol
-----------------------------------------------------------------------
Final Gibbs free enthalpy         ...   -291.13387735 Eh

For completeness - the Gibbs free enthalpy minus the electronic energy
G-E(el)                           ...      0.16715604 Eh    104.89 kcal/mol

                             ****ORCA TERMINATED NORMALLY****
TOTAL RUN TIME: 0 days 0 hours 54 minutes 57 seconds 329 msec
