                         Program Version 3.0.3 - RELEASE   -
|  1> ! NORI PBE0 def2-TZVP UseSym TightOPT Freq TightSCF Grid3 FinalGrid5 XYZFile
|  2> % pal
|  3>     nprocs 8
|  4> end
|  5> %method
|  6>     SymThresh 5.0e-2
|  7> end
|  8> % geom
|  9>     MaxIter 10
| 10> end
| 11> % maxcore 2000
| 12> % output
| 13>     printlevel mini
| 14>     print[ P_Basis ] 0
| 15>     print[ P_SCFInfo ] 1
| 16>     print[ P_SCFIterInfo ] 1
| 17>     print[ P_OrbEn ] 0
| 18>     print[ P_Cartesian ] 0
| 19> end
| 20> % elprop
| 21>     Dipole false
| 22> end
| 23> *xyz 1 1
| 24>  C        0.9400461031     1.0798088459    -2.4345474809
| 25>  N        2.4243682041     1.1036857709    -2.4639643781
| 26>  C        3.0949461734     0.4687130556    -1.2725441574
| 27>  C        4.5829230781     0.5802953919    -1.3889808712
| 28>  C        5.2149615221    -0.2375582060    -2.4869373391
| 29>  C        5.1933509838     1.9109303732    -1.0160185560
| 30>  C        5.3282983384     0.7411378176    -0.0965756612
| 31>  H        0.5537529088     1.5557345374    -3.3341442542
| 32>  H        0.5990172196     1.6168789609    -1.5517318177
| 33>  H        0.6094612666     0.0442111051    -2.3885757812
| 34>  H        2.7642620502     2.0657129855    -2.5302192285
| 35>  H        2.7613049881     0.6337008188    -3.3060417040
| 36>  H        2.7516514771    -0.5680001234    -1.2446770471
| 37>  H        2.7115930054     0.9894047619    -0.3940552858
| 38>  H        4.9035446241     0.0753643895    -3.4908522752
| 39>  H        4.9847862061    -1.3010991368    -2.3741323578
| 40>  H        6.3005862484    -0.1334578753    -2.4635607324
| 41>  H        4.5457921865     2.7220268832    -0.6988673954
| 42>  H        6.0654741015     2.2321978306    -1.5712214972
| 43>  H        6.2914411831     0.2532062271    -0.0279337491
| 44>  H        4.7678081314     0.7537055865     0.8304715694
| 45> *
| 46>
| 47>                          ****END OF INPUT****
 Total Charge           Charge          ....    1
 Multiplicity           Mult            ....    1
 Number of Electrons    NEL             ....   56
FINAL SINGLE POINT ENERGY      -291.307630993383
FINAL SINGLE POINT ENERGY      -291.307632879726

CARTESIAN COORDINATES (ANGSTROEM)
---------------------------------
  C      0.843426    0.002877    2.828265
  N     -0.000126   -0.002213    1.605852
  C      0.752292   -0.190933    0.313370
  C     -0.186850   -0.137520   -0.850759
  C     -1.154546   -1.289159   -0.962710
  C     -0.620015    1.235406   -1.307280
  C      0.369179    0.456335   -2.111502
  H      0.210004    0.142097    3.702577
  H      1.561546    0.817101    2.753591
  H      1.367824   -0.948387    2.894587
  H     -0.523084    0.873384    1.531115
  H     -0.704666   -0.738975    1.674435
  H      1.266349   -1.151718    0.395602
  H      1.498209    0.604376    0.276331
  H     -1.859831   -1.342283   -0.124273
  H     -0.628789   -2.245657   -1.027755
  H     -1.763920   -1.188325   -1.861319
  H     -0.254213    2.110699   -0.779843
  H     -1.628054    1.336975   -1.688821
  H      0.038074    0.016214   -3.043298
  H      1.398666    0.793127   -2.119167

FINAL SINGLE POINT ENERGY      -291.307633662003
                    ***********************HURRAY********************
 Multiplicity           Mult            ....    1
 Number of Electrons    NEL             ....   56
 Basis Dimension        Dim             ....  301
FINAL SINGLE POINT ENERGY      -291.307634039747

VIBRATIONAL FREQUENCIES
-----------------------

   0:         0.00 cm**-1
   1:         0.00 cm**-1
   2:         0.00 cm**-1
   3:         0.00 cm**-1
   4:         0.00 cm**-1
   5:         0.00 cm**-1
   6:        75.26 cm**-1
   7:        94.58 cm**-1
   8:       163.77 cm**-1
   9:       211.25 cm**-1
  10:       231.53 cm**-1
  11:       298.04 cm**-1
  12:       332.53 cm**-1
  13:       357.44 cm**-1
  14:       392.58 cm**-1
  15:       475.68 cm**-1
  16:       736.88 cm**-1
  17:       793.02 cm**-1
  18:       803.27 cm**-1
  19:       890.58 cm**-1
  20:       897.33 cm**-1
  21:       926.10 cm**-1
  22:       957.66 cm**-1
  23:       966.04 cm**-1
  24:       982.40 cm**-1
  25:      1030.07 cm**-1
  26:      1049.81 cm**-1
  27:      1065.45 cm**-1
  28:      1100.20 cm**-1
  29:      1115.61 cm**-1
  30:      1142.67 cm**-1
  31:      1174.18 cm**-1
  32:      1192.21 cm**-1
  33:      1304.00 cm**-1
  34:      1324.06 cm**-1
  35:      1353.76 cm**-1
  36:      1377.61 cm**-1
  37:      1400.39 cm**-1
  38:      1420.44 cm**-1
  39:      1427.28 cm**-1
  40:      1460.14 cm**-1
  41:      1463.48 cm**-1
  42:      1480.33 cm**-1
  43:      1488.10 cm**-1
  44:      1490.50 cm**-1
  45:      1494.89 cm**-1
  46:      1499.70 cm**-1
  47:      1512.65 cm**-1
  48:      1657.52 cm**-1
  49:      3028.21 cm**-1
  50:      3082.98 cm**-1
  51:      3092.16 cm**-1
  52:      3099.01 cm**-1
  53:      3140.94 cm**-1
  54:      3144.30 cm**-1
  55:      3145.98 cm**-1
  56:      3160.52 cm**-1
  57:      3191.65 cm**-1
  58:      3194.14 cm**-1
  59:      3232.29 cm**-1
  60:      3250.05 cm**-1
  61:      3438.36 cm**-1
  62:      3487.36 cm**-1

IR SPECTRUM
-----------

 Mode    freq (cm**-1)   T**2         TX         TY         TZ
-------------------------------------------------------------------
   6:        75.26    0.836651  (  0.037640   0.900704   0.154809)
   7:        94.58    4.504334  ( -0.242260  -1.983232   0.715845)
   8:       163.77    5.916333  (  0.285468   0.508368   2.361441)
   9:       211.25    0.216712  (  0.069396   0.345197   0.304526)
  10:       231.53    1.730155  (  0.076342   1.280605  -0.290478)
  11:       298.04    5.491450  (  1.334632   0.327993   1.898059)
  12:       332.53    1.084583  ( -0.041832  -0.000648  -1.040593)
  13:       357.44    0.156944  (  0.029545  -0.009268   0.394950)
  14:       392.58    1.229842  (  0.395350  -0.381754  -0.963226)
  15:       475.68    4.377629  ( -0.837773   0.896229   1.694857)
  16:       736.88    6.390698  (  0.343137   1.050063  -2.273834)
  17:       793.02    2.701386  ( -0.453379  -1.578925  -0.053182)
  18:       803.27    9.844784  (  0.489952   3.039898  -0.603116)
  19:       890.58    7.373515  (  1.453648  -1.724811  -1.511770)
  20:       897.33    9.405916  ( -0.546967   0.291009   3.003674)
  21:       926.10    5.512557  (  0.292815  -0.002736  -2.329551)
  22:       957.66   14.105822  ( -0.539077   0.967655  -3.588713)
  23:       966.04    9.891825  (  0.046721  -2.260068   2.186718)
  24:       982.40    1.720170  (  0.511487  -1.130522  -0.424819)
  25:      1030.07   11.183548  ( -1.537871   0.060964  -2.968970)
  26:      1049.81   10.940267  (  0.440620   2.440152  -2.189013)
  27:      1065.45    3.315709  ( -0.058224   0.986596  -1.529362)
  28:      1100.20    2.020806  (  0.912997  -0.958626  -0.517958)
  29:      1115.61    0.762106  (  0.777359  -0.373803  -0.134498)
  30:      1142.67    5.990384  (  0.496431  -0.669273   2.301307)
  31:      1174.18    9.100554  ( -0.097681  -0.661895  -2.941582)
  32:      1192.21    0.328184  (  0.190494   0.249868   0.479022)
  33:      1304.00    3.466015  ( -0.055555   1.473764  -1.136200)
  34:      1324.06    1.000605  (  0.066841  -0.074078  -0.995314)
  35:      1353.76    5.736433  (  0.618458  -0.402112  -2.278651)
  36:      1377.61   29.137587  ( -0.951933  -1.656947  -5.048360)
  37:      1400.39    4.232371  ( -0.446069   0.215239  -1.996764)
  38:      1420.44   62.734050  ( -0.168772   0.590453  -7.896640)
  39:      1427.28    5.714451  (  1.631365   1.212412   1.258235)
  40:      1460.14    2.152561  (  0.818554  -0.251538   1.191326)
  41:      1463.48   12.817123  ( -2.733493   1.601248   1.667676)
  42:      1480.33   36.094841  (  1.197963   0.501766   5.865829)
  43:      1488.10    1.879271  (  0.696656  -1.131539  -0.336990)
  44:      1490.50   11.570734  ( -0.781584   3.141241  -1.045210)
  45:      1494.89   13.573351  ( -0.161161  -3.655526  -0.429540)
  46:      1499.70   30.812135  ( -4.692042   0.325861   2.947998)
  47:      1512.65    4.016125  ( -1.541541  -1.129845   0.602684)
  48:      1657.52   36.467672  ( -5.989413   0.675331  -0.372192)
  49:      3028.21   28.317515  ( -2.593735  -2.388421   3.985662)
  50:      3082.98    5.543447  (  1.607953  -0.695360   1.573025)
  51:      3092.16    0.437706  ( -0.401610  -0.009742  -0.525662)
  52:      3099.01   13.533961  ( -1.841522   1.927880   2.534963)
  53:      3140.94    4.601111  (  0.064938  -1.218684  -1.764002)
  54:      3144.30    1.419727  (  0.686208  -0.417760   0.879955)
  55:      3145.98    4.564892  ( -0.343366   2.047005  -0.506719)
  56:      3160.52    1.583441  (  1.177450   0.240542  -0.373086)
  57:      3191.65    0.143138  (  0.355445  -0.061608   0.114023)
  58:      3194.14    0.010657  (  0.043740  -0.084757   0.039497)
  59:      3232.29    0.893296  ( -0.242430  -0.533683  -0.741422)
  60:      3250.05    0.733116  (  0.682324   0.470306   0.215318)
  61:      3438.36   36.782011  (  5.906255  -1.203021   0.671498)
  62:      3487.36   63.506131  (  1.780047   7.753306  -0.473086)

--------------------------
THERMOCHEMISTRY AT 298.15K
--------------------------

Temperature         ... 298.15 K
Pressure            ... 1.00 atm
Total Mass          ... 100.18 AMU

Throughout the following assumptions are being made:
  (1) The electronic state is orbitally nondegenerate
  (2) There are no thermally accessible electronically excited states
  (3) Hindered rotations indicated by low frequency modes) are not
      treated as such but are treated as vibrations and this may
      case some error
  (4) All equations used are the standard statistical mechanics
      equations for an ideal gas
  (5) All vibrations are strinctly harmonic

------------
INNER ENERGY
------------

The inner energy is: U= E(el) + E(ZPE) + E(vib) + E(rot) + E(trans)
    E(el)   - is the total energy from the electronic structure calculation
              = E(kin-el) + E(nuc-el) + E(el-el) + E(nuc-nuc)
    E(ZPE)  - the the zero temperature vibrational energy from the frequency calculation
    E(vib)  - the the finite temperature correction to E(ZPE) due to population
              of excietd vibrational states
    E(rot)  - is the rotational thermal energy
    E(trans)- is the translational thermal energy

Summary of contributions to the inner energy U:
Electronic energy                ...   -291.30763404 Eh
Zero point energy                ...      0.19888164 Eh     124.80 kcal/mol
Thermal vibrational correction   ...      0.00576187 Eh       3.62 kcal/mol
Thermal rotational correction    ...      0.00141627 Eh       0.89 kcal/mol
Thermal translational correction ...      0.00141627 Eh       0.89 kcal/mol
-----------------------------------------------------------------------
Total thermal energy                   -291.10015799 Eh

Summary of corrections to the electronic energy:
(perhaps to be used in another calculation)
Total thermal correction                  0.00859441 Eh       5.39 kcal/mol
Non-thermal (ZPE) correction              0.19888164 Eh     124.80 kcal/mol
-----------------------------------------------------------------------
Total correction                          0.20747605 Eh     130.19 kcal/mol

--------
ENTHALPY
--------

The enthalpy is H = U + kB*T
                kB is Boltzmann's constant
Total free energy                 ...   -291.10015799 Eh
Thermal Enthalpy correction       ...      0.00094421 Eh       0.59 kcal/mol
-----------------------------------------------------------------------
Total Enthalpy                    ...   -291.09921378 Eh

-------
ENTROPY
-------

The entropy contributions are T*S = T*(S(el)+S(vib)+S(rot)+S(trans)
     S(el)   - electronic entropy
     S(vib)  - vibrational entropy
     S(rot)  - rotational entropy
     S(trans)- translational entropy
The entropies will be listed as mutliplied by the temperature to get
units of energy

Electronic entropy                ...      0.00000000 Eh      0.00 kcal/mol
Vibrational entropy               ...      0.01029004 Eh      6.46 kcal/mol
Rotational entropy                ...      0.01220492 Eh      7.66 kcal/mol
Translational entropy             ...      0.01887386 Eh     11.84 kcal/mol
-----------------------------------------------------------------------
Final entropy term                ...      0.04136882 Eh     25.96 kcal/mol

CAUTION: The rotational entropy is not quite correctly treated here
         because it includes a symmetry number that is not yet correctly
         implemented in ORCA!
For a nonlinear molecule the correct rotational entropy is:
    S(rot) = R*(ln(qrot/sn)+1.5)
    R    = 8.31441 J/mol/K = 1.987191683e-3 kcal/mol/K
    qrot = 275151.5442876
    sn is the rotational symmetry number. We have assumed 3 here
       if it is different for your molecule then you should correct
       the printed rotational entropy by manually evaluating the equation
       as given above

For convenience we print out the resulting values for sn=1 - 12:
 sn= 1  qrot/sn=  275151.5443 T*S(rot)=     8.31 kcal/mol T*S(tot)=    26.61 kcal/mol
 sn= 2  qrot/sn=  137575.7721 T*S(rot)=     7.90 kcal/mol T*S(tot)=    26.20 kcal/mol
 sn= 3  qrot/sn=   91717.1814 T*S(rot)=     7.66 kcal/mol T*S(tot)=    25.96 kcal/mol
 sn= 4  qrot/sn=   68787.8861 T*S(rot)=     7.49 kcal/mol T*S(tot)=    25.79 kcal/mol
 sn= 5  qrot/sn=   55030.3089 T*S(rot)=     7.36 kcal/mol T*S(tot)=    25.66 kcal/mol
 sn= 6  qrot/sn=   45858.5907 T*S(rot)=     7.25 kcal/mol T*S(tot)=    25.55 kcal/mol
 sn= 7  qrot/sn=   39307.3635 T*S(rot)=     7.16 kcal/mol T*S(tot)=    25.46 kcal/mol
 sn= 8  qrot/sn=   34393.9430 T*S(rot)=     7.08 kcal/mol T*S(tot)=    25.38 kcal/mol
 sn= 9  qrot/sn=   30572.3938 T*S(rot)=     7.01 kcal/mol T*S(tot)=    25.31 kcal/mol
 sn=10  qrot/sn=   27515.1544 T*S(rot)=     6.95 kcal/mol T*S(tot)=    25.25 kcal/mol
 sn=11  qrot/sn=   25013.7768 T*S(rot)=     6.89 kcal/mol T*S(tot)=    25.19 kcal/mol
 sn=12  qrot/sn=   22929.2954 T*S(rot)=     6.84 kcal/mol T*S(tot)=    25.14 kcal/mol

-------------------
GIBBS FREE ENTHALPY
-------------------

The Gibbs free enthalpy is G = H - T*S

Total enthalpy                    ...   -291.09921378 Eh
Total entropy correction          ...     -0.04136882 Eh    -25.96 kcal/mol
-----------------------------------------------------------------------
Final Gibbs free enthalpy         ...   -291.14058260 Eh

For completeness - the Gibbs free enthalpy minus the electronic energy
G-E(el)                           ...      0.16705144 Eh    104.83 kcal/mol

                             ****ORCA TERMINATED NORMALLY****
TOTAL RUN TIME: 0 days 0 hours 47 minutes 26 seconds 806 msec
