                         Program Version 3.0.3 - RELEASE   -
|  1> ! NORI PBE0 def2-TZVP UseSym TightOPT Freq TightSCF Grid3 FinalGrid5 XYZFile
|  2> % pal
|  3>     nprocs 8
|  4> end
|  5> %method
|  6>     SymThresh 5.0e-2
|  7> end
|  8> % geom
|  9>     MaxIter 10
| 10> end
| 11> % maxcore 2000
| 12> % output
| 13>     printlevel mini
| 14>     print[ P_Basis ] 0
| 15>     print[ P_SCFInfo ] 1
| 16>     print[ P_SCFIterInfo ] 1
| 17>     print[ P_OrbEn ] 0
| 18>     print[ P_Cartesian ] 0
| 19> end
| 20> % elprop
| 21>     Dipole false
| 22> end
| 23> *xyz 1 1
| 24>  C        1.3122413876    -0.2965606978    -0.8375404321
| 25>  N        2.6702867100    -0.0391337949    -0.2871309226
| 26>  C        2.9489077496     1.3983611461     0.0471527853
| 27>  C        4.3519211902     1.5788535530     0.5887608249
| 28>  C        4.6136769158     3.0251671967     0.9123585820
| 29>  C        4.1438178736     3.5970012073     2.2190327743
| 30>  C        5.6031815472     3.3808467117     1.9769994278
| 31>  H        1.2051567208    -1.3590450190    -1.0489662325
| 32>  H        1.1932550273     0.2815216444    -1.7511695411
| 33>  H        0.5745054694     0.0156956175    -0.1011657396
| 34>  H        3.3764382719    -0.3602740453    -0.9527386473
| 35>  H        2.8092987452    -0.6012165985     0.5549079763
| 36>  H        2.1940122227     1.7039421924     0.7734934300
| 37>  H        2.7914730172     1.9646976758    -0.8724041282
| 38>  H        5.0861474232     1.2200488812    -0.1438646608
| 39>  H        4.4791088777     0.9774192243     1.4968458699
| 40>  H        4.5787779937     3.6889777361     0.0537562320
| 41>  H        3.6478847935     2.9327645694     2.9184823058
| 42>  H        3.7668063957     4.6112365381     2.2271981102
| 43>  H        6.2306192035     4.2467531034     1.8128124842
| 44>  H        6.0895224640     2.5702831581     2.5062495013
| 45> *
| 46>
| 47>                          ****END OF INPUT****
 Total Charge           Charge          ....    1
 Multiplicity           Mult            ....    1
 Number of Electrons    NEL             ....   56
FINAL SINGLE POINT ENERGY      -291.302592307844

CARTESIAN COORDINATES (ANGSTROEM)
---------------------------------
  C      1.088860    0.000392    3.219003
  N      0.000284   -0.000155    2.205005
  C      0.459984    0.214751    0.791347
  C     -0.705700    0.212872   -0.175853
  C     -0.226016    0.434877   -1.584917
  C      0.307458   -0.719002   -2.384477
  C     -1.014199   -0.112885   -2.732767
  H      0.660279   -0.160518    4.206691
  H      1.596632    0.961994    3.182554
  H      1.787667   -0.798239    2.978576
  H     -0.684200    0.722552    2.436966
  H     -0.507923   -0.885671    2.250205
  H      1.170918   -0.582208    0.567604
  H      0.995020    1.166116    0.782598
  H     -1.425442    0.993205    0.102508
  H     -1.231911   -0.747801   -0.121591
  H      0.248712    1.397408   -1.749442
  H      0.302568   -1.702837   -1.927813
  H      1.147052   -0.539777   -3.043262
  H     -1.083382    0.488727   -3.629191
  H     -1.907594   -0.682507   -2.506905

FINAL SINGLE POINT ENERGY      -291.302593215646
                    ***********************HURRAY********************
 Multiplicity           Mult            ....    1
 Number of Electrons    NEL             ....   56
 Basis Dimension        Dim             ....  301
FINAL SINGLE POINT ENERGY      -291.302593744118

VIBRATIONAL FREQUENCIES
-----------------------

   0:         0.00 cm**-1
   1:         0.00 cm**-1
   2:         0.00 cm**-1
   3:         0.00 cm**-1
   4:         0.00 cm**-1
   5:         0.00 cm**-1
   6:        64.64 cm**-1
   7:        86.26 cm**-1
   8:       118.51 cm**-1
   9:       141.40 cm**-1
  10:       230.37 cm**-1
  11:       286.89 cm**-1
  12:       313.98 cm**-1
  13:       415.45 cm**-1
  14:       454.96 cm**-1
  15:       766.82 cm**-1
  16:       783.24 cm**-1
  17:       813.17 cm**-1
  18:       840.52 cm**-1
  19:       850.73 cm**-1
  20:       912.88 cm**-1
  21:       953.91 cm**-1
  22:       974.42 cm**-1
  23:      1026.10 cm**-1
  24:      1032.35 cm**-1
  25:      1058.47 cm**-1
  26:      1069.63 cm**-1
  27:      1092.29 cm**-1
  28:      1094.08 cm**-1
  29:      1134.00 cm**-1
  30:      1173.66 cm**-1
  31:      1197.51 cm**-1
  32:      1220.45 cm**-1
  33:      1244.33 cm**-1
  34:      1292.73 cm**-1
  35:      1307.56 cm**-1
  36:      1334.58 cm**-1
  37:      1383.76 cm**-1
  38:      1395.90 cm**-1
  39:      1419.27 cm**-1
  40:      1431.73 cm**-1
  41:      1460.24 cm**-1
  42:      1463.37 cm**-1
  43:      1476.98 cm**-1
  44:      1491.70 cm**-1
  45:      1493.55 cm**-1
  46:      1503.32 cm**-1
  47:      1513.97 cm**-1
  48:      1657.91 cm**-1
  49:      3023.78 cm**-1
  50:      3068.18 cm**-1
  51:      3091.60 cm**-1
  52:      3093.62 cm**-1
  53:      3147.43 cm**-1
  54:      3152.24 cm**-1
  55:      3160.23 cm**-1
  56:      3162.91 cm**-1
  57:      3192.37 cm**-1
  58:      3196.04 cm**-1
  59:      3235.18 cm**-1
  60:      3251.47 cm**-1
  61:      3441.50 cm**-1
  62:      3489.72 cm**-1

IR SPECTRUM
-----------

 Mode    freq (cm**-1)   T**2         TX         TY         TZ
-------------------------------------------------------------------
   6:        64.64    0.853877  (  0.139262  -0.793584   0.452446)
   7:        86.26    3.094732  ( -0.165066   1.637628   0.621016)
   8:       118.51    0.723625  ( -0.187181   0.825132   0.088004)
   9:       141.40    1.510763  (  0.039567   0.749762   0.973167)
  10:       230.37    1.749907  ( -0.180990   1.220749   0.476364)
  11:       286.89    3.569633  (  0.908628   0.316289  -1.626034)
  12:       313.98    3.705454  ( -0.730303   0.501340  -1.709026)
  13:       415.45    2.410655  (  0.596143  -0.320465   1.397344)
  14:       454.96    0.392226  ( -0.110518   0.382752  -0.483231)
  15:       766.82   10.193345  (  0.074243  -3.064118  -0.893877)
  16:       783.24    3.073578  (  0.201876  -1.214862  -1.247772)
  17:       813.17    1.689594  (  0.134091  -0.974303   0.849910)
  18:       840.52    9.654645  (  2.402982  -1.746838   0.910427)
  19:       850.73    8.438594  (  0.803818   2.383643   1.452831)
  20:       912.88   17.753270  ( -0.728387   0.253698  -4.142265)
  21:       953.91    5.996508  (  0.901683   0.147960  -2.271912)
  22:       974.42   14.139536  ( -0.708263   2.751432   2.463234)
  23:      1026.10   10.943224  (  1.027989  -0.277409   3.132013)
  24:      1032.35   16.636459  (  1.955570   0.555221   3.536091)
  25:      1058.47    5.744119  ( -0.311750  -2.153626  -1.004404)
  26:      1069.63    1.081242  (  0.352493   0.977890   0.026892)
  27:      1092.29    3.498424  (  1.641646  -0.894388  -0.059107)
  28:      1094.08    2.365939  ( -0.140861   0.096507  -1.528654)
  29:      1134.00    2.898775  ( -0.781700   0.418686  -1.453418)
  30:      1173.66    8.085770  (  0.812916  -0.339730   2.703613)
  31:      1197.51    1.398788  (  0.842612  -0.566800   0.606243)
  32:      1220.45    0.185996  ( -0.013247  -0.429173  -0.040383)
  33:      1244.33    3.136529  ( -0.642776  -0.987884  -1.321913)
  34:      1292.73    0.714556  ( -0.296761  -0.779464  -0.137564)
  35:      1307.56    1.481920  (  0.456622  -0.721346   0.867800)
  36:      1334.58    2.548470  ( -0.566921   1.485957  -0.137847)
  37:      1383.76   10.485765  ( -0.764918  -0.435910  -3.116191)
  38:      1395.90    1.399993  (  0.289847   0.160504   1.135879)
  39:      1419.27   46.084366  ( -0.379225   0.736765  -6.737784)
  40:      1431.73   16.467255  (  1.015453   0.394238   3.909052)
  41:      1460.24    2.358814  (  1.091757  -0.139978   1.071114)
  42:      1463.37    5.686904  ( -2.296570   0.601298   0.226073)
  43:      1476.98   11.328719  ( -0.320662   1.077958  -3.172365)
  44:      1491.70   17.542650  (  0.253926  -0.287893   4.170766)
  45:      1493.55   23.732703  (  0.587008  -4.792352  -0.649217)
  46:      1503.32   19.986551  ( -4.067058  -0.614985   1.751395)
  47:      1513.97    2.578794  ( -0.623556  -1.479195  -0.044215)
  48:      1657.91   44.027050  (  6.439726   0.974861  -1.267528)
  49:      3023.78   20.782387  (  2.939561  -0.201583  -3.478611)
  50:      3068.18    9.379559  ( -0.399269   2.908178   0.873294)
  51:      3091.60    0.695228  (  0.794767   0.177783   0.178791)
  52:      3093.62    2.254698  (  1.365137   0.223485   0.584085)
  53:      3147.43    7.159144  (  1.482503  -2.053245   0.863431)
  54:      3152.24    0.971702  (  0.301587  -0.935066  -0.079991)
  55:      3160.23    5.001849  (  1.857794   1.172236   0.419898)
  56:      3162.91    4.371167  ( -0.374064  -2.044241  -0.228740)
  57:      3192.37    0.194995  ( -0.425773  -0.065746  -0.096902)
  58:      3196.04    0.028893  (  0.046479  -0.161317  -0.026640)
  59:      3235.18    0.777042  ( -0.247056  -0.538917   0.652360)
  60:      3251.47    2.645163  (  0.699982   1.049593  -1.026423)
  61:      3441.50   39.480422  (  5.855000   0.648439  -2.186075)
  62:      3489.72   66.038992  ( -0.870336   8.030249   0.892533)

--------------------------
THERMOCHEMISTRY AT 298.15K
--------------------------

Temperature         ... 298.15 K
Pressure            ... 1.00 atm
Total Mass          ... 100.18 AMU

Throughout the following assumptions are being made:
  (1) The electronic state is orbitally nondegenerate
  (2) There are no thermally accessible electronically excited states
  (3) Hindered rotations indicated by low frequency modes) are not
      treated as such but are treated as vibrations and this may
      case some error
  (4) All equations used are the standard statistical mechanics
      equations for an ideal gas
  (5) All vibrations are strinctly harmonic

------------
INNER ENERGY
------------

The inner energy is: U= E(el) + E(ZPE) + E(vib) + E(rot) + E(trans)
    E(el)   - is the total energy from the electronic structure calculation
              = E(kin-el) + E(nuc-el) + E(el-el) + E(nuc-nuc)
    E(ZPE)  - the the zero temperature vibrational energy from the frequency calculation
    E(vib)  - the the finite temperature correction to E(ZPE) due to population
              of excietd vibrational states
    E(rot)  - is the rotational thermal energy
    E(trans)- is the translational thermal energy

Summary of contributions to the inner energy U:
Electronic energy                ...   -291.30259374 Eh
Zero point energy                ...      0.19975845 Eh     125.35 kcal/mol
Thermal vibrational correction   ...      0.00570953 Eh       3.58 kcal/mol
Thermal rotational correction    ...      0.00141627 Eh       0.89 kcal/mol
Thermal translational correction ...      0.00141627 Eh       0.89 kcal/mol
-----------------------------------------------------------------------
Total thermal energy                   -291.09429323 Eh

Summary of corrections to the electronic energy:
(perhaps to be used in another calculation)
Total thermal correction                  0.00854207 Eh       5.36 kcal/mol
Non-thermal (ZPE) correction              0.19975845 Eh     125.35 kcal/mol
-----------------------------------------------------------------------
Total correction                          0.20830051 Eh     130.71 kcal/mol

--------
ENTHALPY
--------

The enthalpy is H = U + kB*T
                kB is Boltzmann's constant
Total free energy                 ...   -291.09429323 Eh
Thermal Enthalpy correction       ...      0.00094421 Eh       0.59 kcal/mol
-----------------------------------------------------------------------
Total Enthalpy                    ...   -291.09334902 Eh

-------
ENTROPY
-------

The entropy contributions are T*S = T*(S(el)+S(vib)+S(rot)+S(trans)
     S(el)   - electronic entropy
     S(vib)  - vibrational entropy
     S(rot)  - rotational entropy
     S(trans)- translational entropy
The entropies will be listed as mutliplied by the temperature to get
units of energy

Electronic entropy                ...      0.00000000 Eh      0.00 kcal/mol
Vibrational entropy               ...      0.01074100 Eh      6.74 kcal/mol
Rotational entropy                ...      0.01229398 Eh      7.71 kcal/mol
Translational entropy             ...      0.01887386 Eh     11.84 kcal/mol
-----------------------------------------------------------------------
Final entropy term                ...      0.04190884 Eh     26.30 kcal/mol

CAUTION: The rotational entropy is not quite correctly treated here
         because it includes a symmetry number that is not yet correctly
         implemented in ORCA!
For a nonlinear molecule the correct rotational entropy is:
    S(rot) = R*(ln(qrot/sn)+1.5)
    R    = 8.31441 J/mol/K = 1.987191683e-3 kcal/mol/K
    qrot = 302368.4990481
    sn is the rotational symmetry number. We have assumed 3 here
       if it is different for your molecule then you should correct
       the printed rotational entropy by manually evaluating the equation
       as given above

For convenience we print out the resulting values for sn=1 - 12:
 sn= 1  qrot/sn=  302368.4990 T*S(rot)=     8.37 kcal/mol T*S(tot)=    26.95 kcal/mol
 sn= 2  qrot/sn=  151184.2495 T*S(rot)=     7.95 kcal/mol T*S(tot)=    26.54 kcal/mol
 sn= 3  qrot/sn=  100789.4997 T*S(rot)=     7.71 kcal/mol T*S(tot)=    26.30 kcal/mol
 sn= 4  qrot/sn=   75592.1248 T*S(rot)=     7.54 kcal/mol T*S(tot)=    26.13 kcal/mol
 sn= 5  qrot/sn=   60473.6998 T*S(rot)=     7.41 kcal/mol T*S(tot)=    26.00 kcal/mol
 sn= 6  qrot/sn=   50394.7498 T*S(rot)=     7.30 kcal/mol T*S(tot)=    25.89 kcal/mol
 sn= 7  qrot/sn=   43195.4999 T*S(rot)=     7.21 kcal/mol T*S(tot)=    25.80 kcal/mol
 sn= 8  qrot/sn=   37796.0624 T*S(rot)=     7.13 kcal/mol T*S(tot)=    25.72 kcal/mol
 sn= 9  qrot/sn=   33596.4999 T*S(rot)=     7.06 kcal/mol T*S(tot)=    25.65 kcal/mol
 sn=10  qrot/sn=   30236.8499 T*S(rot)=     7.00 kcal/mol T*S(tot)=    25.58 kcal/mol
 sn=11  qrot/sn=   27488.0454 T*S(rot)=     6.94 kcal/mol T*S(tot)=    25.53 kcal/mol
 sn=12  qrot/sn=   25197.3749 T*S(rot)=     6.89 kcal/mol T*S(tot)=    25.48 kcal/mol

-------------------
GIBBS FREE ENTHALPY
-------------------

The Gibbs free enthalpy is G = H - T*S

Total enthalpy                    ...   -291.09334902 Eh
Total entropy correction          ...     -0.04190884 Eh    -26.30 kcal/mol
-----------------------------------------------------------------------
Final Gibbs free enthalpy         ...   -291.13525786 Eh

For completeness - the Gibbs free enthalpy minus the electronic energy
G-E(el)                           ...      0.16733589 Eh    105.00 kcal/mol

                             ****ORCA TERMINATED NORMALLY****
TOTAL RUN TIME: 0 days 0 hours 39 minutes 46 seconds 855 msec
