                         Program Version 3.0.3 - RELEASE   -
|  1> ! NORI PBE0 def2-TZVP UseSym TightOPT Freq TightSCF Grid3 FinalGrid5 XYZFile
|  2> % pal
|  3>     nprocs 8
|  4> end
|  5> %method
|  6>     SymThresh 5.0e-2
|  7> end
|  8> % geom
|  9>     MaxIter 10
| 10> end
| 11> % maxcore 2000
| 12> % output
| 13>     printlevel mini
| 14>     print[ P_Basis ] 0
| 15>     print[ P_SCFInfo ] 1
| 16>     print[ P_SCFIterInfo ] 1
| 17>     print[ P_OrbEn ] 0
| 18>     print[ P_Cartesian ] 0
| 19> end
| 20> % elprop
| 21>     Dipole false
| 22> end
| 23> *xyz 1 1
| 24>  C        2.7913198631    -0.7378333577     1.4353465380
| 25>  N        2.5719772004    -0.2565317420     0.0461502454
| 26>  C        1.1365182481    -0.3289791340    -0.3296929300
| 27>  C        3.1331075792     1.1263818804    -0.1920077739
| 28>  C        4.6173008463     1.1877427006    -0.0582833448
| 29>  C        5.2417764973     2.5382895847     0.1528210329
| 30>  C        5.2787930519     1.5325486398     1.2491547023
| 31>  H        2.4080386613    -1.7529469355     1.5223312651
| 32>  H        2.2528911247    -0.0793316580     2.1153108265
| 33>  H        3.8549290418    -0.7130865110     1.6563452459
| 34>  H        3.0853637068    -0.8848082197    -0.5745795248
| 35>  H        0.5756819058     0.3450363944     0.3157443503
| 36>  H        0.7819650267    -1.3495293927    -0.1955717915
| 37>  H        1.0214859653    -0.0276937593    -1.3693810990
| 38>  H        2.8133981033     1.4018164139    -1.1996078509
| 39>  H        2.6318630656     1.7873761181     0.5187910330
| 40>  H        5.1610205437     0.5250377855    -0.7267270487
| 41>  H        4.5808898149     3.3894290124     0.2660720065
| 42>  H        6.1532881600     2.7509634326    -0.3886415125
| 43>  H        6.2218179808     1.0528836529     1.4765756963
| 44>  H        4.6466236130     1.7094050946     2.1118599340
| 45> *
| 46>
| 47>                          ****END OF INPUT****
 Total Charge           Charge          ....    1
 Multiplicity           Mult            ....    1
 Number of Electrons    NEL             ....   56
FINAL SINGLE POINT ENERGY      -291.300324415888
FINAL SINGLE POINT ENERGY      -291.300325749559

CARTESIAN COORDINATES (ANGSTROEM)
---------------------------------
  C      1.483428   -0.000659    1.234141
  N      0.000633    0.000349    1.341578
  C     -0.459564    0.876683    2.449892
  C     -0.685200    0.353628    0.041542
  C     -0.439693   -0.642946   -1.040746
  C     -0.691400   -0.207987   -2.457003
  C      0.700976   -0.489052   -2.011061
  H      1.905066   -0.312484    2.188240
  H      1.811061    1.010680    0.997506
  H      1.782819   -0.684562    0.444803
  H     -0.285088   -0.954601    1.565497
  H     -0.176334    1.902725    2.219558
  H      0.015840    0.561600    3.377242
  H     -1.541741    0.802224    2.540508
  H     -1.748597    0.424819    0.282551
  H     -0.328430    1.349136   -0.232671
  H     -0.752598   -1.656859   -0.804202
  H     -0.971875    0.824687   -2.626544
  H     -1.181013   -0.916409   -3.111452
  H      1.183383   -1.391089   -2.365278
  H      1.367350    0.357129   -1.889082

FINAL SINGLE POINT ENERGY      -291.300326459534
                    ***********************HURRAY********************
 Multiplicity           Mult            ....    1
 Number of Electrons    NEL             ....   56
 Basis Dimension        Dim             ....  301
FINAL SINGLE POINT ENERGY      -291.300326671510

VIBRATIONAL FREQUENCIES
-----------------------

   0:         0.00 cm**-1
   1:         0.00 cm**-1
   2:         0.00 cm**-1
   3:         0.00 cm**-1
   4:         0.00 cm**-1
   5:         0.00 cm**-1
   6:        67.86 cm**-1
   7:       118.04 cm**-1
   8:       173.66 cm**-1
   9:       213.44 cm**-1
  10:       259.08 cm**-1
  11:       308.87 cm**-1
  12:       331.71 cm**-1
  13:       406.35 cm**-1
  14:       447.09 cm**-1
  15:       472.89 cm**-1
  16:       785.64 cm**-1
  17:       817.52 cm**-1
  18:       849.38 cm**-1
  19:       856.14 cm**-1
  20:       911.19 cm**-1
  21:       955.71 cm**-1
  22:       964.75 cm**-1
  23:      1016.46 cm**-1
  24:      1041.51 cm**-1
  25:      1051.96 cm**-1
  26:      1069.40 cm**-1
  27:      1101.96 cm**-1
  28:      1116.34 cm**-1
  29:      1134.81 cm**-1
  30:      1178.43 cm**-1
  31:      1200.78 cm**-1
  32:      1237.10 cm**-1
  33:      1243.45 cm**-1
  34:      1254.85 cm**-1
  35:      1314.81 cm**-1
  36:      1369.41 cm**-1
  37:      1414.56 cm**-1
  38:      1427.56 cm**-1
  39:      1436.50 cm**-1
  40:      1443.84 cm**-1
  41:      1465.02 cm**-1
  42:      1468.57 cm**-1
  43:      1475.18 cm**-1
  44:      1484.41 cm**-1
  45:      1493.88 cm**-1
  46:      1499.03 cm**-1
  47:      1506.99 cm**-1
  48:      1515.02 cm**-1
  49:      3076.72 cm**-1
  50:      3087.15 cm**-1
  51:      3092.19 cm**-1
  52:      3130.63 cm**-1
  53:      3152.44 cm**-1
  54:      3153.00 cm**-1
  55:      3163.05 cm**-1
  56:      3184.48 cm**-1
  57:      3186.70 cm**-1
  58:      3189.30 cm**-1
  59:      3206.75 cm**-1
  60:      3239.29 cm**-1
  61:      3255.54 cm**-1
  62:      3456.65 cm**-1

IR SPECTRUM
-----------

 Mode    freq (cm**-1)   T**2         TX         TY         TZ
-------------------------------------------------------------------
   6:        67.86    0.428050  ( -0.467181  -0.238389   0.391105)
   7:       118.04    0.353921  (  0.051238   0.201866   0.557267)
   8:       173.66    0.606580  (  0.239601  -0.062851   0.738391)
   9:       213.44    0.221447  ( -0.296695  -0.019768  -0.364731)
  10:       259.08    0.062454  ( -0.052867   0.126217  -0.209114)
  11:       308.87    2.000587  (  1.312388  -0.440406  -0.290287)
  12:       331.71    1.869491  (  0.696875   0.195174   1.160071)
  13:       406.35    0.120442  ( -0.156468   0.110775  -0.289289)
  14:       447.09    0.375871  ( -0.200544   0.111573  -0.568511)
  15:       472.89    0.359269  ( -0.229468  -0.262734  -0.487426)
  16:       785.64    1.885338  (  0.192257  -0.244043  -1.337467)
  17:       817.52    4.266083  ( -1.638482  -0.746926   1.011713)
  18:       849.38    8.388558  (  0.055223  -0.826162   2.775421)
  19:       856.14    8.109650  (  2.087880  -0.273865   1.917135)
  20:       911.19    6.200914  ( -0.763014   0.258153  -2.356285)
  21:       955.71   27.979722  (  3.194520   1.513013   3.935169)
  22:       964.75   38.168998  (  1.507462  -0.872628  -5.927485)
  23:      1016.46   13.192973  (  2.549726  -1.428424   2.156728)
  24:      1041.51   16.920003  (  1.312192  -0.352012  -3.882556)
  25:      1051.96    2.243935  ( -0.599196   0.373193   1.321222)
  26:      1069.40    6.686015  ( -1.537425  -1.019681   1.811792)
  27:      1101.96    5.034705  ( -1.919894   0.269274  -1.129692)
  28:      1116.34    0.447753  (  0.273602  -0.559245   0.245234)
  29:      1134.81    2.544519  ( -0.890314   0.294190  -1.290470)
  30:      1178.43    1.502444  ( -0.966426   0.728281  -0.195121)
  31:      1200.78    0.771322  (  0.792985   0.253567   0.279645)
  32:      1237.10    0.608480  (  0.333676  -0.432716  -0.556684)
  33:      1243.45    6.819989  (  0.452978   0.340113  -2.549338)
  34:      1254.85    0.367025  (  0.114406   0.539248  -0.251294)
  35:      1314.81    0.482821  (  0.289318  -0.139318  -0.616203)
  36:      1369.41    0.854551  (  0.288863   0.287942  -0.829577)
  37:      1414.56   22.714256  ( -0.026891  -0.856516  -4.688274)
  38:      1427.56    2.467982  (  1.230453   0.205986   0.954745)
  39:      1436.50    8.679234  (  1.001018  -0.437977   2.735941)
  40:      1443.84   10.350759  (  2.679764  -0.707041  -1.633927)
  41:      1465.02    7.606899  ( -2.376007   0.815632  -1.138523)
  42:      1468.57    2.829625  ( -0.191798  -0.524871  -1.586616)
  43:      1475.18    8.605128  ( -2.864443  -0.053174  -0.630291)
  44:      1484.41    4.374332  (  1.852635   0.038082  -0.969859)
  45:      1493.88   30.969488  (  1.281561  -4.035208  -3.611674)
  46:      1499.03   19.804540  ( -3.536788  -2.628624   0.621295)
  47:      1506.99   43.295272  ( -2.627557   3.003731  -5.231521)
  48:      1515.02   14.237669  ( -0.054217   3.396707  -1.642289)
  49:      3076.72    4.791267  (  1.031039  -1.347205  -1.383208)
  50:      3087.15    0.625372  (  0.471961  -0.430270  -0.466361)
  51:      3092.19    0.908025  ( -0.535832  -0.259409  -0.744054)
  52:      3130.63    0.682523  (  0.808894  -0.163488   0.038547)
  53:      3152.44    5.383449  ( -1.547395  -1.368666   1.056302)
  54:      3153.00    3.479304  (  1.203039  -0.030279   1.425161)
  55:      3163.05    1.332288  (  0.472547  -1.046273   0.119588)
  56:      3184.48    0.175312  ( -0.301120   0.181309  -0.227521)
  57:      3186.70    0.382790  ( -0.000387  -0.113775   0.608149)
  58:      3189.30    0.080813  ( -0.234230  -0.000074  -0.161088)
  59:      3206.75    0.740089  (  0.530297  -0.053580   0.675281)
  60:      3239.29    0.460374  (  0.320065   0.508249   0.315619)
  61:      3255.54    0.270180  ( -0.097069  -0.506908  -0.061660)
  62:      3456.65   46.341365  (  1.883687   6.253030  -1.921640)

--------------------------
THERMOCHEMISTRY AT 298.15K
--------------------------

Temperature         ... 298.15 K
Pressure            ... 1.00 atm
Total Mass          ... 100.18 AMU

Throughout the following assumptions are being made:
  (1) The electronic state is orbitally nondegenerate
  (2) There are no thermally accessible electronically excited states
  (3) Hindered rotations indicated by low frequency modes) are not
      treated as such but are treated as vibrations and this may
      case some error
  (4) All equations used are the standard statistical mechanics
      equations for an ideal gas
  (5) All vibrations are strinctly harmonic

------------
INNER ENERGY
------------

The inner energy is: U= E(el) + E(ZPE) + E(vib) + E(rot) + E(trans)
    E(el)   - is the total energy from the electronic structure calculation
              = E(kin-el) + E(nuc-el) + E(el-el) + E(nuc-nuc)
    E(ZPE)  - the the zero temperature vibrational energy from the frequency calculation
    E(vib)  - the the finite temperature correction to E(ZPE) due to population
              of excietd vibrational states
    E(rot)  - is the rotational thermal energy
    E(trans)- is the translational thermal energy

Summary of contributions to the inner energy U:
Electronic energy                ...   -291.30032667 Eh
Zero point energy                ...      0.19928274 Eh     125.05 kcal/mol
Thermal vibrational correction   ...      0.00550187 Eh       3.45 kcal/mol
Thermal rotational correction    ...      0.00141627 Eh       0.89 kcal/mol
Thermal translational correction ...      0.00141627 Eh       0.89 kcal/mol
-----------------------------------------------------------------------
Total thermal energy                   -291.09270952 Eh

Summary of corrections to the electronic energy:
(perhaps to be used in another calculation)
Total thermal correction                  0.00833441 Eh       5.23 kcal/mol
Non-thermal (ZPE) correction              0.19928274 Eh     125.05 kcal/mol
-----------------------------------------------------------------------
Total correction                          0.20761715 Eh     130.28 kcal/mol

--------
ENTHALPY
--------

The enthalpy is H = U + kB*T
                kB is Boltzmann's constant
Total free energy                 ...   -291.09270952 Eh
Thermal Enthalpy correction       ...      0.00094421 Eh       0.59 kcal/mol
-----------------------------------------------------------------------
Total Enthalpy                    ...   -291.09176531 Eh

-------
ENTROPY
-------

The entropy contributions are T*S = T*(S(el)+S(vib)+S(rot)+S(trans)
     S(el)   - electronic entropy
     S(vib)  - vibrational entropy
     S(rot)  - rotational entropy
     S(trans)- translational entropy
The entropies will be listed as mutliplied by the temperature to get
units of energy

Electronic entropy                ...      0.00000000 Eh      0.00 kcal/mol
Vibrational entropy               ...      0.00974336 Eh      6.11 kcal/mol
Rotational entropy                ...      0.01217377 Eh      7.64 kcal/mol
Translational entropy             ...      0.01887386 Eh     11.84 kcal/mol
-----------------------------------------------------------------------
Final entropy term                ...      0.04079099 Eh     25.60 kcal/mol

CAUTION: The rotational entropy is not quite correctly treated here
         because it includes a symmetry number that is not yet correctly
         implemented in ORCA!
For a nonlinear molecule the correct rotational entropy is:
    S(rot) = R*(ln(qrot/sn)+1.5)
    R    = 8.31441 J/mol/K = 1.987191683e-3 kcal/mol/K
    qrot = 266221.2209952
    sn is the rotational symmetry number. We have assumed 3 here
       if it is different for your molecule then you should correct
       the printed rotational entropy by manually evaluating the equation
       as given above

For convenience we print out the resulting values for sn=1 - 12:
 sn= 1  qrot/sn=  266221.2210 T*S(rot)=     8.29 kcal/mol T*S(tot)=    26.25 kcal/mol
 sn= 2  qrot/sn=  133110.6105 T*S(rot)=     7.88 kcal/mol T*S(tot)=    25.84 kcal/mol
 sn= 3  qrot/sn=   88740.4070 T*S(rot)=     7.64 kcal/mol T*S(tot)=    25.60 kcal/mol
 sn= 4  qrot/sn=   66555.3052 T*S(rot)=     7.47 kcal/mol T*S(tot)=    25.43 kcal/mol
 sn= 5  qrot/sn=   53244.2442 T*S(rot)=     7.34 kcal/mol T*S(tot)=    25.29 kcal/mol
 sn= 6  qrot/sn=   44370.2035 T*S(rot)=     7.23 kcal/mol T*S(tot)=    25.19 kcal/mol
 sn= 7  qrot/sn=   38031.6030 T*S(rot)=     7.14 kcal/mol T*S(tot)=    25.09 kcal/mol
 sn= 8  qrot/sn=   33277.6526 T*S(rot)=     7.06 kcal/mol T*S(tot)=    25.02 kcal/mol
 sn= 9  qrot/sn=   29580.1357 T*S(rot)=     6.99 kcal/mol T*S(tot)=    24.95 kcal/mol
 sn=10  qrot/sn=   26622.1221 T*S(rot)=     6.93 kcal/mol T*S(tot)=    24.88 kcal/mol
 sn=11  qrot/sn=   24201.9292 T*S(rot)=     6.87 kcal/mol T*S(tot)=    24.83 kcal/mol
 sn=12  qrot/sn=   22185.1017 T*S(rot)=     6.82 kcal/mol T*S(tot)=    24.78 kcal/mol

-------------------
GIBBS FREE ENTHALPY
-------------------

The Gibbs free enthalpy is G = H - T*S

Total enthalpy                    ...   -291.09176531 Eh
Total entropy correction          ...     -0.04079099 Eh    -25.60 kcal/mol
-----------------------------------------------------------------------
Final Gibbs free enthalpy         ...   -291.13255630 Eh

For completeness - the Gibbs free enthalpy minus the electronic energy
G-E(el)                           ...      0.16777037 Eh    105.28 kcal/mol

                             ****ORCA TERMINATED NORMALLY****
TOTAL RUN TIME: 0 days 0 hours 47 minutes 18 seconds 242 msec
