                         Program Version 3.0.3 - RELEASE   -
|  1> ! NORI PBE0 def2-TZVP UseSym TightOPT Freq TightSCF Grid3 FinalGrid5 XYZFile
|  2> % pal
|  3>     nprocs 8
|  4> end
|  5> %method
|  6>     SymThresh 5.0e-2
|  7> end
|  8> % geom
|  9>     MaxIter 10
| 10> end
| 11> % maxcore 2000
| 12> % output
| 13>     printlevel mini
| 14>     print[ P_Basis ] 0
| 15>     print[ P_SCFInfo ] 1
| 16>     print[ P_SCFIterInfo ] 1
| 17>     print[ P_OrbEn ] 0
| 18>     print[ P_Cartesian ] 0
| 19> end
| 20> % elprop
| 21>     Dipole false
| 22> end
| 23> *xyz 1 1
| 24>  C        1.1203942325    -0.7717145227     0.1865969334
| 25>  N        2.5363321824    -0.6863819872     0.6255953348
| 26>  C        3.0839776103     0.7084904504     0.9014460438
| 27>  C        2.4200754413     1.2986791491     2.1247344088
| 28>  C        4.5718600080     0.5870257113     1.0179673735
| 29>  C        5.4038127851     0.3696304972    -0.2204967036
| 30>  C        5.4373691913     1.6850420182     0.4835208492
| 31>  H        0.8834714512    -1.8078210635    -0.0494186201
| 32>  H        0.9930764917    -0.1501015081    -0.6974132309
| 33>  H        0.4738096743    -0.4203264669     0.9862633412
| 34>  H        3.1477744351    -1.0980160021    -0.0833935372
| 35>  H        2.6690759249    -1.2493974867     1.4681345496
| 36>  H        2.8290568496     1.2817534217     0.0049122511
| 37>  H        2.6065766950     0.6867849367     3.0121544035
| 38>  H        1.3446532226     1.4351049290     2.0046951220
| 39>  H        2.8543799287     2.2810150476     2.3112246784
| 40>  H        4.9160371724     0.1100133156     1.9319603444
| 41>  H        6.2660103156    -0.2797097780    -0.1443061485
| 42>  H        4.9047534259     0.3399297901    -1.1843605690
| 43>  H        4.9517740911     2.5264254130     0.0038913268
| 44>  H        6.3211188711     1.9431441353     1.0508218489
| 45> *
| 46>
| 47>                          ****END OF INPUT****
 Total Charge           Charge          ....    1
 Multiplicity           Mult            ....    1
 Number of Electrons    NEL             ....   56
FINAL SINGLE POINT ENERGY      -291.309799169347
FINAL SINGLE POINT ENERGY      -291.309800842025

CARTESIAN COORDINATES (ANGSTROEM)
---------------------------------
  C      1.101520   -0.002160    2.439063
  N      0.000145    0.001052    1.443493
  C      0.380789   -0.311581    0.001723
  C      0.814668   -1.754391   -0.121958
  C     -0.793793    0.044824   -0.855674
  C     -1.109169    1.494070   -1.125520
  C     -0.555244    0.633049   -2.211611
  H      0.706780    0.305061    3.406200
  H      1.868828    0.696943    2.111951
  H      1.516316   -1.003832    2.513015
  H     -0.454193    0.917215    1.427753
  H     -0.722769   -0.662810    1.729151
  H      1.213306    0.365529   -0.212200
  H      0.009589   -2.437867    0.163265
  H      1.703752   -1.985847    0.465567
  H      1.053450   -1.953205   -1.167231
  H     -1.637730   -0.635534   -0.772268
  H     -2.150082    1.785201   -1.175681
  H     -0.451075    2.253899   -0.715111
  H      0.470147    0.804050   -2.516932
  H     -1.214552    0.323495   -3.011152

FINAL SINGLE POINT ENERGY      -291.309801771193
                    ***********************HURRAY********************
 Multiplicity           Mult            ....    1
 Number of Electrons    NEL             ....   56
 Basis Dimension        Dim             ....  301
FINAL SINGLE POINT ENERGY      -291.309802068018

VIBRATIONAL FREQUENCIES
-----------------------

   0:         0.00 cm**-1
   1:         0.00 cm**-1
   2:         0.00 cm**-1
   3:         0.00 cm**-1
   4:         0.00 cm**-1
   5:         0.00 cm**-1
   6:        69.48 cm**-1
   7:       100.82 cm**-1
   8:       169.91 cm**-1
   9:       202.43 cm**-1
  10:       219.53 cm**-1
  11:       276.66 cm**-1
  12:       303.27 cm**-1
  13:       405.40 cm**-1
  14:       448.37 cm**-1
  15:       467.50 cm**-1
  16:       773.30 cm**-1
  17:       807.07 cm**-1
  18:       828.89 cm**-1
  19:       841.45 cm**-1
  20:       857.52 cm**-1
  21:       951.47 cm**-1
  22:       967.74 cm**-1
  23:       994.01 cm**-1
  24:      1033.97 cm**-1
  25:      1043.13 cm**-1
  26:      1065.86 cm**-1
  27:      1076.72 cm**-1
  28:      1103.12 cm**-1
  29:      1134.63 cm**-1
  30:      1150.20 cm**-1
  31:      1199.13 cm**-1
  32:      1212.13 cm**-1
  33:      1237.58 cm**-1
  34:      1243.60 cm**-1
  35:      1308.37 cm**-1
  36:      1339.37 cm**-1
  37:      1390.75 cm**-1
  38:      1410.18 cm**-1
  39:      1421.48 cm**-1
  40:      1440.30 cm**-1
  41:      1456.70 cm**-1
  42:      1464.55 cm**-1
  43:      1482.31 cm**-1
  44:      1488.79 cm**-1
  45:      1494.64 cm**-1
  46:      1501.87 cm**-1
  47:      1512.06 cm**-1
  48:      1647.68 cm**-1
  49:      3058.75 cm**-1
  50:      3081.96 cm**-1
  51:      3095.46 cm**-1
  52:      3140.16 cm**-1
  53:      3141.06 cm**-1
  54:      3151.56 cm**-1
  55:      3157.51 cm**-1
  56:      3162.88 cm**-1
  57:      3188.81 cm**-1
  58:      3204.75 cm**-1
  59:      3236.84 cm**-1
  60:      3255.67 cm**-1
  61:      3431.34 cm**-1
  62:      3483.53 cm**-1

IR SPECTRUM
-----------

 Mode    freq (cm**-1)   T**2         TX         TY         TZ
-------------------------------------------------------------------
   6:        69.48    1.049471  ( -0.312824  -0.914992  -0.338233)
   7:       100.82    2.754470  ( -0.232881  -1.116698   1.205496)
   8:       169.91    2.515799  ( -0.517882   0.301380  -1.468594)
   9:       202.43    0.513547  (  0.334505   0.412501  -0.481141)
  10:       219.53    0.610143  (  0.679189   0.269748   0.275829)
  11:       276.66    0.474107  ( -0.333711   0.394974  -0.454686)
  12:       303.27    3.135555  (  0.327451  -1.502887   0.877303)
  13:       405.40    1.254567  (  0.899003   0.562806   0.360014)
  14:       448.37    5.032767  (  0.167245  -1.162840  -1.911177)
  15:       467.50    0.945584  (  0.116456   0.933559  -0.245947)
  16:       773.30    5.695124  (  0.714227   0.958511   2.065493)
  17:       807.07    7.909384  ( -0.102084   2.483214   1.316288)
  18:       828.89    0.622166  ( -0.520328   0.581792   0.113765)
  19:       841.45    9.387193  ( -0.101281  -1.726975   2.528733)
  20:       857.52   11.587665  (  0.644976  -2.995681  -1.482418)
  21:       951.47    3.652507  (  0.968920  -0.305893  -1.618681)
  22:       967.74   28.304802  ( -0.616410   2.782247  -4.492655)
  23:       994.01    4.377372  (  1.880534  -0.800012  -0.448269)
  24:      1033.97    4.896942  ( -1.408796  -1.372934  -1.013552)
  25:      1043.13    7.684316  ( -0.904029   0.217265  -2.611483)
  26:      1065.86    7.374151  (  0.401386   2.653630  -0.413873)
  27:      1076.72   35.262940  (  0.260559   0.318343   5.923994)
  28:      1103.12    3.781904  ( -0.677697   1.208498   1.364611)
  29:      1134.63    2.339796  ( -0.219924   0.293595   1.485002)
  30:      1150.20    0.218586  ( -0.154472  -0.438912   0.045618)
  31:      1199.13    0.482070  ( -0.332996   0.568168   0.219930)
  32:      1212.13   11.978572  ( -1.145598   1.572666  -2.862324)
  33:      1237.58    2.301600  (  0.852682   0.749233  -1.006570)
  34:      1243.60    5.896118  ( -0.954638   1.259201  -1.843691)
  35:      1308.37    3.290207  (  0.507151   1.154013   1.304323)
  36:      1339.37    6.988816  (  0.804343   1.005259   2.308961)
  37:      1390.75   27.920184  (  0.841239   0.424966   5.199222)
  38:      1410.18   51.290262  ( -1.249584  -0.835863  -7.002152)
  39:      1421.48   10.773579  (  1.273868  -3.022065  -0.134034)
  40:      1440.30   17.802940  (  1.255069  -2.595575   3.080703)
  41:      1456.70    6.781625  (  1.315760  -0.545308   2.180146)
  42:      1464.55    9.793409  ( -0.778748   1.476738   2.646924)
  43:      1482.31    2.182085  (  0.321541   0.977437  -1.059865)
  44:      1488.79   22.296423  (  2.834647   3.650539  -0.966834)
  45:      1494.64   29.290312  (  2.757923  -2.169266  -4.120493)
  46:      1501.87    9.976128  ( -0.309561   1.647810  -2.676756)
  47:      1512.06    4.572586  ( -1.589392  -0.987487   1.035031)
  48:      1647.68   46.389303  ( -6.284429   1.765876   1.943433)
  49:      3058.75    3.408528  ( -0.241666  -0.893716   1.597310)
  50:      3081.96    2.445864  (  0.602769   1.439725  -0.098614)
  51:      3095.46    0.172358  (  0.312397  -0.045985   0.269540)
  52:      3140.16    4.785258  (  2.061468   0.230847   0.694492)
  53:      3141.06    4.989750  ( -0.778323  -1.290148  -1.649085)
  54:      3151.56    3.963782  ( -1.040184  -1.463993   0.859375)
  55:      3157.51    3.343741  (  1.239901  -0.823048   1.062534)
  56:      3162.88    1.468175  ( -1.157021   0.120024   0.339222)
  57:      3188.81    0.038641  (  0.181049  -0.074461   0.017819)
  58:      3204.75    0.117721  ( -0.155767   0.055468  -0.300634)
  59:      3236.84    0.483717  ( -0.463236  -0.221958  -0.468897)
  60:      3255.67    0.154887  ( -0.383969  -0.039504  -0.076775)
  61:      3431.34   34.492422  ( -5.491707   1.962236   0.695129)
  62:      3483.53   60.281898  ( -1.385416  -7.116337   2.778536)

--------------------------
THERMOCHEMISTRY AT 298.15K
--------------------------

Temperature         ... 298.15 K
Pressure            ... 1.00 atm
Total Mass          ... 100.18 AMU

Throughout the following assumptions are being made:
  (1) The electronic state is orbitally nondegenerate
  (2) There are no thermally accessible electronically excited states
  (3) Hindered rotations indicated by low frequency modes) are not
      treated as such but are treated as vibrations and this may
      case some error
  (4) All equations used are the standard statistical mechanics
      equations for an ideal gas
  (5) All vibrations are strinctly harmonic

------------
INNER ENERGY
------------

The inner energy is: U= E(el) + E(ZPE) + E(vib) + E(rot) + E(trans)
    E(el)   - is the total energy from the electronic structure calculation
              = E(kin-el) + E(nuc-el) + E(el-el) + E(nuc-nuc)
    E(ZPE)  - the the zero temperature vibrational energy from the frequency calculation
    E(vib)  - the the finite temperature correction to E(ZPE) due to population
              of excietd vibrational states
    E(rot)  - is the rotational thermal energy
    E(trans)- is the translational thermal energy

Summary of contributions to the inner energy U:
Electronic energy                ...   -291.30980207 Eh
Zero point energy                ...      0.19896206 Eh     124.85 kcal/mol
Thermal vibrational correction   ...      0.00573271 Eh       3.60 kcal/mol
Thermal rotational correction    ...      0.00141627 Eh       0.89 kcal/mol
Thermal translational correction ...      0.00141627 Eh       0.89 kcal/mol
-----------------------------------------------------------------------
Total thermal energy                   -291.10227475 Eh

Summary of corrections to the electronic energy:
(perhaps to be used in another calculation)
Total thermal correction                  0.00856525 Eh       5.37 kcal/mol
Non-thermal (ZPE) correction              0.19896206 Eh     124.85 kcal/mol
-----------------------------------------------------------------------
Total correction                          0.20752732 Eh     130.23 kcal/mol

--------
ENTHALPY
--------

The enthalpy is H = U + kB*T
                kB is Boltzmann's constant
Total free energy                 ...   -291.10227475 Eh
Thermal Enthalpy correction       ...      0.00094421 Eh       0.59 kcal/mol
-----------------------------------------------------------------------
Total Enthalpy                    ...   -291.10133054 Eh

-------
ENTROPY
-------

The entropy contributions are T*S = T*(S(el)+S(vib)+S(rot)+S(trans)
     S(el)   - electronic entropy
     S(vib)  - vibrational entropy
     S(rot)  - rotational entropy
     S(trans)- translational entropy
The entropies will be listed as mutliplied by the temperature to get
units of energy

Electronic entropy                ...      0.00000000 Eh      0.00 kcal/mol
Vibrational entropy               ...      0.01029203 Eh      6.46 kcal/mol
Rotational entropy                ...      0.01221500 Eh      7.67 kcal/mol
Translational entropy             ...      0.01887386 Eh     11.84 kcal/mol
-----------------------------------------------------------------------
Final entropy term                ...      0.04138089 Eh     25.97 kcal/mol

CAUTION: The rotational entropy is not quite correctly treated here
         because it includes a symmetry number that is not yet correctly
         implemented in ORCA!
For a nonlinear molecule the correct rotational entropy is:
    S(rot) = R*(ln(qrot/sn)+1.5)
    R    = 8.31441 J/mol/K = 1.987191683e-3 kcal/mol/K
    qrot = 278105.5195417
    sn is the rotational symmetry number. We have assumed 3 here
       if it is different for your molecule then you should correct
       the printed rotational entropy by manually evaluating the equation
       as given above

For convenience we print out the resulting values for sn=1 - 12:
 sn= 1  qrot/sn=  278105.5195 T*S(rot)=     8.32 kcal/mol T*S(tot)=    26.62 kcal/mol
 sn= 2  qrot/sn=  139052.7598 T*S(rot)=     7.91 kcal/mol T*S(tot)=    26.21 kcal/mol
 sn= 3  qrot/sn=   92701.8398 T*S(rot)=     7.67 kcal/mol T*S(tot)=    25.97 kcal/mol
 sn= 4  qrot/sn=   69526.3799 T*S(rot)=     7.49 kcal/mol T*S(tot)=    25.80 kcal/mol
 sn= 5  qrot/sn=   55621.1039 T*S(rot)=     7.36 kcal/mol T*S(tot)=    25.66 kcal/mol
 sn= 6  qrot/sn=   46350.9199 T*S(rot)=     7.25 kcal/mol T*S(tot)=    25.56 kcal/mol
 sn= 7  qrot/sn=   39729.3599 T*S(rot)=     7.16 kcal/mol T*S(tot)=    25.46 kcal/mol
 sn= 8  qrot/sn=   34763.1899 T*S(rot)=     7.08 kcal/mol T*S(tot)=    25.39 kcal/mol
 sn= 9  qrot/sn=   30900.6133 T*S(rot)=     7.01 kcal/mol T*S(tot)=    25.32 kcal/mol
 sn=10  qrot/sn=   27810.5520 T*S(rot)=     6.95 kcal/mol T*S(tot)=    25.25 kcal/mol
 sn=11  qrot/sn=   25282.3200 T*S(rot)=     6.90 kcal/mol T*S(tot)=    25.20 kcal/mol
 sn=12  qrot/sn=   23175.4600 T*S(rot)=     6.84 kcal/mol T*S(tot)=    25.15 kcal/mol

-------------------
GIBBS FREE ENTHALPY
-------------------

The Gibbs free enthalpy is G = H - T*S

Total enthalpy                    ...   -291.10133054 Eh
Total entropy correction          ...     -0.04138089 Eh    -25.97 kcal/mol
-----------------------------------------------------------------------
Final Gibbs free enthalpy         ...   -291.14271144 Eh

For completeness - the Gibbs free enthalpy minus the electronic energy
G-E(el)                           ...      0.16709063 Eh    104.85 kcal/mol

                             ****ORCA TERMINATED NORMALLY****
TOTAL RUN TIME: 0 days 0 hours 48 minutes 15 seconds 267 msec
