                         Program Version 3.0.3 - RELEASE   -
|  1> ! NORI PBE0 def2-TZVP UseSym TightOPT Freq TightSCF Grid3 FinalGrid5 XYZFile
|  2> % pal
|  3>     nprocs 8
|  4> end
|  5> %method
|  6>     SymThresh 5.0e-2
|  7> end
|  8> % geom
|  9>     MaxIter 10
| 10> end
| 11> % maxcore 2000
| 12> % output
| 13>     printlevel mini
| 14>     print[ P_Basis ] 0
| 15>     print[ P_SCFInfo ] 1
| 16>     print[ P_SCFIterInfo ] 1
| 17>     print[ P_OrbEn ] 0
| 18>     print[ P_Cartesian ] 0
| 19> end
| 20> % elprop
| 21>     Dipole false
| 22> end
| 23> *xyz 1 1
| 24>  C        2.8504827774     1.4098859299    -0.1915098072
| 25>  N        2.4936369823    -0.0133345743     0.0557538282
| 26>  C        1.0365794295    -0.1107181119     0.3386564273
| 27>  C        3.0222535233    -1.0058128231    -1.0165480009
| 28>  C        2.5047497833    -2.3923806040    -0.6614983931
| 29>  C        2.5470070356    -0.5791591443    -2.3930622911
| 30>  C        4.5419035314    -0.9893732117    -0.9258620717
| 31>  H        3.9116626867     1.5006008585    -0.4023872287
| 32>  H        2.6068993709     1.9848357230     0.7003980324
| 33>  H        2.2661294587     1.7793591129    -1.0307783210
| 34>  H        2.9779993935    -0.2945062017     0.9099785765
| 35>  H        0.4809994223     0.1093840187    -0.5699990624
| 36>  H        0.7866094177     0.6250515451     1.1015634611
| 37>  H        0.7916571877    -1.1050586709     0.6983856430
| 38>  H        3.0117788429    -3.1180171793    -1.2973921580
| 39>  H        1.4347266482    -2.5039040621    -0.8393576920
| 40>  H        2.7265954979    -2.6656623421     0.3741863696
| 41>  H        2.8857832492    -1.3267394935    -3.1118703809
| 42>  H        2.9670112320     0.3776517005    -2.7049944193
| 43>  H        1.4586583845    -0.5380300398    -2.4699784380
| 44>  H        4.9354702055    -1.7614163888    -1.5873255327
| 45>  H        4.8952094025    -1.2223923841     0.0832618078
| 46>  H        4.9818165370    -0.0455836570    -1.2472803487
| 47> *
| 48>
| 49>                          ****END OF INPUT****
 Total Charge           Charge          ....    1
 Multiplicity           Mult            ....    1
 Number of Electrons    NEL             ....   58
FINAL SINGLE POINT ENERGY      -292.536667671643
FINAL SINGLE POINT ENERGY      -292.536673083571
FINAL SINGLE POINT ENERGY      -292.536675194235

CARTESIAN COORDINATES (ANGSTROEM)
---------------------------------
  C      1.397822   -0.010466    1.415747
  N     -0.001646    0.001827    0.910379
  C     -0.697637    1.213846    1.420391
  C     -0.137738   -0.237477   -0.619038
  C     -1.614448   -0.133968   -0.972957
  C      0.682793    0.789065   -1.377648
  C      0.352895   -1.652758   -0.893496
  H      1.921168   -0.888326    1.049668
  H      1.369483   -0.031733    2.503950
  H      1.901560    0.894667    1.085246
  H     -0.471640   -0.803760    1.326937
  H     -0.281648    2.094094    0.935955
  H     -0.529642    1.279001    2.494125
  H     -1.762763    1.143154    1.223552
  H     -1.744269   -0.474896   -2.000357
  H     -1.991558    0.887651   -0.924643
  H     -2.236209   -0.776500   -0.342282
  H      0.517068    0.629043   -2.444041
  H      1.754269    0.684738   -1.202268
  H      0.380444    1.815115   -1.161561
  H      0.159619   -1.887618   -1.940406
  H     -0.184048   -2.394974   -0.294824
  H      1.424353   -1.775666   -0.735745

FINAL SINGLE POINT ENERGY      -292.536675584382
                    ***********************HURRAY********************
 Multiplicity           Mult            ....    1
 Number of Electrons    NEL             ....   58
 Basis Dimension        Dim             ....  313
FINAL SINGLE POINT ENERGY      -292.536675802572

VIBRATIONAL FREQUENCIES
-----------------------

   0:         0.00 cm**-1
   1:         0.00 cm**-1
   2:         0.00 cm**-1
   3:         0.00 cm**-1
   4:         0.00 cm**-1
   5:         0.00 cm**-1
   6:        47.34 cm**-1
   7:       180.24 cm**-1
   8:       221.40 cm**-1
   9:       229.22 cm**-1
  10:       268.46 cm**-1
  11:       273.10 cm**-1
  12:       310.26 cm**-1
  13:       322.12 cm**-1
  14:       355.73 cm**-1
  15:       379.05 cm**-1
  16:       409.22 cm**-1
  17:       456.93 cm**-1
  18:       459.84 cm**-1
  19:       525.52 cm**-1
  20:       674.83 cm**-1
  21:       834.19 cm**-1
  22:       921.59 cm**-1
  23:       940.52 cm**-1
  24:       946.51 cm**-1
  25:       966.54 cm**-1
  26:      1014.31 cm**-1
  27:      1032.85 cm**-1
  28:      1047.88 cm**-1
  29:      1048.42 cm**-1
  30:      1152.92 cm**-1
  31:      1163.28 cm**-1
  32:      1199.53 cm**-1
  33:      1249.05 cm**-1
  34:      1287.96 cm**-1
  35:      1290.33 cm**-1
  36:      1401.32 cm**-1
  37:      1409.11 cm**-1
  38:      1414.72 cm**-1
  39:      1420.59 cm**-1
  40:      1436.31 cm**-1
  41:      1437.57 cm**-1
  42:      1463.25 cm**-1
  43:      1466.63 cm**-1
  44:      1470.20 cm**-1
  45:      1472.57 cm**-1
  46:      1481.29 cm**-1
  47:      1493.56 cm**-1
  48:      1502.45 cm**-1
  49:      1506.63 cm**-1
  50:      1507.73 cm**-1
  51:      1512.75 cm**-1
  52:      1523.46 cm**-1
  53:      3055.09 cm**-1
  54:      3059.07 cm**-1
  55:      3070.79 cm**-1
  56:      3099.63 cm**-1
  57:      3103.50 cm**-1
  58:      3136.93 cm**-1
  59:      3140.79 cm**-1
  60:      3148.09 cm**-1
  61:      3151.97 cm**-1
  62:      3156.23 cm**-1
  63:      3160.71 cm**-1
  64:      3188.91 cm**-1
  65:      3191.44 cm**-1
  66:      3215.33 cm**-1
  67:      3215.97 cm**-1
  68:      3453.60 cm**-1

IR SPECTRUM
-----------

 Mode    freq (cm**-1)   T**2         TX         TY         TZ
-------------------------------------------------------------------
   6:        47.34    0.113181  ( -0.308792   0.125553  -0.045443)
   7:       180.24    0.003458  ( -0.040639  -0.035134  -0.023928)
   8:       221.40    0.019976  (  0.057487  -0.128017   0.016803)
   9:       229.22    0.091531  (  0.177125   0.086920   0.229351)
  10:       268.46    0.284056  ( -0.484956   0.213727  -0.056525)
  11:       273.10    0.252297  (  0.144221   0.415636   0.242372)
  12:       310.26    0.052379  (  0.197420  -0.096642  -0.063757)
  13:       322.12    0.217344  ( -0.085355   0.354995   0.289891)
  14:       355.73    0.521415  ( -0.641134   0.332106  -0.008280)
  15:       379.05    0.612055  (  0.084571   0.123463   0.767893)
  16:       409.22    0.721157  ( -0.230528  -0.168761  -0.799709)
  17:       456.93    1.146100  ( -0.132707   0.001707  -1.062302)
  18:       459.84    1.267255  ( -0.958791   0.560358   0.184321)
  19:       525.52    0.108693  (  0.186352   0.139398  -0.233525)
  20:       674.83    7.874625  (  0.269881   0.530239   2.742378)
  21:       834.19    2.213755  ( -0.005622   0.012192   1.487809)
  22:       921.59   23.218854  (  1.231135   2.117096   4.149827)
  23:       940.52    0.931003  (  0.326914  -0.767716  -0.484502)
  24:       946.51    4.843845  (  0.943352   1.340521   1.468651)
  25:       966.54    0.123039  ( -0.178286   0.176560   0.245111)
  26:      1014.31   13.468738  ( -3.158699   1.862563  -0.149063)
  27:      1032.85    2.132042  (  0.299565   0.055968  -1.427995)
  28:      1047.88    0.609690  ( -0.646011   0.436563   0.042100)
  29:      1048.42    1.738960  (  1.133644  -0.673595  -0.009005)
  30:      1152.92   24.934685  (  0.489400   0.871813   4.892353)
  31:      1163.28    1.400291  ( -0.983540   0.535426   0.382438)
  32:      1199.53   36.526255  ( -1.149232  -1.807680  -5.651355)
  33:      1249.05    0.125494  ( -0.105489   0.040290  -0.335772)
  34:      1287.96    3.905356  (  1.253797  -1.446527   0.490825)
  35:      1290.33    2.855795  (  1.331282   0.472785  -0.927338)
  36:      1401.32   17.138520  (  0.125952  -0.707574  -4.077008)
  37:      1409.11   20.258216  ( -3.315352   3.040122  -0.155946)
  38:      1414.72   33.269700  (  3.685748   4.361605   0.813240)
  39:      1420.59    3.560582  ( -1.740326   0.692337   0.229163)
  40:      1436.31   10.430366  (  2.439699  -1.685495   1.279585)
  41:      1437.57   15.645928  (  0.181396  -0.994357  -3.824170)
  42:      1463.25    0.300749  (  0.244946   0.406008  -0.275513)
  43:      1466.63    6.795203  ( -2.572452  -0.402513   0.125211)
  44:      1470.20    3.473987  ( -0.025677  -1.763057  -0.604118)
  45:      1472.57    8.057072  (  0.972171  -2.102949  -1.639987)
  46:      1481.29    2.454305  (  1.483463  -0.353493   0.358727)
  47:      1493.56    6.389049  ( -1.872116   1.679652  -0.250996)
  48:      1502.45   23.254242  (  3.465302   3.331668  -0.381992)
  49:      1506.63   19.909202  (  2.543459  -3.410495  -1.344821)
  50:      1507.73    2.509055  (  1.100589   0.807306  -0.803752)
  51:      1512.75   55.309034  ( -0.338985   1.473893  -7.281604)
  52:      1523.46    1.302825  (  0.341236  -0.361910  -1.027329)
  53:      3055.09    2.140702  (  1.052078  -0.989725   0.232975)
  54:      3059.07    7.871003  (  1.205008   1.345640  -2.146675)
  55:      3070.79    2.630963  ( -0.678810  -1.125646  -0.950317)
  56:      3099.63    0.201529  (  0.347913  -0.283606  -0.007324)
  57:      3103.50    0.814233  ( -0.105901  -0.286062  -0.849227)
  58:      3136.93    1.080782  ( -0.829373   0.571760  -0.256928)
  59:      3140.79   10.148567  (  1.889201   2.246288  -1.238418)
  60:      3148.09    2.090539  (  0.401235  -1.237221  -0.631534)
  61:      3151.97    2.378162  (  1.400168  -0.638378   0.100825)
  62:      3156.23   10.754928  ( -2.631759   1.956007  -0.053036)
  63:      3160.71    3.769138  ( -1.038846  -0.970534  -1.322120)
  64:      3188.91    0.195010  (  0.354049  -0.263634   0.012492)
  65:      3191.44    0.253032  ( -0.152168  -0.223840   0.423997)
  66:      3215.33    0.210258  (  0.420744  -0.155746  -0.094742)
  67:      3215.97    0.415990  (  0.564537  -0.146607   0.275308)
  68:      3453.60   33.149106  ( -2.493890  -4.558333   2.480165)

--------------------------
THERMOCHEMISTRY AT 298.15K
--------------------------

Temperature         ... 298.15 K
Pressure            ... 1.00 atm
Total Mass          ... 102.20 AMU

Throughout the following assumptions are being made:
  (1) The electronic state is orbitally nondegenerate
  (2) There are no thermally accessible electronically excited states
  (3) Hindered rotations indicated by low frequency modes) are not
      treated as such but are treated as vibrations and this may
      case some error
  (4) All equations used are the standard statistical mechanics
      equations for an ideal gas
  (5) All vibrations are strinctly harmonic

------------
INNER ENERGY
------------

The inner energy is: U= E(el) + E(ZPE) + E(vib) + E(rot) + E(trans)
    E(el)   - is the total energy from the electronic structure calculation
              = E(kin-el) + E(nuc-el) + E(el-el) + E(nuc-nuc)
    E(ZPE)  - the the zero temperature vibrational energy from the frequency calculation
    E(vib)  - the the finite temperature correction to E(ZPE) due to population
              of excietd vibrational states
    E(rot)  - is the rotational thermal energy
    E(trans)- is the translational thermal energy

Summary of contributions to the inner energy U:
Electronic energy                ...   -292.53667580 Eh
Zero point energy                ...      0.22024715 Eh     138.21 kcal/mol
Thermal vibrational correction   ...      0.00659434 Eh       4.14 kcal/mol
Thermal rotational correction    ...      0.00141627 Eh       0.89 kcal/mol
Thermal translational correction ...      0.00141627 Eh       0.89 kcal/mol
-----------------------------------------------------------------------
Total thermal energy                   -292.30700177 Eh

Summary of corrections to the electronic energy:
(perhaps to be used in another calculation)
Total thermal correction                  0.00942688 Eh       5.92 kcal/mol
Non-thermal (ZPE) correction              0.22024715 Eh     138.21 kcal/mol
-----------------------------------------------------------------------
Total correction                          0.22967403 Eh     144.12 kcal/mol

--------
ENTHALPY
--------

The enthalpy is H = U + kB*T
                kB is Boltzmann's constant
Total free energy                 ...   -292.30700177 Eh
Thermal Enthalpy correction       ...      0.00094421 Eh       0.59 kcal/mol
-----------------------------------------------------------------------
Total Enthalpy                    ...   -292.30605756 Eh

-------
ENTROPY
-------

The entropy contributions are T*S = T*(S(el)+S(vib)+S(rot)+S(trans)
     S(el)   - electronic entropy
     S(vib)  - vibrational entropy
     S(rot)  - rotational entropy
     S(trans)- translational entropy
The entropies will be listed as mutliplied by the temperature to get
units of energy

Electronic entropy                ...      0.00000000 Eh      0.00 kcal/mol
Vibrational entropy               ...      0.01138293 Eh      7.14 kcal/mol
Rotational entropy                ...      0.01208812 Eh      7.59 kcal/mol
Translational entropy             ...      0.01890208 Eh     11.86 kcal/mol
-----------------------------------------------------------------------
Final entropy term                ...      0.04237313 Eh     26.59 kcal/mol

CAUTION: The rotational entropy is not quite correctly treated here
         because it includes a symmetry number that is not yet correctly
         implemented in ORCA!
For a nonlinear molecule the correct rotational entropy is:
    S(rot) = R*(ln(qrot/sn)+1.5)
    R    = 8.31441 J/mol/K = 1.987191683e-3 kcal/mol/K
    qrot = 243134.9980364
    sn is the rotational symmetry number. We have assumed 3 here
       if it is different for your molecule then you should correct
       the printed rotational entropy by manually evaluating the equation
       as given above

For convenience we print out the resulting values for sn=1 - 12:
 sn= 1  qrot/sn=  243134.9980 T*S(rot)=     8.24 kcal/mol T*S(tot)=    27.24 kcal/mol
 sn= 2  qrot/sn=  121567.4990 T*S(rot)=     7.83 kcal/mol T*S(tot)=    26.83 kcal/mol
 sn= 3  qrot/sn=   81044.9993 T*S(rot)=     7.59 kcal/mol T*S(tot)=    26.59 kcal/mol
 sn= 4  qrot/sn=   60783.7495 T*S(rot)=     7.41 kcal/mol T*S(tot)=    26.42 kcal/mol
 sn= 5  qrot/sn=   48626.9996 T*S(rot)=     7.28 kcal/mol T*S(tot)=    26.29 kcal/mol
 sn= 6  qrot/sn=   40522.4997 T*S(rot)=     7.17 kcal/mol T*S(tot)=    26.18 kcal/mol
 sn= 7  qrot/sn=   34733.5711 T*S(rot)=     7.08 kcal/mol T*S(tot)=    26.09 kcal/mol
 sn= 8  qrot/sn=   30391.8748 T*S(rot)=     7.00 kcal/mol T*S(tot)=    26.01 kcal/mol
 sn= 9  qrot/sn=   27014.9998 T*S(rot)=     6.93 kcal/mol T*S(tot)=    25.94 kcal/mol
 sn=10  qrot/sn=   24313.4998 T*S(rot)=     6.87 kcal/mol T*S(tot)=    25.88 kcal/mol
 sn=11  qrot/sn=   22103.1816 T*S(rot)=     6.82 kcal/mol T*S(tot)=    25.82 kcal/mol
 sn=12  qrot/sn=   20261.2498 T*S(rot)=     6.76 kcal/mol T*S(tot)=    25.77 kcal/mol

-------------------
GIBBS FREE ENTHALPY
-------------------

The Gibbs free enthalpy is G = H - T*S

Total enthalpy                    ...   -292.30605756 Eh
Total entropy correction          ...     -0.04237313 Eh    -26.59 kcal/mol
-----------------------------------------------------------------------
Final Gibbs free enthalpy         ...   -292.34843069 Eh

For completeness - the Gibbs free enthalpy minus the electronic energy
G-E(el)                           ...      0.18824511 Eh    118.13 kcal/mol

                             ****ORCA TERMINATED NORMALLY****
TOTAL RUN TIME: 0 days 1 hours 8 minutes 35 seconds 444 msec
