                         Program Version 3.0.3 - RELEASE   -
|  1> ! NORI PBE0 def2-TZVP UseSym TightOPT Freq TightSCF Grid3 FinalGrid5 XYZFile
|  2> % pal
|  3>     nprocs 8
|  4> end
|  5> %method
|  6>     SymThresh 5.0e-2
|  7> end
|  8> % geom
|  9>     MaxIter 10
| 10> end
| 11> % maxcore 2000
| 12> % output
| 13>     printlevel mini
| 14>     print[ P_Basis ] 0
| 15>     print[ P_SCFInfo ] 1
| 16>     print[ P_SCFIterInfo ] 1
| 17>     print[ P_OrbEn ] 0
| 18>     print[ P_Cartesian ] 0
| 19> end
| 20> % elprop
| 21>     Dipole false
| 22> end
| 23> *xyz 1 1
| 24>  C        1.6784955010     0.6715967624    -0.3611009850
| 25>  N        3.1564838399     0.6246512150    -0.4991671960
| 26>  C        3.7718747110     1.9558942686    -0.2637902922
| 27>  C        3.7594685875    -0.4443237490     0.3824977435
| 28>  C        5.2121214190    -0.6674777180     0.1006607780
| 29>  C        5.5672455794    -1.1420079437    -1.2747319180
| 30>  C        6.1010259095    -0.5041780607     1.0744472508
| 31>  H        1.2793204816     1.4286786555    -1.0335945776
| 32>  H        1.4346309471     0.9263490287     0.6690937604
| 33>  H        1.2652179912    -0.3043619338    -0.6091883440
| 34>  H        3.3687390577     0.3569064882    -1.4619142584
| 35>  H        3.5259048090     2.2734341398     0.7484932756
| 36>  H        3.3695547843     2.6654108635    -0.9844715870
| 37>  H        4.8513236569     1.8714178854    -0.3706962363
| 38>  H        3.1757757698    -1.3489714687     0.1872455471
| 39>  H        3.5838212213    -0.1308221684     1.4120494134
| 40>  H        5.0044275648    -2.0418462235    -1.5425049342
| 41>  H        6.6285267812    -1.3764370346    -1.3438400065
| 42>  H        5.3647438922    -0.3904862313    -2.0491929985
| 43>  H        7.1523456553    -0.7170291705     0.9187477015
| 44>  H        5.8107818402    -0.1759076050     2.0665778635
| 45> *
| 46>
| 47>                          ****END OF INPUT****
 Total Charge           Charge          ....    1
 Multiplicity           Mult            ....    1
 Number of Electrons    NEL             ....   56
FINAL SINGLE POINT ENERGY      -291.305926415782
FINAL SINGLE POINT ENERGY      -291.305931422589
FINAL SINGLE POINT ENERGY      -291.305935757320

CARTESIAN COORDINATES (ANGSTROEM)
---------------------------------
  C      0.837933   -0.013448    2.380809
  N     -0.005557    0.006642    1.158136
  C     -0.964744    1.141537    1.175306
  C      0.836929   -0.003920   -0.097089
  C      0.021842   -0.239529   -1.330241
  C     -0.696547   -1.550435   -1.422280
  C      0.019780    0.669732   -2.299069
  H      0.194894   -0.035233    3.259061
  H      1.450458    0.886825    2.393094
  H      1.475172   -0.895858    2.361962
  H     -0.552686   -0.856127    1.145190
  H     -0.396205    2.069058    1.227113
  H     -1.607241    1.049513    2.049287
  H     -1.555190    1.122039    0.261772
  H      1.570177   -0.802476    0.047878
  H      1.360164    0.952350   -0.124610
  H     -0.008163   -2.390963   -1.285737
  H     -1.178202   -1.664473   -2.392391
  H     -1.488490   -1.654597   -0.669189
  H     -0.511888    0.500879   -3.228187
  H      0.565495    1.602731   -2.210712

FINAL SINGLE POINT ENERGY      -291.305936566332
                    ***********************HURRAY********************
 Multiplicity           Mult            ....    1
 Number of Electrons    NEL             ....   56
 Basis Dimension        Dim             ....  301
FINAL SINGLE POINT ENERGY      -291.305937183344

VIBRATIONAL FREQUENCIES
-----------------------

   0:         0.00 cm**-1
   1:         0.00 cm**-1
   2:         0.00 cm**-1
   3:         0.00 cm**-1
   4:         0.00 cm**-1
   5:         0.00 cm**-1
   6:        55.37 cm**-1
   7:        89.07 cm**-1
   8:       173.14 cm**-1
   9:       179.42 cm**-1
  10:       208.62 cm**-1
  11:       246.61 cm**-1
  12:       331.29 cm**-1
  13:       385.84 cm**-1
  14:       393.75 cm**-1
  15:       436.60 cm**-1
  16:       461.86 cm**-1
  17:       542.37 cm**-1
  18:       718.06 cm**-1
  19:       847.47 cm**-1
  20:       856.59 cm**-1
  21:       943.73 cm**-1
  22:       955.81 cm**-1
  23:       995.60 cm**-1
  24:       997.65 cm**-1
  25:      1024.21 cm**-1
  26:      1037.33 cm**-1
  27:      1052.67 cm**-1
  28:      1066.80 cm**-1
  29:      1155.36 cm**-1
  30:      1179.88 cm**-1
  31:      1250.08 cm**-1
  32:      1303.68 cm**-1
  33:      1312.48 cm**-1
  34:      1375.34 cm**-1
  35:      1403.73 cm**-1
  36:      1422.20 cm**-1
  37:      1425.02 cm**-1
  38:      1442.82 cm**-1
  39:      1449.36 cm**-1
  40:      1464.03 cm**-1
  41:      1473.83 cm**-1
  42:      1476.57 cm**-1
  43:      1484.19 cm**-1
  44:      1486.54 cm**-1
  45:      1492.88 cm**-1
  46:      1499.13 cm**-1
  47:      1505.73 cm**-1
  48:      1736.06 cm**-1
  49:      3021.62 cm**-1
  50:      3074.01 cm**-1
  51:      3083.55 cm**-1
  52:      3086.57 cm**-1
  53:      3089.07 cm**-1
  54:      3146.43 cm**-1
  55:      3157.31 cm**-1
  56:      3164.04 cm**-1
  57:      3185.40 cm**-1
  58:      3187.11 cm**-1
  59:      3188.84 cm**-1
  60:      3194.51 cm**-1
  61:      3254.15 cm**-1
  62:      3454.24 cm**-1

IR SPECTRUM
-----------

 Mode    freq (cm**-1)   T**2         TX         TY         TZ
-------------------------------------------------------------------
   6:        55.37    0.549593  ( -0.358317   0.609815  -0.222098)
   7:        89.07    0.289118  (  0.142057  -0.001339   0.518590)
   8:       173.14    1.787272  (  0.250788   0.325155   1.272263)
   9:       179.42    1.118549  (  0.389232  -0.343384  -0.921485)
  10:       208.62    0.109221  (  0.168685  -0.207733  -0.193942)
  11:       246.61    0.212921  (  0.188359   0.280845   0.313955)
  12:       331.29    1.903859  ( -0.920537  -0.143085  -1.017840)
  13:       385.84    3.048778  ( -1.463820   0.943716   0.124141)
  14:       393.75    0.874634  ( -0.643800   0.674166  -0.075202)
  15:       436.60    1.027978  (  0.162766   0.591970   0.806881)
  16:       461.86    3.134147  ( -0.968447   0.904226   1.174153)
  17:       542.37    6.850508  (  1.819853  -0.556130  -1.797043)
  18:       718.06    0.407547  (  0.280846   0.247079  -0.517324)
  19:       847.47    2.946253  ( -0.612408   0.183744   1.592937)
  20:       856.59    6.651724  ( -1.055078  -0.655959   2.260145)
  21:       943.73   20.945334  ( -1.104067   1.465364   4.192741)
  22:       955.81   23.413607  (  0.701897  -0.775274  -4.724394)
  23:       995.60   34.463271  ( -4.294669   2.376743   3.220276)
  24:       997.65    8.288548  ( -2.458952   1.366769  -0.611593)
  25:      1024.21   18.431662  (  3.066396  -2.082817   2.165814)
  26:      1037.33    0.731306  (  0.735848   0.435627  -0.007909)
  27:      1052.67    2.449299  (  0.564615  -0.360924   1.414299)
  28:      1066.80    0.034278  (  0.047612   0.075031   0.162424)
  29:      1155.36    8.260607  (  1.219402   0.217371  -2.593533)
  30:      1179.88    5.201697  (  1.320252  -0.634518   1.748147)
  31:      1250.08    0.176286  ( -0.074073   0.309154  -0.274268)
  32:      1303.68    0.910227  (  0.088975  -0.382636  -0.869425)
  33:      1312.48    3.724965  (  0.268058  -1.231945   1.461308)
  34:      1375.34    2.098531  (  0.474061   1.008804   0.925263)
  35:      1403.73   28.450006  (  1.348747   2.236351   4.650766)
  36:      1422.20   16.770286  ( -0.669438  -2.063753   3.473192)
  37:      1425.02    1.519826  (  0.793299  -0.943650   0.005233)
  38:      1442.82   10.355868  ( -2.606202   1.826234  -0.477965)
  39:      1449.36    3.194814  ( -0.261036   0.809787  -1.571916)
  40:      1464.03    0.968222  (  0.326610   0.023069   0.927910)
  41:      1473.83   13.745353  ( -1.734506   2.581009   2.018720)
  42:      1476.57    7.647257  ( -0.944207  -0.039216   2.598883)
  43:      1484.19   22.564805  ( -3.085120   1.977870  -3.022395)
  44:      1486.54   20.341674  (  0.253584  -0.741938   4.441497)
  45:      1492.88   21.311052  ( -4.133530  -0.616263  -1.960919)
  46:      1499.13   19.764426  ( -0.617800  -4.306271  -0.915849)
  47:      1505.73   46.879399  ( -5.194694  -1.565515   4.176568)
  48:      1736.06    5.283361  ( -0.510696  -2.241071  -0.012312)
  49:      3021.62   18.902517  (  1.868875   1.411618  -3.662944)
  50:      3074.01    3.723644  ( -1.123242   0.430294  -1.508913)
  51:      3083.55    7.633379  (  1.962708  -1.463822  -1.279993)
  52:      3086.57    0.426773  (  0.519109  -0.334184   0.213588)
  53:      3089.07    0.630571  ( -0.182687  -0.157628  -0.756538)
  54:      3146.43    1.470005  ( -0.329567  -1.071808  -0.461106)
  55:      3157.31    1.352114  ( -0.462115   0.068704  -1.064821)
  56:      3164.04    0.456914  (  0.377534   0.394842   0.398097)
  57:      3185.40    0.105857  (  0.284868  -0.152970  -0.036157)
  58:      3187.11    0.145582  ( -0.110927  -0.064028   0.359412)
  59:      3188.84    0.081008  ( -0.131263   0.180418   0.176714)
  60:      3194.51    0.283304  (  0.212008  -0.178996  -0.454222)
  61:      3254.15    0.739994  (  0.386673   0.740063   0.206846)
  62:      3454.24   48.933022  (  3.560918   5.924396   1.074435)

--------------------------
THERMOCHEMISTRY AT 298.15K
--------------------------

Temperature         ... 298.15 K
Pressure            ... 1.00 atm
Total Mass          ... 100.18 AMU

Throughout the following assumptions are being made:
  (1) The electronic state is orbitally nondegenerate
  (2) There are no thermally accessible electronically excited states
  (3) Hindered rotations indicated by low frequency modes) are not
      treated as such but are treated as vibrations and this may
      case some error
  (4) All equations used are the standard statistical mechanics
      equations for an ideal gas
  (5) All vibrations are strinctly harmonic

------------
INNER ENERGY
------------

The inner energy is: U= E(el) + E(ZPE) + E(vib) + E(rot) + E(trans)
    E(el)   - is the total energy from the electronic structure calculation
              = E(kin-el) + E(nuc-el) + E(el-el) + E(nuc-nuc)
    E(ZPE)  - the the zero temperature vibrational energy from the frequency calculation
    E(vib)  - the the finite temperature correction to E(ZPE) due to population
              of excietd vibrational states
    E(rot)  - is the rotational thermal energy
    E(trans)- is the translational thermal energy

Summary of contributions to the inner energy U:
Electronic energy                ...   -291.30593718 Eh
Zero point energy                ...      0.19734772 Eh     123.84 kcal/mol
Thermal vibrational correction   ...      0.00624275 Eh       3.92 kcal/mol
Thermal rotational correction    ...      0.00141627 Eh       0.89 kcal/mol
Thermal translational correction ...      0.00141627 Eh       0.89 kcal/mol
-----------------------------------------------------------------------
Total thermal energy                   -291.09951417 Eh

Summary of corrections to the electronic energy:
(perhaps to be used in another calculation)
Total thermal correction                  0.00907530 Eh       5.69 kcal/mol
Non-thermal (ZPE) correction              0.19734772 Eh     123.84 kcal/mol
-----------------------------------------------------------------------
Total correction                          0.20642301 Eh     129.53 kcal/mol

--------
ENTHALPY
--------

The enthalpy is H = U + kB*T
                kB is Boltzmann's constant
Total free energy                 ...   -291.09951417 Eh
Thermal Enthalpy correction       ...      0.00094421 Eh       0.59 kcal/mol
-----------------------------------------------------------------------
Total Enthalpy                    ...   -291.09856996 Eh

-------
ENTROPY
-------

The entropy contributions are T*S = T*(S(el)+S(vib)+S(rot)+S(trans)
     S(el)   - electronic entropy
     S(vib)  - vibrational entropy
     S(rot)  - rotational entropy
     S(trans)- translational entropy
The entropies will be listed as mutliplied by the temperature to get
units of energy

Electronic entropy                ...      0.00000000 Eh      0.00 kcal/mol
Vibrational entropy               ...      0.01140148 Eh      7.15 kcal/mol
Rotational entropy                ...      0.01221182 Eh      7.66 kcal/mol
Translational entropy             ...      0.01887386 Eh     11.84 kcal/mol
-----------------------------------------------------------------------
Final entropy term                ...      0.04248716 Eh     26.66 kcal/mol

CAUTION: The rotational entropy is not quite correctly treated here
         because it includes a symmetry number that is not yet correctly
         implemented in ORCA!
For a nonlinear molecule the correct rotational entropy is:
    S(rot) = R*(ln(qrot/sn)+1.5)
    R    = 8.31441 J/mol/K = 1.987191683e-3 kcal/mol/K
    qrot = 277169.1092105
    sn is the rotational symmetry number. We have assumed 3 here
       if it is different for your molecule then you should correct
       the printed rotational entropy by manually evaluating the equation
       as given above

For convenience we print out the resulting values for sn=1 - 12:
 sn= 1  qrot/sn=  277169.1092 T*S(rot)=     8.31 kcal/mol T*S(tot)=    27.31 kcal/mol
 sn= 2  qrot/sn=  138584.5546 T*S(rot)=     7.90 kcal/mol T*S(tot)=    26.90 kcal/mol
 sn= 3  qrot/sn=   92389.7031 T*S(rot)=     7.66 kcal/mol T*S(tot)=    26.66 kcal/mol
 sn= 4  qrot/sn=   69292.2773 T*S(rot)=     7.49 kcal/mol T*S(tot)=    26.49 kcal/mol
 sn= 5  qrot/sn=   55433.8218 T*S(rot)=     7.36 kcal/mol T*S(tot)=    26.36 kcal/mol
 sn= 6  qrot/sn=   46194.8515 T*S(rot)=     7.25 kcal/mol T*S(tot)=    26.25 kcal/mol
 sn= 7  qrot/sn=   39595.5870 T*S(rot)=     7.16 kcal/mol T*S(tot)=    26.16 kcal/mol
 sn= 8  qrot/sn=   34646.1387 T*S(rot)=     7.08 kcal/mol T*S(tot)=    26.08 kcal/mol
 sn= 9  qrot/sn=   30796.5677 T*S(rot)=     7.01 kcal/mol T*S(tot)=    26.01 kcal/mol
 sn=10  qrot/sn=   27716.9109 T*S(rot)=     6.95 kcal/mol T*S(tot)=    25.95 kcal/mol
 sn=11  qrot/sn=   25197.1917 T*S(rot)=     6.89 kcal/mol T*S(tot)=    25.89 kcal/mol
 sn=12  qrot/sn=   23097.4258 T*S(rot)=     6.84 kcal/mol T*S(tot)=    25.84 kcal/mol

-------------------
GIBBS FREE ENTHALPY
-------------------

The Gibbs free enthalpy is G = H - T*S

Total enthalpy                    ...   -291.09856996 Eh
Total entropy correction          ...     -0.04248716 Eh    -26.66 kcal/mol
-----------------------------------------------------------------------
Final Gibbs free enthalpy         ...   -291.14105712 Eh

For completeness - the Gibbs free enthalpy minus the electronic energy
G-E(el)                           ...      0.16488006 Eh    103.46 kcal/mol

                             ****ORCA TERMINATED NORMALLY****
TOTAL RUN TIME: 0 days 0 hours 50 minutes 32 seconds 683 msec
