                         Program Version 3.0.3 - RELEASE   -
|  1> ! NORI PBE0 def2-TZVP UseSym TightOPT Freq TightSCF Grid3 FinalGrid5 XYZFile
|  2> % pal
|  3>     nprocs 8
|  4> end
|  5> %method
|  6>     SymThresh 5.0e-2
|  7> end
|  8> % geom
|  9>     MaxIter 10
| 10> end
| 11> % maxcore 2000
| 12> % output
| 13>     printlevel mini
| 14>     print[ P_Basis ] 0
| 15>     print[ P_SCFInfo ] 1
| 16>     print[ P_SCFIterInfo ] 1
| 17>     print[ P_OrbEn ] 0
| 18>     print[ P_Cartesian ] 0
| 19> end
| 20> % elprop
| 21>     Dipole false
| 22> end
| 23> *xyz 1 1
| 24>  C        1.0358960308     0.1482015982     0.1049199746
| 25>  N        2.5222948891     0.1122649395     0.1422041153
| 26>  C        3.0393434619     0.7803920874     1.3660855579
| 27>  C        3.0345601484    -1.2938329943    -0.0225064281
| 28>  C        4.5291129225    -1.3701073135    -0.2793172261
| 29>  C        4.9370045773    -2.7979986869    -0.4855089287
| 30>  C        5.4259584630    -3.2715864903    -1.6207565756
| 31>  H        0.6907586262    -0.2870761819    -0.8310422405
| 32>  H        0.7005550072     1.1807833605     0.1841337781
| 33>  H        0.6559597269    -0.4306845025     0.9454160853
| 34>  H        2.8625483689     0.6433785273    -0.6618809843
| 35>  H        2.7070628093     0.2113337164     2.2333486440
| 36>  H        2.6404885852     1.7918073701     1.4112960079
| 37>  H        4.1251924792     0.8132978290     1.3333186699
| 38>  H        2.7464590074    -1.8336099791     0.8825236412
| 39>  H        2.4863280820    -1.7225746419    -0.8630332211
| 40>  H        4.7875665792    -0.7848959309    -1.1688829182
| 41>  H        5.0873599050    -0.9555655322     0.5665751495
| 42>  H        4.8191090280    -3.4586904739     0.3704979272
| 43>  H        5.5711508639    -2.6388574474    -2.4909377738
| 44>  H        5.7155804385    -4.3105492535    -1.7182432545
| 45> *
| 46>
| 47>                          ****END OF INPUT****
 Total Charge           Charge          ....    1
 Multiplicity           Mult            ....    1
 Number of Electrons    NEL             ....   56
FINAL SINGLE POINT ENERGY      -291.299178001379
FINAL SINGLE POINT ENERGY      -291.299180430828
FINAL SINGLE POINT ENERGY      -291.299182028794

CARTESIAN COORDINATES (ANGSTROEM)
---------------------------------
  C      1.149312   -0.007831    2.435707
  N     -0.002147    0.002546    1.493872
  C     -0.999320    1.034728    1.883996
  C      0.464549    0.142888    0.069280
  C     -0.620154   -0.141446   -0.954763
  C     -0.053451   -0.041352   -2.339350
  C      0.040597   -1.061893   -3.176959
  H      1.824699   -0.817093    2.164651
  H      0.781015   -0.150938    3.450177
  H      1.665754    0.947773    2.360216
  H     -0.462281   -0.907226    1.562995
  H     -0.533217    2.014527    1.790515
  H     -1.298338    0.863563    2.916729
  H     -1.867573    0.969672    1.233827
  H      0.863191    1.155299   -0.024302
  H      1.289605   -0.560495   -0.053471
  H     -1.027342   -1.146534   -0.799772
  H     -1.444202    0.571735   -0.851648
  H      0.284900    0.944734   -2.649255
  H     -0.299960   -2.057439   -2.909404
  H      0.450516   -0.936314   -4.171559

FINAL SINGLE POINT ENERGY      -291.299182773037
                    ***********************HURRAY********************
 Multiplicity           Mult            ....    1
 Number of Electrons    NEL             ....   56
 Basis Dimension        Dim             ....  301
FINAL SINGLE POINT ENERGY      -291.299183130611

VIBRATIONAL FREQUENCIES
-----------------------

   0:         0.00 cm**-1
   1:         0.00 cm**-1
   2:         0.00 cm**-1
   3:         0.00 cm**-1
   4:         0.00 cm**-1
   5:         0.00 cm**-1
   6:        45.68 cm**-1
   7:        76.09 cm**-1
   8:       105.61 cm**-1
   9:       178.95 cm**-1
  10:       213.86 cm**-1
  11:       249.01 cm**-1
  12:       307.99 cm**-1
  13:       377.05 cm**-1
  14:       420.79 cm**-1
  15:       442.67 cm**-1
  16:       477.90 cm**-1
  17:       655.10 cm**-1
  18:       781.38 cm**-1
  19:       855.52 cm**-1
  20:       948.14 cm**-1
  21:       960.92 cm**-1
  22:       996.05 cm**-1
  23:       998.25 cm**-1
  24:      1025.25 cm**-1
  25:      1032.97 cm**-1
  26:      1049.93 cm**-1
  27:      1071.37 cm**-1
  28:      1102.00 cm**-1
  29:      1177.30 cm**-1
  30:      1207.89 cm**-1
  31:      1251.25 cm**-1
  32:      1282.41 cm**-1
  33:      1309.01 cm**-1
  34:      1330.47 cm**-1
  35:      1340.69 cm**-1
  36:      1393.84 cm**-1
  37:      1419.18 cm**-1
  38:      1429.59 cm**-1
  39:      1443.04 cm**-1
  40:      1454.85 cm**-1
  41:      1466.97 cm**-1
  42:      1472.24 cm**-1
  43:      1481.11 cm**-1
  44:      1486.92 cm**-1
  45:      1498.10 cm**-1
  46:      1500.96 cm**-1
  47:      1509.78 cm**-1
  48:      1728.96 cm**-1
  49:      3042.72 cm**-1
  50:      3086.37 cm**-1
  51:      3089.12 cm**-1
  52:      3090.03 cm**-1
  53:      3094.15 cm**-1
  54:      3148.32 cm**-1
  55:      3157.38 cm**-1
  56:      3164.63 cm**-1
  57:      3185.91 cm**-1
  58:      3188.41 cm**-1
  59:      3190.89 cm**-1
  60:      3203.58 cm**-1
  61:      3253.12 cm**-1
  62:      3453.22 cm**-1

IR SPECTRUM
-----------

 Mode    freq (cm**-1)   T**2         TX         TY         TZ
-------------------------------------------------------------------
   6:        45.68    0.180283  ( -0.123571   0.387975  -0.120366)
   7:        76.09    0.408420  ( -0.159376   0.085427   0.612961)
   8:       105.61    0.493751  (  0.334970  -0.613517   0.071720)
   9:       178.95    0.407438  (  0.348719  -0.063718  -0.530823)
  10:       213.86    0.374137  ( -0.439880   0.372632   0.204420)
  11:       249.01    0.127517  ( -0.209425   0.005717  -0.289181)
  12:       307.99    1.609286  (  0.439983  -0.194053  -1.173901)
  13:       377.05    1.516129  (  1.169244  -0.299662   0.243309)
  14:       420.79    0.401429  (  0.156551  -0.461431  -0.404973)
  15:       442.67    0.442304  ( -0.170086  -0.281844   0.577874)
  16:       477.90    0.636597  (  0.494339  -0.574892  -0.248445)
  17:       655.10   15.334607  ( -3.401618   0.827432  -1.754695)
  18:       781.38    4.527214  ( -0.327132   1.814637   1.061739)
  19:       855.52    3.083019  (  0.434798  -0.818362   1.491393)
  20:       948.14    5.232666  (  0.368621  -0.245473   2.244221)
  21:       960.92   36.670307  (  0.531850   0.849731   5.972052)
  22:       996.05   55.034060  ( -6.732224   1.383310  -2.792432)
  23:       998.25    2.205196  ( -0.257640  -0.574759  -1.344794)
  24:      1025.25   21.546175  ( -4.135638   1.946262  -0.809161)
  25:      1032.97    6.965618  (  0.347232   1.024794   2.407248)
  26:      1049.93    1.046127  ( -0.743628   0.462671  -0.528280)
  27:      1071.37    1.924256  (  0.353930  -0.495218  -1.246494)
  28:      1102.00    9.267400  (  0.409628  -0.214112  -3.008947)
  29:      1177.30    2.289531  ( -0.987729   0.499146  -1.031879)
  30:      1207.89    0.070799  (  0.152002  -0.013031   0.218002)
  31:      1251.25    0.086743  ( -0.109022  -0.221310  -0.160869)
  32:      1282.41    0.301264  (  0.009843   0.374389  -0.401247)
  33:      1309.01    1.385373  (  0.327891   1.086246  -0.312938)
  34:      1330.47    4.955785  ( -0.274381  -1.419258  -1.692987)
  35:      1340.69    0.736623  ( -0.082292   0.291334  -0.803103)
  36:      1393.84    2.506882  ( -1.350121   0.378531  -0.735370)
  37:      1419.18   24.192433  (  0.458236  -0.158217   4.894632)
  38:      1429.59    2.246213  ( -0.882411   0.572623   1.067552)
  39:      1443.04    6.963488  (  2.253618  -1.367204  -0.124278)
  40:      1454.85    7.812893  ( -0.217396   2.346258   1.503564)
  41:      1466.97    3.523906  (  0.723781   1.484028   0.893145)
  42:      1472.24    3.122375  ( -1.363960   0.679220   0.894789)
  43:      1481.11    5.337639  ( -0.934699   2.057284  -0.481204)
  44:      1486.92    6.575357  ( -1.594110   1.991868  -0.258133)
  45:      1498.10   33.216427  (  2.670111   2.089276   4.660672)
  46:      1500.96   14.154466  ( -2.246402   3.000549  -0.323804)
  47:      1509.78   55.261825  (  4.962784   3.242183  -4.485627)
  48:      1728.96    3.376026  (  0.479905  -1.183109  -1.321352)
  49:      3042.72   13.109546  (  2.349498   0.438179  -2.719817)
  50:      3086.37    0.647912  ( -0.770606  -0.232548  -0.000563)
  51:      3089.12    2.975656  ( -0.587751  -1.594725  -0.295054)
  52:      3090.03    2.939084  (  1.393867  -0.887111   0.457440)
  53:      3094.15    1.885062  (  0.331837  -1.252654  -0.453657)
  54:      3148.32    1.452371  ( -0.295380   1.117746   0.340245)
  55:      3157.38    4.473533  ( -0.674198  -1.849817   0.772767)
  56:      3164.63    1.556301  ( -0.217578  -1.077499   0.589878)
  57:      3185.91    0.081258  ( -0.267811   0.097529   0.004871)
  58:      3188.41    0.281514  (  0.025783   0.013484   0.529780)
  59:      3190.89    0.078400  ( -0.114475   0.154278   0.203701)
  60:      3203.58    0.140963  (  0.338409  -0.160919  -0.023401)
  61:      3253.12    1.223249  (  0.382208   0.910405  -0.498326)
  62:      3453.22   43.398414  ( -2.977800  -5.831784   0.722094)

--------------------------
THERMOCHEMISTRY AT 298.15K
--------------------------

Temperature         ... 298.15 K
Pressure            ... 1.00 atm
Total Mass          ... 100.18 AMU

Throughout the following assumptions are being made:
  (1) The electronic state is orbitally nondegenerate
  (2) There are no thermally accessible electronically excited states
  (3) Hindered rotations indicated by low frequency modes) are not
      treated as such but are treated as vibrations and this may
      case some error
  (4) All equations used are the standard statistical mechanics
      equations for an ideal gas
  (5) All vibrations are strinctly harmonic

------------
INNER ENERGY
------------

The inner energy is: U= E(el) + E(ZPE) + E(vib) + E(rot) + E(trans)
    E(el)   - is the total energy from the electronic structure calculation
              = E(kin-el) + E(nuc-el) + E(el-el) + E(nuc-nuc)
    E(ZPE)  - the the zero temperature vibrational energy from the frequency calculation
    E(vib)  - the the finite temperature correction to E(ZPE) due to population
              of excietd vibrational states
    E(rot)  - is the rotational thermal energy
    E(trans)- is the translational thermal energy

Summary of contributions to the inner energy U:
Electronic energy                ...   -291.29918313 Eh
Zero point energy                ...      0.19798391 Eh     124.24 kcal/mol
Thermal vibrational correction   ...      0.00626736 Eh       3.93 kcal/mol
Thermal rotational correction    ...      0.00141627 Eh       0.89 kcal/mol
Thermal translational correction ...      0.00141627 Eh       0.89 kcal/mol
-----------------------------------------------------------------------
Total thermal energy                   -291.09209931 Eh

Summary of corrections to the electronic energy:
(perhaps to be used in another calculation)
Total thermal correction                  0.00909991 Eh       5.71 kcal/mol
Non-thermal (ZPE) correction              0.19798391 Eh     124.24 kcal/mol
-----------------------------------------------------------------------
Total correction                          0.20708382 Eh     129.95 kcal/mol

--------
ENTHALPY
--------

The enthalpy is H = U + kB*T
                kB is Boltzmann's constant
Total free energy                 ...   -291.09209931 Eh
Thermal Enthalpy correction       ...      0.00094421 Eh       0.59 kcal/mol
-----------------------------------------------------------------------
Total Enthalpy                    ...   -291.09115511 Eh

-------
ENTROPY
-------

The entropy contributions are T*S = T*(S(el)+S(vib)+S(rot)+S(trans)
     S(el)   - electronic entropy
     S(vib)  - vibrational entropy
     S(rot)  - rotational entropy
     S(trans)- translational entropy
The entropies will be listed as mutliplied by the temperature to get
units of energy

Electronic entropy                ...      0.00000000 Eh      0.00 kcal/mol
Vibrational entropy               ...      0.01197531 Eh      7.51 kcal/mol
Rotational entropy                ...      0.01236010 Eh      7.76 kcal/mol
Translational entropy             ...      0.01887386 Eh     11.84 kcal/mol
-----------------------------------------------------------------------
Final entropy term                ...      0.04320927 Eh     27.11 kcal/mol

CAUTION: The rotational entropy is not quite correctly treated here
         because it includes a symmetry number that is not yet correctly
         implemented in ORCA!
For a nonlinear molecule the correct rotational entropy is:
    S(rot) = R*(ln(qrot/sn)+1.5)
    R    = 8.31441 J/mol/K = 1.987191683e-3 kcal/mol/K
    qrot = 324300.7964501
    sn is the rotational symmetry number. We have assumed 3 here
       if it is different for your molecule then you should correct
       the printed rotational entropy by manually evaluating the equation
       as given above

For convenience we print out the resulting values for sn=1 - 12:
 sn= 1  qrot/sn=  324300.7965 T*S(rot)=     8.41 kcal/mol T*S(tot)=    27.77 kcal/mol
 sn= 2  qrot/sn=  162150.3982 T*S(rot)=     8.00 kcal/mol T*S(tot)=    27.35 kcal/mol
 sn= 3  qrot/sn=  108100.2655 T*S(rot)=     7.76 kcal/mol T*S(tot)=    27.11 kcal/mol
 sn= 4  qrot/sn=   81075.1991 T*S(rot)=     7.59 kcal/mol T*S(tot)=    26.94 kcal/mol
 sn= 5  qrot/sn=   64860.1593 T*S(rot)=     7.45 kcal/mol T*S(tot)=    26.81 kcal/mol
 sn= 6  qrot/sn=   54050.1327 T*S(rot)=     7.35 kcal/mol T*S(tot)=    26.70 kcal/mol
 sn= 7  qrot/sn=   46328.6852 T*S(rot)=     7.25 kcal/mol T*S(tot)=    26.61 kcal/mol
 sn= 8  qrot/sn=   40537.5996 T*S(rot)=     7.17 kcal/mol T*S(tot)=    26.53 kcal/mol
 sn= 9  qrot/sn=   36033.4218 T*S(rot)=     7.11 kcal/mol T*S(tot)=    26.46 kcal/mol
 sn=10  qrot/sn=   32430.0796 T*S(rot)=     7.04 kcal/mol T*S(tot)=    26.40 kcal/mol
 sn=11  qrot/sn=   29481.8906 T*S(rot)=     6.99 kcal/mol T*S(tot)=    26.34 kcal/mol
 sn=12  qrot/sn=   27025.0664 T*S(rot)=     6.93 kcal/mol T*S(tot)=    26.29 kcal/mol

-------------------
GIBBS FREE ENTHALPY
-------------------

The Gibbs free enthalpy is G = H - T*S

Total enthalpy                    ...   -291.09115511 Eh
Total entropy correction          ...     -0.04320927 Eh    -27.11 kcal/mol
-----------------------------------------------------------------------
Final Gibbs free enthalpy         ...   -291.13436437 Eh

For completeness - the Gibbs free enthalpy minus the electronic energy
G-E(el)                           ...      0.16481876 Eh    103.43 kcal/mol

                             ****ORCA TERMINATED NORMALLY****
TOTAL RUN TIME: 0 days 0 hours 44 minutes 42 seconds 697 msec
