                         Program Version 3.0.3 - RELEASE   -
|  1> ! NORI PBE0 def2-TZVP UseSym TightOPT Freq TightSCF Grid3 FinalGrid5 XYZFile
|  2> % pal
|  3>     nprocs 8
|  4> end
|  5> %method
|  6>     SymThresh 5.0e-2
|  7> end
|  8> % geom
|  9>     MaxIter 10
| 10> end
| 11> % maxcore 2000
| 12> % output
| 13>     printlevel mini
| 14>     print[ P_Basis ] 0
| 15>     print[ P_SCFInfo ] 1
| 16>     print[ P_SCFIterInfo ] 1
| 17>     print[ P_OrbEn ] 0
| 18>     print[ P_Cartesian ] 0
| 19> end
| 20> % elprop
| 21>     Dipole false
| 22> end
| 23> *xyz 1 1
| 24>  C        0.7538206946    -0.1123035959     0.1125471587
| 25>  N        2.2182332487     0.0853840836    -0.0669530360
| 26>  C        2.5449308232     0.3872507692    -1.4868447416
| 27>  C        2.7378449328     1.1197402086     0.8903136888
| 28>  C        4.2584679144     1.1985436953     0.9250232901
| 29>  C        4.6654729558     2.1149143289     1.9741111357
| 30>  C        4.9728478696     2.8774897200     2.8453217218
| 31>  H        0.4165417440    -0.9035882842    -0.5548156748
| 32>  H        0.2471384133     0.8202922860    -0.1308469704
| 33>  H        0.5546645022    -0.3841754873     1.1473178556
| 34>  H        2.6754162192    -0.7972722522     0.1711568117
| 35>  H        2.0976041905     1.3459759812    -1.7452375289
| 36>  H        2.1313172518    -0.3973947036    -2.1175794404
| 37>  H        3.6236639770     0.4300412162    -1.6141411546
| 38>  H        2.3546233112     0.8528540898     1.8757482242
| 39>  H        2.2955071815     2.0731203971     0.5971519066
| 40>  H        4.6612081287     1.5443679835    -0.0312573026
| 41>  H        4.6864996642     0.2069037749     1.1200597445
| 42>  H        5.2635369773     3.5528857890     3.6179243115
| 43> *
| 44>
| 45>                          ****END OF INPUT****
 Total Charge           Charge          ....    1
 Multiplicity           Mult            ....    1
 Number of Electrons    NEL             ....   54
FINAL SINGLE POINT ENERGY      -290.043648040300
FINAL SINGLE POINT ENERGY      -290.043649135936
FINAL SINGLE POINT ENERGY      -290.043650139520

CARTESIAN COORDINATES (ANGSTROEM)
---------------------------------
  C      1.190808   -0.000644    2.357789
  N      0.000640   -0.000812    1.463485
  C     -0.907230    1.133910    1.783762
  C      0.418022   -0.031886    0.020350
  C     -0.742336   -0.271878   -0.936684
  C     -0.225865   -0.438981   -2.282826
  C      0.227478   -0.571025   -3.383723
  H      0.858030   -0.025887    3.393916
  H      1.760955    0.908339    2.172609
  H      1.802004   -0.874224    2.138807
  H     -0.515211   -0.864538    1.643404
  H     -0.388224    2.063794    1.555740
  H     -1.155756    1.097312    2.842954
  H     -1.815331    1.056231    1.191578
  H      1.151994   -0.832684   -0.074767
  H      0.915736    0.916863   -0.185152
  H     -1.448623    0.563334   -0.924251
  H     -1.296547   -1.172887   -0.643970
  H      0.614911   -0.691497   -4.370061

FINAL SINGLE POINT ENERGY      -290.043650376051
                    ***********************HURRAY********************
 Multiplicity           Mult            ....    1
 Number of Electrons    NEL             ....   54
 Basis Dimension        Dim             ....  289
FINAL SINGLE POINT ENERGY      -290.043650500933

VIBRATIONAL FREQUENCIES
-----------------------

   0:         0.00 cm**-1
   1:         0.00 cm**-1
   2:         0.00 cm**-1
   3:         0.00 cm**-1
   4:         0.00 cm**-1
   5:         0.00 cm**-1
   6:        59.80 cm**-1
   7:        92.31 cm**-1
   8:       120.21 cm**-1
   9:       209.10 cm**-1
  10:       247.73 cm**-1
  11:       261.96 cm**-1
  12:       335.40 cm**-1
  13:       367.06 cm**-1
  14:       421.89 cm**-1
  15:       455.59 cm**-1
  16:       518.31 cm**-1
  17:       719.27 cm**-1
  18:       739.74 cm**-1
  19:       782.09 cm**-1
  20:       851.09 cm**-1
  21:       964.44 cm**-1
  22:       993.40 cm**-1
  23:      1013.62 cm**-1
  24:      1042.05 cm**-1
  25:      1049.78 cm**-1
  26:      1069.49 cm**-1
  27:      1157.60 cm**-1
  28:      1182.95 cm**-1
  29:      1250.93 cm**-1
  30:      1279.07 cm**-1
  31:      1320.65 cm**-1
  32:      1337.37 cm**-1
  33:      1401.75 cm**-1
  34:      1421.75 cm**-1
  35:      1430.17 cm**-1
  36:      1443.75 cm**-1
  37:      1465.79 cm**-1
  38:      1469.78 cm**-1
  39:      1478.66 cm**-1
  40:      1487.02 cm**-1
  41:      1497.07 cm**-1
  42:      1500.40 cm**-1
  43:      1509.53 cm**-1
  44:      2257.09 cm**-1
  45:      3032.87 cm**-1
  46:      3087.73 cm**-1
  47:      3088.48 cm**-1
  48:      3094.00 cm**-1
  49:      3100.35 cm**-1
  50:      3160.30 cm**-1
  51:      3187.16 cm**-1
  52:      3189.50 cm**-1
  53:      3191.71 cm**-1
  54:      3201.88 cm**-1
  55:      3451.56 cm**-1
  56:      3465.27 cm**-1

IR SPECTRUM
-----------

 Mode    freq (cm**-1)   T**2         TX         TY         TZ
-------------------------------------------------------------------
   6:        59.80    0.335012  (  0.191958  -0.546020   0.005089)
   7:        92.31    0.354734  ( -0.134636   0.398061  -0.422084)
   8:       120.21    0.323738  (  0.561574  -0.030941  -0.086112)
   9:       209.10    0.145553  (  0.113265   0.239986  -0.274099)
  10:       247.73    0.600060  ( -0.708491  -0.311692   0.030813)
  11:       261.96    4.122499  (  1.616358  -0.102142  -1.224521)
  12:       335.40   14.154860  ( -0.402807   3.676977  -0.687345)
  13:       367.06    3.742031  (  1.653540   0.426306   0.908899)
  14:       421.89    0.501676  ( -0.655431  -0.130477  -0.234653)
  15:       455.59    1.040636  ( -0.521171   0.344805  -0.806304)
  16:       518.31   12.325537  (  2.520081   0.714767   2.337485)
  17:       719.27   42.531338  (  0.854885  -6.373481   1.085930)
  18:       739.74   37.116575  (  5.721041   1.078344   1.795394)
  19:       782.09    2.112311  (  0.572065  -1.184020  -0.618990)
  20:       851.09    2.920941  (  0.000374  -0.832813   1.492435)
  21:       964.44   47.080054  (  1.027860   1.346148   6.649169)
  22:       993.40    3.233990  (  1.471310  -0.979294   0.331995)
  23:      1013.62   13.828624  (  3.270841  -1.640532  -0.662477)
  24:      1042.05    3.248235  (  1.387789  -0.840838   0.784390)
  25:      1049.78    0.562397  ( -0.610180   0.414925   0.133847)
  26:      1069.49    3.258823  ( -0.587852   0.049847   1.706097)
  27:      1157.60    0.888149  (  0.708040  -0.086817  -0.615866)
  28:      1182.95    2.748879  ( -1.090798   0.458894  -1.161230)
  29:      1250.93    0.109488  ( -0.131234  -0.220012  -0.209430)
  30:      1279.07    0.658324  ( -0.162099  -0.461576   0.647299)
  31:      1320.65    1.802269  (  1.044322  -0.314398  -0.782825)
  32:      1337.37    1.316138  ( -0.388516  -0.890100   0.610667)
  33:      1401.75    7.548637  ( -0.843170   0.406821  -2.583060)
  34:      1421.75   18.357917  (  0.856657   0.295170   4.187712)
  35:      1430.17    5.517519  (  0.572935  -1.144969  -1.969342)
  36:      1443.75    7.283750  ( -2.189358   1.555046   0.268873)
  37:      1465.79    2.382670  (  1.507193   0.276985   0.185255)
  38:      1469.78    3.891510  (  0.849609  -1.580875  -0.818846)
  39:      1478.66    2.447050  ( -0.417202   1.495097  -0.194107)
  40:      1487.02    9.224609  ( -1.565771   2.579530  -0.344962)
  41:      1497.07   33.085480  ( -3.827592  -1.158990  -4.134218)
  42:      1500.40   16.404250  ( -1.401165   3.565421   1.314824)
  43:      1509.53   56.909161  (  4.764870   2.644101  -5.216695)
  44:      2257.09    3.021433  ( -0.387445   0.213419   1.681003)
  45:      3032.87   14.299600  ( -1.562071  -0.190655   3.438486)
  46:      3087.73    0.188210  ( -0.043751   0.220876   0.370823)
  47:      3088.48    0.878888  (  0.268900  -0.751753  -0.491374)
  48:      3094.00    0.583318  (  0.462808  -0.497303  -0.349022)
  49:      3100.35    1.191532  ( -0.922387  -0.057773  -0.580857)
  50:      3160.30    0.276739  ( -0.006504  -0.447550  -0.276397)
  51:      3187.16    0.092468  (  0.250278  -0.171553   0.019966)
  52:      3189.50    0.153389  ( -0.109367  -0.141260  -0.348530)
  53:      3191.71    0.027588  (  0.011731  -0.059585  -0.154596)
  54:      3201.88    0.087564  ( -0.241554   0.141967  -0.095191)
  55:      3451.56   47.682414  (  3.433352   5.775088  -1.594637)
  56:      3465.27   94.580377  ( -3.096974   1.232427   9.136206)

--------------------------
THERMOCHEMISTRY AT 298.15K
--------------------------

Temperature         ... 298.15 K
Pressure            ... 1.00 atm
Total Mass          ... 98.17 AMU

Throughout the following assumptions are being made:
  (1) The electronic state is orbitally nondegenerate
  (2) There are no thermally accessible electronically excited states
  (3) Hindered rotations indicated by low frequency modes) are not
      treated as such but are treated as vibrations and this may
      case some error
  (4) All equations used are the standard statistical mechanics
      equations for an ideal gas
  (5) All vibrations are strinctly harmonic

------------
INNER ENERGY
------------

The inner energy is: U= E(el) + E(ZPE) + E(vib) + E(rot) + E(trans)
    E(el)   - is the total energy from the electronic structure calculation
              = E(kin-el) + E(nuc-el) + E(el-el) + E(nuc-nuc)
    E(ZPE)  - the the zero temperature vibrational energy from the frequency calculation
    E(vib)  - the the finite temperature correction to E(ZPE) due to population
              of excietd vibrational states
    E(rot)  - is the rotational thermal energy
    E(trans)- is the translational thermal energy

Summary of contributions to the inner energy U:
Electronic energy                ...   -290.04365050 Eh
Zero point energy                ...      0.17418054 Eh     109.30 kcal/mol
Thermal vibrational correction   ...      0.00594962 Eh       3.73 kcal/mol
Thermal rotational correction    ...      0.00141627 Eh       0.89 kcal/mol
Thermal translational correction ...      0.00141627 Eh       0.89 kcal/mol
-----------------------------------------------------------------------
Total thermal energy                   -289.86068780 Eh

Summary of corrections to the electronic energy:
(perhaps to be used in another calculation)
Total thermal correction                  0.00878217 Eh       5.51 kcal/mol
Non-thermal (ZPE) correction              0.17418054 Eh     109.30 kcal/mol
-----------------------------------------------------------------------
Total correction                          0.18296271 Eh     114.81 kcal/mol

--------
ENTHALPY
--------

The enthalpy is H = U + kB*T
                kB is Boltzmann's constant
Total free energy                 ...   -289.86068780 Eh
Thermal Enthalpy correction       ...      0.00094421 Eh       0.59 kcal/mol
-----------------------------------------------------------------------
Total Enthalpy                    ...   -289.85974359 Eh

-------
ENTROPY
-------

The entropy contributions are T*S = T*(S(el)+S(vib)+S(rot)+S(trans)
     S(el)   - electronic entropy
     S(vib)  - vibrational entropy
     S(rot)  - rotational entropy
     S(trans)- translational entropy
The entropies will be listed as mutliplied by the temperature to get
units of energy

Electronic entropy                ...      0.00000000 Eh      0.00 kcal/mol
Vibrational entropy               ...      0.01094623 Eh      6.87 kcal/mol
Rotational entropy                ...      0.01229434 Eh      7.71 kcal/mol
Translational entropy             ...      0.01884507 Eh     11.83 kcal/mol
-----------------------------------------------------------------------
Final entropy term                ...      0.04208564 Eh     26.41 kcal/mol

CAUTION: The rotational entropy is not quite correctly treated here
         because it includes a symmetry number that is not yet correctly
         implemented in ORCA!
For a nonlinear molecule the correct rotational entropy is:
    S(rot) = R*(ln(qrot/sn)+1.5)
    R    = 8.31441 J/mol/K = 1.987191683e-3 kcal/mol/K
    qrot = 302482.9199710
    sn is the rotational symmetry number. We have assumed 3 here
       if it is different for your molecule then you should correct
       the printed rotational entropy by manually evaluating the equation
       as given above

For convenience we print out the resulting values for sn=1 - 12:
 sn= 1  qrot/sn=  302482.9200 T*S(rot)=     8.37 kcal/mol T*S(tot)=    27.06 kcal/mol
 sn= 2  qrot/sn=  151241.4600 T*S(rot)=     7.96 kcal/mol T*S(tot)=    26.65 kcal/mol
 sn= 3  qrot/sn=  100827.6400 T*S(rot)=     7.71 kcal/mol T*S(tot)=    26.41 kcal/mol
 sn= 4  qrot/sn=   75620.7300 T*S(rot)=     7.54 kcal/mol T*S(tot)=    26.24 kcal/mol
 sn= 5  qrot/sn=   60496.5840 T*S(rot)=     7.41 kcal/mol T*S(tot)=    26.11 kcal/mol
 sn= 6  qrot/sn=   50413.8200 T*S(rot)=     7.30 kcal/mol T*S(tot)=    26.00 kcal/mol
 sn= 7  qrot/sn=   43211.8457 T*S(rot)=     7.21 kcal/mol T*S(tot)=    25.91 kcal/mol
 sn= 8  qrot/sn=   37810.3650 T*S(rot)=     7.13 kcal/mol T*S(tot)=    25.83 kcal/mol
 sn= 9  qrot/sn=   33609.2133 T*S(rot)=     7.06 kcal/mol T*S(tot)=    25.76 kcal/mol
 sn=10  qrot/sn=   30248.2920 T*S(rot)=     7.00 kcal/mol T*S(tot)=    25.70 kcal/mol
 sn=11  qrot/sn=   27498.4473 T*S(rot)=     6.94 kcal/mol T*S(tot)=    25.64 kcal/mol
 sn=12  qrot/sn=   25206.9100 T*S(rot)=     6.89 kcal/mol T*S(tot)=    25.59 kcal/mol

-------------------
GIBBS FREE ENTHALPY
-------------------

The Gibbs free enthalpy is G = H - T*S

Total enthalpy                    ...   -289.85974359 Eh
Total entropy correction          ...     -0.04208564 Eh    -26.41 kcal/mol
-----------------------------------------------------------------------
Final Gibbs free enthalpy         ...   -289.90182923 Eh

For completeness - the Gibbs free enthalpy minus the electronic energy
G-E(el)                           ...      0.14182127 Eh     88.99 kcal/mol

                             ****ORCA TERMINATED NORMALLY****
TOTAL RUN TIME: 0 days 0 hours 39 minutes 54 seconds 516 msec
