                         Program Version 3.0.3 - RELEASE   -
|  1> ! NORI PBE0 def2-TZVP UseSym TightOPT Freq TightSCF Grid3 FinalGrid5 XYZFile
|  2> % pal
|  3>     nprocs 8
|  4> end
|  5> %method
|  6>     SymThresh 5.0e-2
|  7> end
|  8> % geom
|  9>     MaxIter 10
| 10> end
| 11> % maxcore 2000
| 12> % output
| 13>     printlevel mini
| 14>     print[ P_Basis ] 0
| 15>     print[ P_SCFInfo ] 1
| 16>     print[ P_SCFIterInfo ] 1
| 17>     print[ P_OrbEn ] 0
| 18>     print[ P_Cartesian ] 0
| 19> end
| 20> % elprop
| 21>     Dipole false
| 22> end
| 23> *xyz 1 1
| 24>  C        1.0484693633    -0.0183142797    -0.2015544508
| 25>  N        2.5042785624    -0.1986902012     0.0281307087
| 26>  C        2.9944594781     0.1537213000     1.4411756729
| 27>  C        2.4150722797    -0.8133131057     2.4196703492
| 28>  C        1.5597965362    -0.4661096672     3.3701036565
| 29>  C        4.4897780036     0.1461339258     1.4159429241
| 30>  C        5.2206355709     1.2492863166     1.4914673692
| 31>  H        0.8080797909    -0.3245063247    -1.2181907239
| 32>  H        0.8030009272     1.0326527018    -0.0601534499
| 33>  H        0.5056109323    -0.6270920493     0.5174329573
| 34>  H        3.0404624855     0.3712768145    -0.6293628569
| 35>  H        2.7649436409    -1.1681836101    -0.1640107206
| 36>  H        2.6168613414     1.1628375498     1.6208132510
| 37>  H        2.7812246970    -1.8368575873     2.3592384858
| 38>  H        1.2039152794     0.5534688270     3.4786820627
| 39>  H        1.1999127620    -1.1889103562     4.0922232406
| 40>  H        4.9704122017    -0.8293158021     1.3687691309
| 41>  H        4.7710457793     2.2336086125     1.5782718390
| 42>  H        6.3032603680     1.2057069355     1.4916205543
| 43> *
| 44>
| 45>                          ****END OF INPUT****
 Total Charge           Charge          ....    1
 Multiplicity           Mult            ....    1
 Number of Electrons    NEL             ....   54
FINAL SINGLE POINT ENERGY      -290.072729080126
FINAL SINGLE POINT ENERGY      -290.072729953837

CARTESIAN COORDINATES (ANGSTROEM)
---------------------------------
  C      1.376723   -0.001250    1.956919
  N      0.000091    0.001689    1.400135
  C     -0.091538    0.148912   -0.126504
  C      0.493792   -1.061580   -0.775398
  C      1.584612   -1.031714   -1.526868
  C     -1.529654    0.369310   -0.473672
  C     -2.001951    1.534900   -0.892202
  H      1.323680   -0.143347    3.034942
  H      1.845444    0.954100    1.729186
  H      1.936680   -0.810109    1.493448
  H     -0.546889    0.761333    1.810715
  H     -0.478366   -0.862403    1.663434
  H      0.500264    1.037943   -0.355197
  H     -0.063406   -1.989417   -0.654976
  H      2.141330   -0.115222   -1.695622
  H      1.949161   -1.923413   -2.022227
  H     -2.185072   -0.496439   -0.401882
  H     -1.364421    2.406017   -1.008627
  H     -3.045672    1.655225   -1.155772

FINAL SINGLE POINT ENERGY      -290.072730418126
                    ***********************HURRAY********************
 Multiplicity           Mult            ....    1
 Number of Electrons    NEL             ....   54
 Basis Dimension        Dim             ....  289
FINAL SINGLE POINT ENERGY      -290.072730503952

VIBRATIONAL FREQUENCIES
-----------------------

   0:         0.00 cm**-1
   1:         0.00 cm**-1
   2:         0.00 cm**-1
   3:         0.00 cm**-1
   4:         0.00 cm**-1
   5:         0.00 cm**-1
   6:        77.12 cm**-1
   7:        93.72 cm**-1
   8:       104.41 cm**-1
   9:       195.20 cm**-1
  10:       222.74 cm**-1
  11:       272.55 cm**-1
  12:       304.29 cm**-1
  13:       394.33 cm**-1
  14:       441.61 cm**-1
  15:       493.09 cm**-1
  16:       652.76 cm**-1
  17:       691.28 cm**-1
  18:       799.35 cm**-1
  19:       884.59 cm**-1
  20:       937.58 cm**-1
  21:       985.88 cm**-1
  22:      1014.28 cm**-1
  23:      1016.07 cm**-1
  24:      1020.88 cm**-1
  25:      1025.67 cm**-1
  26:      1030.81 cm**-1
  27:      1077.96 cm**-1
  28:      1112.96 cm**-1
  29:      1196.18 cm**-1
  30:      1221.03 cm**-1
  31:      1283.50 cm**-1
  32:      1323.58 cm**-1
  33:      1325.86 cm**-1
  34:      1338.16 cm**-1
  35:      1383.43 cm**-1
  36:      1404.45 cm**-1
  37:      1451.68 cm**-1
  38:      1455.93 cm**-1
  39:      1466.77 cm**-1
  40:      1490.00 cm**-1
  41:      1497.95 cm**-1
  42:      1645.90 cm**-1
  43:      1715.96 cm**-1
  44:      1725.17 cm**-1
  45:      3093.47 cm**-1
  46:      3105.99 cm**-1
  47:      3150.84 cm**-1
  48:      3157.99 cm**-1
  49:      3162.29 cm**-1
  50:      3163.37 cm**-1
  51:      3191.06 cm**-1
  52:      3199.88 cm**-1
  53:      3256.16 cm**-1
  54:      3256.64 cm**-1
  55:      3436.28 cm**-1
  56:      3490.71 cm**-1

IR SPECTRUM
-----------

 Mode    freq (cm**-1)   T**2         TX         TY         TZ
-------------------------------------------------------------------
   6:        77.12    0.412179  (  0.137572   0.414143   0.470891)
   7:        93.72    1.829858  (  0.115211   1.305897  -0.333493)
   8:       104.41    2.036560  ( -0.835739   1.155702   0.049532)
   9:       195.20    0.267532  ( -0.028429  -0.284020   0.431342)
  10:       222.74    0.040277  (  0.032835  -0.008384   0.197810)
  11:       272.55    1.917448  ( -0.575170   1.072964  -0.659829)
  12:       304.29    1.744294  (  0.090009   1.310186   0.140013)
  13:       394.33    2.543770  (  1.490220  -0.289464   0.489106)
  14:       441.61    0.128509  (  0.112195   0.254065   0.226655)
  15:       493.09    1.048646  (  0.106151   0.873301   0.524141)
  16:       652.76    6.414779  ( -2.139290   0.997334   0.918447)
  17:       691.28   11.260098  ( -0.603055   0.297625  -3.287528)
  18:       799.35   27.902557  ( -0.238184   2.951767   4.374117)
  19:       884.59   23.563540  ( -1.529541   2.031621  -4.134799)
  20:       937.58   53.207829  (  1.501739  -0.039833   7.137999)
  21:       985.88    7.750394  ( -1.168809   1.643845   1.918868)
  22:      1014.28   14.690806  ( -2.812151   2.042639   1.615624)
  23:      1016.07   35.499425  (  3.494185  -0.475350   4.802514)
  24:      1020.88   71.137453  ( -0.971727  -0.441103  -8.366518)
  25:      1025.67    4.422361  (  1.688863  -1.192698  -0.384152)
  26:      1030.81    4.479018  (  0.037666  -0.428598   2.072174)
  27:      1077.96    8.815306  ( -1.402203   0.218520  -2.607946)
  28:      1112.96    3.582974  ( -1.086199   0.242964  -1.531050)
  29:      1196.18   12.733513  ( -2.579283   1.778508  -1.708134)
  30:      1221.03    1.874224  (  1.024232  -0.314288  -0.852288)
  31:      1283.50    0.984108  ( -0.150495   0.438801   0.876877)
  32:      1323.58    2.727713  ( -0.649150   0.805085  -1.287694)
  33:      1325.86    2.088987  (  1.432937  -0.182799  -0.047561)
  34:      1338.16    6.505504  ( -1.545823  -2.028770   0.005060)
  35:      1383.43   22.166854  (  2.730259  -1.451673   3.550378)
  36:      1404.45   49.179582  (  2.492593  -1.475938   6.386562)
  37:      1451.68    5.782570  ( -2.285606  -0.402723  -0.629596)
  38:      1455.93   19.327367  (  0.380029   2.921491  -3.263102)
  39:      1466.77   23.722049  ( -3.992964   2.603508   1.000015)
  40:      1490.00   18.065390  ( -0.174859  -4.186656  -0.711847)
  41:      1497.95   22.282731  ( -0.040378   1.101622  -4.589938)
  42:      1645.90   54.203229  (  6.170695   0.099790  -4.014449)
  43:      1715.96    0.808249  ( -0.674263   0.515722  -0.296057)
  44:      1725.17    3.009448  ( -0.725890  -1.084959  -1.142539)
  45:      3093.47    0.303214  ( -0.315836  -0.248823  -0.376230)
  46:      3105.99    1.431986  (  0.563730   0.850383   0.625336)
  47:      3150.84    0.703910  ( -0.300529  -0.728574   0.287701)
  48:      3157.99    2.430549  ( -1.222787  -0.956880   0.140431)
  49:      3162.29    0.954452  ( -0.424846   0.857680   0.195812)
  50:      3163.37    0.389112  ( -0.167327  -0.129292  -0.586854)
  51:      3191.06    0.051625  ( -0.138502   0.053310   0.172047)
  52:      3199.88    0.726655  (  0.082455  -0.322613  -0.784714)
  53:      3256.16    0.296120  ( -0.336394   0.402452  -0.144883)
  54:      3256.64    0.205684  ( -0.371081   0.066536   0.252102)
  55:      3436.28   41.547195  ( -4.920572  -0.362510   4.147741)
  56:      3490.71   60.622078  ( -0.554550   7.750461   0.494887)

--------------------------
THERMOCHEMISTRY AT 298.15K
--------------------------

Temperature         ... 298.15 K
Pressure            ... 1.00 atm
Total Mass          ... 98.17 AMU

Throughout the following assumptions are being made:
  (1) The electronic state is orbitally nondegenerate
  (2) There are no thermally accessible electronically excited states
  (3) Hindered rotations indicated by low frequency modes) are not
      treated as such but are treated as vibrations and this may
      case some error
  (4) All equations used are the standard statistical mechanics
      equations for an ideal gas
  (5) All vibrations are strinctly harmonic

------------
INNER ENERGY
------------

The inner energy is: U= E(el) + E(ZPE) + E(vib) + E(rot) + E(trans)
    E(el)   - is the total energy from the electronic structure calculation
              = E(kin-el) + E(nuc-el) + E(el-el) + E(nuc-nuc)
    E(ZPE)  - the the zero temperature vibrational energy from the frequency calculation
    E(vib)  - the the finite temperature correction to E(ZPE) due to population
              of excietd vibrational states
    E(rot)  - is the rotational thermal energy
    E(trans)- is the translational thermal energy

Summary of contributions to the inner energy U:
Electronic energy                ...   -290.07273050 Eh
Zero point energy                ...      0.17414167 Eh     109.28 kcal/mol
Thermal vibrational correction   ...      0.00584745 Eh       3.67 kcal/mol
Thermal rotational correction    ...      0.00141627 Eh       0.89 kcal/mol
Thermal translational correction ...      0.00141627 Eh       0.89 kcal/mol
-----------------------------------------------------------------------
Total thermal energy                   -289.88990884 Eh

Summary of corrections to the electronic energy:
(perhaps to be used in another calculation)
Total thermal correction                  0.00867999 Eh       5.45 kcal/mol
Non-thermal (ZPE) correction              0.17414167 Eh     109.28 kcal/mol
-----------------------------------------------------------------------
Total correction                          0.18282166 Eh     114.72 kcal/mol

--------
ENTHALPY
--------

The enthalpy is H = U + kB*T
                kB is Boltzmann's constant
Total free energy                 ...   -289.88990884 Eh
Thermal Enthalpy correction       ...      0.00094421 Eh       0.59 kcal/mol
-----------------------------------------------------------------------
Total Enthalpy                    ...   -289.88896463 Eh

-------
ENTROPY
-------

The entropy contributions are T*S = T*(S(el)+S(vib)+S(rot)+S(trans)
     S(el)   - electronic entropy
     S(vib)  - vibrational entropy
     S(rot)  - rotational entropy
     S(trans)- translational entropy
The entropies will be listed as mutliplied by the temperature to get
units of energy

Electronic entropy                ...      0.00000000 Eh      0.00 kcal/mol
Vibrational entropy               ...      0.01073769 Eh      6.74 kcal/mol
Rotational entropy                ...      0.01229836 Eh      7.72 kcal/mol
Translational entropy             ...      0.01884507 Eh     11.83 kcal/mol
-----------------------------------------------------------------------
Final entropy term                ...      0.04188111 Eh     26.28 kcal/mol

CAUTION: The rotational entropy is not quite correctly treated here
         because it includes a symmetry number that is not yet correctly
         implemented in ORCA!
For a nonlinear molecule the correct rotational entropy is:
    S(rot) = R*(ln(qrot/sn)+1.5)
    R    = 8.31441 J/mol/K = 1.987191683e-3 kcal/mol/K
    qrot = 303772.8445418
    sn is the rotational symmetry number. We have assumed 3 here
       if it is different for your molecule then you should correct
       the printed rotational entropy by manually evaluating the equation
       as given above

For convenience we print out the resulting values for sn=1 - 12:
 sn= 1  qrot/sn=  303772.8445 T*S(rot)=     8.37 kcal/mol T*S(tot)=    26.93 kcal/mol
 sn= 2  qrot/sn=  151886.4223 T*S(rot)=     7.96 kcal/mol T*S(tot)=    26.52 kcal/mol
 sn= 3  qrot/sn=  101257.6148 T*S(rot)=     7.72 kcal/mol T*S(tot)=    26.28 kcal/mol
 sn= 4  qrot/sn=   75943.2111 T*S(rot)=     7.55 kcal/mol T*S(tot)=    26.11 kcal/mol
 sn= 5  qrot/sn=   60754.5689 T*S(rot)=     7.41 kcal/mol T*S(tot)=    25.98 kcal/mol
 sn= 6  qrot/sn=   50628.8074 T*S(rot)=     7.31 kcal/mol T*S(tot)=    25.87 kcal/mol
 sn= 7  qrot/sn=   43396.1206 T*S(rot)=     7.22 kcal/mol T*S(tot)=    25.78 kcal/mol
 sn= 8  qrot/sn=   37971.6056 T*S(rot)=     7.14 kcal/mol T*S(tot)=    25.70 kcal/mol
 sn= 9  qrot/sn=   33752.5383 T*S(rot)=     7.07 kcal/mol T*S(tot)=    25.63 kcal/mol
 sn=10  qrot/sn=   30377.2845 T*S(rot)=     7.00 kcal/mol T*S(tot)=    25.57 kcal/mol
 sn=11  qrot/sn=   27615.7131 T*S(rot)=     6.95 kcal/mol T*S(tot)=    25.51 kcal/mol
 sn=12  qrot/sn=   25314.4037 T*S(rot)=     6.90 kcal/mol T*S(tot)=    25.46 kcal/mol

-------------------
GIBBS FREE ENTHALPY
-------------------

The Gibbs free enthalpy is G = H - T*S

Total enthalpy                    ...   -289.88896463 Eh
Total entropy correction          ...     -0.04188111 Eh    -26.28 kcal/mol
-----------------------------------------------------------------------
Final Gibbs free enthalpy         ...   -289.93084574 Eh

For completeness - the Gibbs free enthalpy minus the electronic energy
G-E(el)                           ...      0.14188476 Eh     89.03 kcal/mol

                             ****ORCA TERMINATED NORMALLY****
TOTAL RUN TIME: 0 days 0 hours 40 minutes 51 seconds 885 msec
