                         Program Version 3.0.3 - RELEASE   -
|  1> ! NORI PBE0 def2-TZVP UseSym TightOPT Freq TightSCF Grid3 FinalGrid5 XYZFile
|  2> % pal
|  3>     nprocs 8
|  4> end
|  5> %method
|  6>     SymThresh 5.0e-2
|  7> end
|  8> % geom
|  9>     MaxIter 10
| 10> end
| 11> % maxcore 2000
| 12> % output
| 13>     printlevel mini
| 14>     print[ P_Basis ] 0
| 15>     print[ P_SCFInfo ] 1
| 16>     print[ P_SCFIterInfo ] 1
| 17>     print[ P_OrbEn ] 0
| 18>     print[ P_Cartesian ] 0
| 19> end
| 20> % elprop
| 21>     Dipole false
| 22> end
| 23> *xyz 1 1
| 24>  N        3.6017106144    -2.5950510679     0.2725614285
| 25>  C        3.5515725111    -1.4499819709     0.2088980724
| 26>  C        3.5210077029    -0.0045452404     0.0677022542
| 27>  N        4.0746094957     0.3795849222    -1.2535902158
| 28>  C        4.2932883367     1.8506246115    -1.5673010128
| 29>  C        5.6197945074     1.4959391474    -2.2473257314
| 30>  C        5.5479608520     0.1336081090    -1.5486653545
| 31>  H        2.4970870882     0.3708636048     0.1426727938
| 32>  H        4.1255800187     0.4705985778     0.8435158704
| 33>  H        3.5070419726    -0.0522161691    -1.9847236439
| 34>  H        3.4840622673     2.2818593035    -2.1534232916
| 35>  H        4.4081851788     2.3891710574    -0.6271132775
| 36>  H        5.5357855338     1.4225605869    -3.3309057085
| 37>  H        6.4713105820     2.1219451531    -1.9939812087
| 38>  H        6.0836172708     0.0897895487    -0.6013009085
| 39>  H        5.7162760675    -0.7773401740    -2.1187700662
| 40> *
| 41>
| 42>                          ****END OF INPUT****
 Total Charge           Charge          ....    1
 Multiplicity           Mult            ....    1
 Number of Electrons    NEL             ....   52
FINAL SINGLE POINT ENERGY      -304.890324873837

CARTESIAN COORDINATES (ANGSTROEM)
---------------------------------
  N      0.000893    0.000050    2.951218
  C      0.096132   -0.504970    1.924773
  C      0.218454   -1.081319    0.596990
  N      0.405018    0.000006   -0.400875
  C      0.398808   -0.346668   -1.880976
  C     -0.417829    0.918851   -2.161494
  C     -0.728836    0.982109   -0.662131
  H      1.074998   -1.758745    0.545693
  H     -0.683993   -1.637569    0.334259
  H      1.253791    0.518063   -0.167810
  H      1.399966   -0.446152   -2.295120
  H     -0.159837   -1.272514   -2.014368
  H      0.194296    1.752096   -2.503764
  H     -1.270661    0.802505   -2.824634
  H     -1.666824    0.504356   -0.380912
  H     -0.607042    1.918392   -0.122416

FINAL SINGLE POINT ENERGY      -304.890325503664
                    ***********************HURRAY********************
 Multiplicity           Mult            ....    1
 Number of Electrons    NEL             ....   52
 Basis Dimension        Dim             ....  271
FINAL SINGLE POINT ENERGY      -304.890325652933

VIBRATIONAL FREQUENCIES
-----------------------

   0:         0.00 cm**-1
   1:         0.00 cm**-1
   2:         0.00 cm**-1
   3:         0.00 cm**-1
   4:         0.00 cm**-1
   5:         0.00 cm**-1
   6:        70.91 cm**-1
   7:       109.37 cm**-1
   8:       149.31 cm**-1
   9:       304.03 cm**-1
  10:       366.98 cm**-1
  11:       397.27 cm**-1
  12:       504.91 cm**-1
  13:       680.27 cm**-1
  14:       774.71 cm**-1
  15:       809.38 cm**-1
  16:       900.98 cm**-1
  17:       936.75 cm**-1
  18:       966.44 cm**-1
  19:       977.59 cm**-1
  20:      1005.61 cm**-1
  21:      1012.58 cm**-1
  22:      1088.88 cm**-1
  23:      1099.89 cm**-1
  24:      1166.13 cm**-1
  25:      1222.29 cm**-1
  26:      1232.45 cm**-1
  27:      1292.41 cm**-1
  28:      1304.56 cm**-1
  29:      1316.88 cm**-1
  30:      1331.00 cm**-1
  31:      1349.15 cm**-1
  32:      1388.66 cm**-1
  33:      1452.10 cm**-1
  34:      1467.05 cm**-1
  35:      1483.39 cm**-1
  36:      1491.42 cm**-1
  37:      1514.53 cm**-1
  38:      2401.75 cm**-1
  39:      3084.62 cm**-1
  40:      3115.90 cm**-1
  41:      3118.56 cm**-1
  42:      3124.94 cm**-1
  43:      3138.69 cm**-1
  44:      3183.09 cm**-1
  45:      3191.04 cm**-1
  46:      3198.08 cm**-1
  47:      3466.26 cm**-1

IR SPECTRUM
-----------

 Mode    freq (cm**-1)   T**2         TX         TY         TZ
-------------------------------------------------------------------
   6:        70.91    9.196686  (  2.848151  -0.917071   0.493663)
   7:       109.37    5.819449  (  0.696644   2.145980  -0.853761)
   8:       149.31    5.781689  ( -0.665980  -1.464643   1.786891)
   9:       304.03    1.482089  (  0.076692  -0.287370  -1.180520)
  10:       366.98    0.121861  (  0.044514   0.335742   0.084598)
  11:       397.27    1.043678  ( -0.283938   0.976102   0.101397)
  12:       504.91    2.213309  ( -0.017921  -0.386446  -1.436540)
  13:       680.27    7.840649  (  1.573527   1.528927  -1.739840)
  14:       774.71    1.719063  (  0.617596  -1.127857  -0.256080)
  15:       809.38    0.991955  ( -0.566971   0.663038   0.480499)
  16:       900.98    6.941159  ( -1.970078   1.111467  -1.350774)
  17:       936.75    3.173915  ( -0.039795  -0.767534  -1.607241)
  18:       966.44    4.228574  (  0.917444  -1.834970  -0.140560)
  19:       977.59    1.619468  ( -0.614007   0.586167   0.948088)
  20:      1005.61    7.879277  ( -0.667337   1.635532  -2.181507)
  21:      1012.58    3.978508  (  0.232905   0.374777   1.945201)
  22:      1088.88   13.851845  (  1.563629  -1.952687  -2.755707)
  23:      1099.89   27.340763  (  1.182529  -2.334554   4.526836)
  24:      1166.13    0.307043  ( -0.076904   0.546245  -0.052392)
  25:      1222.29    2.431826  (  1.146841  -1.056529   0.018116)
  26:      1232.45    5.943589  ( -0.611960   1.377397   1.916213)
  27:      1292.41    2.766978  ( -0.950677   0.982580   0.947486)
  28:      1304.56    1.447079  (  0.460027   1.110962   0.034893)
  29:      1316.88    4.875020  (  0.504907   1.933556   0.938857)
  30:      1331.00   12.416656  ( -2.574306   1.049415   2.165256)
  31:      1349.15   12.880020  (  2.438284  -1.825745  -1.897749)
  32:      1388.66   12.996537  (  0.559469  -2.208336  -2.794063)
  33:      1452.10   37.622194  (  1.385855  -1.618779   5.751622)
  34:      1467.05   15.143206  (  0.042242  -3.690275  -1.234218)
  35:      1483.39   12.206772  ( -1.860302   2.082337   2.099981)
  36:      1491.42   13.025726  ( -0.652461  -3.075316   1.772697)
  37:      1514.53    3.430680  (  0.869307   1.557557  -0.498999)
  38:      2401.75    6.511159  ( -0.273385   0.554666   2.475634)
  39:      3084.62    2.868240  ( -0.471380   1.563670  -0.448304)
  40:      3115.90    0.211479  ( -0.159561   0.430960   0.017104)
  41:      3118.56    0.809963  (  0.057455  -0.638252   0.631899)
  42:      3124.94    0.901748  (  0.380554   0.771615  -0.401917)
  43:      3138.69    4.936671  ( -2.210879   0.219144  -0.025740)
  44:      3183.09    0.071409  (  0.000994  -0.267088  -0.008493)
  45:      3191.04    0.076947  (  0.186403  -0.018824  -0.204564)
  46:      3198.08    0.853363  (  0.712820   0.474872   0.346046)
  47:      3466.26   67.800232  (  7.066429   3.653857   2.124886)

--------------------------
THERMOCHEMISTRY AT 298.15K
--------------------------

Temperature         ... 298.15 K
Pressure            ... 1.00 atm
Total Mass          ... 97.14 AMU

Throughout the following assumptions are being made:
  (1) The electronic state is orbitally nondegenerate
  (2) There are no thermally accessible electronically excited states
  (3) Hindered rotations indicated by low frequency modes) are not
      treated as such but are treated as vibrations and this may
      case some error
  (4) All equations used are the standard statistical mechanics
      equations for an ideal gas
  (5) All vibrations are strinctly harmonic

------------
INNER ENERGY
------------

The inner energy is: U= E(el) + E(ZPE) + E(vib) + E(rot) + E(trans)
    E(el)   - is the total energy from the electronic structure calculation
              = E(kin-el) + E(nuc-el) + E(el-el) + E(nuc-nuc)
    E(ZPE)  - the the zero temperature vibrational energy from the frequency calculation
    E(vib)  - the the finite temperature correction to E(ZPE) due to population
              of excietd vibrational states
    E(rot)  - is the rotational thermal energy
    E(trans)- is the translational thermal energy

Summary of contributions to the inner energy U:
Electronic energy                ...   -304.89032565 Eh
Zero point energy                ...      0.14168103 Eh      88.91 kcal/mol
Thermal vibrational correction   ...      0.00416735 Eh       2.62 kcal/mol
Thermal rotational correction    ...      0.00141627 Eh       0.89 kcal/mol
Thermal translational correction ...      0.00141627 Eh       0.89 kcal/mol
-----------------------------------------------------------------------
Total thermal energy                   -304.74164473 Eh

Summary of corrections to the electronic energy:
(perhaps to be used in another calculation)
Total thermal correction                  0.00699989 Eh       4.39 kcal/mol
Non-thermal (ZPE) correction              0.14168103 Eh      88.91 kcal/mol
-----------------------------------------------------------------------
Total correction                          0.14868092 Eh      93.30 kcal/mol

--------
ENTHALPY
--------

The enthalpy is H = U + kB*T
                kB is Boltzmann's constant
Total free energy                 ...   -304.74164473 Eh
Thermal Enthalpy correction       ...      0.00094421 Eh       0.59 kcal/mol
-----------------------------------------------------------------------
Total Enthalpy                    ...   -304.74070052 Eh

-------
ENTROPY
-------

The entropy contributions are T*S = T*(S(el)+S(vib)+S(rot)+S(trans)
     S(el)   - electronic entropy
     S(vib)  - vibrational entropy
     S(rot)  - rotational entropy
     S(trans)- translational entropy
The entropies will be listed as mutliplied by the temperature to get
units of energy

Electronic entropy                ...      0.00000000 Eh      0.00 kcal/mol
Vibrational entropy               ...      0.00763177 Eh      4.79 kcal/mol
Rotational entropy                ...      0.01199253 Eh      7.53 kcal/mol
Translational entropy             ...      0.01883016 Eh     11.82 kcal/mol
-----------------------------------------------------------------------
Final entropy term                ...      0.03845446 Eh     24.13 kcal/mol

CAUTION: The rotational entropy is not quite correctly treated here
         because it includes a symmetry number that is not yet correctly
         implemented in ORCA!
For a nonlinear molecule the correct rotational entropy is:
    S(rot) = R*(ln(qrot/sn)+1.5)
    R    = 8.31441 J/mol/K = 1.987191683e-3 kcal/mol/K
    qrot = 219725.1963931
    sn is the rotational symmetry number. We have assumed 3 here
       if it is different for your molecule then you should correct
       the printed rotational entropy by manually evaluating the equation
       as given above

For convenience we print out the resulting values for sn=1 - 12:
 sn= 1  qrot/sn=  219725.1964 T*S(rot)=     8.18 kcal/mol T*S(tot)=    24.78 kcal/mol
 sn= 2  qrot/sn=  109862.5982 T*S(rot)=     7.77 kcal/mol T*S(tot)=    24.37 kcal/mol
 sn= 3  qrot/sn=   73241.7321 T*S(rot)=     7.53 kcal/mol T*S(tot)=    24.13 kcal/mol
 sn= 4  qrot/sn=   54931.2991 T*S(rot)=     7.35 kcal/mol T*S(tot)=    23.96 kcal/mol
 sn= 5  qrot/sn=   43945.0393 T*S(rot)=     7.22 kcal/mol T*S(tot)=    23.83 kcal/mol
 sn= 6  qrot/sn=   36620.8661 T*S(rot)=     7.11 kcal/mol T*S(tot)=    23.72 kcal/mol
 sn= 7  qrot/sn=   31389.3138 T*S(rot)=     7.02 kcal/mol T*S(tot)=    23.63 kcal/mol
 sn= 8  qrot/sn=   27465.6495 T*S(rot)=     6.94 kcal/mol T*S(tot)=    23.55 kcal/mol
 sn= 9  qrot/sn=   24413.9107 T*S(rot)=     6.87 kcal/mol T*S(tot)=    23.48 kcal/mol
 sn=10  qrot/sn=   21972.5196 T*S(rot)=     6.81 kcal/mol T*S(tot)=    23.42 kcal/mol
 sn=11  qrot/sn=   19975.0179 T*S(rot)=     6.76 kcal/mol T*S(tot)=    23.36 kcal/mol
 sn=12  qrot/sn=   18310.4330 T*S(rot)=     6.70 kcal/mol T*S(tot)=    23.31 kcal/mol

-------------------
GIBBS FREE ENTHALPY
-------------------

The Gibbs free enthalpy is G = H - T*S

Total enthalpy                    ...   -304.74070052 Eh
Total entropy correction          ...     -0.03845446 Eh    -24.13 kcal/mol
-----------------------------------------------------------------------
Final Gibbs free enthalpy         ...   -304.77915498 Eh

For completeness - the Gibbs free enthalpy minus the electronic energy
G-E(el)                           ...      0.11117067 Eh     69.76 kcal/mol

                             ****ORCA TERMINATED NORMALLY****
TOTAL RUN TIME: 0 days 0 hours 32 minutes 52 seconds 837 msec
