                         Program Version 3.0.3 - RELEASE   -
|  1> ! NORI PBE0 def2-TZVP UseSym TightOPT Freq TightSCF Grid3 FinalGrid5 XYZFile
|  2> % pal
|  3>     nprocs 8
|  4> end
|  5> %method
|  6>     SymThresh 5.0e-2
|  7> end
|  8> % geom
|  9>     MaxIter 10
| 10> end
| 11> % maxcore 2000
| 12> % output
| 13>     printlevel mini
| 14>     print[ P_Basis ] 0
| 15>     print[ P_SCFInfo ] 1
| 16>     print[ P_SCFIterInfo ] 1
| 17>     print[ P_OrbEn ] 0
| 18>     print[ P_Cartesian ] 0
| 19> end
| 20> % elprop
| 21>     Dipole false
| 22> end
| 23> *xyz 1 1
| 24>  N        1.3942196907    -0.9251720257    -1.7992106878
| 25>  C        2.4438925619    -1.3679546634    -1.6574358513
| 26>  C        3.7848264336    -1.8746594029    -1.4332998274
| 27>  N        4.4880876369    -1.0155861115    -0.4224786248
| 28>  C        5.8810438819    -1.4363141725    -0.1543770216
| 29>  C        6.9531981934    -0.9359355667    -1.0596408436
| 30>  C        6.8414407478    -0.4119153652     0.3401750199
| 31>  H        4.3742310985    -1.8583117129    -2.3515293294
| 32>  H        3.7593596703    -2.8959093957    -1.0487464958
| 33>  H        3.9499484078    -1.0146245105     0.4498566520
| 34>  H        4.4825909139    -0.0462148057    -0.7524100292
| 35>  H        5.9107304866    -2.4471306572     0.2321770509
| 36>  H        6.6805318382    -0.2635918715    -1.8661980098
| 37>  H        7.7498319122    -1.6254041789    -1.3060618197
| 38>  H        6.4950581802     0.6074640922     0.4691569514
| 39>  H        7.5559783461    -0.7345796517     1.0861128662
| 40> *
| 41>
| 42>                          ****END OF INPUT****
 Total Charge           Charge          ....    1
 Multiplicity           Mult            ....    1
 Number of Electrons    NEL             ....   52
FINAL SINGLE POINT ENERGY      -304.882254239335

CARTESIAN COORDINATES (ANGSTROEM)
---------------------------------
  N      0.000243    0.000001    3.326670
  C     -0.250444   -0.323738    2.254159
  C     -0.515505   -0.690129    0.875546
  N      0.464352   -0.000184   -0.028966
  C      0.248713   -0.287057   -1.464300
  C     -0.744170    0.540142   -2.205412
  C      0.722506    0.713851   -2.459514
  H     -1.519057   -0.389038    0.570353
  H     -0.410357   -1.766661    0.728380
  H      1.416363   -0.267253    0.241054
  H      0.404724    1.009934    0.129151
  H      0.344775   -1.346909   -1.664409
  H     -1.255636    1.336633   -1.675202
  H     -1.353919    0.033829   -2.941937
  H      1.190614    1.623876   -2.100246
  H      1.152322    0.325695   -3.373444

FINAL SINGLE POINT ENERGY      -304.882254736704
                    ***********************HURRAY********************
 Multiplicity           Mult            ....    1
 Number of Electrons    NEL             ....   52
 Basis Dimension        Dim             ....  271
FINAL SINGLE POINT ENERGY      -304.882254941261

VIBRATIONAL FREQUENCIES
-----------------------

   0:         0.00 cm**-1
   1:         0.00 cm**-1
   2:         0.00 cm**-1
   3:         0.00 cm**-1
   4:         0.00 cm**-1
   5:         0.00 cm**-1
   6:        63.81 cm**-1
   7:       102.94 cm**-1
   8:       123.04 cm**-1
   9:       240.10 cm**-1
  10:       340.55 cm**-1
  11:       370.84 cm**-1
  12:       425.43 cm**-1
  13:       539.62 cm**-1
  14:       758.05 cm**-1
  15:       803.75 cm**-1
  16:       840.60 cm**-1
  17:       853.65 cm**-1
  18:       948.73 cm**-1
  19:       961.58 cm**-1
  20:       991.80 cm**-1
  21:      1015.13 cm**-1
  22:      1069.36 cm**-1
  23:      1077.59 cm**-1
  24:      1107.97 cm**-1
  25:      1127.05 cm**-1
  26:      1163.62 cm**-1
  27:      1193.17 cm**-1
  28:      1244.56 cm**-1
  29:      1257.44 cm**-1
  30:      1337.80 cm**-1
  31:      1378.93 cm**-1
  32:      1424.52 cm**-1
  33:      1441.33 cm**-1
  34:      1463.86 cm**-1
  35:      1471.77 cm**-1
  36:      1510.43 cm**-1
  37:      1645.03 cm**-1
  38:      2401.83 cm**-1
  39:      3099.26 cm**-1
  40:      3153.86 cm**-1
  41:      3154.34 cm**-1
  42:      3158.40 cm**-1
  43:      3207.77 cm**-1
  44:      3244.68 cm**-1
  45:      3255.49 cm**-1
  46:      3412.66 cm**-1
  47:      3461.39 cm**-1

IR SPECTRUM
-----------

 Mode    freq (cm**-1)   T**2         TX         TY         TZ
-------------------------------------------------------------------
   6:        63.81   16.298292  (  2.133210  -3.426271   0.091505)
   7:       102.94    2.113762  ( -1.362555   0.249082   0.441773)
   8:       123.04   13.883561  (  2.833349   2.010347  -1.346923)
   9:       240.10    3.683707  ( -0.863446   0.620515   1.597851)
  10:       340.55    3.821205  (  0.456821  -0.993032   1.620620)
  11:       370.84    1.308412  ( -0.164181   0.788443  -0.812289)
  12:       425.43    4.504544  (  2.117503   0.037395  -0.139016)
  13:       539.62    9.074180  (  0.750902   0.936801  -2.762740)
  14:       758.05    0.317132  ( -0.075702  -0.557361   0.027392)
  15:       803.75   17.830262  (  2.547036  -3.221847   0.981107)
  16:       840.60   11.548152  (  2.694781   1.175990  -1.703924)
  17:       853.65    2.131275  ( -1.004991  -0.589947   0.879336)
  18:       948.73    3.805687  ( -0.519958   1.598061  -0.990722)
  19:       961.58    9.883907  ( -0.079417  -2.202088   2.242411)
  20:       991.80    3.184366  (  0.876999  -0.187800   1.542715)
  21:      1015.13   12.403007  (  1.114234   0.646200  -3.277791)
  22:      1069.36    5.966096  ( -2.400656  -0.312926  -0.324073)
  23:      1077.59   17.396577  (  0.981511  -2.908765   2.823526)
  24:      1107.97    5.303749  (  2.022157   0.349938  -1.045072)
  25:      1127.05    0.957239  ( -0.509046  -0.067664   0.832786)
  26:      1163.62    5.617220  ( -0.083615  -0.488616  -2.317646)
  27:      1193.17    0.753893  ( -0.853323  -0.099222   0.126048)
  28:      1244.56    3.537420  ( -0.701623   1.743497   0.073230)
  29:      1257.44    4.370789  (  0.952785   0.102744  -1.858072)
  30:      1337.80    9.788698  (  2.287890  -0.054620  -2.133371)
  31:      1378.93    4.194687  (  0.164395   1.631927  -1.226570)
  32:      1424.52   43.169005  ( -1.334935   0.260415   6.427996)
  33:      1441.33   35.892587  ( -0.873134  -0.003059   5.927075)
  34:      1463.86   12.035740  ( -3.249321  -0.481383  -1.116208)
  35:      1471.77   14.542614  (  2.920893   2.013959   1.398203)
  36:      1510.43    7.208537  (  0.524637  -2.342539   1.202416)
  37:      1645.03   49.278617  (  4.321626   4.735273   2.859956)
  38:      2401.83    7.276594  (  0.121826   0.341813   2.672998)
  39:      3099.26    3.024945  (  1.210495   1.248835  -0.007647)
  40:      3153.86    1.958267  ( -0.744765   0.342347  -1.134192)
  41:      3154.34    6.320899  (  1.519303  -1.942106   0.490758)
  42:      3158.40    5.042018  (  0.056768  -0.008091  -2.244711)
  43:      3207.77    1.149015  (  0.031261  -0.747647  -0.767503)
  44:      3244.68    0.323441  ( -0.527872  -0.158070   0.140732)
  45:      3255.49    3.224912  (  0.055414   1.158746   1.370821)
  46:      3412.66   49.939259  (  6.308297   2.652409   1.763342)
  47:      3461.39   77.185557  (  4.999868  -7.221638   0.186587)

--------------------------
THERMOCHEMISTRY AT 298.15K
--------------------------

Temperature         ... 298.15 K
Pressure            ... 1.00 atm
Total Mass          ... 97.14 AMU

Throughout the following assumptions are being made:
  (1) The electronic state is orbitally nondegenerate
  (2) There are no thermally accessible electronically excited states
  (3) Hindered rotations indicated by low frequency modes) are not
      treated as such but are treated as vibrations and this may
      case some error
  (4) All equations used are the standard statistical mechanics
      equations for an ideal gas
  (5) All vibrations are strinctly harmonic

------------
INNER ENERGY
------------

The inner energy is: U= E(el) + E(ZPE) + E(vib) + E(rot) + E(trans)
    E(el)   - is the total energy from the electronic structure calculation
              = E(kin-el) + E(nuc-el) + E(el-el) + E(nuc-nuc)
    E(ZPE)  - the the zero temperature vibrational energy from the frequency calculation
    E(vib)  - the the finite temperature correction to E(ZPE) due to population
              of excietd vibrational states
    E(rot)  - is the rotational thermal energy
    E(trans)- is the translational thermal energy

Summary of contributions to the inner energy U:
Electronic energy                ...   -304.88225494 Eh
Zero point energy                ...      0.14089034 Eh      88.41 kcal/mol
Thermal vibrational correction   ...      0.00459612 Eh       2.88 kcal/mol
Thermal rotational correction    ...      0.00141627 Eh       0.89 kcal/mol
Thermal translational correction ...      0.00141627 Eh       0.89 kcal/mol
-----------------------------------------------------------------------
Total thermal energy                   -304.73393593 Eh

Summary of corrections to the electronic energy:
(perhaps to be used in another calculation)
Total thermal correction                  0.00742867 Eh       4.66 kcal/mol
Non-thermal (ZPE) correction              0.14089034 Eh      88.41 kcal/mol
-----------------------------------------------------------------------
Total correction                          0.14831901 Eh      93.07 kcal/mol

--------
ENTHALPY
--------

The enthalpy is H = U + kB*T
                kB is Boltzmann's constant
Total free energy                 ...   -304.73393593 Eh
Thermal Enthalpy correction       ...      0.00094421 Eh       0.59 kcal/mol
-----------------------------------------------------------------------
Total Enthalpy                    ...   -304.73299172 Eh

-------
ENTROPY
-------

The entropy contributions are T*S = T*(S(el)+S(vib)+S(rot)+S(trans)
     S(el)   - electronic entropy
     S(vib)  - vibrational entropy
     S(rot)  - rotational entropy
     S(trans)- translational entropy
The entropies will be listed as mutliplied by the temperature to get
units of energy

Electronic entropy                ...      0.00000000 Eh      0.00 kcal/mol
Vibrational entropy               ...      0.00857501 Eh      5.38 kcal/mol
Rotational entropy                ...      0.01209972 Eh      7.59 kcal/mol
Translational entropy             ...      0.01883016 Eh     11.82 kcal/mol
-----------------------------------------------------------------------
Final entropy term                ...      0.03950489 Eh     24.79 kcal/mol

CAUTION: The rotational entropy is not quite correctly treated here
         because it includes a symmetry number that is not yet correctly
         implemented in ORCA!
For a nonlinear molecule the correct rotational entropy is:
    S(rot) = R*(ln(qrot/sn)+1.5)
    R    = 8.31441 J/mol/K = 1.987191683e-3 kcal/mol/K
    qrot = 246139.5225544
    sn is the rotational symmetry number. We have assumed 3 here
       if it is different for your molecule then you should correct
       the printed rotational entropy by manually evaluating the equation
       as given above

For convenience we print out the resulting values for sn=1 - 12:
 sn= 1  qrot/sn=  246139.5226 T*S(rot)=     8.24 kcal/mol T*S(tot)=    25.44 kcal/mol
 sn= 2  qrot/sn=  123069.7613 T*S(rot)=     7.83 kcal/mol T*S(tot)=    25.03 kcal/mol
 sn= 3  qrot/sn=   82046.5075 T*S(rot)=     7.59 kcal/mol T*S(tot)=    24.79 kcal/mol
 sn= 4  qrot/sn=   61534.8806 T*S(rot)=     7.42 kcal/mol T*S(tot)=    24.62 kcal/mol
 sn= 5  qrot/sn=   49227.9045 T*S(rot)=     7.29 kcal/mol T*S(tot)=    24.49 kcal/mol
 sn= 6  qrot/sn=   41023.2538 T*S(rot)=     7.18 kcal/mol T*S(tot)=    24.38 kcal/mol
 sn= 7  qrot/sn=   35162.7889 T*S(rot)=     7.09 kcal/mol T*S(tot)=    24.29 kcal/mol
 sn= 8  qrot/sn=   30767.4403 T*S(rot)=     7.01 kcal/mol T*S(tot)=    24.21 kcal/mol
 sn= 9  qrot/sn=   27348.8358 T*S(rot)=     6.94 kcal/mol T*S(tot)=    24.14 kcal/mol
 sn=10  qrot/sn=   24613.9523 T*S(rot)=     6.88 kcal/mol T*S(tot)=    24.08 kcal/mol
 sn=11  qrot/sn=   22376.3202 T*S(rot)=     6.82 kcal/mol T*S(tot)=    24.02 kcal/mol
 sn=12  qrot/sn=   20511.6269 T*S(rot)=     6.77 kcal/mol T*S(tot)=    23.97 kcal/mol

-------------------
GIBBS FREE ENTHALPY
-------------------

The Gibbs free enthalpy is G = H - T*S

Total enthalpy                    ...   -304.73299172 Eh
Total entropy correction          ...     -0.03950489 Eh    -24.79 kcal/mol
-----------------------------------------------------------------------
Final Gibbs free enthalpy         ...   -304.77249661 Eh

For completeness - the Gibbs free enthalpy minus the electronic energy
G-E(el)                           ...      0.10975833 Eh     68.87 kcal/mol

                             ****ORCA TERMINATED NORMALLY****
TOTAL RUN TIME: 0 days 0 hours 28 minutes 13 seconds 882 msec
