                         Program Version 3.0.3 - RELEASE   -
|  1> ! NORI PBE0 def2-TZVP UseSym TightOPT Freq TightSCF Grid3 FinalGrid5 XYZFile
|  2> % pal
|  3>     nprocs 8
|  4> end
|  5> %method
|  6>     SymThresh 5.0e-2
|  7> end
|  8> % geom
|  9>     MaxIter 10
| 10> end
| 11> % maxcore 2000
| 12> % output
| 13>     printlevel mini
| 14>     print[ P_Basis ] 0
| 15>     print[ P_SCFInfo ] 1
| 16>     print[ P_SCFIterInfo ] 1
| 17>     print[ P_OrbEn ] 0
| 18>     print[ P_Cartesian ] 0
| 19> end
| 20> % elprop
| 21>     Dipole false
| 22> end
| 23> *xyz 1 1
| 24>  N        1.7706650805    -1.2628537548    -0.9023122175
| 25>  C        2.8065727242    -0.7740075459    -0.8244672591
| 26>  C        4.1098209644    -0.1624830129    -0.6545061812
| 27>  N        4.4552842668    -0.1488679034     0.8125065446
| 28>  C        5.7866636743     0.4745172767     1.1287996496
| 29>  C        6.8436621192    -0.2676782241     0.4690701909
| 30>  N        7.6446533798    -0.8829379372    -0.0768191356
| 31>  H        4.1112947863     0.8695504613    -1.0123966234
| 32>  H        4.8869337290    -0.7256104264    -1.1769420514
| 33>  H        4.4390382408    -1.1133025031     1.1618626352
| 34>  H        3.7220841337     0.3524963979     1.3240120955
| 35>  H        5.7658288455     1.5130012621     0.7909326049
| 36>  H        5.9163380555     0.4580559097     2.2139397476
| 37> *
| 38>
| 39>                          ****END OF INPUT****
 Total Charge           Charge          ....    1
 Multiplicity           Mult            ....    1
 Number of Electrons    NEL             ....   50
FINAL SINGLE POINT ENERGY      -319.694296833963

CARTESIAN COORDINATES (ANGSTROEM)
---------------------------------
  N      0.000668    0.000523    3.249905
  C     -0.157785    0.267618    2.144664
  C     -0.294197    0.574104    0.734443
  N      0.886136   -0.000183   -0.006504
  C      0.873611    0.260194   -1.487672
  C     -0.307737   -0.337606   -2.079478
  N     -1.259221   -0.822376   -2.501027
  H     -0.308292    1.653074    0.564320
  H     -1.201169    0.131741    0.314951
  H      0.917647   -1.011821    0.161483
  H      1.749506    0.382425    0.392258
  H      0.887395    1.341327   -1.643925
  H      1.783849   -0.170198   -1.912208

FINAL SINGLE POINT ENERGY      -319.694297098331
                    ***********************HURRAY********************
 Multiplicity           Mult            ....    1
 Number of Electrons    NEL             ....   50
 Basis Dimension        Dim             ....  253
FINAL SINGLE POINT ENERGY      -319.694297161329

VIBRATIONAL FREQUENCIES
-----------------------

   0:         0.00 cm**-1
   1:         0.00 cm**-1
   2:         0.00 cm**-1
   3:         0.00 cm**-1
   4:         0.00 cm**-1
   5:         0.00 cm**-1
   6:        57.51 cm**-1
   7:        98.20 cm**-1
   8:       154.55 cm**-1
   9:       194.10 cm**-1
  10:       325.41 cm**-1
  11:       359.75 cm**-1
  12:       365.85 cm**-1
  13:       509.04 cm**-1
  14:       604.47 cm**-1
  15:       809.97 cm**-1
  16:       879.44 cm**-1
  17:       924.28 cm**-1
  18:       981.69 cm**-1
  19:      1020.91 cm**-1
  20:      1040.20 cm**-1
  21:      1079.54 cm**-1
  22:      1216.26 cm**-1
  23:      1280.20 cm**-1
  24:      1363.96 cm**-1
  25:      1380.37 cm**-1
  26:      1425.61 cm**-1
  27:      1449.05 cm**-1
  28:      1468.40 cm**-1
  29:      1470.95 cm**-1
  30:      1642.42 cm**-1
  31:      2401.97 cm**-1
  32:      2402.98 cm**-1
  33:      3087.60 cm**-1
  34:      3089.73 cm**-1
  35:      3143.77 cm**-1
  36:      3144.90 cm**-1
  37:      3406.45 cm**-1
  38:      3456.75 cm**-1

IR SPECTRUM
-----------

 Mode    freq (cm**-1)   T**2         TX         TY         TZ
-------------------------------------------------------------------
   6:        57.51   20.110009  ( -2.272997  -3.700701   1.117277)
   7:        98.20   13.728563  ( -2.578259   1.241798   2.353525)
   8:       154.55   11.129363  ( -2.564411   0.976965   1.897023)
   9:       194.10    7.361345  ( -1.916889  -1.091810  -1.579504)
  10:       325.41    3.046372  (  0.257635  -0.416910   1.675166)
  11:       359.75    0.092626  (  0.101253   0.285692   0.027447)
  12:       365.85    0.131821  ( -0.308168  -0.169199   0.090697)
  13:       509.04    4.341645  (  1.684012   0.105300  -1.222563)
  14:       604.47    8.690998  (  0.710933   0.942888   2.701210)
  15:       809.97    8.476593  (  0.816130   2.625039   0.959007)
  16:       879.44    9.383014  (  1.529510  -1.906655  -1.846152)
  17:       924.28    7.590267  ( -2.161158  -0.362370   1.669836)
  18:       981.69    1.078035  (  0.745288   0.354584  -0.629961)
  19:      1020.91   23.999343  ( -0.601867   0.446569   4.841247)
  20:      1040.20   14.542447  (  1.873979   0.596215   3.267289)
  21:      1079.54    4.426628  (  1.303671   1.645450  -0.139871)
  22:      1216.26    1.438475  (  0.833177   0.683887  -0.525918)
  23:      1280.20   15.114742  ( -1.699655  -0.933375   3.369677)
  24:      1363.96   11.190979  (  0.232114  -2.112375  -2.583597)
  25:      1380.37    5.324965  (  2.205798  -0.362942   0.572444)
  26:      1425.61   22.303025  ( -0.892400  -1.465254  -4.399963)
  27:      1449.05   42.460856  (  2.582216  -0.546288  -5.957733)
  28:      1468.40   34.987941  ( -3.386789  -2.857074   3.918511)
  29:      1470.95   15.207779  ( -3.477806   1.049007  -1.418529)
  30:      1642.42   62.427016  (  5.547595  -3.948799   4.007267)
  31:      2401.97    5.770108  ( -1.980170  -1.173910   0.686273)
  32:      2402.98   19.327450  (  1.556548   0.551205   4.074406)
  33:      3087.60    6.007878  ( -2.370154   0.606023  -0.151598)
  34:      3089.73    6.250729  ( -1.205037  -0.832852   2.026073)
  35:      3143.77    9.618161  ( -2.207494   2.146435   0.371415)
  36:      3144.90   12.645338  ( -1.353494  -3.032612  -1.271479)
  37:      3406.45   77.159841  (  6.287807  -5.132976   3.357959)
  38:      3456.75  109.603936  (  6.040607   8.335801   1.905103)

--------------------------
THERMOCHEMISTRY AT 298.15K
--------------------------

Temperature         ... 298.15 K
Pressure            ... 1.00 atm
Total Mass          ... 96.11 AMU

Throughout the following assumptions are being made:
  (1) The electronic state is orbitally nondegenerate
  (2) There are no thermally accessible electronically excited states
  (3) Hindered rotations indicated by low frequency modes) are not
      treated as such but are treated as vibrations and this may
      case some error
  (4) All equations used are the standard statistical mechanics
      equations for an ideal gas
  (5) All vibrations are strinctly harmonic

------------
INNER ENERGY
------------

The inner energy is: U= E(el) + E(ZPE) + E(vib) + E(rot) + E(trans)
    E(el)   - is the total energy from the electronic structure calculation
              = E(kin-el) + E(nuc-el) + E(el-el) + E(nuc-nuc)
    E(ZPE)  - the the zero temperature vibrational energy from the frequency calculation
    E(vib)  - the the finite temperature correction to E(ZPE) due to population
              of excietd vibrational states
    E(rot)  - is the rotational thermal energy
    E(trans)- is the translational thermal energy

Summary of contributions to the inner energy U:
Electronic energy                ...   -319.69429716 Eh
Zero point energy                ...      0.10533397 Eh      66.10 kcal/mol
Thermal vibrational correction   ...      0.00460866 Eh       2.89 kcal/mol
Thermal rotational correction    ...      0.00141627 Eh       0.89 kcal/mol
Thermal translational correction ...      0.00141627 Eh       0.89 kcal/mol
-----------------------------------------------------------------------
Total thermal energy                   -319.58152199 Eh

Summary of corrections to the electronic energy:
(perhaps to be used in another calculation)
Total thermal correction                  0.00744120 Eh       4.67 kcal/mol
Non-thermal (ZPE) correction              0.10533397 Eh      66.10 kcal/mol
-----------------------------------------------------------------------
Total correction                          0.11277517 Eh      70.77 kcal/mol

--------
ENTHALPY
--------

The enthalpy is H = U + kB*T
                kB is Boltzmann's constant
Total free energy                 ...   -319.58152199 Eh
Thermal Enthalpy correction       ...      0.00094421 Eh       0.59 kcal/mol
-----------------------------------------------------------------------
Total Enthalpy                    ...   -319.58057778 Eh

-------
ENTROPY
-------

The entropy contributions are T*S = T*(S(el)+S(vib)+S(rot)+S(trans)
     S(el)   - electronic entropy
     S(vib)  - vibrational entropy
     S(rot)  - rotational entropy
     S(trans)- translational entropy
The entropies will be listed as mutliplied by the temperature to get
units of energy

Electronic entropy                ...      0.00000000 Eh      0.00 kcal/mol
Vibrational entropy               ...      0.00874263 Eh      5.49 kcal/mol
Rotational entropy                ...      0.01218615 Eh      7.65 kcal/mol
Translational entropy             ...      0.01881509 Eh     11.81 kcal/mol
-----------------------------------------------------------------------
Final entropy term                ...      0.03974387 Eh     24.94 kcal/mol

CAUTION: The rotational entropy is not quite correctly treated here
         because it includes a symmetry number that is not yet correctly
         implemented in ORCA!
For a nonlinear molecule the correct rotational entropy is:
    S(rot) = R*(ln(qrot/sn)+1.5)
    R    = 8.31441 J/mol/K = 1.987191683e-3 kcal/mol/K
    qrot = 269733.8720991
    sn is the rotational symmetry number. We have assumed 3 here
       if it is different for your molecule then you should correct
       the printed rotational entropy by manually evaluating the equation
       as given above

For convenience we print out the resulting values for sn=1 - 12:
 sn= 1  qrot/sn=  269733.8721 T*S(rot)=     8.30 kcal/mol T*S(tot)=    25.59 kcal/mol
 sn= 2  qrot/sn=  134866.9360 T*S(rot)=     7.89 kcal/mol T*S(tot)=    25.18 kcal/mol
 sn= 3  qrot/sn=   89911.2907 T*S(rot)=     7.65 kcal/mol T*S(tot)=    24.94 kcal/mol
 sn= 4  qrot/sn=   67433.4680 T*S(rot)=     7.48 kcal/mol T*S(tot)=    24.77 kcal/mol
 sn= 5  qrot/sn=   53946.7744 T*S(rot)=     7.34 kcal/mol T*S(tot)=    24.64 kcal/mol
 sn= 6  qrot/sn=   44955.6453 T*S(rot)=     7.24 kcal/mol T*S(tot)=    24.53 kcal/mol
 sn= 7  qrot/sn=   38533.4103 T*S(rot)=     7.14 kcal/mol T*S(tot)=    24.44 kcal/mol
 sn= 8  qrot/sn=   33716.7340 T*S(rot)=     7.07 kcal/mol T*S(tot)=    24.36 kcal/mol
 sn= 9  qrot/sn=   29970.4302 T*S(rot)=     7.00 kcal/mol T*S(tot)=    24.29 kcal/mol
 sn=10  qrot/sn=   26973.3872 T*S(rot)=     6.93 kcal/mol T*S(tot)=    24.23 kcal/mol
 sn=11  qrot/sn=   24521.2611 T*S(rot)=     6.88 kcal/mol T*S(tot)=    24.17 kcal/mol
 sn=12  qrot/sn=   22477.8227 T*S(rot)=     6.83 kcal/mol T*S(tot)=    24.12 kcal/mol

-------------------
GIBBS FREE ENTHALPY
-------------------

The Gibbs free enthalpy is G = H - T*S

Total enthalpy                    ...   -319.58057778 Eh
Total entropy correction          ...     -0.03974387 Eh    -24.94 kcal/mol
-----------------------------------------------------------------------
Final Gibbs free enthalpy         ...   -319.62032165 Eh

For completeness - the Gibbs free enthalpy minus the electronic energy
G-E(el)                           ...      0.07397551 Eh     46.42 kcal/mol

                             ****ORCA TERMINATED NORMALLY****
TOTAL RUN TIME: 0 days 0 hours 20 minutes 16 seconds 193 msec
