                         Program Version 3.0.3 - RELEASE   -
|  1> ! NORI PBE0 def2-TZVP UseSym TightOPT Freq TightSCF Grid3 FinalGrid5 XYZFile
|  2> % pal
|  3>     nprocs 8
|  4> end
|  5> %method
|  6>     SymThresh 5.0e-2
|  7> end
|  8> % geom
|  9>     MaxIter 10
| 10> end
| 11> % maxcore 2000
| 12> % output
| 13>     printlevel mini
| 14>     print[ P_Basis ] 0
| 15>     print[ P_SCFInfo ] 1
| 16>     print[ P_SCFIterInfo ] 1
| 17>     print[ P_OrbEn ] 0
| 18>     print[ P_Cartesian ] 0
| 19> end
| 20> % elprop
| 21>     Dipole false
| 22> end
| 23> *xyz 1 1
| 24>  N        2.4859503764     1.1202583634    -0.7063310683
| 25>  C        2.5018268854    -0.0457093187    -0.0740750702
| 26>  N        1.4340879229     0.0037323739    -0.8692030758
| 27>  C        3.1533857085    -0.8200242665     0.9240955279
| 28>  C        2.4388089073    -0.6996749524     2.3539117547
| 29>  C        2.6921572058    -2.2024641887     2.5334376062
| 30>  C        2.8926470570    -2.3415727488     1.0158562186
| 31>  H        2.2703038717     1.9535555090    -0.1494969572
| 32>  H        0.5249304702     0.1026847722    -0.4052388093
| 33>  H        4.2002985582    -0.5254409603     1.0060358235
| 34>  H        1.3791059352    -0.4606096839     2.2566088463
| 35>  H        2.9198070348     0.0123098546     3.0216996658
| 36>  H        3.6144120100    -2.3868065373     3.0846253006
| 37>  H        1.8874183944    -2.7783231128     2.9853003679
| 38>  H        3.7091594661    -2.9661285582     0.6583212277
| 39>  H        1.9739401963    -2.6196665455     0.4963226416
| 40> *
| 41>
| 42>                          ****END OF INPUT****
 Total Charge           Charge          ....    1
 Multiplicity           Mult            ....    1
 Number of Electrons    NEL             ....   52
FINAL SINGLE POINT ENERGY      -304.793446612363

CARTESIAN COORDINATES (ANGSTROEM)
---------------------------------
  N      0.000260   -0.000715    2.321734
  C      0.133225   -0.192355    1.015832
  N      1.337254    0.000317    1.552467
  C     -0.561339   -0.358613   -0.213196
  C     -0.732124    1.021542   -1.010735
  C     -0.438748    0.238340   -2.297321
  C      0.186521   -0.888218   -1.459094
  H     -0.419155    0.883769    2.626265
  H      1.791757    0.895138    1.342486
  H     -1.538902   -0.808736   -0.035992
  H      0.057411    1.732025   -0.761824
  H     -1.706140    1.486292   -0.872092
  H     -1.358996   -0.081194   -2.786427
  H      0.199502    0.729759   -3.028238
  H     -0.043760   -1.918003   -1.725167
  H      1.266905   -0.778381   -1.351138

FINAL SINGLE POINT ENERGY      -304.793447136044
                    ***********************HURRAY********************
 Multiplicity           Mult            ....    1
 Number of Electrons    NEL             ....   52
 Basis Dimension        Dim             ....  271
FINAL SINGLE POINT ENERGY      -304.793447570201

VIBRATIONAL FREQUENCIES
-----------------------

   0:         0.00 cm**-1
   1:         0.00 cm**-1
   2:         0.00 cm**-1
   3:         0.00 cm**-1
   4:         0.00 cm**-1
   5:         0.00 cm**-1
   6:        31.33 cm**-1
   7:       107.33 cm**-1
   8:       149.68 cm**-1
   9:       236.35 cm**-1
  10:       413.61 cm**-1
  11:       483.82 cm**-1
  12:       520.33 cm**-1
  13:       575.66 cm**-1
  14:       705.01 cm**-1
  15:       772.80 cm**-1
  16:       785.24 cm**-1
  17:       831.27 cm**-1
  18:       878.84 cm**-1
  19:       961.45 cm**-1
  20:       980.57 cm**-1
  21:       986.23 cm**-1
  22:      1008.41 cm**-1
  23:      1029.70 cm**-1
  24:      1054.56 cm**-1
  25:      1081.44 cm**-1
  26:      1127.47 cm**-1
  27:      1196.86 cm**-1
  28:      1223.07 cm**-1
  29:      1235.52 cm**-1
  30:      1260.10 cm**-1
  31:      1283.77 cm**-1
  32:      1291.64 cm**-1
  33:      1340.60 cm**-1
  34:      1433.92 cm**-1
  35:      1465.14 cm**-1
  36:      1477.21 cm**-1
  37:      1499.67 cm**-1
  38:      1731.03 cm**-1
  39:      3094.95 cm**-1
  40:      3097.50 cm**-1
  41:      3109.62 cm**-1
  42:      3127.04 cm**-1
  43:      3164.65 cm**-1
  44:      3170.92 cm**-1
  45:      3180.71 cm**-1
  46:      3428.56 cm**-1
  47:      3443.32 cm**-1

IR SPECTRUM
-----------

 Mode    freq (cm**-1)   T**2         TX         TY         TZ
-------------------------------------------------------------------
   7:       107.33    4.875048  (  1.913388   0.388019   1.031231)
   8:       149.68    9.889159  ( -1.775343  -0.529223  -2.541110)
   9:       236.35    3.768861  ( -1.563363  -0.294840  -1.112577)
  10:       413.61  159.150872  ( 10.177073  -0.198094  -7.452437)
  11:       483.82  101.150222  (  9.358462   0.616662  -3.631685)
  12:       520.33   46.044064  (  1.354546   2.034185   6.330194)
  13:       575.66   14.303463  ( -3.444078  -0.948512   1.241818)
  14:       705.01   20.966976  ( -1.129745   1.216237  -4.267484)
  15:       772.80   17.921470  (  1.774230  -2.944927   2.470016)
  16:       785.24    4.235322  ( -1.387655  -0.464129  -1.447176)
  17:       831.27   64.737469  ( -2.074647   3.905619  -6.721566)
  18:       878.84   29.610140  ( -2.403676   1.096380  -4.757146)
  19:       961.45   85.503425  ( -3.296434   3.295654  -7.985964)
  20:       980.57   25.403861  (  1.684403  -1.511393   4.503592)
  21:       986.23    2.895117  ( -0.986066   1.338686   0.361542)
  22:      1008.41   24.534368  ( -2.585243   0.072775  -4.224404)
  23:      1029.70   15.016828  ( -0.356986   0.783323   3.778332)
  24:      1054.56   97.039972  (  5.094740   1.558330   8.285844)
  25:      1081.44   75.594249  ( -4.667851  -0.987092  -7.268498)
  26:      1127.47   12.265204  ( -1.359998   0.518827   3.185346)
  27:      1196.86   21.853521  ( -2.039511   1.828892  -3.788016)
  28:      1223.07    2.148590  ( -0.282493   0.320030   1.402273)
  29:      1235.52    3.090012  ( -0.014427  -0.463574   1.695554)
  30:      1260.10    3.697392  ( -1.415576   0.279389  -1.271014)
  31:      1283.77    4.579218  ( -1.461507  -1.402098  -0.690897)
  32:      1291.64    6.328862  ( -1.387122   1.938372  -0.804654)
  33:      1340.60    2.160416  ( -0.087522  -0.287491  -1.438786)
  34:      1433.92    1.711727  ( -0.784951  -0.243172   1.018060)
  35:      1465.14    7.945976  ( -0.864742   2.340648   1.311322)
  36:      1477.21   18.496323  ( -2.799252  -0.063441  -3.264427)
  37:      1499.67    3.438532  ( -1.193427  -0.263159  -1.394637)
  38:      1731.03  304.542637  (  6.208319  -0.009864  16.309486)
  39:      3094.95    6.292957  ( -0.023616   2.436178   0.597860)
  40:      3097.50    4.691145  (  2.049554   0.281462   0.641290)
  41:      3109.62    4.518607  ( -0.988266  -0.092311  -1.879738)
  42:      3127.04    3.941771  ( -1.578131  -1.155793  -0.339726)
  43:      3164.65    0.504315  (  0.278873   0.015544  -0.652919)
  44:      3170.92    0.914729  (  0.255742  -0.919858   0.056444)
  45:      3180.71    1.897568  ( -1.113328  -0.499306   0.639346)
  46:      3428.56   80.700823  (  8.062329   0.791273  -3.882468)
  47:      3443.32  145.385907  ( -1.580321  -9.340297  -7.459714)

--------------------------
THERMOCHEMISTRY AT 298.15K
--------------------------

Temperature         ... 298.15 K
Pressure            ... 1.00 atm
Total Mass          ... 97.14 AMU

Throughout the following assumptions are being made:
  (1) The electronic state is orbitally nondegenerate
  (2) There are no thermally accessible electronically excited states
  (3) Hindered rotations indicated by low frequency modes) are not
      treated as such but are treated as vibrations and this may
      case some error
  (4) All equations used are the standard statistical mechanics
      equations for an ideal gas
  (5) All vibrations are strinctly harmonic

------------
INNER ENERGY
------------

The inner energy is: U= E(el) + E(ZPE) + E(vib) + E(rot) + E(trans)
    E(el)   - is the total energy from the electronic structure calculation
              = E(kin-el) + E(nuc-el) + E(el-el) + E(nuc-nuc)
    E(ZPE)  - the the zero temperature vibrational energy from the frequency calculation
    E(vib)  - the the finite temperature correction to E(ZPE) due to population
              of excietd vibrational states
    E(rot)  - is the rotational thermal energy
    E(trans)- is the translational thermal energy

Summary of contributions to the inner energy U:
Electronic energy                ...   -304.79344757 Eh
Zero point energy                ...      0.13656605 Eh      85.70 kcal/mol
Thermal vibrational correction   ...      0.00358128 Eh       2.25 kcal/mol
Thermal rotational correction    ...      0.00141627 Eh       0.89 kcal/mol
Thermal translational correction ...      0.00141627 Eh       0.89 kcal/mol
-----------------------------------------------------------------------
Total thermal energy                   -304.65046770 Eh

Summary of corrections to the electronic energy:
(perhaps to be used in another calculation)
Total thermal correction                  0.00641382 Eh       4.02 kcal/mol
Non-thermal (ZPE) correction              0.13656605 Eh      85.70 kcal/mol
-----------------------------------------------------------------------
Total correction                          0.14297987 Eh      89.72 kcal/mol

--------
ENTHALPY
--------

The enthalpy is H = U + kB*T
                kB is Boltzmann's constant
Total free energy                 ...   -304.65046770 Eh
Thermal Enthalpy correction       ...      0.00094421 Eh       0.59 kcal/mol
-----------------------------------------------------------------------
Total Enthalpy                    ...   -304.64952350 Eh

-------
ENTROPY
-------

The entropy contributions are T*S = T*(S(el)+S(vib)+S(rot)+S(trans)
     S(el)   - electronic entropy
     S(vib)  - vibrational entropy
     S(rot)  - rotational entropy
     S(trans)- translational entropy
The entropies will be listed as mutliplied by the temperature to get
units of energy

Electronic entropy                ...      0.00000000 Eh      0.00 kcal/mol
Vibrational entropy               ...      0.00598322 Eh      3.75 kcal/mol
Rotational entropy                ...      0.01190835 Eh      7.47 kcal/mol
Translational entropy             ...      0.01883016 Eh     11.82 kcal/mol
-----------------------------------------------------------------------
Final entropy term                ...      0.03672173 Eh     23.04 kcal/mol

CAUTION: The rotational entropy is not quite correctly treated here
         because it includes a symmetry number that is not yet correctly
         implemented in ORCA!
For a nonlinear molecule the correct rotational entropy is:
    S(rot) = R*(ln(qrot/sn)+1.5)
    R    = 8.31441 J/mol/K = 1.987191683e-3 kcal/mol/K
    qrot = 200982.6730050
    sn is the rotational symmetry number. We have assumed 3 here
       if it is different for your molecule then you should correct
       the printed rotational entropy by manually evaluating the equation
       as given above

For convenience we print out the resulting values for sn=1 - 12:
 sn= 1  qrot/sn=  200982.6730 T*S(rot)=     8.12 kcal/mol T*S(tot)=    23.69 kcal/mol
 sn= 2  qrot/sn=  100491.3365 T*S(rot)=     7.71 kcal/mol T*S(tot)=    23.28 kcal/mol
 sn= 3  qrot/sn=   66994.2243 T*S(rot)=     7.47 kcal/mol T*S(tot)=    23.04 kcal/mol
 sn= 4  qrot/sn=   50245.6683 T*S(rot)=     7.30 kcal/mol T*S(tot)=    22.87 kcal/mol
 sn= 5  qrot/sn=   40196.5346 T*S(rot)=     7.17 kcal/mol T*S(tot)=    22.74 kcal/mol
 sn= 6  qrot/sn=   33497.1122 T*S(rot)=     7.06 kcal/mol T*S(tot)=    22.63 kcal/mol
 sn= 7  qrot/sn=   28711.8104 T*S(rot)=     6.97 kcal/mol T*S(tot)=    22.54 kcal/mol
 sn= 8  qrot/sn=   25122.8341 T*S(rot)=     6.89 kcal/mol T*S(tot)=    22.46 kcal/mol
 sn= 9  qrot/sn=   22331.4081 T*S(rot)=     6.82 kcal/mol T*S(tot)=    22.39 kcal/mol
 sn=10  qrot/sn=   20098.2673 T*S(rot)=     6.76 kcal/mol T*S(tot)=    22.33 kcal/mol
 sn=11  qrot/sn=   18271.1521 T*S(rot)=     6.70 kcal/mol T*S(tot)=    22.27 kcal/mol
 sn=12  qrot/sn=   16748.5561 T*S(rot)=     6.65 kcal/mol T*S(tot)=    22.22 kcal/mol

-------------------
GIBBS FREE ENTHALPY
-------------------

The Gibbs free enthalpy is G = H - T*S

Total enthalpy                    ...   -304.64952350 Eh
Total entropy correction          ...     -0.03672173 Eh    -23.04 kcal/mol
-----------------------------------------------------------------------
Final Gibbs free enthalpy         ...   -304.68624523 Eh

For completeness - the Gibbs free enthalpy minus the electronic energy
G-E(el)                           ...      0.10720234 Eh     67.27 kcal/mol

                             ****ORCA TERMINATED NORMALLY****
TOTAL RUN TIME: 0 days 0 hours 32 minutes 28 seconds 734 msec
