                         Program Version 3.0.3 - RELEASE   -
|  1> ! NORI PBE0 def2-TZVP UseSym TightOPT Freq TightSCF Grid3 FinalGrid5 XYZFile
|  2> % pal
|  3>     nprocs 8
|  4> end
|  5> %method
|  6>     SymThresh 5.0e-2
|  7> end
|  8> % geom
|  9>     MaxIter 10
| 10> end
| 11> % maxcore 2000
| 12> % output
| 13>     printlevel mini
| 14>     print[ P_Basis ] 0
| 15>     print[ P_SCFInfo ] 1
| 16>     print[ P_SCFIterInfo ] 1
| 17>     print[ P_OrbEn ] 0
| 18>     print[ P_Cartesian ] 0
| 19> end
| 20> % elprop
| 21>     Dipole false
| 22> end
| 23> *xyz 1 1
| 24>  N        4.0615534886     0.2193405464     0.3164059813
| 25>  C        2.6771529768    -0.2638131413    -0.0212620395
| 26>  N        1.6709342986     0.2268959710     0.4905168791
| 27>  C        3.2046312624    -1.2844155989    -1.0036267829
| 28>  C        4.6292733629    -0.8625931225    -0.6185217836
| 29>  C        4.7219446155    -0.4562603759     1.5018007228
| 30>  C        5.2592974020    -1.5722642338     0.5897685116
| 31>  H        4.2162147350     1.2209680814     0.2002406580
| 32>  H        0.7898490871    -0.1824322984     0.1840634961
| 33>  H        2.9339262923    -2.3200742463    -0.7955774885
| 34>  H        2.9297521626    -1.0475538949    -2.0339677002
| 35>  H        5.2835479863    -0.5119819587    -1.4124468118
| 36>  H        3.9928940839    -0.7106046384     2.2682230029
| 37>  H        5.4836874025     0.2014937014     1.9155526762
| 38>  H        6.3452742008    -1.6285800765     0.5569597269
| 39>  H        4.8599966428    -2.5660647145     0.7828509515
| 40> *
| 41>
| 42>                          ****END OF INPUT****
 Total Charge           Charge          ....    1
 Multiplicity           Mult            ....    1
 Number of Electrons    NEL             ....   52
FINAL SINGLE POINT ENERGY      -304.893448141443

CARTESIAN COORDINATES (ANGSTROEM)
---------------------------------
  N      0.000018    0.000045    0.854304
  C      1.063057   -0.337558   -0.155446
  N      2.237305    0.000223   -0.005298
  C      0.079900   -1.070472   -1.039525
  C     -1.035903   -0.671885   -0.063797
  C     -0.690573    1.335025    0.659030
  C     -1.707314    0.689780   -0.298231
  H      0.197294   -0.291404    1.811784
  H      2.865850   -0.285117   -0.754579
  H     -0.009414   -0.691011   -2.057848
  H      0.279045   -2.143770   -1.078679
  H     -1.623704   -1.469161    0.383158
  H     -0.002955    2.082240    0.268408
  H     -1.105418    1.670211    1.607339
  H     -2.735921    0.745211    0.050808
  H     -1.664997    1.037749   -1.328699

FINAL SINGLE POINT ENERGY      -304.893448616723
                    ***********************HURRAY********************
 Multiplicity           Mult            ....    1
 Number of Electrons    NEL             ....   52
 Basis Dimension        Dim             ....  271
FINAL SINGLE POINT ENERGY      -304.893448717141

VIBRATIONAL FREQUENCIES
-----------------------

   0:         0.00 cm**-1
   1:         0.00 cm**-1
   2:         0.00 cm**-1
   3:         0.00 cm**-1
   4:         0.00 cm**-1
   5:         0.00 cm**-1
   6:        68.26 cm**-1
   7:       207.97 cm**-1
   8:       354.96 cm**-1
   9:       417.18 cm**-1
  10:       511.09 cm**-1
  11:       616.59 cm**-1
  12:       716.76 cm**-1
  13:       767.91 cm**-1
  14:       788.68 cm**-1
  15:       842.22 cm**-1
  16:       878.68 cm**-1
  17:       903.36 cm**-1
  18:       917.45 cm**-1
  19:       967.47 cm**-1
  20:       977.31 cm**-1
  21:       998.47 cm**-1
  22:      1064.99 cm**-1
  23:      1087.22 cm**-1
  24:      1122.98 cm**-1
  25:      1140.51 cm**-1
  26:      1184.81 cm**-1
  27:      1214.48 cm**-1
  28:      1226.66 cm**-1
  29:      1263.04 cm**-1
  30:      1283.23 cm**-1
  31:      1289.21 cm**-1
  32:      1304.50 cm**-1
  33:      1328.26 cm**-1
  34:      1359.00 cm**-1
  35:      1444.53 cm**-1
  36:      1484.80 cm**-1
  37:      1502.22 cm**-1
  38:      1870.44 cm**-1
  39:      3095.16 cm**-1
  40:      3124.04 cm**-1
  41:      3125.40 cm**-1
  42:      3151.73 cm**-1
  43:      3173.29 cm**-1
  44:      3180.85 cm**-1
  45:      3195.71 cm**-1
  46:      3486.75 cm**-1
  47:      3529.22 cm**-1

IR SPECTRUM
-----------

 Mode    freq (cm**-1)   T**2         TX         TY         TZ
-------------------------------------------------------------------
   6:        68.26    2.353831  ( -0.274314   1.342424  -0.690276)
   7:       207.97    0.423739  ( -0.402843   0.053055   0.508568)
   8:       354.96    2.092784  ( -0.791184   1.209653   0.059605)
   9:       417.18   11.547674  (  3.365587  -0.289979  -0.369337)
  10:       511.09    5.046957  (  2.228859   0.273842   0.064466)
  11:       616.59    1.693129  (  0.944132   0.703001  -0.554558)
  12:       716.76   34.801948  ( -5.823829   0.248607   0.907283)
  13:       767.91    6.545028  ( -1.635590  -1.526640   1.240663)
  14:       788.68    8.301348  ( -2.250422   1.469239  -1.038404)
  15:       842.22    6.506901  ( -1.571223   0.804451   1.841472)
  16:       878.68   33.210541  ( -0.269062   5.310209  -2.222573)
  17:       903.36   80.755095  ( -8.882323   0.241715   1.342015)
  18:       917.45   60.265312  ( -5.914361   4.880277  -1.211835)
  19:       967.47   22.255330  (  3.642472   1.735689  -2.444404)
  20:       977.31   12.009556  (  0.109849   3.396132  -0.681012)
  21:       998.47    0.687248  ( -0.525835  -0.243592  -0.592797)
  22:      1064.99    0.218606  ( -0.224723  -0.192531  -0.361992)
  23:      1087.22    2.251562  ( -0.200925  -0.464580   1.412571)
  24:      1122.98    6.688521  ( -0.837074  -0.312361  -2.426985)
  25:      1140.51    2.191656  (  0.862449  -0.518703   1.085719)
  26:      1184.81   73.951150  (  4.830874   5.745120   4.196118)
  27:      1214.48   15.417537  ( -3.310964  -1.824315  -1.061569)
  28:      1226.66    8.073863  ( -1.490528  -1.552097  -1.855583)
  29:      1263.04    3.438532  (  1.373849   0.856537   0.904110)
  30:      1283.23    1.437839  ( -0.016374  -0.583819  -1.047247)
  31:      1289.21   26.379151  ( -4.809993   0.132955   1.795952)
  32:      1304.50   24.807359  (  0.793484   4.747055   1.281879)
  33:      1328.26    4.393708  ( -0.741376   1.455241   1.313903)
  34:      1359.00    8.399451  ( -0.775115   2.438709   1.360642)
  35:      1444.53   16.742235  (  0.237931  -1.964061  -3.581632)
  36:      1484.80   16.023980  (  2.340680   1.527321   2.865744)
  37:      1502.22    8.626566  (  0.644950  -2.660601   1.063864)
  38:      1870.44  140.247913  ( 11.792997   1.081258  -0.063422)
  39:      3095.16    4.049493  ( -0.839297  -1.474609  -1.081944)
  40:      3124.04    0.939246  ( -0.530185   0.042796  -0.810135)
  41:      3125.40    0.278982  (  0.019861   0.458892   0.260777)
  42:      3151.73    2.062268  (  0.059734  -1.209541   0.771822)
  43:      3173.29    0.091317  (  0.119143  -0.056059  -0.271992)
  44:      3180.85    0.100566  (  0.143326  -0.128178  -0.252180)
  45:      3195.71    0.736809  ( -0.643556  -0.015259   0.567813)
  46:      3486.75   86.731310  (  1.147958  -2.165464   8.984669)
  47:      3529.22   81.119994  ( -8.088061   0.958786   3.844995)

--------------------------
THERMOCHEMISTRY AT 298.15K
--------------------------

Temperature         ... 298.15 K
Pressure            ... 1.00 atm
Total Mass          ... 97.14 AMU

Throughout the following assumptions are being made:
  (1) The electronic state is orbitally nondegenerate
  (2) There are no thermally accessible electronically excited states
  (3) Hindered rotations indicated by low frequency modes) are not
      treated as such but are treated as vibrations and this may
      case some error
  (4) All equations used are the standard statistical mechanics
      equations for an ideal gas
  (5) All vibrations are strinctly harmonic

------------
INNER ENERGY
------------

The inner energy is: U= E(el) + E(ZPE) + E(vib) + E(rot) + E(trans)
    E(el)   - is the total energy from the electronic structure calculation
              = E(kin-el) + E(nuc-el) + E(el-el) + E(nuc-nuc)
    E(ZPE)  - the the zero temperature vibrational energy from the frequency calculation
    E(vib)  - the the finite temperature correction to E(ZPE) due to population
              of excietd vibrational states
    E(rot)  - is the rotational thermal energy
    E(trans)- is the translational thermal energy

Summary of contributions to the inner energy U:
Electronic energy                ...   -304.89344872 Eh
Zero point energy                ...      0.14162773 Eh      88.87 kcal/mol
Thermal vibrational correction   ...      0.00321746 Eh       2.02 kcal/mol
Thermal rotational correction    ...      0.00141627 Eh       0.89 kcal/mol
Thermal translational correction ...      0.00141627 Eh       0.89 kcal/mol
-----------------------------------------------------------------------
Total thermal energy                   -304.74577098 Eh

Summary of corrections to the electronic energy:
(perhaps to be used in another calculation)
Total thermal correction                  0.00605000 Eh       3.80 kcal/mol
Non-thermal (ZPE) correction              0.14162773 Eh      88.87 kcal/mol
-----------------------------------------------------------------------
Total correction                          0.14767773 Eh      92.67 kcal/mol

--------
ENTHALPY
--------

The enthalpy is H = U + kB*T
                kB is Boltzmann's constant
Total free energy                 ...   -304.74577098 Eh
Thermal Enthalpy correction       ...      0.00094421 Eh       0.59 kcal/mol
-----------------------------------------------------------------------
Total Enthalpy                    ...   -304.74482677 Eh

-------
ENTROPY
-------

The entropy contributions are T*S = T*(S(el)+S(vib)+S(rot)+S(trans)
     S(el)   - electronic entropy
     S(vib)  - vibrational entropy
     S(rot)  - rotational entropy
     S(trans)- translational entropy
The entropies will be listed as mutliplied by the temperature to get
units of energy

Electronic entropy                ...      0.00000000 Eh      0.00 kcal/mol
Vibrational entropy               ...      0.00549806 Eh      3.45 kcal/mol
Rotational entropy                ...      0.01172186 Eh      7.36 kcal/mol
Translational entropy             ...      0.01883016 Eh     11.82 kcal/mol
-----------------------------------------------------------------------
Final entropy term                ...      0.03605009 Eh     22.62 kcal/mol

CAUTION: The rotational entropy is not quite correctly treated here
         because it includes a symmetry number that is not yet correctly
         implemented in ORCA!
For a nonlinear molecule the correct rotational entropy is:
    S(rot) = R*(ln(qrot/sn)+1.5)
    R    = 8.31441 J/mol/K = 1.987191683e-3 kcal/mol/K
    qrot = 164960.2464634
    sn is the rotational symmetry number. We have assumed 3 here
       if it is different for your molecule then you should correct
       the printed rotational entropy by manually evaluating the equation
       as given above

For convenience we print out the resulting values for sn=1 - 12:
 sn= 1  qrot/sn=  164960.2465 T*S(rot)=     8.01 kcal/mol T*S(tot)=    23.27 kcal/mol
 sn= 2  qrot/sn=   82480.1232 T*S(rot)=     7.60 kcal/mol T*S(tot)=    22.86 kcal/mol
 sn= 3  qrot/sn=   54986.7488 T*S(rot)=     7.36 kcal/mol T*S(tot)=    22.62 kcal/mol
 sn= 4  qrot/sn=   41240.0616 T*S(rot)=     7.19 kcal/mol T*S(tot)=    22.45 kcal/mol
 sn= 5  qrot/sn=   32992.0493 T*S(rot)=     7.05 kcal/mol T*S(tot)=    22.32 kcal/mol
 sn= 6  qrot/sn=   27493.3744 T*S(rot)=     6.94 kcal/mol T*S(tot)=    22.21 kcal/mol
 sn= 7  qrot/sn=   23565.7495 T*S(rot)=     6.85 kcal/mol T*S(tot)=    22.12 kcal/mol
 sn= 8  qrot/sn=   20620.0308 T*S(rot)=     6.77 kcal/mol T*S(tot)=    22.04 kcal/mol
 sn= 9  qrot/sn=   18328.9163 T*S(rot)=     6.70 kcal/mol T*S(tot)=    21.97 kcal/mol
 sn=10  qrot/sn=   16496.0246 T*S(rot)=     6.64 kcal/mol T*S(tot)=    21.91 kcal/mol
 sn=11  qrot/sn=   14996.3860 T*S(rot)=     6.59 kcal/mol T*S(tot)=    21.85 kcal/mol
 sn=12  qrot/sn=   13746.6872 T*S(rot)=     6.53 kcal/mol T*S(tot)=    21.80 kcal/mol

-------------------
GIBBS FREE ENTHALPY
-------------------

The Gibbs free enthalpy is G = H - T*S

Total enthalpy                    ...   -304.74482677 Eh
Total entropy correction          ...     -0.03605009 Eh    -22.62 kcal/mol
-----------------------------------------------------------------------
Final Gibbs free enthalpy         ...   -304.78087686 Eh

For completeness - the Gibbs free enthalpy minus the electronic energy
G-E(el)                           ...      0.11257186 Eh     70.64 kcal/mol

                             ****ORCA TERMINATED NORMALLY****
TOTAL RUN TIME: 0 days 0 hours 36 minutes 24 seconds 131 msec
