                         Program Version 3.0.3 - RELEASE   -
|  1> ! NORI PBE0 def2-TZVP UseSym TightOPT Freq TightSCF Grid3 FinalGrid5 XYZFile
|  2> % pal
|  3>     nprocs 8
|  4> end
|  5> %method
|  6>     SymThresh 5.0e-2
|  7> end
|  8> % geom
|  9>     MaxIter 10
| 10> end
| 11> % maxcore 2000
| 12> % output
| 13>     printlevel mini
| 14>     print[ P_Basis ] 0
| 15>     print[ P_SCFInfo ] 1
| 16>     print[ P_SCFIterInfo ] 1
| 17>     print[ P_OrbEn ] 0
| 18>     print[ P_Cartesian ] 0
| 19> end
| 20> % elprop
| 21>     Dipole false
| 22> end
| 23> *xyz 1 1
| 24>  N        1.2474363452     0.8799372474     0.6863064752
| 25>  C        2.3758690468     0.1910677649     0.5560804125
| 26>  N        2.5776356800     1.4810582284     0.2001547500
| 27>  C        2.9677495434    -1.0480389081     0.6984695745
| 28>  C        4.3179362839    -1.1599548475     0.4854509188
| 29>  C        5.0272106250    -2.3425647707     0.6136308957
| 30>  C        5.6794212240    -3.3527600371     0.7257634046
| 31>  H        0.5081384191     0.7030771188     0.0009039227
| 32>  H        2.6507519646     1.6098652232    -0.8146576674
| 33>  H        2.3588061776    -1.8867889478     1.0125427445
| 34>  H        4.8886319881    -0.2723365848     0.2135769759
| 35>  H        6.2525827024    -4.2506314867     0.8259475931
| 36> *
| 37>
| 38>                          ****END OF INPUT****
 Total Charge           Charge          ....    1
 Multiplicity           Mult            ....    1
 Number of Electrons    NEL             ....   48
FINAL SINGLE POINT ENERGY      -302.327952989825

CARTESIAN COORDINATES (ANGSTROEM)
---------------------------------
  N      0.000045   -0.000124    2.650992
  C      0.124265    0.019169    1.328540
  N      1.347022   -0.000303    1.907972
  C     -0.557732    0.039693    0.128342
  C      0.159548   -0.052696   -1.036984
  C     -0.410343   -0.060646   -2.299217
  C     -0.872690   -0.080834   -3.414623
  H     -0.310308    0.862799    3.105567
  H      1.822249    0.907727    1.870624
  H     -1.639708    0.087310    0.141113
  H      1.244440   -0.142549   -0.987656
  H     -1.287328   -0.097711   -4.400815

FINAL SINGLE POINT ENERGY      -302.327953186328
                    ***********************HURRAY********************
 Multiplicity           Mult            ....    1
 Number of Electrons    NEL             ....   48
 Basis Dimension        Dim             ....  247
FINAL SINGLE POINT ENERGY      -302.327953291031

VIBRATIONAL FREQUENCIES
-----------------------

   0:         0.00 cm**-1
   1:         0.00 cm**-1
   2:         0.00 cm**-1
   3:         0.00 cm**-1
   4:         0.00 cm**-1
   5:         0.00 cm**-1
   6:       101.05 cm**-1
   7:       115.42 cm**-1
   8:       199.18 cm**-1
   9:       232.75 cm**-1
  10:       354.97 cm**-1
  11:       472.69 cm**-1
  12:       501.06 cm**-1
  13:       514.98 cm**-1
  14:       609.45 cm**-1
  15:       708.29 cm**-1
  16:       746.46 cm**-1
  17:       809.40 cm**-1
  18:       903.35 cm**-1
  19:       984.28 cm**-1
  20:       993.92 cm**-1
  21:      1014.48 cm**-1
  22:      1083.19 cm**-1
  23:      1100.78 cm**-1
  24:      1117.70 cm**-1
  25:      1283.02 cm**-1
  26:      1299.16 cm**-1
  27:      1405.58 cm**-1
  28:      1596.91 cm**-1
  29:      1759.92 cm**-1
  30:      2204.97 cm**-1
  31:      3156.90 cm**-1
  32:      3226.62 cm**-1
  33:      3422.23 cm**-1
  34:      3433.86 cm**-1
  35:      3455.75 cm**-1

IR SPECTRUM
-----------

 Mode    freq (cm**-1)   T**2         TX         TY         TZ
-------------------------------------------------------------------
   6:       101.05    4.809511  ( -0.431928   0.952240  -1.927742)
   7:       115.42    0.291713  (  0.066881   0.112068  -0.524100)
   8:       199.18   15.827852  (  2.408612  -0.464154  -3.132252)
   9:       232.75    3.913340  (  1.923136   0.168175  -0.431977)
  10:       354.97   19.042356  (  2.414961   3.588783   0.575291)
  11:       472.69    5.888006  (  1.600008   0.131670  -1.819518)
  12:       501.06   59.227483  ( -3.012878  -0.650211   7.051757)
  13:       514.98   24.873348  (  4.921578  -0.384053   0.709878)
  14:       609.45  166.540162  ( -9.754320  -0.681122   8.421964)
  15:       708.29   44.801649  (  6.167339  -0.687779  -2.508493)
  16:       746.46   71.822298  ( -2.008489   0.468150   8.220043)
  17:       809.40   20.666530  ( -0.440666  -4.520480   0.193917)
  18:       903.35   26.371964  ( -1.478945  -4.917214   0.075438)
  19:       984.28   21.797826  (  0.706553   4.606021  -0.288405)
  20:       993.92  187.103100  (  3.466543  -3.191197  12.841435)
  21:      1014.48    5.732187  ( -1.493623   1.720287   0.736132)
  22:      1083.19   15.245212  (  0.635195   0.430963   3.828317)
  23:      1100.78  268.484634  (  7.091781  -0.365425  14.766778)
  24:      1117.70   32.176221  ( -4.471966   0.548085  -3.446352)
  25:      1283.02    6.643409  (  2.050536   0.242301   1.542726)
  26:      1299.16   63.897580  ( -1.086915   0.656031   7.892137)
  27:      1405.58    8.270542  ( -0.575674  -0.022476  -2.817559)
  28:      1596.91  265.997143  ( -1.902184  -0.634327 -16.185687)
  29:      1759.92  1167.590264  ( -7.408896  -1.287647 -33.332274)
  30:      2204.97  433.663331  (  5.475028   0.610212  20.082705)
  31:      3156.90    5.236978  (  2.125918  -0.296383  -0.793477)
  32:      3226.62   13.621848  (  3.647092  -0.161711  -0.542601)
  33:      3422.23   65.496754  ( -6.953663  -3.852015  -1.518326)
  34:      3433.86   93.152680  ( -3.409166  -0.236798  -9.026306)
  35:      3455.75  191.125742  ( -1.246722   7.715685  11.403492)

--------------------------
THERMOCHEMISTRY AT 298.15K
--------------------------

Temperature         ... 298.15 K
Pressure            ... 1.00 atm
Total Mass          ... 93.11 AMU

Throughout the following assumptions are being made:
  (1) The electronic state is orbitally nondegenerate
  (2) There are no thermally accessible electronically excited states
  (3) Hindered rotations indicated by low frequency modes) are not
      treated as such but are treated as vibrations and this may
      case some error
  (4) All equations used are the standard statistical mechanics
      equations for an ideal gas
  (5) All vibrations are strinctly harmonic

------------
INNER ENERGY
------------

The inner energy is: U= E(el) + E(ZPE) + E(vib) + E(rot) + E(trans)
    E(el)   - is the total energy from the electronic structure calculation
              = E(kin-el) + E(nuc-el) + E(el-el) + E(nuc-nuc)
    E(ZPE)  - the the zero temperature vibrational energy from the frequency calculation
    E(vib)  - the the finite temperature correction to E(ZPE) due to population
              of excietd vibrational states
    E(rot)  - is the rotational thermal energy
    E(trans)- is the translational thermal energy

Summary of contributions to the inner energy U:
Electronic energy                ...   -302.32795329 Eh
Zero point energy                ...      0.08841188 Eh      55.48 kcal/mol
Thermal vibrational correction   ...      0.00425972 Eh       2.67 kcal/mol
Thermal rotational correction    ...      0.00141627 Eh       0.89 kcal/mol
Thermal translational correction ...      0.00141627 Eh       0.89 kcal/mol
-----------------------------------------------------------------------
Total thermal energy                   -302.23244914 Eh

Summary of corrections to the electronic energy:
(perhaps to be used in another calculation)
Total thermal correction                  0.00709227 Eh       4.45 kcal/mol
Non-thermal (ZPE) correction              0.08841188 Eh      55.48 kcal/mol
-----------------------------------------------------------------------
Total correction                          0.09550415 Eh      59.93 kcal/mol

--------
ENTHALPY
--------

The enthalpy is H = U + kB*T
                kB is Boltzmann's constant
Total free energy                 ...   -302.23244914 Eh
Thermal Enthalpy correction       ...      0.00094421 Eh       0.59 kcal/mol
-----------------------------------------------------------------------
Total Enthalpy                    ...   -302.23150493 Eh

-------
ENTROPY
-------

The entropy contributions are T*S = T*(S(el)+S(vib)+S(rot)+S(trans)
     S(el)   - electronic entropy
     S(vib)  - vibrational entropy
     S(rot)  - rotational entropy
     S(trans)- translational entropy
The entropies will be listed as mutliplied by the temperature to get
units of energy

Electronic entropy                ...      0.00000000 Eh      0.00 kcal/mol
Vibrational entropy               ...      0.00743102 Eh      4.66 kcal/mol
Rotational entropy                ...      0.01188411 Eh      7.46 kcal/mol
Translational entropy             ...      0.01877012 Eh     11.78 kcal/mol
-----------------------------------------------------------------------
Final entropy term                ...      0.03808525 Eh     23.90 kcal/mol

CAUTION: The rotational entropy is not quite correctly treated here
         because it includes a symmetry number that is not yet correctly
         implemented in ORCA!
For a nonlinear molecule the correct rotational entropy is:
    S(rot) = R*(ln(qrot/sn)+1.5)
    R    = 8.31441 J/mol/K = 1.987191683e-3 kcal/mol/K
    qrot = 195888.7767674
    sn is the rotational symmetry number. We have assumed 3 here
       if it is different for your molecule then you should correct
       the printed rotational entropy by manually evaluating the equation
       as given above

For convenience we print out the resulting values for sn=1 - 12:
 sn= 1  qrot/sn=  195888.7768 T*S(rot)=     8.11 kcal/mol T*S(tot)=    24.55 kcal/mol
 sn= 2  qrot/sn=   97944.3884 T*S(rot)=     7.70 kcal/mol T*S(tot)=    24.14 kcal/mol
 sn= 3  qrot/sn=   65296.2589 T*S(rot)=     7.46 kcal/mol T*S(tot)=    23.90 kcal/mol
 sn= 4  qrot/sn=   48972.1942 T*S(rot)=     7.29 kcal/mol T*S(tot)=    23.73 kcal/mol
 sn= 5  qrot/sn=   39177.7554 T*S(rot)=     7.15 kcal/mol T*S(tot)=    23.60 kcal/mol
 sn= 6  qrot/sn=   32648.1295 T*S(rot)=     7.05 kcal/mol T*S(tot)=    23.49 kcal/mol
 sn= 7  qrot/sn=   27984.1110 T*S(rot)=     6.96 kcal/mol T*S(tot)=    23.40 kcal/mol
 sn= 8  qrot/sn=   24486.0971 T*S(rot)=     6.88 kcal/mol T*S(tot)=    23.32 kcal/mol
 sn= 9  qrot/sn=   21765.4196 T*S(rot)=     6.81 kcal/mol T*S(tot)=    23.25 kcal/mol
 sn=10  qrot/sn=   19588.8777 T*S(rot)=     6.74 kcal/mol T*S(tot)=    23.19 kcal/mol
 sn=11  qrot/sn=   17808.0706 T*S(rot)=     6.69 kcal/mol T*S(tot)=    23.13 kcal/mol
 sn=12  qrot/sn=   16324.0647 T*S(rot)=     6.64 kcal/mol T*S(tot)=    23.08 kcal/mol

-------------------
GIBBS FREE ENTHALPY
-------------------

The Gibbs free enthalpy is G = H - T*S

Total enthalpy                    ...   -302.23150493 Eh
Total entropy correction          ...     -0.03808525 Eh    -23.90 kcal/mol
-----------------------------------------------------------------------
Final Gibbs free enthalpy         ...   -302.26959018 Eh

For completeness - the Gibbs free enthalpy minus the electronic energy
G-E(el)                           ...      0.05836311 Eh     36.62 kcal/mol

                             ****ORCA TERMINATED NORMALLY****
TOTAL RUN TIME: 0 days 0 hours 21 minutes 14 seconds 612 msec
