                         Program Version 3.0.3 - RELEASE   -
|  1> ! NORI PBE0 def2-TZVP UseSym TightOPT Freq TightSCF Grid3 FinalGrid5 XYZFile
|  2> % pal
|  3>     nprocs 8
|  4> end
|  5> %method
|  6>     SymThresh 5.0e-2
|  7> end
|  8> % geom
|  9>     MaxIter 10
| 10> end
| 11> % maxcore 2000
| 12> % output
| 13>     printlevel mini
| 14>     print[ P_Basis ] 0
| 15>     print[ P_SCFInfo ] 1
| 16>     print[ P_SCFIterInfo ] 1
| 17>     print[ P_OrbEn ] 0
| 18>     print[ P_Cartesian ] 0
| 19> end
| 20> % elprop
| 21>     Dipole false
| 22> end
| 23> *xyz 1 1
| 24>  N        1.9556283657     0.2563947581    -1.2709979884
| 25>  C        2.0753920485    -0.3179260303    -0.0893214195
| 26>  N        0.7895606588     0.0295031144    -0.2864005411
| 27>  C        2.9870638129    -0.9105031360     0.8069913555
| 28>  C        2.4134995315    -1.4999124160     1.8850455238
| 29>  C        4.4135739518    -0.8944381037     0.4619041990
| 30>  C        5.3821174341    -0.8436574025     1.3678043785
| 31>  H        2.3506955169     1.1921375468    -1.4013434270
| 32>  H        0.4992169343     0.8464293390     0.2631264584
| 33>  H        1.3425741218    -1.4565165166     2.0517968572
| 34>  H        3.0087911721    -2.0565725721     2.6002377940
| 35>  H        4.6518012624    -0.9172583903    -0.5977221838
| 36>  H        5.1804122088    -0.7788215404     2.4324143427
| 37>  H        6.4223629806    -0.8520986504     1.0671146508
| 38> *
| 39>
| 40>                          ****END OF INPUT****
 Total Charge           Charge          ....    1
 Multiplicity           Mult            ....    1
 Number of Electrons    NEL             ....   50
FINAL SINGLE POINT ENERGY      -303.569638006673

CARTESIAN COORDINATES (ANGSTROEM)
---------------------------------
  N     -0.000191   -0.000083    2.057118
  C      0.448025   -0.064198    0.817770
  N      1.492338   -0.000285    1.665379
  C      0.061903   -0.141458   -0.535203
  C      1.083691   -0.354898   -1.400590
  C     -1.367579   -0.056894   -0.857485
  C     -1.830828    0.466003   -1.986147
  H     -0.455550    0.863176    2.367434
  H      1.958760    0.914029    1.669326
  H      2.112895   -0.402223   -1.061634
  H      0.897395   -0.512009   -2.457233
  H     -2.052531   -0.443268   -0.108076
  H     -1.178412    0.897425   -2.738229
  H     -2.894033    0.490720   -2.189400

FINAL SINGLE POINT ENERGY      -303.569638386436
                    ***********************HURRAY********************
 Multiplicity           Mult            ....    1
 Number of Electrons    NEL             ....   50
 Basis Dimension        Dim             ....  259
FINAL SINGLE POINT ENERGY      -303.569638456797

VIBRATIONAL FREQUENCIES
-----------------------

   0:         0.00 cm**-1
   1:         0.00 cm**-1
   2:         0.00 cm**-1
   3:         0.00 cm**-1
   4:         0.00 cm**-1
   5:         0.00 cm**-1
   6:        83.32 cm**-1
   7:       119.65 cm**-1
   8:       166.79 cm**-1
   9:       264.91 cm**-1
  10:       277.35 cm**-1
  11:       417.70 cm**-1
  12:       465.39 cm**-1
  13:       511.60 cm**-1
  14:       578.98 cm**-1
  15:       675.30 cm**-1
  16:       696.11 cm**-1
  17:       732.62 cm**-1
  18:       838.84 cm**-1
  19:       953.27 cm**-1
  20:       990.38 cm**-1
  21:      1009.38 cm**-1
  22:      1021.88 cm**-1
  23:      1059.76 cm**-1
  24:      1074.04 cm**-1
  25:      1081.93 cm**-1
  26:      1095.49 cm**-1
  27:      1245.38 cm**-1
  28:      1331.51 cm**-1
  29:      1408.39 cm**-1
  30:      1430.75 cm**-1
  31:      1465.78 cm**-1
  32:      1625.70 cm**-1
  33:      1704.42 cm**-1
  34:      1743.74 cm**-1
  35:      3167.28 cm**-1
  36:      3168.45 cm**-1
  37:      3181.45 cm**-1
  38:      3263.98 cm**-1
  39:      3270.45 cm**-1
  40:      3416.06 cm**-1
  41:      3451.48 cm**-1

IR SPECTRUM
-----------

 Mode    freq (cm**-1)   T**2         TX         TY         TZ
-------------------------------------------------------------------
   6:        83.32    1.256712  (  0.966804   0.073337   0.562693)
   7:       119.65   16.527671  ( -3.663575  -0.842899   1.547712)
   8:       166.79    0.396172  ( -0.005725  -0.539050  -0.324906)
   9:       264.91   10.294412  ( -1.012362   0.842836  -2.925605)
  10:       277.35    5.560986  (  1.596517  -0.625701   1.618833)
  11:       417.70    5.235969  ( -1.297902  -1.708379  -0.795525)
  12:       465.39  106.560493  (  9.087883  -0.406476  -4.879105)
  13:       511.60   28.162229  ( -1.719777  -3.646716  -3.450516)
  14:       578.98  132.893307  ( -8.426820  -1.500388   7.722101)
  15:       675.30   39.469820  ( -6.006696  -0.669954  -1.714812)
  16:       696.11   13.495982  ( -1.359775  -1.773222  -2.915935)
  17:       732.62    2.089949  (  0.078754  -0.962327  -1.075952)
  18:       838.84    5.822539  ( -0.031507   0.383220  -2.382160)
  19:       953.27   12.627727  ( -1.046323  -0.128657   3.393580)
  20:       990.38   67.211515  ( -1.580131   4.183408  -6.871230)
  21:      1009.38   55.733708  (  0.779672  -5.713431  -4.741575)
  22:      1021.88    6.775967  ( -0.404457   2.491230   0.637301)
  23:      1059.76   31.814751  ( -1.694451  -4.693660  -2.629286)
  24:      1074.04  118.670199  ( -5.772930   1.871149  -9.046672)
  25:      1081.93   32.630982  ( -0.530467   0.241840  -5.682526)
  26:      1095.49   53.615913  (  0.315500  -0.002509  -7.315488)
  27:      1245.38    8.420369  (  2.092058  -0.597195  -1.920162)
  28:      1331.51    4.190854  (  0.179018  -0.842393   1.857197)
  29:      1408.39   12.966919  ( -1.727537   0.376256   3.137031)
  30:      1430.75   27.412522  (  3.777083  -1.573832  -3.266378)
  31:      1465.78   39.823071  ( -0.645510   0.982191  -6.200136)
  32:      1625.70   84.856364  ( -1.953452  -0.529314  -8.986669)
  33:      1704.42    9.578093  ( -3.063683  -0.073551   0.431889)
  34:      1743.74  377.562852  (  1.116906  -2.574668 -19.227232)
  35:      3167.28    2.880261  ( -1.657673   0.123079  -0.342392)
  36:      3168.45    6.610307  ( -2.021514   0.695694   1.428215)
  37:      3181.45    0.302236  ( -0.271624  -0.288948   0.380743)
  38:      3263.98    1.410076  ( -1.129593   0.099448  -0.352430)
  39:      3270.45    7.005502  (  1.298456   0.208337   2.296978)
  40:      3416.06   79.468073  ( -7.339929  -4.579647  -2.149501)
  41:      3451.48  168.701645  (  4.057352  -8.489039  -8.954092)

--------------------------
THERMOCHEMISTRY AT 298.15K
--------------------------

Temperature         ... 298.15 K
Pressure            ... 1.00 atm
Total Mass          ... 95.12 AMU

Throughout the following assumptions are being made:
  (1) The electronic state is orbitally nondegenerate
  (2) There are no thermally accessible electronically excited states
  (3) Hindered rotations indicated by low frequency modes) are not
      treated as such but are treated as vibrations and this may
      case some error
  (4) All equations used are the standard statistical mechanics
      equations for an ideal gas
  (5) All vibrations are strinctly harmonic

------------
INNER ENERGY
------------

The inner energy is: U= E(el) + E(ZPE) + E(vib) + E(rot) + E(trans)
    E(el)   - is the total energy from the electronic structure calculation
              = E(kin-el) + E(nuc-el) + E(el-el) + E(nuc-nuc)
    E(ZPE)  - the the zero temperature vibrational energy from the frequency calculation
    E(vib)  - the the finite temperature correction to E(ZPE) due to population
              of excietd vibrational states
    E(rot)  - is the rotational thermal energy
    E(trans)- is the translational thermal energy

Summary of contributions to the inner energy U:
Electronic energy                ...   -303.56963846 Eh
Zero point energy                ...      0.11160631 Eh      70.03 kcal/mol
Thermal vibrational correction   ...      0.00464184 Eh       2.91 kcal/mol
Thermal rotational correction    ...      0.00141627 Eh       0.89 kcal/mol
Thermal translational correction ...      0.00141627 Eh       0.89 kcal/mol
-----------------------------------------------------------------------
Total thermal energy                   -303.45055776 Eh

Summary of corrections to the electronic energy:
(perhaps to be used in another calculation)
Total thermal correction                  0.00747439 Eh       4.69 kcal/mol
Non-thermal (ZPE) correction              0.11160631 Eh      70.03 kcal/mol
-----------------------------------------------------------------------
Total correction                          0.11908070 Eh      74.72 kcal/mol

--------
ENTHALPY
--------

The enthalpy is H = U + kB*T
                kB is Boltzmann's constant
Total free energy                 ...   -303.45055776 Eh
Thermal Enthalpy correction       ...      0.00094421 Eh       0.59 kcal/mol
-----------------------------------------------------------------------
Total Enthalpy                    ...   -303.44961355 Eh

-------
ENTROPY
-------

The entropy contributions are T*S = T*(S(el)+S(vib)+S(rot)+S(trans)
     S(el)   - electronic entropy
     S(vib)  - vibrational entropy
     S(rot)  - rotational entropy
     S(trans)- translational entropy
The entropies will be listed as mutliplied by the temperature to get
units of energy

Electronic entropy                ...      0.00000000 Eh      0.00 kcal/mol
Vibrational entropy               ...      0.00817730 Eh      5.13 kcal/mol
Rotational entropy                ...      0.01200934 Eh      7.54 kcal/mol
Translational entropy             ...      0.01880046 Eh     11.80 kcal/mol
-----------------------------------------------------------------------
Final entropy term                ...      0.03898709 Eh     24.46 kcal/mol

CAUTION: The rotational entropy is not quite correctly treated here
         because it includes a symmetry number that is not yet correctly
         implemented in ORCA!
For a nonlinear molecule the correct rotational entropy is:
    S(rot) = R*(ln(qrot/sn)+1.5)
    R    = 8.31441 J/mol/K = 1.987191683e-3 kcal/mol/K
    qrot = 223670.3527499
    sn is the rotational symmetry number. We have assumed 3 here
       if it is different for your molecule then you should correct
       the printed rotational entropy by manually evaluating the equation
       as given above

For convenience we print out the resulting values for sn=1 - 12:
 sn= 1  qrot/sn=  223670.3527 T*S(rot)=     8.19 kcal/mol T*S(tot)=    25.12 kcal/mol
 sn= 2  qrot/sn=  111835.1764 T*S(rot)=     7.78 kcal/mol T*S(tot)=    24.70 kcal/mol
 sn= 3  qrot/sn=   74556.7842 T*S(rot)=     7.54 kcal/mol T*S(tot)=    24.46 kcal/mol
 sn= 4  qrot/sn=   55917.5882 T*S(rot)=     7.37 kcal/mol T*S(tot)=    24.29 kcal/mol
 sn= 5  qrot/sn=   44734.0705 T*S(rot)=     7.23 kcal/mol T*S(tot)=    24.16 kcal/mol
 sn= 6  qrot/sn=   37278.3921 T*S(rot)=     7.13 kcal/mol T*S(tot)=    24.05 kcal/mol
 sn= 7  qrot/sn=   31952.9075 T*S(rot)=     7.03 kcal/mol T*S(tot)=    23.96 kcal/mol
 sn= 8  qrot/sn=   27958.7941 T*S(rot)=     6.95 kcal/mol T*S(tot)=    23.88 kcal/mol
 sn= 9  qrot/sn=   24852.2614 T*S(rot)=     6.89 kcal/mol T*S(tot)=    23.81 kcal/mol
 sn=10  qrot/sn=   22367.0353 T*S(rot)=     6.82 kcal/mol T*S(tot)=    23.75 kcal/mol
 sn=11  qrot/sn=   20333.6684 T*S(rot)=     6.77 kcal/mol T*S(tot)=    23.69 kcal/mol
 sn=12  qrot/sn=   18639.1961 T*S(rot)=     6.71 kcal/mol T*S(tot)=    23.64 kcal/mol

-------------------
GIBBS FREE ENTHALPY
-------------------

The Gibbs free enthalpy is G = H - T*S

Total enthalpy                    ...   -303.44961355 Eh
Total entropy correction          ...     -0.03898709 Eh    -24.46 kcal/mol
-----------------------------------------------------------------------
Final Gibbs free enthalpy         ...   -303.48860064 Eh

For completeness - the Gibbs free enthalpy minus the electronic energy
G-E(el)                           ...      0.08103781 Eh     50.85 kcal/mol

                             ****ORCA TERMINATED NORMALLY****
TOTAL RUN TIME: 0 days 0 hours 28 minutes 28 seconds 240 msec
