                         Program Version 3.0.3 - RELEASE   -
|  1> ! NORI PBE0 def2-TZVP UseSym TightOPT Freq TightSCF Grid3 FinalGrid5 XYZFile
|  2> % pal
|  3>     nprocs 8
|  4> end
|  5> %method
|  6>     SymThresh 5.0e-2
|  7> end
|  8> % geom
|  9>     MaxIter 10
| 10> end
| 11> % maxcore 2000
| 12> % output
| 13>     printlevel mini
| 14>     print[ P_Basis ] 0
| 15>     print[ P_SCFInfo ] 1
| 16>     print[ P_SCFIterInfo ] 1
| 17>     print[ P_OrbEn ] 0
| 18>     print[ P_Cartesian ] 0
| 19> end
| 20> % elprop
| 21>     Dipole false
| 22> end
| 23> *xyz 1 1
| 24>  N        2.4851882749    -0.6930974353     0.7402039067
| 25>  C        2.4113669927     0.0535417613    -0.3336683896
| 26>  N        1.1647617509    -0.1637940365     0.1307536115
| 27>  C        3.1732788153     0.7149375462    -1.3250013163
| 28>  C        2.4705568864     1.2799153394    -2.3388053589
| 29>  C        4.5847981556     0.6991264624    -1.1906356790
| 30>  C        5.7762997924     0.6770550134    -1.0536627236
| 31>  H        2.8790599975    -0.3086675927     1.6035950963
| 32>  H        0.7580160676     0.6613007458     0.5884068685
| 33>  H        2.9780901028     1.7871663152    -3.1510753497
| 34>  H        1.3880738181     1.2181572844    -2.3704633891
| 35>  H        6.8394193459     0.6605685965    -0.9470172766
| 36> *
| 37>
| 38>                          ****END OF INPUT****
 Total Charge           Charge          ....    1
 Multiplicity           Mult            ....    1
 Number of Electrons    NEL             ....   48
FINAL SINGLE POINT ENERGY      -302.310372247825

CARTESIAN COORDINATES (ANGSTROEM)
---------------------------------
  N     -0.000297   -0.000328    1.895973
  C      0.482345    0.043721    0.678866
  N      1.508606    0.000501    1.551702
  C      0.135279    0.067796   -0.692142
  C      1.159124    0.251455   -1.563200
  C     -1.236316   -0.065034   -1.026629
  C     -2.401477   -0.184149   -1.285921
  H     -0.483867   -0.841452    2.223558
  H      1.975420   -0.914466    1.576610
  H      0.977529    0.304516   -2.630512
  H      2.177833    0.370601   -1.210647
  H     -3.436685   -0.283756   -1.530957

FINAL SINGLE POINT ENERGY      -302.310372417318
                    ***********************HURRAY********************
 Multiplicity           Mult            ....    1
 Number of Electrons    NEL             ....   48
 Basis Dimension        Dim             ....  247
FINAL SINGLE POINT ENERGY      -302.310372480122

VIBRATIONAL FREQUENCIES
-----------------------

   0:         0.00 cm**-1
   1:         0.00 cm**-1
   2:         0.00 cm**-1
   3:         0.00 cm**-1
   4:         0.00 cm**-1
   5:         0.00 cm**-1
   6:       114.43 cm**-1
   7:       119.31 cm**-1
   8:       210.23 cm**-1
   9:       241.43 cm**-1
  10:       353.86 cm**-1
  11:       439.51 cm**-1
  12:       461.55 cm**-1
  13:       564.78 cm**-1
  14:       629.71 cm**-1
  15:       672.56 cm**-1
  16:       694.69 cm**-1
  17:       742.83 cm**-1
  18:       765.05 cm**-1
  19:       823.87 cm**-1
  20:       956.98 cm**-1
  21:       988.29 cm**-1
  22:      1059.60 cm**-1
  23:      1069.24 cm**-1
  24:      1093.55 cm**-1
  25:      1269.21 cm**-1
  26:      1413.38 cm**-1
  27:      1436.34 cm**-1
  28:      1613.16 cm**-1
  29:      1753.82 cm**-1
  30:      2250.05 cm**-1
  31:      3171.01 cm**-1
  32:      3278.30 cm**-1
  33:      3404.95 cm**-1
  34:      3448.87 cm**-1
  35:      3455.97 cm**-1

IR SPECTRUM
-----------

 Mode    freq (cm**-1)   T**2         TX         TY         TZ
-------------------------------------------------------------------
   6:       114.43   14.092220  (  3.622279  -0.585945  -0.792452)
   7:       119.31    0.162006  (  0.377643  -0.050482  -0.129782)
   8:       210.23   16.638280  ( -0.065635   2.863719   2.903978)
   9:       241.43    7.188125  (  1.221445   0.307687  -2.366754)
  10:       353.86   25.906506  (  1.545807  -3.139021   3.696422)
  11:       439.51   80.224346  (  8.409753  -1.217331  -2.831697)
  12:       461.55   93.922196  ( -6.470816   0.748489   7.175688)
  13:       564.78   85.144390  (  6.437347  -0.412295  -6.598103)
  14:       629.71   30.767896  ( -5.246918   1.770886  -0.318922)
  15:       672.56   11.893041  (  1.043339  -1.164932   3.073665)
  16:       694.69   13.294443  (  2.871714  -1.305508   1.828483)
  17:       742.83   32.998879  ( -0.309325   5.732337   0.208594)
  18:       765.05   34.429205  (  1.679672   0.206932  -5.618281)
  19:       823.87   11.378279  ( -0.878140  -0.294472  -3.243522)
  20:       956.98   15.330846  ( -1.428363   0.275837   3.635181)
  21:       988.29   45.803387  ( -1.529694  -3.537624  -5.563150)
  22:      1059.60   46.638097  (  3.209548  -4.202312   4.321744)
  23:      1069.24  141.987437  (  5.415942   2.694057  10.266307)
  24:      1093.55   54.324915  ( -0.441754  -0.141686   7.355929)
  25:      1269.21   19.550210  (  3.987609   0.683389  -1.783862)
  26:      1413.38   31.927654  ( -2.508586  -0.764089   5.005079)
  27:      1436.34   20.106555  ( -1.067517  -0.584988   4.315641)
  28:      1613.16   74.010965  (  2.853608  -0.437665   8.104094)
  29:      1753.82  352.740046  ( -1.382806  -1.878816  18.635932)
  30:      2250.05   73.655620  ( -8.471437  -0.822751  -1.101573)
  31:      3171.01   14.454153  (  2.877113   0.630127  -2.404020)
  32:      3278.30   12.626433  ( -1.714099  -0.041570  -3.112325)
  33:      3404.95   86.398534  (  7.269681  -5.105756   2.735239)
  34:      3448.87   94.461239  ( -8.930151   0.084750  -3.834899)
  35:      3455.97  189.910774  ( -6.291015  -8.472259   8.863111)

--------------------------
THERMOCHEMISTRY AT 298.15K
--------------------------

Temperature         ... 298.15 K
Pressure            ... 1.00 atm
Total Mass          ... 93.11 AMU

Throughout the following assumptions are being made:
  (1) The electronic state is orbitally nondegenerate
  (2) There are no thermally accessible electronically excited states
  (3) Hindered rotations indicated by low frequency modes) are not
      treated as such but are treated as vibrations and this may
      case some error
  (4) All equations used are the standard statistical mechanics
      equations for an ideal gas
  (5) All vibrations are strinctly harmonic

------------
INNER ENERGY
------------

The inner energy is: U= E(el) + E(ZPE) + E(vib) + E(rot) + E(trans)
    E(el)   - is the total energy from the electronic structure calculation
              = E(kin-el) + E(nuc-el) + E(el-el) + E(nuc-nuc)
    E(ZPE)  - the the zero temperature vibrational energy from the frequency calculation
    E(vib)  - the the finite temperature correction to E(ZPE) due to population
              of excietd vibrational states
    E(rot)  - is the rotational thermal energy
    E(trans)- is the translational thermal energy

Summary of contributions to the inner energy U:
Electronic energy                ...   -302.31037248 Eh
Zero point energy                ...      0.08770153 Eh      55.03 kcal/mol
Thermal vibrational correction   ...      0.00435071 Eh       2.73 kcal/mol
Thermal rotational correction    ...      0.00141627 Eh       0.89 kcal/mol
Thermal translational correction ...      0.00141627 Eh       0.89 kcal/mol
-----------------------------------------------------------------------
Total thermal energy                   -302.21548770 Eh

Summary of corrections to the electronic energy:
(perhaps to be used in another calculation)
Total thermal correction                  0.00718325 Eh       4.51 kcal/mol
Non-thermal (ZPE) correction              0.08770153 Eh      55.03 kcal/mol
-----------------------------------------------------------------------
Total correction                          0.09488478 Eh      59.54 kcal/mol

--------
ENTHALPY
--------

The enthalpy is H = U + kB*T
                kB is Boltzmann's constant
Total free energy                 ...   -302.21548770 Eh
Thermal Enthalpy correction       ...      0.00094421 Eh       0.59 kcal/mol
-----------------------------------------------------------------------
Total Enthalpy                    ...   -302.21454349 Eh

-------
ENTROPY
-------

The entropy contributions are T*S = T*(S(el)+S(vib)+S(rot)+S(trans)
     S(el)   - electronic entropy
     S(vib)  - vibrational entropy
     S(rot)  - rotational entropy
     S(trans)- translational entropy
The entropies will be listed as mutliplied by the temperature to get
units of energy

Electronic entropy                ...      0.00000000 Eh      0.00 kcal/mol
Vibrational entropy               ...      0.00742327 Eh      4.66 kcal/mol
Rotational entropy                ...      0.01199086 Eh      7.52 kcal/mol
Translational entropy             ...      0.01877012 Eh     11.78 kcal/mol
-----------------------------------------------------------------------
Final entropy term                ...      0.03818425 Eh     23.96 kcal/mol

CAUTION: The rotational entropy is not quite correctly treated here
         because it includes a symmetry number that is not yet correctly
         implemented in ORCA!
For a nonlinear molecule the correct rotational entropy is:
    S(rot) = R*(ln(qrot/sn)+1.5)
    R    = 8.31441 J/mol/K = 1.987191683e-3 kcal/mol/K
    qrot = 219335.0771692
    sn is the rotational symmetry number. We have assumed 3 here
       if it is different for your molecule then you should correct
       the printed rotational entropy by manually evaluating the equation
       as given above

For convenience we print out the resulting values for sn=1 - 12:
 sn= 1  qrot/sn=  219335.0772 T*S(rot)=     8.18 kcal/mol T*S(tot)=    24.61 kcal/mol
 sn= 2  qrot/sn=  109667.5386 T*S(rot)=     7.76 kcal/mol T*S(tot)=    24.20 kcal/mol
 sn= 3  qrot/sn=   73111.6924 T*S(rot)=     7.52 kcal/mol T*S(tot)=    23.96 kcal/mol
 sn= 4  qrot/sn=   54833.7693 T*S(rot)=     7.35 kcal/mol T*S(tot)=    23.79 kcal/mol
 sn= 5  qrot/sn=   43867.0154 T*S(rot)=     7.22 kcal/mol T*S(tot)=    23.66 kcal/mol
 sn= 6  qrot/sn=   36555.8462 T*S(rot)=     7.11 kcal/mol T*S(tot)=    23.55 kcal/mol
 sn= 7  qrot/sn=   31333.5825 T*S(rot)=     7.02 kcal/mol T*S(tot)=    23.46 kcal/mol
 sn= 8  qrot/sn=   27416.8846 T*S(rot)=     6.94 kcal/mol T*S(tot)=    23.38 kcal/mol
 sn= 9  qrot/sn=   24370.5641 T*S(rot)=     6.87 kcal/mol T*S(tot)=    23.31 kcal/mol
 sn=10  qrot/sn=   21933.5077 T*S(rot)=     6.81 kcal/mol T*S(tot)=    23.25 kcal/mol
 sn=11  qrot/sn=   19939.5525 T*S(rot)=     6.75 kcal/mol T*S(tot)=    23.19 kcal/mol
 sn=12  qrot/sn=   18277.9231 T*S(rot)=     6.70 kcal/mol T*S(tot)=    23.14 kcal/mol

-------------------
GIBBS FREE ENTHALPY
-------------------

The Gibbs free enthalpy is G = H - T*S

Total enthalpy                    ...   -302.21454349 Eh
Total entropy correction          ...     -0.03818425 Eh    -23.96 kcal/mol
-----------------------------------------------------------------------
Final Gibbs free enthalpy         ...   -302.25272774 Eh

For completeness - the Gibbs free enthalpy minus the electronic energy
G-E(el)                           ...      0.05764474 Eh     36.17 kcal/mol

                             ****ORCA TERMINATED NORMALLY****
TOTAL RUN TIME: 0 days 0 hours 22 minutes 6 seconds 820 msec
