                         Program Version 3.0.3 - RELEASE   -
|  1> ! NORI PBE0 def2-TZVP UseSym TightOPT Freq TightSCF Grid3 FinalGrid5 XYZFile
|  2> % pal
|  3>     nprocs 8
|  4> end
|  5> %method
|  6>     SymThresh 5.0e-2
|  7> end
|  8> % geom
|  9>     MaxIter 10
| 10> end
| 11> % maxcore 2000
| 12> % output
| 13>     printlevel mini
| 14>     print[ P_Basis ] 0
| 15>     print[ P_SCFInfo ] 1
| 16>     print[ P_SCFIterInfo ] 1
| 17>     print[ P_OrbEn ] 0
| 18>     print[ P_Cartesian ] 0
| 19> end
| 20> % elprop
| 21>     Dipole false
| 22> end
| 23> *xyz 1 1
| 24>  N        1.3330681392    -0.5032835179     0.1630693182
| 25>  C        2.5314833570    -0.0716586892    -0.2666255973
| 26>  N        2.6336926531    -0.5571367900     0.9811203725
| 27>  C        3.1928637085     0.5171841746    -1.2740751810
| 28>  C        3.8116676355     0.9926408724    -2.2173445061
| 29>  C        4.5406986803     1.5290608438    -3.2707778080
| 30>  C        3.9438494714     1.8235612021    -4.4420304455
| 31>  H        0.6700774171     0.2476718753     0.3845129500
| 32>  H        2.7670366300     0.1566252624     1.7055692450
| 33>  H        5.6032943160     1.6921187638    -3.1147290084
| 34>  H        2.8840252413     1.6571676231    -4.5970405320
| 35>  H        4.5166327507     2.2356483797    -5.2648988074
| 36> *
| 37>
| 38>                          ****END OF INPUT****
 Total Charge           Charge          ....    1
 Multiplicity           Mult            ....    1
 Number of Electrons    NEL             ....   48
FINAL SINGLE POINT ENERGY      -302.324992078504

CARTESIAN COORDINATES (ANGSTROEM)
---------------------------------
  N     -0.000613    0.001145    2.587701
  C      0.486712   -0.000728    1.334937
  N      1.493017   -0.001277    2.223907
  C      0.172198    0.032458    0.031452
  C     -0.112724   -0.005294   -1.158508
  C     -0.405117   -0.049910   -2.515483
  C     -1.681346   -0.100594   -2.943679
  H     -0.411575    0.895169    2.877971
  H      1.998726    0.888362    2.294427
  H      0.430294   -0.050011   -3.209678
  H     -2.513682   -0.104040   -2.249245
  H     -1.906641   -0.142101   -4.003265

FINAL SINGLE POINT ENERGY      -302.324992142542
                    ***********************HURRAY********************
 Multiplicity           Mult            ....    1
 Number of Electrons    NEL             ....   48
 Basis Dimension        Dim             ....  247
FINAL SINGLE POINT ENERGY      -302.324992232544

VIBRATIONAL FREQUENCIES
-----------------------

   0:         0.00 cm**-1
   1:         0.00 cm**-1
   2:         0.00 cm**-1
   3:         0.00 cm**-1
   4:         0.00 cm**-1
   5:         0.00 cm**-1
   6:        89.38 cm**-1
   7:        94.02 cm**-1
   8:       135.86 cm**-1
   9:       221.60 cm**-1
  10:       374.07 cm**-1
  11:       469.69 cm**-1
  12:       491.06 cm**-1
  13:       526.29 cm**-1
  14:       608.06 cm**-1
  15:       629.16 cm**-1
  16:       700.35 cm**-1
  17:       808.00 cm**-1
  18:       983.81 cm**-1
  19:      1002.75 cm**-1
  20:      1039.99 cm**-1
  21:      1075.12 cm**-1
  22:      1081.76 cm**-1
  23:      1094.50 cm**-1
  24:      1207.08 cm**-1
  25:      1312.18 cm**-1
  26:      1369.87 cm**-1
  27:      1444.23 cm**-1
  28:      1616.77 cm**-1
  29:      1759.77 cm**-1
  30:      2272.07 cm**-1
  31:      3171.47 cm**-1
  32:      3188.07 cm**-1
  33:      3275.42 cm**-1
  34:      3417.82 cm**-1
  35:      3433.03 cm**-1

IR SPECTRUM
-----------

 Mode    freq (cm**-1)   T**2         TX         TY         TZ
-------------------------------------------------------------------
   6:        89.38    7.083855  (  2.044735  -1.329504   1.065521)
   7:        94.02    2.842893  (  1.606742  -0.511017  -0.011656)
   8:       135.86    6.036547  (  1.426888   0.528622  -1.929015)
   9:       221.60    0.448729  (  0.603553  -0.000319   0.290606)
  10:       374.07   10.585779  ( -1.514884  -1.656850  -2.354942)
  11:       469.69    9.731587  ( -0.941324  -1.045525  -2.784308)
  12:       491.06   17.128378  (  2.311216  -1.408519  -3.130931)
  13:       526.29   28.101554  ( -5.235140  -0.818699  -0.156844)
  14:       608.06   73.660302  (  7.421282  -0.180619  -4.307232)
  15:       629.16  143.371312  (-11.887164  -0.591303   1.310342)
  16:       700.35   14.766232  (  1.785704  -3.368527  -0.480124)
  17:       808.00   55.721232  ( -2.969501  -0.226486  -6.844852)
  18:       983.81   32.656535  ( -0.351441   5.699931   0.209323)
  19:      1002.75  206.008061  (  4.717657  -3.392129  13.124223)
  20:      1039.99    2.486604  ( -0.016490  -0.071620   1.575183)
  21:      1075.12   18.506493  ( -0.874339   4.199868   0.321140)
  22:      1081.76   19.467610  ( -3.938805  -1.014752   1.709884)
  23:      1094.50  251.256968  ( -4.533326   0.948716 -15.159349)
  24:      1207.08    2.861477  (  0.778252   0.318752   1.467719)
  25:      1312.18   19.389808  (  2.421078   0.240311   3.670210)
  26:      1369.87    0.354039  (  0.515014  -0.043608  -0.294785)
  27:      1444.23  135.544831  (  7.590517   0.572630   8.809142)
  28:      1616.77  348.641505  (  6.675808   0.781207  17.420241)
  29:      1759.77  181.648940  ( -3.046198  -0.481546 -13.120127)
  30:      2272.07  1656.750320  ( 14.929766   1.370175  37.841446)
  31:      3171.47    3.477362  (  1.756645   0.083567   0.620142)
  32:      3188.07    9.780937  ( -2.378306   0.029822   2.030691)
  33:      3275.42    8.051027  ( -0.486027   0.074873   2.794494)
  34:      3417.82   62.724677  (  7.581153  -0.295695  -2.272303)
  35:      3433.03  199.126254  (  3.705321   8.741724  10.439306)

--------------------------
THERMOCHEMISTRY AT 298.15K
--------------------------

Temperature         ... 298.15 K
Pressure            ... 1.00 atm
Total Mass          ... 93.11 AMU

Throughout the following assumptions are being made:
  (1) The electronic state is orbitally nondegenerate
  (2) There are no thermally accessible electronically excited states
  (3) Hindered rotations indicated by low frequency modes) are not
      treated as such but are treated as vibrations and this may
      case some error
  (4) All equations used are the standard statistical mechanics
      equations for an ideal gas
  (5) All vibrations are strinctly harmonic

------------
INNER ENERGY
------------

The inner energy is: U= E(el) + E(ZPE) + E(vib) + E(rot) + E(trans)
    E(el)   - is the total energy from the electronic structure calculation
              = E(kin-el) + E(nuc-el) + E(el-el) + E(nuc-nuc)
    E(ZPE)  - the the zero temperature vibrational energy from the frequency calculation
    E(vib)  - the the finite temperature correction to E(ZPE) due to population
              of excietd vibrational states
    E(rot)  - is the rotational thermal energy
    E(trans)- is the translational thermal energy

Summary of contributions to the inner energy U:
Electronic energy                ...   -302.32499223 Eh
Zero point energy                ...      0.08860537 Eh      55.60 kcal/mol
Thermal vibrational correction   ...      0.00443875 Eh       2.79 kcal/mol
Thermal rotational correction    ...      0.00141627 Eh       0.89 kcal/mol
Thermal translational correction ...      0.00141627 Eh       0.89 kcal/mol
-----------------------------------------------------------------------
Total thermal energy                   -302.22911557 Eh

Summary of corrections to the electronic energy:
(perhaps to be used in another calculation)
Total thermal correction                  0.00727129 Eh       4.56 kcal/mol
Non-thermal (ZPE) correction              0.08860537 Eh      55.60 kcal/mol
-----------------------------------------------------------------------
Total correction                          0.09587666 Eh      60.16 kcal/mol

--------
ENTHALPY
--------

The enthalpy is H = U + kB*T
                kB is Boltzmann's constant
Total free energy                 ...   -302.22911557 Eh
Thermal Enthalpy correction       ...      0.00094421 Eh       0.59 kcal/mol
-----------------------------------------------------------------------
Total Enthalpy                    ...   -302.22817136 Eh

-------
ENTROPY
-------

The entropy contributions are T*S = T*(S(el)+S(vib)+S(rot)+S(trans)
     S(el)   - electronic entropy
     S(vib)  - vibrational entropy
     S(rot)  - rotational entropy
     S(trans)- translational entropy
The entropies will be listed as mutliplied by the temperature to get
units of energy

Electronic entropy                ...      0.00000000 Eh      0.00 kcal/mol
Vibrational entropy               ...      0.00810727 Eh      5.09 kcal/mol
Rotational entropy                ...      0.01200168 Eh      7.53 kcal/mol
Translational entropy             ...      0.01877012 Eh     11.78 kcal/mol
-----------------------------------------------------------------------
Final entropy term                ...      0.03887908 Eh     24.40 kcal/mol

CAUTION: The rotational entropy is not quite correctly treated here
         because it includes a symmetry number that is not yet correctly
         implemented in ORCA!
For a nonlinear molecule the correct rotational entropy is:
    S(rot) = R*(ln(qrot/sn)+1.5)
    R    = 8.31441 J/mol/K = 1.987191683e-3 kcal/mol/K
    qrot = 221864.9727218
    sn is the rotational symmetry number. We have assumed 3 here
       if it is different for your molecule then you should correct
       the printed rotational entropy by manually evaluating the equation
       as given above

For convenience we print out the resulting values for sn=1 - 12:
 sn= 1  qrot/sn=  221864.9727 T*S(rot)=     8.18 kcal/mol T*S(tot)=    25.05 kcal/mol
 sn= 2  qrot/sn=  110932.4864 T*S(rot)=     7.77 kcal/mol T*S(tot)=    24.64 kcal/mol
 sn= 3  qrot/sn=   73954.9909 T*S(rot)=     7.53 kcal/mol T*S(tot)=    24.40 kcal/mol
 sn= 4  qrot/sn=   55466.2432 T*S(rot)=     7.36 kcal/mol T*S(tot)=    24.23 kcal/mol
 sn= 5  qrot/sn=   44372.9945 T*S(rot)=     7.23 kcal/mol T*S(tot)=    24.09 kcal/mol
 sn= 6  qrot/sn=   36977.4955 T*S(rot)=     7.12 kcal/mol T*S(tot)=    23.99 kcal/mol
 sn= 7  qrot/sn=   31694.9961 T*S(rot)=     7.03 kcal/mol T*S(tot)=    23.89 kcal/mol
 sn= 8  qrot/sn=   27733.1216 T*S(rot)=     6.95 kcal/mol T*S(tot)=    23.82 kcal/mol
 sn= 9  qrot/sn=   24651.6636 T*S(rot)=     6.88 kcal/mol T*S(tot)=    23.75 kcal/mol
 sn=10  qrot/sn=   22186.4973 T*S(rot)=     6.82 kcal/mol T*S(tot)=    23.68 kcal/mol
 sn=11  qrot/sn=   20169.5430 T*S(rot)=     6.76 kcal/mol T*S(tot)=    23.63 kcal/mol
 sn=12  qrot/sn=   18488.7477 T*S(rot)=     6.71 kcal/mol T*S(tot)=    23.58 kcal/mol

-------------------
GIBBS FREE ENTHALPY
-------------------

The Gibbs free enthalpy is G = H - T*S

Total enthalpy                    ...   -302.22817136 Eh
Total entropy correction          ...     -0.03887908 Eh    -24.40 kcal/mol
-----------------------------------------------------------------------
Final Gibbs free enthalpy         ...   -302.26705044 Eh

For completeness - the Gibbs free enthalpy minus the electronic energy
G-E(el)                           ...      0.05794179 Eh     36.36 kcal/mol

                             ****ORCA TERMINATED NORMALLY****
TOTAL RUN TIME: 0 days 0 hours 19 minutes 40 seconds 540 msec
