                         Program Version 3.0.3 - RELEASE   -
|  1> ! NORI PBE0 def2-TZVP UseSym TightOPT Freq TightSCF Grid3 FinalGrid5 XYZFile
|  2> % pal
|  3>     nprocs 8
|  4> end
|  5> %method
|  6>     SymThresh 5.0e-2
|  7> end
|  8> % geom
|  9>     MaxIter 10
| 10> end
| 11> % maxcore 2000
| 12> % output
| 13>     printlevel mini
| 14>     print[ P_Basis ] 0
| 15>     print[ P_SCFInfo ] 1
| 16>     print[ P_SCFIterInfo ] 1
| 17>     print[ P_OrbEn ] 0
| 18>     print[ P_Cartesian ] 0
| 19> end
| 20> % elprop
| 21>     Dipole false
| 22> end
| 23> *xyz 1 1
| 24>  N        1.2683820308     0.3532139453    -0.5364949647
| 25>  C        2.4780094546    -0.1719292072    -0.2978209590
| 26>  N        2.6051987669     1.0971811903    -0.7092560175
| 27>  C        3.1389500078    -1.2584301444     0.1411698414
| 28>  C        3.7443653238    -2.2656702291     0.4844526241
| 29>  C        4.4056695894    -3.3659152241     0.8605675702
| 30>  C        5.0046097528    -4.3623541425     1.1967180821
| 31>  H        0.7099179449     0.5490024881     0.3024262716
| 32>  H        2.8877496098     1.7613371195     0.0206715932
| 33>  H        5.5330975193    -5.2449157958     1.4942659587
| 34> *
| 35>
| 36>                          ****END OF INPUT****
 Total Charge           Charge          ....    1
 Multiplicity           Mult            ....    1
 Number of Electrons    NEL             ....   46
FINAL SINGLE POINT ENERGY      -301.061388020679
                    ***********************HURRAY********************
 Multiplicity           Mult            ....    1
 Number of Electrons    NEL             ....   46
 Basis Dimension        Dim             ....  235
FINAL SINGLE POINT ENERGY      -301.061388082537

VIBRATIONAL FREQUENCIES
-----------------------

   0:         0.00 cm**-1
   1:         0.00 cm**-1
   2:         0.00 cm**-1
   3:         0.00 cm**-1
   4:         0.00 cm**-1
   5:         0.00 cm**-1
   6:        89.86 cm**-1
   7:        90.43 cm**-1
   8:       235.65 cm**-1
   9:       250.22 cm**-1
  10:       465.28 cm**-1
  11:       468.40 cm**-1
  12:       518.59 cm**-1
  13:       528.40 cm**-1
  14:       577.52 cm**-1
  15:       594.00 cm**-1
  16:       713.56 cm**-1
  17:       787.64 cm**-1
  18:       803.86 cm**-1
  19:      1001.28 cm**-1
  20:      1076.62 cm**-1
  21:      1084.14 cm**-1
  22:      1181.34 cm**-1
  23:      1374.23 cm**-1
  24:      1724.83 cm**-1
  25:      2174.10 cm**-1
  26:      2292.46 cm**-1
  27:      3412.02 cm**-1
  28:      3424.78 cm**-1
  29:      3427.09 cm**-1

IR SPECTRUM
-----------

 Mode    freq (cm**-1)   T**2         TX         TY         TZ
-------------------------------------------------------------------
   6:        89.86    1.683963  ( -0.029343  -0.028008   1.297042)
   7:        90.43    6.916927  ( -1.922521  -1.794553  -0.020477)
   8:       235.65    5.160871  (  0.000081   0.000029   2.271755)
   9:       250.22    7.574185  ( -1.815678   2.068212  -0.000407)
  10:       465.28   21.161296  ( -4.447296   1.175949  -0.000703)
  11:       468.40   52.215604  (  0.001910  -0.000043  -7.226036)
  12:       518.59   31.416066  (  0.001753   0.000075  -5.605003)
  13:       528.40    4.723811  (  2.172808   0.051792   0.006037)
  14:       577.52   16.684772  ( -1.512589   3.794316   0.003473)
  15:       594.00  183.568747  ( -0.000631   0.000874 -13.548754)
  16:       713.56   41.258710  (  0.001530   0.000010   6.423294)
  17:       787.64   56.164351  (  7.493476  -0.110326   0.000297)
  18:       803.86   22.053851  ( -0.100335  -4.695081   0.000142)
  19:      1001.28  194.804600  ( 13.450271   3.727575  -0.000280)
  20:      1076.62   17.834909  (  0.005066   0.000394   4.223137)
  21:      1084.14  238.660227  ( 15.430195   0.754526  -0.000840)
  22:      1181.34    0.098078  (  0.099191  -0.297051  -0.000257)
  23:      1374.23    0.245961  (  0.000630   0.000035  -0.495945)
  24:      1724.83  511.789114  (-22.605101   0.893610  -0.000040)
  25:      2174.10   28.446590  ( -5.331891   0.132401   0.000475)
  26:      2292.46  1713.483416  (-41.374888   1.265715   0.000174)
  27:      3412.02   76.553697  ( -0.002408   0.001896  -8.749496)
  28:      3424.78  211.223270  (-14.244091   2.886027   0.000865)
  29:      3427.09  147.268283  ( -8.302756   8.850566   0.001676)

--------------------------
THERMOCHEMISTRY AT 298.15K
--------------------------

Temperature         ... 298.15 K
Pressure            ... 1.00 atm
Total Mass          ... 91.09 AMU

Throughout the following assumptions are being made:
  (1) The electronic state is orbitally nondegenerate
  (2) There are no thermally accessible electronically excited states
  (3) Hindered rotations indicated by low frequency modes) are not
      treated as such but are treated as vibrations and this may
      case some error
  (4) All equations used are the standard statistical mechanics
      equations for an ideal gas
  (5) All vibrations are strinctly harmonic

------------
INNER ENERGY
------------

The inner energy is: U= E(el) + E(ZPE) + E(vib) + E(rot) + E(trans)
    E(el)   - is the total energy from the electronic structure calculation
              = E(kin-el) + E(nuc-el) + E(el-el) + E(nuc-nuc)
    E(ZPE)  - the the zero temperature vibrational energy from the frequency calculation
    E(vib)  - the the finite temperature correction to E(ZPE) due to population
              of excietd vibrational states
    E(rot)  - is the rotational thermal energy
    E(trans)- is the translational thermal energy

Summary of contributions to the inner energy U:
Electronic energy                ...   -301.06138808 Eh
Zero point energy                ...      0.06446368 Eh      40.45 kcal/mol
Thermal vibrational correction   ...      0.00413689 Eh       2.60 kcal/mol
Thermal rotational correction    ...      0.00141627 Eh       0.89 kcal/mol
Thermal translational correction ...      0.00141627 Eh       0.89 kcal/mol
-----------------------------------------------------------------------
Total thermal energy                   -300.98995497 Eh

Summary of corrections to the electronic energy:
(perhaps to be used in another calculation)
Total thermal correction                  0.00696944 Eh       4.37 kcal/mol
Non-thermal (ZPE) correction              0.06446368 Eh      40.45 kcal/mol
-----------------------------------------------------------------------
Total correction                          0.07143312 Eh      44.82 kcal/mol

--------
ENTHALPY
--------

The enthalpy is H = U + kB*T
                kB is Boltzmann's constant
Total free energy                 ...   -300.98995497 Eh
Thermal Enthalpy correction       ...      0.00094421 Eh       0.59 kcal/mol
-----------------------------------------------------------------------
Total Enthalpy                    ...   -300.98901076 Eh

-------
ENTROPY
-------

The entropy contributions are T*S = T*(S(el)+S(vib)+S(rot)+S(trans)
     S(el)   - electronic entropy
     S(vib)  - vibrational entropy
     S(rot)  - rotational entropy
     S(trans)- translational entropy
The entropies will be listed as mutliplied by the temperature to get
units of energy

Electronic entropy                ...      0.00000000 Eh      0.00 kcal/mol
Vibrational entropy               ...      0.00738184 Eh      4.63 kcal/mol
Rotational entropy                ...      0.01179167 Eh      7.40 kcal/mol
Translational entropy             ...      0.01873912 Eh     11.76 kcal/mol
-----------------------------------------------------------------------
Final entropy term                ...      0.03791263 Eh     23.79 kcal/mol

CAUTION: The rotational entropy is not quite correctly treated here
         because it includes a symmetry number that is not yet correctly
         implemented in ORCA!
For a nonlinear molecule the correct rotational entropy is:
    S(rot) = R*(ln(qrot/sn)+1.5)
    R    = 8.31441 J/mol/K = 1.987191683e-3 kcal/mol/K
    qrot = 177618.2167184
    sn is the rotational symmetry number. We have assumed 3 here
       if it is different for your molecule then you should correct
       the printed rotational entropy by manually evaluating the equation
       as given above

For convenience we print out the resulting values for sn=1 - 12:
 sn= 1  qrot/sn=  177618.2167 T*S(rot)=     8.05 kcal/mol T*S(tot)=    24.44 kcal/mol
 sn= 2  qrot/sn=   88809.1084 T*S(rot)=     7.64 kcal/mol T*S(tot)=    24.03 kcal/mol
 sn= 3  qrot/sn=   59206.0722 T*S(rot)=     7.40 kcal/mol T*S(tot)=    23.79 kcal/mol
 sn= 4  qrot/sn=   44404.5542 T*S(rot)=     7.23 kcal/mol T*S(tot)=    23.62 kcal/mol
 sn= 5  qrot/sn=   35523.6433 T*S(rot)=     7.10 kcal/mol T*S(tot)=    23.49 kcal/mol
 sn= 6  qrot/sn=   29603.0361 T*S(rot)=     6.99 kcal/mol T*S(tot)=    23.38 kcal/mol
 sn= 7  qrot/sn=   25374.0310 T*S(rot)=     6.90 kcal/mol T*S(tot)=    23.29 kcal/mol
 sn= 8  qrot/sn=   22202.2771 T*S(rot)=     6.82 kcal/mol T*S(tot)=    23.21 kcal/mol
 sn= 9  qrot/sn=   19735.3574 T*S(rot)=     6.75 kcal/mol T*S(tot)=    23.14 kcal/mol
 sn=10  qrot/sn=   17761.8217 T*S(rot)=     6.69 kcal/mol T*S(tot)=    23.08 kcal/mol
 sn=11  qrot/sn=   16147.1106 T*S(rot)=     6.63 kcal/mol T*S(tot)=    23.02 kcal/mol
 sn=12  qrot/sn=   14801.5181 T*S(rot)=     6.58 kcal/mol T*S(tot)=    22.97 kcal/mol

-------------------
GIBBS FREE ENTHALPY
-------------------

The Gibbs free enthalpy is G = H - T*S

Total enthalpy                    ...   -300.98901076 Eh
Total entropy correction          ...     -0.03791263 Eh    -23.79 kcal/mol
-----------------------------------------------------------------------
Final Gibbs free enthalpy         ...   -301.02692338 Eh

For completeness - the Gibbs free enthalpy minus the electronic energy
G-E(el)                           ...      0.03446470 Eh     21.63 kcal/mol

                             ****ORCA TERMINATED NORMALLY****
TOTAL RUN TIME: 0 days 0 hours 14 minutes 46 seconds 325 msec
