                         Program Version 3.0.3 - RELEASE   -
|  1> ! NORI PBE0 def2-TZVP UseSym TightOPT Freq TightSCF Grid3 FinalGrid5 XYZFile
|  2> % pal
|  3>     nprocs 8
|  4> end
|  5> %method
|  6>     SymThresh 5.0e-2
|  7> end
|  8> % geom
|  9>     MaxIter 10
| 10> end
| 11> % maxcore 2000
| 12> % output
| 13>     printlevel mini
| 14>     print[ P_Basis ] 0
| 15>     print[ P_SCFInfo ] 1
| 16>     print[ P_SCFIterInfo ] 1
| 17>     print[ P_OrbEn ] 0
| 18>     print[ P_Cartesian ] 0
| 19> end
| 20> % elprop
| 21>     Dipole false
| 22> end
| 23> *xyz 1 1
| 24>  N        3.6921825620     1.1663232068    -0.9308670352
| 25>  C        2.9055166749     0.2938696677    -0.0234447551
| 26>  N        1.8262809017     0.7329441134     0.3992154982
| 27>  C        3.6488211146    -1.0304498875     0.0570141587
| 28>  C        4.7019570658    -1.0746759674    -1.0911710855
| 29>  C        4.9358029222     0.3668088953    -1.2063517808
| 30>  C        5.1055966808     1.5167734912    -0.6752085580
| 31>  H        3.1796690963     1.6247968846    -1.6828048934
| 32>  H        1.2905975539     0.0664594266     0.9522150940
| 33>  H        4.1569979418    -1.1021408142     1.0220051582
| 34>  H        2.9395491264    -1.8553656692    -0.0132012185
| 35>  H        5.6077083597    -1.6205591053    -0.8324002101
| 36>  H        4.2830360756    -1.4886726428    -2.0100749223
| 37>  H        5.6021839243     2.3209084008    -0.1581454501
| 38> *
| 39>
| 40>                          ****END OF INPUT****
 Total Charge           Charge          ....    1
 Multiplicity           Mult            ....    1
 Number of Electrons    NEL             ....   50
FINAL SINGLE POINT ENERGY      -303.617158500380
                    ***********************HURRAY********************
 Multiplicity           Mult            ....    1
 Number of Electrons    NEL             ....   50
 Basis Dimension        Dim             ....  259
FINAL SINGLE POINT ENERGY      -303.617158673551

VIBRATIONAL FREQUENCIES
-----------------------

   0:         0.00 cm**-1
   1:         0.00 cm**-1
   2:         0.00 cm**-1
   3:         0.00 cm**-1
   4:         0.00 cm**-1
   5:         0.00 cm**-1
   6:       110.42 cm**-1
   7:       274.75 cm**-1
   8:       339.25 cm**-1
   9:       422.21 cm**-1
  10:       533.33 cm**-1
  11:       616.65 cm**-1
  12:       640.54 cm**-1
  13:       655.68 cm**-1
  14:       731.40 cm**-1
  15:       776.62 cm**-1
  16:       840.98 cm**-1
  17:       913.63 cm**-1
  18:       932.63 cm**-1
  19:       948.64 cm**-1
  20:       980.50 cm**-1
  21:       995.83 cm**-1
  22:      1036.34 cm**-1
  23:      1048.20 cm**-1
  24:      1071.18 cm**-1
  25:      1183.37 cm**-1
  26:      1187.08 cm**-1
  27:      1256.99 cm**-1
  28:      1281.69 cm**-1
  29:      1312.72 cm**-1
  30:      1378.58 cm**-1
  31:      1448.29 cm**-1
  32:      1472.00 cm**-1
  33:      1828.23 cm**-1
  34:      1904.45 cm**-1
  35:      3087.22 cm**-1
  36:      3104.13 cm**-1
  37:      3149.41 cm**-1
  38:      3172.57 cm**-1
  39:      3321.82 cm**-1
  40:      3486.79 cm**-1
  41:      3529.46 cm**-1

IR SPECTRUM
-----------

 Mode    freq (cm**-1)   T**2         TX         TY         TZ
-------------------------------------------------------------------
   6:       110.42    2.423216  (  0.360914  -1.494786   0.242015)
   7:       274.75    3.556476  ( -1.481989  -1.115816   0.339320)
   8:       339.25    8.649776  (  0.833359   2.743082  -0.656347)
   9:       422.21   17.036560  ( -4.051960  -0.019595   0.786002)
  10:       533.33    0.241444  (  0.008950   0.356659   0.337874)
  11:       616.65    9.762906  ( -2.389762  -2.010749   0.093997)
  12:       640.54    3.495062  (  0.387646   0.284578  -1.806601)
  13:       655.68   16.372736  (  3.049056   2.659566  -0.051972)
  14:       731.40   64.427682  (  2.680502  -0.941348  -7.507094)
  15:       776.62    5.066404  ( -2.093105   0.649840   0.512857)
  16:       840.98   22.403800  (  4.562308   1.251383   0.152262)
  17:       913.63   11.468822  ( -1.952327   0.523154   2.717269)
  18:       932.63   65.956742  ( -3.514206   7.229802  -1.156315)
  19:       948.64   43.684714  ( -5.262526  -3.997172   0.114679)
  20:       980.50   66.628626  ( -5.754304   4.451944   3.700919)
  21:       995.83   67.241377  (  7.101596   1.378547   3.861130)
  22:      1036.34    4.456203  ( -1.429874   0.314052  -1.520866)
  23:      1048.20   23.739698  (  4.673993   1.003798   0.941212)
  24:      1071.18    2.804143  ( -0.603142   1.149122   1.058244)
  25:      1183.37    0.779069  ( -0.495955   0.640417   0.350661)
  26:      1187.08   33.720450  (  1.679271   1.682858   5.297970)
  27:      1256.99   42.704639  (  4.819723   0.722635   4.353471)
  28:      1281.69    4.539562  (  1.985541  -0.654478   0.410909)
  29:      1312.72    7.028038  ( -1.243244  -0.893569  -2.164236)
  30:      1378.58    9.641259  (  2.547788   0.040115  -1.774381)
  31:      1448.29   10.626614  (  0.850407   1.829537  -2.560511)
  32:      1472.00   12.169618  (  1.892207   1.746583   2.353427)
  33:      1828.23  114.047287  ( 10.599939   0.611730   1.146454)
  34:      1904.45    3.382650  (  0.706768   0.079888  -1.696097)
  35:      3087.22    3.456716  ( -0.705461  -0.142333  -1.714288)
  36:      3104.13    1.185905  ( -0.671835  -0.544236  -0.662080)
  37:      3149.41    2.652454  ( -0.198092   1.284882   0.980964)
  38:      3172.57    4.905728  ( -1.234575   1.592980  -0.918678)
  39:      3321.82   88.029598  (  1.628259  -8.116194  -4.416534)
  40:      3486.79   89.747565  ( -0.892667   4.764346  -8.139516)
  41:      3529.46   57.937906  (  7.042654  -0.597428  -2.825245)

--------------------------
THERMOCHEMISTRY AT 298.15K
--------------------------

Temperature         ... 298.15 K
Pressure            ... 1.00 atm
Total Mass          ... 95.12 AMU

Throughout the following assumptions are being made:
  (1) The electronic state is orbitally nondegenerate
  (2) There are no thermally accessible electronically excited states
  (3) Hindered rotations indicated by low frequency modes) are not
      treated as such but are treated as vibrations and this may
      case some error
  (4) All equations used are the standard statistical mechanics
      equations for an ideal gas
  (5) All vibrations are strinctly harmonic

------------
INNER ENERGY
------------

The inner energy is: U= E(el) + E(ZPE) + E(vib) + E(rot) + E(trans)
    E(el)   - is the total energy from the electronic structure calculation
              = E(kin-el) + E(nuc-el) + E(el-el) + E(nuc-nuc)
    E(ZPE)  - the the zero temperature vibrational energy from the frequency calculation
    E(vib)  - the the finite temperature correction to E(ZPE) due to population
              of excietd vibrational states
    E(rot)  - is the rotational thermal energy
    E(trans)- is the translational thermal energy

Summary of contributions to the inner energy U:
Electronic energy                ...   -303.61715867 Eh
Zero point energy                ...      0.11612632 Eh      72.87 kcal/mol
Thermal vibrational correction   ...      0.00311024 Eh       1.95 kcal/mol
Thermal rotational correction    ...      0.00141627 Eh       0.89 kcal/mol
Thermal translational correction ...      0.00141627 Eh       0.89 kcal/mol
-----------------------------------------------------------------------
Total thermal energy                   -303.49508956 Eh

Summary of corrections to the electronic energy:
(perhaps to be used in another calculation)
Total thermal correction                  0.00594279 Eh       3.73 kcal/mol
Non-thermal (ZPE) correction              0.11612632 Eh      72.87 kcal/mol
-----------------------------------------------------------------------
Total correction                          0.12206911 Eh      76.60 kcal/mol

--------
ENTHALPY
--------

The enthalpy is H = U + kB*T
                kB is Boltzmann's constant
Total free energy                 ...   -303.49508956 Eh
Thermal Enthalpy correction       ...      0.00094421 Eh       0.59 kcal/mol
-----------------------------------------------------------------------
Total Enthalpy                    ...   -303.49414535 Eh

-------
ENTROPY
-------

The entropy contributions are T*S = T*(S(el)+S(vib)+S(rot)+S(trans)
     S(el)   - electronic entropy
     S(vib)  - vibrational entropy
     S(rot)  - rotational entropy
     S(trans)- translational entropy
The entropies will be listed as mutliplied by the temperature to get
units of energy

Electronic entropy                ...      0.00000000 Eh      0.00 kcal/mol
Vibrational entropy               ...      0.00492959 Eh      3.09 kcal/mol
Rotational entropy                ...      0.01169024 Eh      7.34 kcal/mol
Translational entropy             ...      0.01880046 Eh     11.80 kcal/mol
-----------------------------------------------------------------------
Final entropy term                ...      0.03542029 Eh     22.23 kcal/mol

CAUTION: The rotational entropy is not quite correctly treated here
         because it includes a symmetry number that is not yet correctly
         implemented in ORCA!
For a nonlinear molecule the correct rotational entropy is:
    S(rot) = R*(ln(qrot/sn)+1.5)
    R    = 8.31441 J/mol/K = 1.987191683e-3 kcal/mol/K
    qrot = 159526.1033236
    sn is the rotational symmetry number. We have assumed 3 here
       if it is different for your molecule then you should correct
       the printed rotational entropy by manually evaluating the equation
       as given above

For convenience we print out the resulting values for sn=1 - 12:
 sn= 1  qrot/sn=  159526.1033 T*S(rot)=     7.99 kcal/mol T*S(tot)=    22.88 kcal/mol
 sn= 2  qrot/sn=   79763.0517 T*S(rot)=     7.58 kcal/mol T*S(tot)=    22.47 kcal/mol
 sn= 3  qrot/sn=   53175.3678 T*S(rot)=     7.34 kcal/mol T*S(tot)=    22.23 kcal/mol
 sn= 4  qrot/sn=   39881.5258 T*S(rot)=     7.17 kcal/mol T*S(tot)=    22.06 kcal/mol
 sn= 5  qrot/sn=   31905.2207 T*S(rot)=     7.03 kcal/mol T*S(tot)=    21.92 kcal/mol
 sn= 6  qrot/sn=   26587.6839 T*S(rot)=     6.93 kcal/mol T*S(tot)=    21.82 kcal/mol
 sn= 7  qrot/sn=   22789.4433 T*S(rot)=     6.83 kcal/mol T*S(tot)=    21.72 kcal/mol
 sn= 8  qrot/sn=   19940.7629 T*S(rot)=     6.75 kcal/mol T*S(tot)=    21.65 kcal/mol
 sn= 9  qrot/sn=   17725.1226 T*S(rot)=     6.68 kcal/mol T*S(tot)=    21.58 kcal/mol
 sn=10  qrot/sn=   15952.6103 T*S(rot)=     6.62 kcal/mol T*S(tot)=    21.51 kcal/mol
 sn=11  qrot/sn=   14502.3730 T*S(rot)=     6.57 kcal/mol T*S(tot)=    21.46 kcal/mol
 sn=12  qrot/sn=   13293.8419 T*S(rot)=     6.51 kcal/mol T*S(tot)=    21.41 kcal/mol

-------------------
GIBBS FREE ENTHALPY
-------------------

The Gibbs free enthalpy is G = H - T*S

Total enthalpy                    ...   -303.49414535 Eh
Total entropy correction          ...     -0.03542029 Eh    -22.23 kcal/mol
-----------------------------------------------------------------------
Final Gibbs free enthalpy         ...   -303.52956564 Eh

For completeness - the Gibbs free enthalpy minus the electronic energy
G-E(el)                           ...      0.08759303 Eh     54.97 kcal/mol

                             ****ORCA TERMINATED NORMALLY****
TOTAL RUN TIME: 0 days 0 hours 29 minutes 16 seconds 266 msec
