                         Program Version 3.0.3 - RELEASE   -
|  1> ! NORI PBE0 def2-TZVP UseSym TightOPT Freq TightSCF Grid3 FinalGrid5 XYZFile
|  2> % pal
|  3>     nprocs 8
|  4> end
|  5> %method
|  6>     SymThresh 5.0e-2
|  7> end
|  8> % geom
|  9>     MaxIter 10
| 10> end
| 11> % maxcore 2000
| 12> % output
| 13>     printlevel mini
| 14>     print[ P_Basis ] 0
| 15>     print[ P_SCFInfo ] 1
| 16>     print[ P_SCFIterInfo ] 1
| 17>     print[ P_OrbEn ] 0
| 18>     print[ P_Cartesian ] 0
| 19> end
| 20> % elprop
| 21>     Dipole false
| 22> end
| 23> *xyz 1 1
| 24>  N        1.2987790295    -0.6872315497    -0.6347146912
| 25>  C        2.3926808536    -0.2127415828    -0.0831302222
| 26>  N        2.6087073740    -0.4084488629    -1.4021393909
| 27>  C        2.9671035704     0.2270662323     1.1123596668
| 28>  C        4.2898218397     0.5310753368     1.1209141929
| 29>  C        4.9578025515     0.9662350309     2.2794377832
| 30>  N        5.5224296512     1.3265526134     3.2193481553
| 31>  H        0.4745998757    -0.0902758533    -0.7467039510
| 32>  H        2.6287900623     0.4656244203    -1.9417926284
| 33>  H        2.3485828277     0.2728321550     2.0012854352
| 34>  H        4.8949423644     0.4333020598     0.2213856503
| 35> *
| 36>
| 37>                          ****END OF INPUT****
 Total Charge           Charge          ....    1
 Multiplicity           Mult            ....    1
 Number of Electrons    NEL             ....   48
FINAL SINGLE POINT ENERGY      -318.386713746701

CARTESIAN COORDINATES (ANGSTROEM)
---------------------------------
  N      0.000041    0.000031    2.658138
  C      0.141820   -0.018023    1.352130
  N      1.361876    0.000187    1.931500
  C     -0.539890   -0.047617    0.132729
  C      0.178791    0.068165   -1.012799
  C     -0.420859    0.064968   -2.284859
  N     -0.894898    0.062364   -3.337111
  H     -0.343535   -0.828023    3.152683
  H      1.842133   -0.907091    1.889714
  H     -1.621277   -0.121540    0.142349
  H      1.260807    0.184913   -0.988260

FINAL SINGLE POINT ENERGY      -318.386713929671
                    ***********************HURRAY********************
 Multiplicity           Mult            ....    1
 Number of Electrons    NEL             ....   48
 Basis Dimension        Dim             ....  241
FINAL SINGLE POINT ENERGY      -318.386714221943

VIBRATIONAL FREQUENCIES
-----------------------

   0:         0.00 cm**-1
   1:         0.00 cm**-1
   2:         0.00 cm**-1
   3:         0.00 cm**-1
   4:         0.00 cm**-1
   5:         0.00 cm**-1
   6:       103.44 cm**-1
   7:       117.08 cm**-1
   8:       182.14 cm**-1
   9:       237.03 cm**-1
  10:       374.61 cm**-1
  11:       442.97 cm**-1
  12:       488.12 cm**-1
  13:       533.84 cm**-1
  14:       558.86 cm**-1
  15:       734.38 cm**-1
  16:       905.23 cm**-1
  17:       983.69 cm**-1
  18:       993.01 cm**-1
  19:      1002.25 cm**-1
  20:      1049.66 cm**-1
  21:      1084.45 cm**-1
  22:      1108.12 cm**-1
  23:      1285.57 cm**-1
  24:      1308.60 cm**-1
  25:      1422.74 cm**-1
  26:      1627.05 cm**-1
  27:      1760.32 cm**-1
  28:      2346.45 cm**-1
  29:      3174.44 cm**-1
  30:      3220.77 cm**-1
  31:      3405.94 cm**-1
  32:      3455.63 cm**-1

IR SPECTRUM
-----------

 Mode    freq (cm**-1)   T**2         TX         TY         TZ
-------------------------------------------------------------------
   6:       103.44    8.850328  (  0.732239  -2.122425   1.951786)
   7:       117.08   12.338252  ( -2.997923  -0.077847   1.828837)
   8:       182.14   15.389267  (  1.983808  -2.156060  -2.608674)
   9:       237.03    0.934862  (  0.403480  -0.156260  -0.864667)
  10:       374.61    7.684894  ( -2.021551  -0.274135  -1.876985)
  11:       442.97  180.416567  ( -8.977525   1.120850   9.927956)
  12:       488.12   52.081334  (  2.458765  -0.316256  -6.777595)
  13:       533.84   17.149219  (  2.621933  -0.684092   3.131566)
  14:       558.86   70.439581  (  6.979539  -1.678867  -4.348221)
  15:       734.38   60.026567  (  0.685678  -0.000762  -7.717280)
  16:       905.23   15.934336  ( -1.633366   3.534123  -0.881151)
  17:       983.69   95.901495  ( -2.168846  -2.547655  -9.203644)
  18:       993.01   34.479215  (  0.764141  -5.788028  -0.627722)
  19:      1002.25   35.400974  (  3.329653   3.434789   3.537882)
  20:      1049.66    5.735625  ( -0.639349   0.432414  -2.267130)
  21:      1084.45  257.895773  ( -7.437712  -0.366956 -14.228196)
  22:      1108.12   17.261660  ( -3.634700  -0.860626  -1.819323)
  23:      1285.57    9.718161  ( -2.036562  -0.151924   2.355312)
  24:      1308.60   29.206830  (  0.629269   0.638590  -5.329452)
  25:      1422.74    7.640305  (  0.806398  -0.037520   2.643600)
  26:      1627.05  173.504623  ( -1.470060   0.572165 -13.077315)
  27:      1760.32  844.554208  (  5.605851  -1.146208  28.492365)
  28:      2346.45  190.755777  (  3.856199  -0.323561  13.258236)
  29:      3174.44   12.067494  ( -3.270747  -0.504783   1.055891)
  30:      3220.77   23.000904  (  4.742388   0.323884  -0.636993)
  31:      3405.94   85.996498  ( -7.604054   4.944850  -1.929590)
  32:      3455.63  246.312688  (  2.918106   8.342605 -12.969128)

--------------------------
THERMOCHEMISTRY AT 298.15K
--------------------------

Temperature         ... 298.15 K
Pressure            ... 1.00 atm
Total Mass          ... 94.10 AMU

Throughout the following assumptions are being made:
  (1) The electronic state is orbitally nondegenerate
  (2) There are no thermally accessible electronically excited states
  (3) Hindered rotations indicated by low frequency modes) are not
      treated as such but are treated as vibrations and this may
      case some error
  (4) All equations used are the standard statistical mechanics
      equations for an ideal gas
  (5) All vibrations are strinctly harmonic

------------
INNER ENERGY
------------

The inner energy is: U= E(el) + E(ZPE) + E(vib) + E(rot) + E(trans)
    E(el)   - is the total energy from the electronic structure calculation
              = E(kin-el) + E(nuc-el) + E(el-el) + E(nuc-nuc)
    E(ZPE)  - the the zero temperature vibrational energy from the frequency calculation
    E(vib)  - the the finite temperature correction to E(ZPE) due to population
              of excietd vibrational states
    E(rot)  - is the rotational thermal energy
    E(trans)- is the translational thermal energy

Summary of contributions to the inner energy U:
Electronic energy                ...   -318.38671422 Eh
Zero point energy                ...      0.07724444 Eh      48.47 kcal/mol
Thermal vibrational correction   ...      0.00412832 Eh       2.59 kcal/mol
Thermal rotational correction    ...      0.00141627 Eh       0.89 kcal/mol
Thermal translational correction ...      0.00141627 Eh       0.89 kcal/mol
-----------------------------------------------------------------------
Total thermal energy                   -318.30250892 Eh

Summary of corrections to the electronic energy:
(perhaps to be used in another calculation)
Total thermal correction                  0.00696086 Eh       4.37 kcal/mol
Non-thermal (ZPE) correction              0.07724444 Eh      48.47 kcal/mol
-----------------------------------------------------------------------
Total correction                          0.08420530 Eh      52.84 kcal/mol

--------
ENTHALPY
--------

The enthalpy is H = U + kB*T
                kB is Boltzmann's constant
Total free energy                 ...   -318.30250892 Eh
Thermal Enthalpy correction       ...      0.00094421 Eh       0.59 kcal/mol
-----------------------------------------------------------------------
Total Enthalpy                    ...   -318.30156471 Eh

-------
ENTROPY
-------

The entropy contributions are T*S = T*(S(el)+S(vib)+S(rot)+S(trans)
     S(el)   - electronic entropy
     S(vib)  - vibrational entropy
     S(rot)  - rotational entropy
     S(trans)- translational entropy
The entropies will be listed as mutliplied by the temperature to get
units of energy

Electronic entropy                ...      0.00000000 Eh      0.00 kcal/mol
Vibrational entropy               ...      0.00727864 Eh      4.57 kcal/mol
Rotational entropy                ...      0.01188543 Eh      7.46 kcal/mol
Translational entropy             ...      0.01878507 Eh     11.79 kcal/mol
-----------------------------------------------------------------------
Final entropy term                ...      0.03794915 Eh     23.81 kcal/mol

CAUTION: The rotational entropy is not quite correctly treated here
         because it includes a symmetry number that is not yet correctly
         implemented in ORCA!
For a nonlinear molecule the correct rotational entropy is:
    S(rot) = R*(ln(qrot/sn)+1.5)
    R    = 8.31441 J/mol/K = 1.987191683e-3 kcal/mol/K
    qrot = 196162.6064376
    sn is the rotational symmetry number. We have assumed 3 here
       if it is different for your molecule then you should correct
       the printed rotational entropy by manually evaluating the equation
       as given above

For convenience we print out the resulting values for sn=1 - 12:
 sn= 1  qrot/sn=  196162.6064 T*S(rot)=     8.11 kcal/mol T*S(tot)=    24.46 kcal/mol
 sn= 2  qrot/sn=   98081.3032 T*S(rot)=     7.70 kcal/mol T*S(tot)=    24.05 kcal/mol
 sn= 3  qrot/sn=   65387.5355 T*S(rot)=     7.46 kcal/mol T*S(tot)=    23.81 kcal/mol
 sn= 4  qrot/sn=   49040.6516 T*S(rot)=     7.29 kcal/mol T*S(tot)=    23.64 kcal/mol
 sn= 5  qrot/sn=   39232.5213 T*S(rot)=     7.16 kcal/mol T*S(tot)=    23.51 kcal/mol
 sn= 6  qrot/sn=   32693.7677 T*S(rot)=     7.05 kcal/mol T*S(tot)=    23.40 kcal/mol
 sn= 7  qrot/sn=   28023.2295 T*S(rot)=     6.96 kcal/mol T*S(tot)=    23.31 kcal/mol
 sn= 8  qrot/sn=   24520.3258 T*S(rot)=     6.88 kcal/mol T*S(tot)=    23.23 kcal/mol
 sn= 9  qrot/sn=   21795.8452 T*S(rot)=     6.81 kcal/mol T*S(tot)=    23.16 kcal/mol
 sn=10  qrot/sn=   19616.2606 T*S(rot)=     6.74 kcal/mol T*S(tot)=    23.10 kcal/mol
 sn=11  qrot/sn=   17832.9642 T*S(rot)=     6.69 kcal/mol T*S(tot)=    23.04 kcal/mol
 sn=12  qrot/sn=   16346.8839 T*S(rot)=     6.64 kcal/mol T*S(tot)=    22.99 kcal/mol

-------------------
GIBBS FREE ENTHALPY
-------------------

The Gibbs free enthalpy is G = H - T*S

Total enthalpy                    ...   -318.30156471 Eh
Total entropy correction          ...     -0.03794915 Eh    -23.81 kcal/mol
-----------------------------------------------------------------------
Final Gibbs free enthalpy         ...   -318.33951386 Eh

For completeness - the Gibbs free enthalpy minus the electronic energy
G-E(el)                           ...      0.04720036 Eh     29.62 kcal/mol

                             ****ORCA TERMINATED NORMALLY****
TOTAL RUN TIME: 0 days 0 hours 19 minutes 13 seconds 503 msec
