                         Program Version 3.0.3 - RELEASE   -
|  1> ! NORI PBE0 def2-TZVP UseSym TightOPT Freq TightSCF Grid3 FinalGrid5 XYZFile
|  2> % pal
|  3>     nprocs 8
|  4> end
|  5> %method
|  6>     SymThresh 5.0e-2
|  7> end
|  8> % geom
|  9>     MaxIter 10
| 10> end
| 11> % maxcore 2000
| 12> % output
| 13>     printlevel mini
| 14>     print[ P_Basis ] 0
| 15>     print[ P_SCFInfo ] 1
| 16>     print[ P_SCFIterInfo ] 1
| 17>     print[ P_OrbEn ] 0
| 18>     print[ P_Cartesian ] 0
| 19> end
| 20> % elprop
| 21>     Dipole false
| 22> end
| 23> *xyz 1 1
| 24>  C       -0.9062927698     0.0000503649    -1.2471540739
| 25>  C       -0.6318793155     1.0128655483    -0.1253489512
| 26>  N       -1.3224397504    -0.0000919712     0.8100236725
| 27>  C       -0.6318178810    -1.0128896297    -0.1254764227
| 28>  C        0.8251760958    -0.7334964261     0.2746327550
| 29>  O        1.5384743029     0.0000892517    -0.6897219068
| 30>  C        0.8251313825     0.7335101479     0.2747253122
| 31>  H       -1.9478303525     0.0000387649    -1.5674522565
| 32>  H       -0.2295437247     0.0001245470    -2.0943401014
| 33>  H       -1.0244060291     2.0258240630    -0.0980565854
| 34>  H       -1.0420783384    -0.0001451357     1.7930441995
| 35>  H       -2.3407038086    -0.0001182590     0.7316790138
| 36>  H       -1.0242832891    -2.0258753765    -0.0983115206
| 37>  H        1.3849236944    -1.3816931861     0.9377013520
| 38>  H        1.3848397834     1.3816572965     0.9378755134
| 39> *
| 40>
| 41>                          ****END OF INPUT****
 Total Charge           Charge          ....    1
 Multiplicity           Mult            ....    1
 Number of Electrons    NEL             ....   52
FINAL SINGLE POINT ENERGY      -324.728458550719

CARTESIAN COORDINATES (ANGSTROEM)
---------------------------------
  C     -0.410848    1.364099    0.000000
  C     -0.538984    0.216532    1.012857
  N     -1.509248   -0.424081   -0.000000
  C     -0.538984    0.216532   -1.012857
  C      0.691702   -0.660261   -0.733427
  O      1.693083    0.000230   -0.000000
  C      0.691702   -0.660261    0.733427
  H     -1.278985    2.023032    0.000000
  H      0.515942    1.926852    0.000000
  H     -0.916888    0.326059    2.025684
  H     -1.584624   -1.443398   -0.000000
  H     -2.438082    0.000185   -0.000000
  H     -0.916888    0.326059   -2.025684
  H      0.989233   -1.475364   -1.381398
  H      0.989233   -1.475364    1.381398

FINAL SINGLE POINT ENERGY      -324.728458912355
                    ***********************HURRAY********************
 Multiplicity           Mult            ....    1
 Number of Electrons    NEL             ....   52
 Basis Dimension        Dim             ....  265
FINAL SINGLE POINT ENERGY      -324.728459026861

VIBRATIONAL FREQUENCIES
-----------------------

   0:         0.00 cm**-1
   1:         0.00 cm**-1
   2:         0.00 cm**-1
   3:         0.00 cm**-1
   4:         0.00 cm**-1
   5:         0.00 cm**-1
   6:       407.63 cm**-1
   7:       413.99 cm**-1
   8:       512.97 cm**-1
   9:       607.73 cm**-1
  10:       651.22 cm**-1
  11:       809.24 cm**-1
  12:       812.47 cm**-1
  13:       821.78 cm**-1
  14:       842.90 cm**-1
  15:       910.68 cm**-1
  16:       937.11 cm**-1
  17:       944.93 cm**-1
  18:       946.88 cm**-1
  19:      1004.38 cm**-1
  20:      1015.93 cm**-1
  21:      1045.20 cm**-1
  22:      1083.42 cm**-1
  23:      1098.08 cm**-1
  24:      1107.41 cm**-1
  25:      1136.24 cm**-1
  26:      1153.67 cm**-1
  27:      1245.49 cm**-1
  28:      1253.92 cm**-1
  29:      1262.48 cm**-1
  30:      1291.33 cm**-1
  31:      1293.32 cm**-1
  32:      1316.38 cm**-1
  33:      1333.12 cm**-1
  34:      1425.11 cm**-1
  35:      1483.79 cm**-1
  36:      1633.67 cm**-1
  37:      3123.42 cm**-1
  38:      3185.66 cm**-1
  39:      3186.54 cm**-1
  40:      3215.94 cm**-1
  41:      3219.23 cm**-1
  42:      3225.49 cm**-1
  43:      3431.63 cm**-1
  44:      3519.05 cm**-1

IR SPECTRUM
-----------

 Mode    freq (cm**-1)   T**2         TX         TY         TZ
-------------------------------------------------------------------
   6:       407.63    0.492551  ( -0.000000  -0.000000   0.701820)
   7:       413.99    0.621597  (  0.470645  -0.632527   0.000000)
   8:       512.97   10.700490  ( -2.595119   1.991444  -0.000000)
   9:       607.73   10.072540  ( -3.148503   0.399331   0.000000)
  10:       651.22    0.288511  ( -0.000001   0.000001  -0.537132)
  11:       809.24    0.402523  (  0.313899   0.551354  -0.000005)
  12:       812.47    0.614743  ( -0.000014  -0.000003  -0.784055)
  13:       821.78   15.628688  (  3.933428   0.396019  -0.000001)
  14:       842.90    2.039159  (  0.000003   0.000001  -1.427991)
  15:       910.68   23.895102  (  2.676954   4.090112   0.000000)
  16:       937.11    5.502091  ( -0.000001  -0.000001   2.345654)
  17:       944.93   12.479077  (  2.527793   2.467658   0.000001)
  18:       946.88    0.003630  (  0.000000   0.000000   0.060245)
  19:      1004.38    0.902415  ( -0.927918  -0.203427   0.000002)
  20:      1015.93   10.932367  (  3.306411  -0.003955  -0.000003)
  21:      1045.20    1.106428  (  0.646789   0.829513   0.000002)
  22:      1083.42    0.003291  ( -0.000002   0.000001   0.057365)
  23:      1098.08   18.930552  ( -3.586948   2.462592  -0.000004)
  24:      1107.41    3.212414  (  0.000000  -0.000000  -1.792321)
  25:      1136.24    0.441613  (  0.000000  -0.000000   0.664540)
  26:      1153.67   20.561882  (  0.000001  -0.000001  -4.534521)
  27:      1245.49    9.469332  (  0.530705   3.031119   0.000004)
  28:      1253.92   21.842313  (  0.000000   0.000001  -4.673576)
  29:      1262.48   10.676845  (  0.000000   0.000001  -3.267544)
  30:      1291.33    3.712709  ( -1.854921   0.521516  -0.000004)
  31:      1293.32    9.013424  ( -0.000003   0.000001   3.002237)
  32:      1316.38    4.056036  (  1.253877  -1.576017   0.000000)
  33:      1333.12   51.985168  (  0.000001  -0.000000  -7.210074)
  34:      1425.11   11.775700  (  2.391670   2.460816   0.000002)
  35:      1483.79   16.566642  (  0.131796  -4.068080   0.000001)
  36:      1633.67   71.373075  (  7.582810   3.724790   0.000000)
  37:      3123.42    2.763652  (  1.661716  -0.048510   0.000000)
  38:      3185.66    0.107899  (  0.192593  -0.266096   0.000000)
  39:      3186.54    0.180030  ( -0.000000   0.000000  -0.424299)
  40:      3215.94    0.849036  ( -0.000000   0.000000   0.921432)
  41:      3219.23    4.297841  (  2.030170   0.419824  -0.000000)
  42:      3225.49    2.116868  ( -1.217399   0.796748   0.000000)
  43:      3431.63   47.866646  ( -5.572750  -4.100135  -0.000000)
  44:      3519.05   59.205751  ( -4.973294   5.871294  -0.000000)

--------------------------
THERMOCHEMISTRY AT 298.15K
--------------------------

Temperature         ... 298.15 K
Pressure            ... 1.00 atm
Total Mass          ... 98.12 AMU

Throughout the following assumptions are being made:
  (1) The electronic state is orbitally nondegenerate
  (2) There are no thermally accessible electronically excited states
  (3) Hindered rotations indicated by low frequency modes) are not
      treated as such but are treated as vibrations and this may
      case some error
  (4) All equations used are the standard statistical mechanics
      equations for an ideal gas
  (5) All vibrations are strinctly harmonic

------------
INNER ENERGY
------------

The inner energy is: U= E(el) + E(ZPE) + E(vib) + E(rot) + E(trans)
    E(el)   - is the total energy from the electronic structure calculation
              = E(kin-el) + E(nuc-el) + E(el-el) + E(nuc-nuc)
    E(ZPE)  - the the zero temperature vibrational energy from the frequency calculation
    E(vib)  - the the finite temperature correction to E(ZPE) due to population
              of excietd vibrational states
    E(rot)  - is the rotational thermal energy
    E(trans)- is the translational thermal energy

Summary of contributions to the inner energy U:
Electronic energy                ...   -324.72845903 Eh
Zero point energy                ...      0.13192742 Eh      82.79 kcal/mol
Thermal vibrational correction   ...      0.00189995 Eh       1.19 kcal/mol
Thermal rotational correction    ...      0.00141627 Eh       0.89 kcal/mol
Thermal translational correction ...      0.00141627 Eh       0.89 kcal/mol
-----------------------------------------------------------------------
Total thermal energy                   -324.59179912 Eh

Summary of corrections to the electronic energy:
(perhaps to be used in another calculation)
Total thermal correction                  0.00473249 Eh       2.97 kcal/mol
Non-thermal (ZPE) correction              0.13192742 Eh      82.79 kcal/mol
-----------------------------------------------------------------------
Total correction                          0.13665991 Eh      85.76 kcal/mol

--------
ENTHALPY
--------

The enthalpy is H = U + kB*T
                kB is Boltzmann's constant
Total free energy                 ...   -324.59179912 Eh
Thermal Enthalpy correction       ...      0.00094421 Eh       0.59 kcal/mol
-----------------------------------------------------------------------
Total Enthalpy                    ...   -324.59085491 Eh

-------
ENTROPY
-------

The entropy contributions are T*S = T*(S(el)+S(vib)+S(rot)+S(trans)
     S(el)   - electronic entropy
     S(vib)  - vibrational entropy
     S(rot)  - rotational entropy
     S(trans)- translational entropy
The entropies will be listed as mutliplied by the temperature to get
units of energy

Electronic entropy                ...      0.00000000 Eh      0.00 kcal/mol
Vibrational entropy               ...      0.00252850 Eh      1.59 kcal/mol
Rotational entropy                ...      0.01145211 Eh      7.19 kcal/mol
Translational entropy             ...      0.01884443 Eh     11.83 kcal/mol
-----------------------------------------------------------------------
Final entropy term                ...      0.03282505 Eh     20.60 kcal/mol

CAUTION: The rotational entropy is not quite correctly treated here
         because it includes a symmetry number that is not yet correctly
         implemented in ORCA!
For a nonlinear molecule the correct rotational entropy is:
    S(rot) = R*(ln(qrot/sn)+1.5)
    R    = 8.31441 J/mol/K = 1.987191683e-3 kcal/mol/K
    qrot = 123966.2989435
    sn is the rotational symmetry number. We have assumed 3 here
       if it is different for your molecule then you should correct
       the printed rotational entropy by manually evaluating the equation
       as given above

For convenience we print out the resulting values for sn=1 - 12:
 sn= 1  qrot/sn=  123966.2989 T*S(rot)=     7.84 kcal/mol T*S(tot)=    21.25 kcal/mol
 sn= 2  qrot/sn=   61983.1495 T*S(rot)=     7.43 kcal/mol T*S(tot)=    20.84 kcal/mol
 sn= 3  qrot/sn=   41322.0996 T*S(rot)=     7.19 kcal/mol T*S(tot)=    20.60 kcal/mol
 sn= 4  qrot/sn=   30991.5747 T*S(rot)=     7.02 kcal/mol T*S(tot)=    20.43 kcal/mol
 sn= 5  qrot/sn=   24793.2598 T*S(rot)=     6.88 kcal/mol T*S(tot)=    20.30 kcal/mol
 sn= 6  qrot/sn=   20661.0498 T*S(rot)=     6.78 kcal/mol T*S(tot)=    20.19 kcal/mol
 sn= 7  qrot/sn=   17709.4713 T*S(rot)=     6.68 kcal/mol T*S(tot)=    20.10 kcal/mol
 sn= 8  qrot/sn=   15495.7874 T*S(rot)=     6.61 kcal/mol T*S(tot)=    20.02 kcal/mol
 sn= 9  qrot/sn=   13774.0332 T*S(rot)=     6.54 kcal/mol T*S(tot)=    19.95 kcal/mol
 sn=10  qrot/sn=   12396.6299 T*S(rot)=     6.47 kcal/mol T*S(tot)=    19.88 kcal/mol
 sn=11  qrot/sn=   11269.6635 T*S(rot)=     6.42 kcal/mol T*S(tot)=    19.83 kcal/mol
 sn=12  qrot/sn=   10330.5249 T*S(rot)=     6.36 kcal/mol T*S(tot)=    19.78 kcal/mol

-------------------
GIBBS FREE ENTHALPY
-------------------

The Gibbs free enthalpy is G = H - T*S

Total enthalpy                    ...   -324.59085491 Eh
Total entropy correction          ...     -0.03282505 Eh    -20.60 kcal/mol
-----------------------------------------------------------------------
Final Gibbs free enthalpy         ...   -324.62367996 Eh

For completeness - the Gibbs free enthalpy minus the electronic energy
G-E(el)                           ...      0.10477907 Eh     65.75 kcal/mol

                             ****ORCA TERMINATED NORMALLY****
TOTAL RUN TIME: 0 days 0 hours 33 minutes 43 seconds 655 msec
