                         Program Version 3.0.3 - RELEASE   -
|  1> ! NORI PBE0 def2-TZVP UseSym TightOPT Freq TightSCF Grid3 FinalGrid5 XYZFile
|  2> % pal
|  3>     nprocs 8
|  4> end
|  5> %method
|  6>     SymThresh 5.0e-2
|  7> end
|  8> % geom
|  9>     MaxIter 10
| 10> end
| 11> % maxcore 2000
| 12> % output
| 13>     printlevel mini
| 14>     print[ P_Basis ] 0
| 15>     print[ P_SCFInfo ] 1
| 16>     print[ P_SCFIterInfo ] 1
| 17>     print[ P_OrbEn ] 0
| 18>     print[ P_Cartesian ] 0
| 19> end
| 20> % elprop
| 21>     Dipole false
| 22> end
| 23> *xyz 1 1
| 24>  C       -1.0101256650     0.1812304778     1.0575217719
| 25>  C       -1.2911808182    -0.1271820648    -0.4205302011
| 26>  N       -0.6022831863    -1.4812409221    -0.1564563296
| 27>  C        0.2717568344    -0.6151016313     0.7720744731
| 28>  C        0.9895007119     0.2163546261    -0.3029478941
| 29>  O        0.5194164508     1.5386622403    -0.3924170947
| 30>  C       -0.1421736396     0.5694731558    -1.1665653588
| 31>  H       -1.6879642947    -0.3416245832     1.7318149736
| 32>  H       -0.8968489835     1.2230640949     1.3354300385
| 33>  H       -2.2822442700    -0.1786905662    -0.8630256146
| 34>  H       -0.1420698911    -1.9371980037    -0.9468773169
| 35>  H       -1.1917000047    -2.1484035504     0.3437839229
| 36>  H        0.8434803749    -1.1543258602     1.5224673019
| 37>  H        2.0061072547     0.0152235288    -0.6172028915
| 38>  H       -0.1255708737     0.6801190582    -2.2439897805
| 39> *
| 40>
| 41>                          ****END OF INPUT****
 Total Charge           Charge          ....    1
 Multiplicity           Mult            ....    1
 Number of Electrons    NEL             ....   52
FINAL SINGLE POINT ENERGY      -324.728458761210

CARTESIAN COORDINATES (ANGSTROEM)
---------------------------------
  C     -0.410394   -1.364161    0.000000
  C     -0.538968   -0.216693    1.012832
  N     -1.509264    0.423646   -0.000000
  C     -0.538968   -0.216693   -1.012832
  C      0.691618    0.660569   -0.733354
  O      1.693174    0.000261   -0.000000
  C      0.691618    0.660569    0.733354
  H     -1.278296   -2.023411    0.000000
  H      0.516780   -1.926259    0.000000
  H     -0.916855   -0.326567    2.025620
  H     -1.585336    1.442921   -0.000000
  H     -2.437803   -0.001293   -0.000000
  H     -0.916855   -0.326567   -2.025620
  H      0.988919    1.475793   -1.381272
  H      0.988919    1.475793    1.381272

FINAL SINGLE POINT ENERGY      -324.728458920509
                    ***********************HURRAY********************
 Multiplicity           Mult            ....    1
 Number of Electrons    NEL             ....   52
 Basis Dimension        Dim             ....  265
FINAL SINGLE POINT ENERGY      -324.728458976246

VIBRATIONAL FREQUENCIES
-----------------------

   0:         0.00 cm**-1
   1:         0.00 cm**-1
   2:         0.00 cm**-1
   3:         0.00 cm**-1
   4:         0.00 cm**-1
   5:         0.00 cm**-1
   6:       407.62 cm**-1
   7:       414.00 cm**-1
   8:       513.02 cm**-1
   9:       607.73 cm**-1
  10:       651.23 cm**-1
  11:       809.24 cm**-1
  12:       812.47 cm**-1
  13:       821.81 cm**-1
  14:       842.86 cm**-1
  15:       910.68 cm**-1
  16:       937.10 cm**-1
  17:       944.97 cm**-1
  18:       946.87 cm**-1
  19:      1004.39 cm**-1
  20:      1015.94 cm**-1
  21:      1045.25 cm**-1
  22:      1083.46 cm**-1
  23:      1098.09 cm**-1
  24:      1107.44 cm**-1
  25:      1136.31 cm**-1
  26:      1153.74 cm**-1
  27:      1245.52 cm**-1
  28:      1253.92 cm**-1
  29:      1262.52 cm**-1
  30:      1291.32 cm**-1
  31:      1293.34 cm**-1
  32:      1316.39 cm**-1
  33:      1333.14 cm**-1
  34:      1425.13 cm**-1
  35:      1483.76 cm**-1
  36:      1633.74 cm**-1
  37:      3123.46 cm**-1
  38:      3185.50 cm**-1
  39:      3186.38 cm**-1
  40:      3215.89 cm**-1
  41:      3219.08 cm**-1
  42:      3225.43 cm**-1
  43:      3431.22 cm**-1
  44:      3518.67 cm**-1

IR SPECTRUM
-----------

 Mode    freq (cm**-1)   T**2         TX         TY         TZ
-------------------------------------------------------------------
   6:       407.62    0.492706  (  0.000001  -0.000001  -0.701930)
   7:       414.00    0.625696  ( -0.472674  -0.634252   0.000000)
   8:       513.02   10.691478  ( -2.593109  -1.991799  -0.000001)
   9:       607.73   10.072285  (  3.148336   0.400328   0.000001)
  10:       651.23    0.288746  (  0.000000  -0.000000   0.537351)
  11:       809.24    0.402612  (  0.311734  -0.552661  -0.000004)
  12:       812.47    0.616745  ( -0.000001   0.000001   0.785331)
  13:       821.81   15.635874  (  3.934412  -0.395318   0.000007)
  14:       842.86    2.037389  ( -0.000001   0.000002  -1.427371)
  15:       910.68   23.885797  (  2.678276  -4.088109   0.000003)
  16:       937.10    5.501537  (  0.000000  -0.000005   2.345536)
  17:       944.97   12.485652  (  2.529310  -2.467436   0.000008)
  18:       946.87    0.003647  ( -0.000003   0.000004   0.060393)
  19:      1004.39    0.911510  ( -0.932767   0.203606   0.000003)
  20:      1015.94   10.908218  (  3.302757   0.003329  -0.000003)
  21:      1045.25    1.105254  (  0.646475  -0.829050  -0.000005)
  22:      1083.46    0.003549  ( -0.000000   0.000002   0.059570)
  23:      1098.09   18.950996  ( -3.588250  -2.464845   0.000004)
  24:      1107.44    3.217043  (  0.000001   0.000000  -1.793612)
  25:      1136.31    0.443330  (  0.000001  -0.000000  -0.665830)
  26:      1153.74   20.512351  (  0.000000  -0.000000  -4.529056)
  27:      1245.52    9.468559  (  0.531074  -3.030927  -0.000011)
  28:      1253.92   21.762687  ( -0.000000  -0.000002   4.665050)
  29:      1262.52   10.753964  (  0.000000   0.000001  -3.279324)
  30:      1291.32    3.717573  (  1.855545   0.523951   0.000002)
  31:      1293.34    9.035529  (  0.000002   0.000001  -3.005916)
  32:      1316.39    4.048462  (  1.251058   1.575854   0.000002)
  33:      1333.14   52.011231  (  0.000000  -0.000000   7.211881)
  34:      1425.13   11.782530  ( -2.393027   2.460885  -0.000002)
  35:      1483.76   16.560287  ( -0.131564  -4.067306  -0.000001)
  36:      1633.74   71.374564  ( -7.585096   3.720334  -0.000000)
  37:      3123.46    2.770173  (  1.663697   0.047818  -0.000000)
  38:      3185.50    0.107456  (  0.190923   0.266466   0.000002)
  39:      3186.38    0.179909  ( -0.000000  -0.000000  -0.424157)
  40:      3215.89    0.848925  ( -0.000000   0.000000  -0.921371)
  41:      3219.08    4.287018  ( -2.027592   0.419391  -0.000001)
  42:      3225.43    2.122268  ( -1.219835  -0.796411  -0.000012)
  43:      3431.22   47.861071  (  5.569438  -4.103953   0.000000)
  44:      3518.67   59.198708  ( -4.973686  -5.870363   0.000000)

--------------------------
THERMOCHEMISTRY AT 298.15K
--------------------------

Temperature         ... 298.15 K
Pressure            ... 1.00 atm
Total Mass          ... 98.12 AMU

Throughout the following assumptions are being made:
  (1) The electronic state is orbitally nondegenerate
  (2) There are no thermally accessible electronically excited states
  (3) Hindered rotations indicated by low frequency modes) are not
      treated as such but are treated as vibrations and this may
      case some error
  (4) All equations used are the standard statistical mechanics
      equations for an ideal gas
  (5) All vibrations are strinctly harmonic

------------
INNER ENERGY
------------

The inner energy is: U= E(el) + E(ZPE) + E(vib) + E(rot) + E(trans)
    E(el)   - is the total energy from the electronic structure calculation
              = E(kin-el) + E(nuc-el) + E(el-el) + E(nuc-nuc)
    E(ZPE)  - the the zero temperature vibrational energy from the frequency calculation
    E(vib)  - the the finite temperature correction to E(ZPE) due to population
              of excietd vibrational states
    E(rot)  - is the rotational thermal energy
    E(trans)- is the translational thermal energy

Summary of contributions to the inner energy U:
Electronic energy                ...   -324.72845898 Eh
Zero point energy                ...      0.13192552 Eh      82.78 kcal/mol
Thermal vibrational correction   ...      0.00189988 Eh       1.19 kcal/mol
Thermal rotational correction    ...      0.00141627 Eh       0.89 kcal/mol
Thermal translational correction ...      0.00141627 Eh       0.89 kcal/mol
-----------------------------------------------------------------------
Total thermal energy                   -324.59180103 Eh

Summary of corrections to the electronic energy:
(perhaps to be used in another calculation)
Total thermal correction                  0.00473242 Eh       2.97 kcal/mol
Non-thermal (ZPE) correction              0.13192552 Eh      82.78 kcal/mol
-----------------------------------------------------------------------
Total correction                          0.13665795 Eh      85.75 kcal/mol

--------
ENTHALPY
--------

The enthalpy is H = U + kB*T
                kB is Boltzmann's constant
Total free energy                 ...   -324.59180103 Eh
Thermal Enthalpy correction       ...      0.00094421 Eh       0.59 kcal/mol
-----------------------------------------------------------------------
Total Enthalpy                    ...   -324.59085682 Eh

-------
ENTROPY
-------

The entropy contributions are T*S = T*(S(el)+S(vib)+S(rot)+S(trans)
     S(el)   - electronic entropy
     S(vib)  - vibrational entropy
     S(rot)  - rotational entropy
     S(trans)- translational entropy
The entropies will be listed as mutliplied by the temperature to get
units of energy

Electronic entropy                ...      0.00000000 Eh      0.00 kcal/mol
Vibrational entropy               ...      0.00252841 Eh      1.59 kcal/mol
Rotational entropy                ...      0.01145215 Eh      7.19 kcal/mol
Translational entropy             ...      0.01884443 Eh     11.83 kcal/mol
-----------------------------------------------------------------------
Final entropy term                ...      0.03282499 Eh     20.60 kcal/mol

CAUTION: The rotational entropy is not quite correctly treated here
         because it includes a symmetry number that is not yet correctly
         implemented in ORCA!
For a nonlinear molecule the correct rotational entropy is:
    S(rot) = R*(ln(qrot/sn)+1.5)
    R    = 8.31441 J/mol/K = 1.987191683e-3 kcal/mol/K
    qrot = 123971.1705108
    sn is the rotational symmetry number. We have assumed 3 here
       if it is different for your molecule then you should correct
       the printed rotational entropy by manually evaluating the equation
       as given above

For convenience we print out the resulting values for sn=1 - 12:
 sn= 1  qrot/sn=  123971.1705 T*S(rot)=     7.84 kcal/mol T*S(tot)=    21.25 kcal/mol
 sn= 2  qrot/sn=   61985.5853 T*S(rot)=     7.43 kcal/mol T*S(tot)=    20.84 kcal/mol
 sn= 3  qrot/sn=   41323.7235 T*S(rot)=     7.19 kcal/mol T*S(tot)=    20.60 kcal/mol
 sn= 4  qrot/sn=   30992.7926 T*S(rot)=     7.02 kcal/mol T*S(tot)=    20.43 kcal/mol
 sn= 5  qrot/sn=   24794.2341 T*S(rot)=     6.88 kcal/mol T*S(tot)=    20.30 kcal/mol
 sn= 6  qrot/sn=   20661.8618 T*S(rot)=     6.78 kcal/mol T*S(tot)=    20.19 kcal/mol
 sn= 7  qrot/sn=   17710.1672 T*S(rot)=     6.68 kcal/mol T*S(tot)=    20.10 kcal/mol
 sn= 8  qrot/sn=   15496.3963 T*S(rot)=     6.61 kcal/mol T*S(tot)=    20.02 kcal/mol
 sn= 9  qrot/sn=   13774.5745 T*S(rot)=     6.54 kcal/mol T*S(tot)=    19.95 kcal/mol
 sn=10  qrot/sn=   12397.1171 T*S(rot)=     6.47 kcal/mol T*S(tot)=    19.88 kcal/mol
 sn=11  qrot/sn=   11270.1064 T*S(rot)=     6.42 kcal/mol T*S(tot)=    19.83 kcal/mol
 sn=12  qrot/sn=   10330.9309 T*S(rot)=     6.36 kcal/mol T*S(tot)=    19.78 kcal/mol

-------------------
GIBBS FREE ENTHALPY
-------------------

The Gibbs free enthalpy is G = H - T*S

Total enthalpy                    ...   -324.59085682 Eh
Total entropy correction          ...     -0.03282499 Eh    -20.60 kcal/mol
-----------------------------------------------------------------------
Final Gibbs free enthalpy         ...   -324.62368181 Eh

For completeness - the Gibbs free enthalpy minus the electronic energy
G-E(el)                           ...      0.10477716 Eh     65.75 kcal/mol

                             ****ORCA TERMINATED NORMALLY****
TOTAL RUN TIME: 0 days 0 hours 33 minutes 54 seconds 412 msec
