                         Program Version 3.0.3 - RELEASE   -
|  1> ! NORI PBE0 def2-TZVP UseSym TightOPT Freq TightSCF Grid3 FinalGrid5 XYZFile
|  2> % pal
|  3>     nprocs 8
|  4> end
|  5> %method
|  6>     SymThresh 5.0e-2
|  7> end
|  8> % geom
|  9>     MaxIter 10
| 10> end
| 11> % maxcore 2000
| 12> % output
| 13>     printlevel mini
| 14>     print[ P_Basis ] 0
| 15>     print[ P_SCFInfo ] 1
| 16>     print[ P_SCFIterInfo ] 1
| 17>     print[ P_OrbEn ] 0
| 18>     print[ P_Cartesian ] 0
| 19> end
| 20> % elprop
| 21>     Dipole false
| 22> end
| 23> *xyz 1 1
| 24>  C       -0.7881628311     0.0002345251    -1.3976760629
| 25>  C       -0.6123893405     0.9703265949    -0.2233773382
| 26>  O       -1.3055105254    -0.0004607778     0.5979020520
| 27>  C       -0.6121308021    -0.9705484100    -0.2239844239
| 28>  C        0.8252966014    -0.7332329164     0.3017935883
| 29>  N        1.7331003324     0.0003294541    -0.6265508963
| 30>  C        0.8251004037     0.7330640588     0.3022520520
| 31>  H       -1.8280278561     0.0001928384    -1.7145570413
| 32>  H       -0.1514436664     0.0005988125    -2.2868080628
| 33>  H       -1.0024784469     1.9831181068    -0.1846059670
| 34>  H       -1.0019509350    -1.9834682595    -0.1858476482
| 35>  H        1.3127009319    -1.3732691978     1.0243809724
| 36>  H        1.5341396233     0.0006123709    -1.6226210200
| 37>  H        2.7245823669     0.0003940418    -0.4021700498
| 38>  H        1.3123341437     1.3727787581     1.0252398456
| 39> *
| 40>
| 41>                          ****END OF INPUT****
 Total Charge           Charge          ....    1
 Multiplicity           Mult            ....    1
 Number of Electrons    NEL             ....   52
FINAL SINGLE POINT ENERGY      -324.714216679849

CARTESIAN COORDINATES (ANGSTROEM)
---------------------------------
  C      0.077833   -1.451921   -0.000000
  C      0.525859   -0.352843    0.970539
  O      1.541380    0.000205    0.000000
  C      0.525859   -0.352843   -0.970539
  C     -0.442272    0.832774   -0.733146
  N     -1.696730    0.497002    0.000000
  C     -0.442272    0.832774    0.733146
  H      0.810222   -2.255277    0.000000
  H     -0.923590   -1.890767   -0.000000
  H      0.880931   -0.519181    1.983361
  H      0.880931   -0.519181   -1.983361
  H     -0.492650    1.703098   -1.372905
  H     -2.033500   -0.460963   -0.000000
  H     -2.434822    1.195515    0.000000
  H     -0.492650    1.703098    1.372905

FINAL SINGLE POINT ENERGY      -324.714217389551
                    ***********************HURRAY********************
 Multiplicity           Mult            ....    1
 Number of Electrons    NEL             ....   52
 Basis Dimension        Dim             ....  265
FINAL SINGLE POINT ENERGY      -324.714217646998

VIBRATIONAL FREQUENCIES
-----------------------

   0:         0.00 cm**-1
   1:         0.00 cm**-1
   2:         0.00 cm**-1
   3:         0.00 cm**-1
   4:         0.00 cm**-1
   5:         0.00 cm**-1
   6:       338.19 cm**-1
   7:       407.28 cm**-1
   8:       556.56 cm**-1
   9:       614.16 cm**-1
  10:       689.75 cm**-1
  11:       731.36 cm**-1
  12:       792.43 cm**-1
  13:       840.89 cm**-1
  14:       872.37 cm**-1
  15:       891.09 cm**-1
  16:       904.42 cm**-1
  17:       948.76 cm**-1
  18:       948.89 cm**-1
  19:       972.93 cm**-1
  20:      1023.09 cm**-1
  21:      1027.49 cm**-1
  22:      1046.51 cm**-1
  23:      1066.35 cm**-1
  24:      1099.05 cm**-1
  25:      1112.22 cm**-1
  26:      1139.30 cm**-1
  27:      1200.43 cm**-1
  28:      1232.46 cm**-1
  29:      1234.82 cm**-1
  30:      1268.89 cm**-1
  31:      1302.39 cm**-1
  32:      1306.05 cm**-1
  33:      1327.48 cm**-1
  34:      1378.99 cm**-1
  35:      1511.44 cm**-1
  36:      1612.04 cm**-1
  37:      3076.20 cm**-1
  38:      3180.71 cm**-1
  39:      3191.99 cm**-1
  40:      3192.07 cm**-1
  41:      3239.86 cm**-1
  42:      3248.09 cm**-1
  43:      3486.29 cm**-1
  44:      3588.66 cm**-1

IR SPECTRUM
-----------

 Mode    freq (cm**-1)   T**2         TX         TY         TZ
-------------------------------------------------------------------
   6:       338.19    0.156009  ( -0.000000  -0.000001  -0.394979)
   7:       407.28    1.260243  ( -0.618249   0.937022   0.000002)
   8:       556.56    2.382731  (  1.540890  -0.091597  -0.000002)
   9:       614.16   12.557184  ( -1.220445   3.326815  -0.000001)
  10:       689.75    0.170771  (  0.000001   0.000002  -0.413244)
  11:       731.36    6.733612  ( -0.000000  -0.000006   2.594920)
  12:       792.43   29.516751  (  4.637889  -2.829617  -0.000004)
  13:       840.89   17.390211  (  4.016546  -1.121415  -0.000003)
  14:       872.37    9.360396  (  0.000002   0.000005   3.059476)
  15:       891.09    3.499843  (  0.000021   0.000018   1.870787)
  16:       904.42   31.600383  (  4.383731   3.518989   0.000018)
  17:       948.76    9.096692  ( -2.137405  -2.127942  -0.007641)
  18:       948.89   27.239175  ( -0.003188  -0.003118   5.219114)
  19:       972.93   39.660515  ( -5.864938   2.294126  -0.000042)
  20:      1023.09    2.983786  (  0.352584   1.690997   0.000025)
  21:      1027.49    4.282319  ( -0.000026  -0.000022   2.069376)
  22:      1046.51   63.749366  (  0.000004  -0.000004  -7.984320)
  23:      1066.35    3.533465  ( -1.374645   1.282114  -0.000019)
  24:      1099.05    5.586206  (  0.000008   0.000030   2.363516)
  25:      1112.22    6.374589  ( -0.623094  -2.446701   0.000026)
  26:      1139.30    5.676925  (  0.000002   0.000013   2.382630)
  27:      1200.43    1.890013  (  0.000001   0.000011   1.374777)
  28:      1232.46    9.281900  ( -0.000025   0.000075  -3.046621)
  29:      1234.82   11.680777  (  1.111183  -3.232035  -0.000069)
  30:      1268.89    0.760542  (  0.000000  -0.000019   0.872091)
  31:      1302.39    1.902867  (  0.154362  -1.370781   0.000000)
  32:      1306.05    0.850949  (  0.919717   0.071197  -0.000002)
  33:      1327.48   31.346926  ( -0.000001   0.000003  -5.598833)
  34:      1378.99    0.419860  (  0.107361   0.639010  -0.000006)
  35:      1511.44    9.246357  (  1.921949  -2.356368  -0.000000)
  36:      1612.04   86.306655  ( -9.024991  -2.203676   0.000000)
  37:      3076.20   25.824856  (  4.947519   1.160564  -0.000000)
  38:      3180.71    3.017800  (  0.020552   1.737060   0.000000)
  39:      3191.99    1.763652  (  0.000004  -0.000008   1.328025)
  40:      3192.07    0.699858  (  0.535616  -0.642630  -0.000009)
  41:      3239.86    4.940313  (  0.000000   0.000000   2.222682)
  42:      3248.09    8.817240  (  0.301467   2.954041   0.000002)
  43:      3486.29   66.821897  (  8.018396   1.589724  -0.000000)
  44:      3588.66  131.999119  ( -4.706304  10.480927  -0.000000)

--------------------------
THERMOCHEMISTRY AT 298.15K
--------------------------

Temperature         ... 298.15 K
Pressure            ... 1.00 atm
Total Mass          ... 98.12 AMU

Throughout the following assumptions are being made:
  (1) The electronic state is orbitally nondegenerate
  (2) There are no thermally accessible electronically excited states
  (3) Hindered rotations indicated by low frequency modes) are not
      treated as such but are treated as vibrations and this may
      case some error
  (4) All equations used are the standard statistical mechanics
      equations for an ideal gas
  (5) All vibrations are strinctly harmonic

------------
INNER ENERGY
------------

The inner energy is: U= E(el) + E(ZPE) + E(vib) + E(rot) + E(trans)
    E(el)   - is the total energy from the electronic structure calculation
              = E(kin-el) + E(nuc-el) + E(el-el) + E(nuc-nuc)
    E(ZPE)  - the the zero temperature vibrational energy from the frequency calculation
    E(vib)  - the the finite temperature correction to E(ZPE) due to population
              of excietd vibrational states
    E(rot)  - is the rotational thermal energy
    E(trans)- is the translational thermal energy

Summary of contributions to the inner energy U:
Electronic energy                ...   -324.71421765 Eh
Zero point energy                ...      0.13122693 Eh      82.35 kcal/mol
Thermal vibrational correction   ...      0.00198264 Eh       1.24 kcal/mol
Thermal rotational correction    ...      0.00141627 Eh       0.89 kcal/mol
Thermal translational correction ...      0.00141627 Eh       0.89 kcal/mol
-----------------------------------------------------------------------
Total thermal energy                   -324.57817553 Eh

Summary of corrections to the electronic energy:
(perhaps to be used in another calculation)
Total thermal correction                  0.00481519 Eh       3.02 kcal/mol
Non-thermal (ZPE) correction              0.13122693 Eh      82.35 kcal/mol
-----------------------------------------------------------------------
Total correction                          0.13604212 Eh      85.37 kcal/mol

--------
ENTHALPY
--------

The enthalpy is H = U + kB*T
                kB is Boltzmann's constant
Total free energy                 ...   -324.57817553 Eh
Thermal Enthalpy correction       ...      0.00094421 Eh       0.59 kcal/mol
-----------------------------------------------------------------------
Total Enthalpy                    ...   -324.57723132 Eh

-------
ENTROPY
-------

The entropy contributions are T*S = T*(S(el)+S(vib)+S(rot)+S(trans)
     S(el)   - electronic entropy
     S(vib)  - vibrational entropy
     S(rot)  - rotational entropy
     S(trans)- translational entropy
The entropies will be listed as mutliplied by the temperature to get
units of energy

Electronic entropy                ...      0.00000000 Eh      0.00 kcal/mol
Vibrational entropy               ...      0.00266967 Eh      1.68 kcal/mol
Rotational entropy                ...      0.01146331 Eh      7.19 kcal/mol
Translational entropy             ...      0.01884443 Eh     11.83 kcal/mol
-----------------------------------------------------------------------
Final entropy term                ...      0.03297742 Eh     20.69 kcal/mol

CAUTION: The rotational entropy is not quite correctly treated here
         because it includes a symmetry number that is not yet correctly
         implemented in ORCA!
For a nonlinear molecule the correct rotational entropy is:
    S(rot) = R*(ln(qrot/sn)+1.5)
    R    = 8.31441 J/mol/K = 1.987191683e-3 kcal/mol/K
    qrot = 125445.0802137
    sn is the rotational symmetry number. We have assumed 3 here
       if it is different for your molecule then you should correct
       the printed rotational entropy by manually evaluating the equation
       as given above

For convenience we print out the resulting values for sn=1 - 12:
 sn= 1  qrot/sn=  125445.0802 T*S(rot)=     7.84 kcal/mol T*S(tot)=    21.34 kcal/mol
 sn= 2  qrot/sn=   62722.5401 T*S(rot)=     7.43 kcal/mol T*S(tot)=    20.93 kcal/mol
 sn= 3  qrot/sn=   41815.0267 T*S(rot)=     7.19 kcal/mol T*S(tot)=    20.69 kcal/mol
 sn= 4  qrot/sn=   31361.2701 T*S(rot)=     7.02 kcal/mol T*S(tot)=    20.52 kcal/mol
 sn= 5  qrot/sn=   25089.0160 T*S(rot)=     6.89 kcal/mol T*S(tot)=    20.39 kcal/mol
 sn= 6  qrot/sn=   20907.5134 T*S(rot)=     6.78 kcal/mol T*S(tot)=    20.28 kcal/mol
 sn= 7  qrot/sn=   17920.7257 T*S(rot)=     6.69 kcal/mol T*S(tot)=    20.19 kcal/mol
 sn= 8  qrot/sn=   15680.6350 T*S(rot)=     6.61 kcal/mol T*S(tot)=    20.11 kcal/mol
 sn= 9  qrot/sn=   13938.3422 T*S(rot)=     6.54 kcal/mol T*S(tot)=    20.04 kcal/mol
 sn=10  qrot/sn=   12544.5080 T*S(rot)=     6.48 kcal/mol T*S(tot)=    19.98 kcal/mol
 sn=11  qrot/sn=   11404.0982 T*S(rot)=     6.42 kcal/mol T*S(tot)=    19.92 kcal/mol
 sn=12  qrot/sn=   10453.7567 T*S(rot)=     6.37 kcal/mol T*S(tot)=    19.87 kcal/mol

-------------------
GIBBS FREE ENTHALPY
-------------------

The Gibbs free enthalpy is G = H - T*S

Total enthalpy                    ...   -324.57723132 Eh
Total entropy correction          ...     -0.03297742 Eh    -20.69 kcal/mol
-----------------------------------------------------------------------
Final Gibbs free enthalpy         ...   -324.61020874 Eh

For completeness - the Gibbs free enthalpy minus the electronic energy
G-E(el)                           ...      0.10400891 Eh     65.27 kcal/mol

                             ****ORCA TERMINATED NORMALLY****
TOTAL RUN TIME: 0 days 0 hours 33 minutes 30 seconds 155 msec
