                         Program Version 3.0.3 - RELEASE   -
|  1> ! NORI PBE0 def2-TZVP UseSym TightOPT Freq TightSCF Grid3 FinalGrid5 XYZFile
|  2> % pal
|  3>     nprocs 8
|  4> end
|  5> %method
|  6>     SymThresh 5.0e-2
|  7> end
|  8> % geom
|  9>     MaxIter 10
| 10> end
| 11> % maxcore 2000
| 12> % output
| 13>     printlevel mini
| 14>     print[ P_Basis ] 0
| 15>     print[ P_SCFInfo ] 1
| 16>     print[ P_SCFIterInfo ] 1
| 17>     print[ P_OrbEn ] 0
| 18>     print[ P_Cartesian ] 0
| 19> end
| 20> % elprop
| 21>     Dipole false
| 22> end
| 23> *xyz 1 1
| 24>  C       -1.7452903850     0.6540067776     0.5492234838
| 25>  C       -1.1092528040    -0.3772246241    -0.2857395896
| 26>  C        0.0347869471    -1.1376929848     0.3004292908
| 27>  O        1.1699129025    -1.0774582756    -0.5315246272
| 28>  C        1.1242931801    -0.2044995248     0.5819427407
| 29>  C        0.7322757380     1.1987419836     0.1954156581
| 30>  N       -0.6399305375     1.0361070469    -0.3596608593
| 31>  H       -2.7138886930     1.0460395884     0.2660290580
| 32>  H       -1.4879878327     0.7206418859     1.5999476467
| 33>  H       -1.6160538829    -0.7512987937    -1.1683937040
| 34>  H       -0.1475572781    -2.0543613200     0.8511183642
| 35>  H        1.8582309879    -0.3639803186     1.3638728310
| 36>  H        0.7072288073     1.8904148756     1.0381957728
| 37>  H        1.3731678661     1.5998016379    -0.5908196662
| 38>  H       -0.8839050160     1.5807020457    -1.1796463999
| 39> *
| 40>
| 41>                          ****END OF INPUT****
 Total Charge           Charge          ....    1
 Multiplicity           Mult            ....    1
 Number of Electrons    NEL             ....   52
FINAL SINGLE POINT ENERGY      -324.748203531711

CARTESIAN COORDINATES (ANGSTROEM)
---------------------------------
  C     -0.205391   -0.647837   -1.750147
  C      0.015464   -1.122101   -0.374873
  C     -0.809727   -0.513392    0.711082
  O      0.000178   -0.000078    1.743170
  C     -0.505556    0.914469    0.788341
  C      0.524055    1.292816   -0.245546
  N      0.834039    0.000051   -0.916943
  H      0.181571   -1.224316   -2.581013
  H     -1.054342   -0.008852   -1.962162
  H      0.547893   -2.050173   -0.198535
  H     -1.763509   -0.954538    0.980894
  H     -1.212879    1.655769    1.142116
  H      0.157618    2.009216   -0.981160
  H      1.440946    1.669282    0.209662
  H      1.801357   -0.184951   -1.158855

FINAL SINGLE POINT ENERGY      -324.748203969311
                    ***********************HURRAY********************
 Multiplicity           Mult            ....    1
 Number of Electrons    NEL             ....   52
 Basis Dimension        Dim             ....  265
FINAL SINGLE POINT ENERGY      -324.748204109733

VIBRATIONAL FREQUENCIES
-----------------------

   0:         0.00 cm**-1
   1:         0.00 cm**-1
   2:         0.00 cm**-1
   3:         0.00 cm**-1
   4:         0.00 cm**-1
   5:         0.00 cm**-1
   6:       220.00 cm**-1
   7:       322.56 cm**-1
   8:       423.56 cm**-1
   9:       471.67 cm**-1
  10:       685.85 cm**-1
  11:       736.84 cm**-1
  12:       782.74 cm**-1
  13:       836.23 cm**-1
  14:       870.59 cm**-1
  15:       887.85 cm**-1
  16:       904.18 cm**-1
  17:       968.05 cm**-1
  18:       992.91 cm**-1
  19:      1001.38 cm**-1
  20:      1031.22 cm**-1
  21:      1070.33 cm**-1
  22:      1112.77 cm**-1
  23:      1142.32 cm**-1
  24:      1155.12 cm**-1
  25:      1165.59 cm**-1
  26:      1169.47 cm**-1
  27:      1234.69 cm**-1
  28:      1260.21 cm**-1
  29:      1276.34 cm**-1
  30:      1314.05 cm**-1
  31:      1352.17 cm**-1
  32:      1405.74 cm**-1
  33:      1432.80 cm**-1
  34:      1464.00 cm**-1
  35:      1480.53 cm**-1
  36:      1501.02 cm**-1
  37:      3103.72 cm**-1
  38:      3164.13 cm**-1
  39:      3165.75 cm**-1
  40:      3195.08 cm**-1
  41:      3206.27 cm**-1
  42:      3210.24 cm**-1
  43:      3268.90 cm**-1
  44:      3562.69 cm**-1

IR SPECTRUM
-----------

 Mode    freq (cm**-1)   T**2         TX         TY         TZ
-------------------------------------------------------------------
   6:       220.00    4.259154  (  0.934589  -0.807315  -1.653463)
   7:       322.56    2.938566  ( -0.510466  -1.334809   0.946719)
   8:       423.56    7.262552  (  0.983860   0.722555  -2.402600)
   9:       471.67    9.203126  (  1.041883  -0.842885  -2.721608)
  10:       685.85    1.314151  (  0.355838   0.262322  -1.057695)
  11:       736.84    2.644828  (  1.092876   0.748564  -0.943452)
  12:       782.74    6.934483  (  1.750936   1.100052   1.630519)
  13:       836.23    8.952655  (  2.525811   1.557295   0.384404)
  14:       870.59   24.481834  ( -1.150337   0.666589  -4.765944)
  15:       887.85   13.586097  ( -0.583585  -3.098701   1.908816)
  16:       904.18    5.499426  ( -1.935754   1.097418  -0.740242)
  17:       968.05   15.409922  ( -1.768093   1.934709  -2.922442)
  18:       992.91   22.224332  (  1.803179  -0.526153   4.323892)
  19:      1001.38    6.655298  ( -0.363856   2.337044   1.030113)
  20:      1031.22   24.032221  ( -1.818188  -4.364372  -1.295635)
  21:      1070.33    8.185893  (  2.598144   1.062809  -0.553150)
  22:      1112.77    0.680527  (  0.033232   0.066221  -0.821607)
  23:      1142.32    1.467826  (  0.867641   0.845558  -0.007472)
  24:      1155.12    8.708714  (  0.433379   0.544527  -2.867819)
  25:      1165.59    0.833030  ( -0.741889  -0.176504  -0.501474)
  26:      1169.47    2.732837  ( -0.392723  -0.072676  -1.604158)
  27:      1234.69    8.965737  ( -0.382409   2.235990  -1.954443)
  28:      1260.21    6.327191  (  2.482373  -0.058057   0.402050)
  29:      1276.34    2.030119  ( -1.363520  -0.248552  -0.330385)
  30:      1314.05    0.497941  ( -0.291066  -0.453226   0.455860)
  31:      1352.17    6.427599  (  2.014789   1.523370   0.218104)
  32:      1405.74   15.007475  (  1.050072   3.380334  -1.574220)
  33:      1432.80   23.010087  (  1.342969   3.963788   2.344121)
  34:      1464.00   15.467479  ( -1.668729  -0.220746  -3.554447)
  35:      1480.53    6.795525  ( -2.377546  -1.043950  -0.230150)
  36:      1501.02   18.406769  ( -0.106328   3.213439  -2.840647)
  37:      3103.72    0.576956  ( -0.183439   0.657654  -0.332861)
  38:      3164.13    1.322445  (  0.658705   0.389418   0.858432)
  39:      3165.75    2.606728  (  0.635241   0.306507   1.452326)
  40:      3195.08    0.514476  (  0.477051   0.045984  -0.533652)
  41:      3206.27    3.264892  (  0.744378  -1.622154   0.281800)
  42:      3210.24    1.980979  ( -0.141487  -0.387623   1.345626)
  43:      3268.90    6.638852  ( -1.630477   1.770265   0.920086)
  44:      3562.69  116.193065  (-10.460142   0.879986   2.450329)

--------------------------
THERMOCHEMISTRY AT 298.15K
--------------------------

Temperature         ... 298.15 K
Pressure            ... 1.00 atm
Total Mass          ... 98.12 AMU

Throughout the following assumptions are being made:
  (1) The electronic state is orbitally nondegenerate
  (2) There are no thermally accessible electronically excited states
  (3) Hindered rotations indicated by low frequency modes) are not
      treated as such but are treated as vibrations and this may
      case some error
  (4) All equations used are the standard statistical mechanics
      equations for an ideal gas
  (5) All vibrations are strinctly harmonic

------------
INNER ENERGY
------------

The inner energy is: U= E(el) + E(ZPE) + E(vib) + E(rot) + E(trans)
    E(el)   - is the total energy from the electronic structure calculation
              = E(kin-el) + E(nuc-el) + E(el-el) + E(nuc-nuc)
    E(ZPE)  - the the zero temperature vibrational energy from the frequency calculation
    E(vib)  - the the finite temperature correction to E(ZPE) due to population
              of excietd vibrational states
    E(rot)  - is the rotational thermal energy
    E(trans)- is the translational thermal energy

Summary of contributions to the inner energy U:
Electronic energy                ...   -324.74820411 Eh
Zero point energy                ...      0.13110752 Eh      82.27 kcal/mol
Thermal vibrational correction   ...      0.00236447 Eh       1.48 kcal/mol
Thermal rotational correction    ...      0.00141627 Eh       0.89 kcal/mol
Thermal translational correction ...      0.00141627 Eh       0.89 kcal/mol
-----------------------------------------------------------------------
Total thermal energy                   -324.61189957 Eh

Summary of corrections to the electronic energy:
(perhaps to be used in another calculation)
Total thermal correction                  0.00519702 Eh       3.26 kcal/mol
Non-thermal (ZPE) correction              0.13110752 Eh      82.27 kcal/mol
-----------------------------------------------------------------------
Total correction                          0.13630453 Eh      85.53 kcal/mol

--------
ENTHALPY
--------

The enthalpy is H = U + kB*T
                kB is Boltzmann's constant
Total free energy                 ...   -324.61189957 Eh
Thermal Enthalpy correction       ...      0.00094421 Eh       0.59 kcal/mol
-----------------------------------------------------------------------
Total Enthalpy                    ...   -324.61095537 Eh

-------
ENTROPY
-------

The entropy contributions are T*S = T*(S(el)+S(vib)+S(rot)+S(trans)
     S(el)   - electronic entropy
     S(vib)  - vibrational entropy
     S(rot)  - rotational entropy
     S(trans)- translational entropy
The entropies will be listed as mutliplied by the temperature to get
units of energy

Electronic entropy                ...      0.00000000 Eh      0.00 kcal/mol
Vibrational entropy               ...      0.00343146 Eh      2.15 kcal/mol
Rotational entropy                ...      0.01155265 Eh      7.25 kcal/mol
Translational entropy             ...      0.01884443 Eh     11.83 kcal/mol
-----------------------------------------------------------------------
Final entropy term                ...      0.03382854 Eh     21.23 kcal/mol

CAUTION: The rotational entropy is not quite correctly treated here
         because it includes a symmetry number that is not yet correctly
         implemented in ORCA!
For a nonlinear molecule the correct rotational entropy is:
    S(rot) = R*(ln(qrot/sn)+1.5)
    R    = 8.31441 J/mol/K = 1.987191683e-3 kcal/mol/K
    qrot = 137894.4161529
    sn is the rotational symmetry number. We have assumed 3 here
       if it is different for your molecule then you should correct
       the printed rotational entropy by manually evaluating the equation
       as given above

For convenience we print out the resulting values for sn=1 - 12:
 sn= 1  qrot/sn=  137894.4162 T*S(rot)=     7.90 kcal/mol T*S(tot)=    21.88 kcal/mol
 sn= 2  qrot/sn=   68947.2081 T*S(rot)=     7.49 kcal/mol T*S(tot)=    21.47 kcal/mol
 sn= 3  qrot/sn=   45964.8054 T*S(rot)=     7.25 kcal/mol T*S(tot)=    21.23 kcal/mol
 sn= 4  qrot/sn=   34473.6040 T*S(rot)=     7.08 kcal/mol T*S(tot)=    21.06 kcal/mol
 sn= 5  qrot/sn=   27578.8832 T*S(rot)=     6.95 kcal/mol T*S(tot)=    20.93 kcal/mol
 sn= 6  qrot/sn=   22982.4027 T*S(rot)=     6.84 kcal/mol T*S(tot)=    20.82 kcal/mol
 sn= 7  qrot/sn=   19699.2023 T*S(rot)=     6.75 kcal/mol T*S(tot)=    20.73 kcal/mol
 sn= 8  qrot/sn=   17236.8020 T*S(rot)=     6.67 kcal/mol T*S(tot)=    20.65 kcal/mol
 sn= 9  qrot/sn=   15321.6018 T*S(rot)=     6.60 kcal/mol T*S(tot)=    20.58 kcal/mol
 sn=10  qrot/sn=   13789.4416 T*S(rot)=     6.54 kcal/mol T*S(tot)=    20.51 kcal/mol
 sn=11  qrot/sn=   12535.8560 T*S(rot)=     6.48 kcal/mol T*S(tot)=    20.46 kcal/mol
 sn=12  qrot/sn=   11491.2013 T*S(rot)=     6.43 kcal/mol T*S(tot)=    20.41 kcal/mol

-------------------
GIBBS FREE ENTHALPY
-------------------

The Gibbs free enthalpy is G = H - T*S

Total enthalpy                    ...   -324.61095537 Eh
Total entropy correction          ...     -0.03382854 Eh    -21.23 kcal/mol
-----------------------------------------------------------------------
Final Gibbs free enthalpy         ...   -324.64478391 Eh

For completeness - the Gibbs free enthalpy minus the electronic energy
G-E(el)                           ...      0.10342020 Eh     64.90 kcal/mol

                             ****ORCA TERMINATED NORMALLY****
TOTAL RUN TIME: 0 days 0 hours 31 minutes 48 seconds 807 msec
