                         Program Version 3.0.3 - RELEASE   -
|  1> ! NORI PBE0 def2-TZVP UseSym TightOPT Freq TightSCF Grid3 FinalGrid5 XYZFile
|  2> % pal
|  3>     nprocs 8
|  4> end
|  5> %method
|  6>     SymThresh 5.0e-2
|  7> end
|  8> % geom
|  9>     MaxIter 10
| 10> end
| 11> % maxcore 2000
| 12> % output
| 13>     printlevel mini
| 14>     print[ P_Basis ] 0
| 15>     print[ P_SCFInfo ] 1
| 16>     print[ P_SCFIterInfo ] 1
| 17>     print[ P_OrbEn ] 0
| 18>     print[ P_Cartesian ] 0
| 19> end
| 20> % elprop
| 21>     Dipole false
| 22> end
| 23> *xyz 1 1
| 24>  C        1.9661816942     0.0662271916    -0.4527144669
| 25>  O        1.3543168830    -0.0969701997     0.8230945583
| 26>  C        0.5201111009     0.0733012609    -0.3085557811
| 27>  C       -0.3851581272     1.2870435691    -0.3142079238
| 28>  C       -1.7711789798     0.7340712547     0.0452070275
| 29>  N       -1.5560909824    -0.7553413165     0.2379417368
| 30>  C       -0.3603837676    -1.1088701044    -0.5984684757
| 31>  H        2.4815270169     1.0107501200    -0.6012190251
| 32>  H        2.4681444646    -0.8142025527    -0.8449407562
| 33>  H       -0.0339269693     2.0208893175     0.4098553314
| 34>  H       -0.4069988101     1.7580306538    -1.2977050700
| 35>  H       -2.4946799408     0.8483564051    -0.7609437365
| 36>  H       -2.1963796509     1.1396980751     0.9607452633
| 37>  H       -1.3345041624    -0.9484343894     1.2168433084
| 38>  H       -2.3866537248    -1.2976087240     0.0020343117
| 39>  H        0.0560438249    -2.0634287840    -0.2832546167
| 40>  H       -0.6861498693    -1.1520817773    -1.6391016855
| 41> *
| 42>
| 43>                          ****END OF INPUT****
 Total Charge           Charge          ....    1
 Multiplicity           Mult            ....    1
 Number of Electrons    NEL             ....   54
FINAL SINGLE POINT ENERGY      -325.989832166774

CARTESIAN COORDINATES (ANGSTROEM)
---------------------------------
  C     -1.195664    0.754608    1.492179
  O      0.000199   -0.000354    1.662177
  C     -0.456304    0.253184    0.345934
  C     -0.805859   -0.952679   -0.500567
  C      0.392656   -1.119419   -1.445148
  N      1.343687    0.000014   -1.065558
  C      0.487748    1.083887   -0.476194
  H     -2.109152    0.246956    1.787823
  H     -1.127049    1.803978    1.765570
  H     -0.955567   -1.825538    0.133168
  H     -1.719284   -0.782148   -1.071601
  H      0.130671   -0.971663   -2.491642
  H      0.920098   -2.065682   -1.344094
  H      1.992105   -0.326551   -0.346220
  H      1.902849    0.314845   -1.857877
  H      1.095187    1.775665    0.104065
  H     -0.006926    1.599710   -1.301045

FINAL SINGLE POINT ENERGY      -325.989832850790
                    ***********************HURRAY********************
 Multiplicity           Mult            ....    1
 Number of Electrons    NEL             ....   54
 Basis Dimension        Dim             ....  277
FINAL SINGLE POINT ENERGY      -325.989833373499

VIBRATIONAL FREQUENCIES
-----------------------

   0:         0.00 cm**-1
   1:         0.00 cm**-1
   2:         0.00 cm**-1
   3:         0.00 cm**-1
   4:         0.00 cm**-1
   5:         0.00 cm**-1
   6:        65.99 cm**-1
   7:       153.97 cm**-1
   8:       296.05 cm**-1
   9:       378.48 cm**-1
  10:       416.34 cm**-1
  11:       544.93 cm**-1
  12:       623.60 cm**-1
  13:       784.92 cm**-1
  14:       796.73 cm**-1
  15:       865.63 cm**-1
  16:       871.73 cm**-1
  17:       887.83 cm**-1
  18:       919.08 cm**-1
  19:       960.96 cm**-1
  20:       990.09 cm**-1
  21:      1016.52 cm**-1
  22:      1050.03 cm**-1
  23:      1055.27 cm**-1
  24:      1127.80 cm**-1
  25:      1175.22 cm**-1
  26:      1206.94 cm**-1
  27:      1235.27 cm**-1
  28:      1240.69 cm**-1
  29:      1268.72 cm**-1
  30:      1302.37 cm**-1
  31:      1314.88 cm**-1
  32:      1372.14 cm**-1
  33:      1392.19 cm**-1
  34:      1397.27 cm**-1
  35:      1464.44 cm**-1
  36:      1476.71 cm**-1
  37:      1481.65 cm**-1
  38:      1507.42 cm**-1
  39:      1544.97 cm**-1
  40:      1651.16 cm**-1
  41:      3102.65 cm**-1
  42:      3105.45 cm**-1
  43:      3121.75 cm**-1
  44:      3123.94 cm**-1
  45:      3160.08 cm**-1
  46:      3182.52 cm**-1
  47:      3184.02 cm**-1
  48:      3219.14 cm**-1
  49:      3451.74 cm**-1
  50:      3518.61 cm**-1

IR SPECTRUM
-----------

 Mode    freq (cm**-1)   T**2         TX         TY         TZ
-------------------------------------------------------------------
   6:        65.99    3.275094  (  0.569926  -0.868896  -1.481654)
   7:       153.97   14.057805  ( -1.050020  -0.933239   3.476252)
   8:       296.05    4.019026  (  0.752987   1.847010   0.201468)
   9:       378.48    5.010888  (  1.164695   1.086209   1.573062)
  10:       416.34    5.315447  ( -1.111717  -1.793068   0.929753)
  11:       544.93    7.017465  ( -1.979197   1.079100  -1.391326)
  12:       623.60    2.089465  ( -0.470945  -0.072155   1.364723)
  13:       784.92    6.969477  ( -1.161615   1.815814   1.524122)
  14:       796.73    0.805509  (  0.470087   0.763181  -0.045626)
  15:       865.63   13.820826  ( -0.270864   0.735495  -3.634076)
  16:       871.73   13.386903  (  1.248165   0.883262  -3.323979)
  17:       887.83    2.066012  (  1.402376   0.244507   0.198924)
  18:       919.08    0.809081  (  0.665912   0.004265   0.604668)
  19:       960.96   10.880670  (  1.783805  -1.796130  -2.114859)
  20:       990.09   24.136680  (  2.999327  -3.441760   1.815215)
  21:      1016.52    4.032058  ( -1.637526   0.743877  -0.892868)
  22:      1050.03    7.309062  ( -2.313468  -1.182806   0.746927)
  23:      1055.27   18.392052  (  2.545938  -0.537770   3.408967)
  24:      1127.80    2.609798  (  0.759330   1.374835  -0.378213)
  25:      1175.22    2.861683  (  0.625182  -1.117771   1.105178)
  26:      1206.94    1.778450  ( -0.719807  -1.051052   0.394486)
  27:      1235.27   18.099599  (  1.407643   3.501544   1.964010)
  28:      1240.69    3.907909  ( -0.276833   1.744796   0.887107)
  29:      1268.72    1.078631  ( -0.744364  -0.657514  -0.303690)
  30:      1302.37   10.035153  ( -0.312250   3.128515   0.387357)
  31:      1314.88    9.618083  ( -0.206190   2.040088   2.326716)
  32:      1372.14    6.282992  (  1.198193  -1.914155   1.087812)
  33:      1392.19   35.269061  ( -0.271913   5.376804   2.507011)
  34:      1397.27    0.460973  ( -0.235105  -0.157283  -0.617220)
  35:      1464.44    4.264194  (  1.279264  -0.144122   1.614592)
  36:      1476.71   19.286356  ( -2.682453  -3.241412   1.258589)
  37:      1481.65    5.912615  (  1.095931  -2.170560   0.014759)
  38:      1507.42    8.184726  (  0.078233   1.106641   2.637035)
  39:      1544.97    7.716782  ( -1.158947  -0.103917  -2.522464)
  40:      1651.16   70.709294  ( -8.333878   0.479864   1.012667)
  41:      3102.65    0.511040  ( -0.096086   0.173602   0.686782)
  42:      3105.45    0.762356  (  0.632101  -0.324394   0.507516)
  43:      3121.75    1.283505  ( -0.383641  -0.027062   1.065642)
  44:      3123.94    4.756043  (  1.637027  -1.428527  -0.188411)
  45:      3160.08    0.315438  ( -0.026314   0.549595  -0.112651)
  46:      3182.52    0.544136  ( -0.665644  -0.286068  -0.138632)
  47:      3184.02    0.190618  (  0.314653  -0.294386   0.070346)
  48:      3219.14    1.224177  ( -0.439401  -1.010474  -0.100234)
  49:      3451.74   66.879020  ( -8.096010   0.813480  -0.819692)
  50:      3518.61   88.440429  ( -1.658835  -3.547817   8.549952)

--------------------------
THERMOCHEMISTRY AT 298.15K
--------------------------

Temperature         ... 298.15 K
Pressure            ... 1.00 atm
Total Mass          ... 100.14 AMU

Throughout the following assumptions are being made:
  (1) The electronic state is orbitally nondegenerate
  (2) There are no thermally accessible electronically excited states
  (3) Hindered rotations indicated by low frequency modes) are not
      treated as such but are treated as vibrations and this may
      case some error
  (4) All equations used are the standard statistical mechanics
      equations for an ideal gas
  (5) All vibrations are strinctly harmonic

------------
INNER ENERGY
------------

The inner energy is: U= E(el) + E(ZPE) + E(vib) + E(rot) + E(trans)
    E(el)   - is the total energy from the electronic structure calculation
              = E(kin-el) + E(nuc-el) + E(el-el) + E(nuc-nuc)
    E(ZPE)  - the the zero temperature vibrational energy from the frequency calculation
    E(vib)  - the the finite temperature correction to E(ZPE) due to population
              of excietd vibrational states
    E(rot)  - is the rotational thermal energy
    E(trans)- is the translational thermal energy

Summary of contributions to the inner energy U:
Electronic energy                ...   -325.98983337 Eh
Zero point energy                ...      0.15493342 Eh      97.22 kcal/mol
Thermal vibrational correction   ...      0.00356650 Eh       2.24 kcal/mol
Thermal rotational correction    ...      0.00141627 Eh       0.89 kcal/mol
Thermal translational correction ...      0.00141627 Eh       0.89 kcal/mol
-----------------------------------------------------------------------
Total thermal energy                   -325.82850091 Eh

Summary of corrections to the electronic energy:
(perhaps to be used in another calculation)
Total thermal correction                  0.00639904 Eh       4.02 kcal/mol
Non-thermal (ZPE) correction              0.15493342 Eh      97.22 kcal/mol
-----------------------------------------------------------------------
Total correction                          0.16133246 Eh     101.24 kcal/mol

--------
ENTHALPY
--------

The enthalpy is H = U + kB*T
                kB is Boltzmann's constant
Total free energy                 ...   -325.82850091 Eh
Thermal Enthalpy correction       ...      0.00094421 Eh       0.59 kcal/mol
-----------------------------------------------------------------------
Total Enthalpy                    ...   -325.82755670 Eh

-------
ENTROPY
-------

The entropy contributions are T*S = T*(S(el)+S(vib)+S(rot)+S(trans)
     S(el)   - electronic entropy
     S(vib)  - vibrational entropy
     S(rot)  - rotational entropy
     S(trans)- translational entropy
The entropies will be listed as mutliplied by the temperature to get
units of energy

Electronic entropy                ...      0.00000000 Eh      0.00 kcal/mol
Vibrational entropy               ...      0.00624056 Eh      3.92 kcal/mol
Rotational entropy                ...      0.01178449 Eh      7.39 kcal/mol
Translational entropy             ...      0.01887324 Eh     11.84 kcal/mol
-----------------------------------------------------------------------
Final entropy term                ...      0.03689829 Eh     23.15 kcal/mol

CAUTION: The rotational entropy is not quite correctly treated here
         because it includes a symmetry number that is not yet correctly
         implemented in ORCA!
For a nonlinear molecule the correct rotational entropy is:
    S(rot) = R*(ln(qrot/sn)+1.5)
    R    = 8.31441 J/mol/K = 1.987191683e-3 kcal/mol/K
    qrot = 176273.1733608
    sn is the rotational symmetry number. We have assumed 3 here
       if it is different for your molecule then you should correct
       the printed rotational entropy by manually evaluating the equation
       as given above

For convenience we print out the resulting values for sn=1 - 12:
 sn= 1  qrot/sn=  176273.1734 T*S(rot)=     8.05 kcal/mol T*S(tot)=    23.80 kcal/mol
 sn= 2  qrot/sn=   88136.5867 T*S(rot)=     7.64 kcal/mol T*S(tot)=    23.39 kcal/mol
 sn= 3  qrot/sn=   58757.7245 T*S(rot)=     7.39 kcal/mol T*S(tot)=    23.15 kcal/mol
 sn= 4  qrot/sn=   44068.2933 T*S(rot)=     7.22 kcal/mol T*S(tot)=    22.98 kcal/mol
 sn= 5  qrot/sn=   35254.6347 T*S(rot)=     7.09 kcal/mol T*S(tot)=    22.85 kcal/mol
 sn= 6  qrot/sn=   29378.8622 T*S(rot)=     6.98 kcal/mol T*S(tot)=    22.74 kcal/mol
 sn= 7  qrot/sn=   25181.8819 T*S(rot)=     6.89 kcal/mol T*S(tot)=    22.65 kcal/mol
 sn= 8  qrot/sn=   22034.1467 T*S(rot)=     6.81 kcal/mol T*S(tot)=    22.57 kcal/mol
 sn= 9  qrot/sn=   19585.9082 T*S(rot)=     6.74 kcal/mol T*S(tot)=    22.50 kcal/mol
 sn=10  qrot/sn=   17627.3173 T*S(rot)=     6.68 kcal/mol T*S(tot)=    22.44 kcal/mol
 sn=11  qrot/sn=   16024.8339 T*S(rot)=     6.63 kcal/mol T*S(tot)=    22.38 kcal/mol
 sn=12  qrot/sn=   14689.4311 T*S(rot)=     6.57 kcal/mol T*S(tot)=    22.33 kcal/mol

-------------------
GIBBS FREE ENTHALPY
-------------------

The Gibbs free enthalpy is G = H - T*S

Total enthalpy                    ...   -325.82755670 Eh
Total entropy correction          ...     -0.03689829 Eh    -23.15 kcal/mol
-----------------------------------------------------------------------
Final Gibbs free enthalpy         ...   -325.86445499 Eh

For completeness - the Gibbs free enthalpy minus the electronic energy
G-E(el)                           ...      0.12537838 Eh     78.68 kcal/mol

                             ****ORCA TERMINATED NORMALLY****
TOTAL RUN TIME: 0 days 0 hours 38 minutes 47 seconds 892 msec
