                         Program Version 3.0.3 - RELEASE   -
|  1> ! NORI PBE0 def2-TZVP UseSym TightOPT Freq TightSCF Grid3 FinalGrid5 XYZFile
|  2> % pal
|  3>     nprocs 8
|  4> end
|  5> %method
|  6>     SymThresh 5.0e-2
|  7> end
|  8> % geom
|  9>     MaxIter 10
| 10> end
| 11> % maxcore 2000
| 12> % output
| 13>     printlevel mini
| 14>     print[ P_Basis ] 0
| 15>     print[ P_SCFInfo ] 1
| 16>     print[ P_SCFIterInfo ] 1
| 17>     print[ P_OrbEn ] 0
| 18>     print[ P_Cartesian ] 0
| 19> end
| 20> % elprop
| 21>     Dipole false
| 22> end
| 23> *xyz 1 1
| 24>  C        2.0013623300     0.0978732922    -0.6523947425
| 25>  N        1.6900996061    -0.1061007005     0.7849613456
| 26>  C        0.5972011968     0.0809501004    -0.2348853726
| 27>  C       -0.3040958077     1.2878264600    -0.0842538290
| 28>  C       -1.7004110352     0.6375096129     0.0167860251
| 29>  O       -1.4606398491    -0.7280273044     0.3194803292
| 30>  C       -0.3391150736    -1.0930400807    -0.4246983068
| 31>  H        2.4914207499     1.0402860111    -0.8653473212
| 32>  H        2.4301012240    -0.7728229551    -1.1348595125
| 33>  H        1.8874141736     0.6546782188     1.4265171271
| 34>  H        1.8287260257    -1.0297540228     1.1815913647
| 35>  H       -0.0594978900     1.8683653222     0.8080209260
| 36>  H       -0.2128813050     1.9497575966    -0.9465743174
| 37>  H       -2.2346850308     0.7255591001    -0.9358517780
| 38>  H       -2.3174742457     1.0556063377     0.8095296891
| 39>  H        0.0465770558    -2.0501203560    -0.0665434441
| 40>  H       -0.5616221247    -1.1860166327    -1.4988981825
| 41> *
| 42>
| 43>                          ****END OF INPUT****
 Total Charge           Charge          ....    1
 Multiplicity           Mult            ....    1
 Number of Electrons    NEL             ....   54
FINAL SINGLE POINT ENERGY      -325.980248577345

CARTESIAN COORDINATES (ANGSTROEM)
---------------------------------
  C      0.247344   -0.777970   -1.867282
  N      1.337568    0.000126   -1.226265
  C      0.012529   -0.205234   -0.539391
  C     -0.815344    1.023951   -0.231402
  C     -0.989998    0.920896    1.298774
  O     -0.000386    0.000194    1.730974
  C      0.051111   -0.992485    0.752798
  H     -0.173931   -0.301551   -2.744179
  H      0.464624   -1.834966   -1.966916
  H      1.549956    0.918398   -1.601462
  H      2.146900   -0.502409   -0.876693
  H     -0.301152    1.942375   -0.522143
  H     -1.767047    0.993083   -0.763311
  H     -1.989364    0.546239    1.546727
  H     -0.825100    1.862149    1.818801
  H      0.946409   -1.602728    0.892134
  H     -0.829545   -1.652859    0.779827

FINAL SINGLE POINT ENERGY      -325.980249453831
                    ***********************HURRAY********************
 Multiplicity           Mult            ....    1
 Number of Electrons    NEL             ....   54
 Basis Dimension        Dim             ....  277
FINAL SINGLE POINT ENERGY      -325.980250010926

VIBRATIONAL FREQUENCIES
-----------------------

   0:         0.00 cm**-1
   1:         0.00 cm**-1
   2:         0.00 cm**-1
   3:         0.00 cm**-1
   4:         0.00 cm**-1
   5:         0.00 cm**-1
   6:        63.52 cm**-1
   7:       233.43 cm**-1
   8:       279.38 cm**-1
   9:       355.51 cm**-1
  10:       407.37 cm**-1
  11:       531.16 cm**-1
  12:       665.35 cm**-1
  13:       736.15 cm**-1
  14:       791.82 cm**-1
  15:       862.84 cm**-1
  16:       874.91 cm**-1
  17:       896.43 cm**-1
  18:       936.86 cm**-1
  19:       964.94 cm**-1
  20:       985.17 cm**-1
  21:       992.77 cm**-1
  22:      1016.49 cm**-1
  23:      1039.57 cm**-1
  24:      1103.69 cm**-1
  25:      1154.75 cm**-1
  26:      1183.85 cm**-1
  27:      1227.79 cm**-1
  28:      1237.36 cm**-1
  29:      1242.35 cm**-1
  30:      1281.48 cm**-1
  31:      1294.65 cm**-1
  32:      1309.65 cm**-1
  33:      1347.08 cm**-1
  34:      1387.64 cm**-1
  35:      1425.89 cm**-1
  36:      1472.09 cm**-1
  37:      1489.97 cm**-1
  38:      1498.48 cm**-1
  39:      1518.03 cm**-1
  40:      1631.72 cm**-1
  41:      3002.60 cm**-1
  42:      3052.31 cm**-1
  43:      3089.46 cm**-1
  44:      3114.19 cm**-1
  45:      3140.80 cm**-1
  46:      3163.33 cm**-1
  47:      3165.07 cm**-1
  48:      3261.38 cm**-1
  49:      3505.01 cm**-1
  50:      3611.90 cm**-1

IR SPECTRUM
-----------

 Mode    freq (cm**-1)   T**2         TX         TY         TZ
-------------------------------------------------------------------
   6:        63.52    2.241000  ( -0.554652   0.639930   1.234443)
   7:       233.43   13.855040  (  1.868484   1.782700  -2.680632)
   8:       279.38    1.536926  (  0.656535  -0.749858  -0.737293)
   9:       355.51    1.116767  (  0.788735  -0.510985  -0.483279)
  10:       407.37    2.011095  ( -0.371947  -0.849933  -1.072550)
  11:       531.16    1.450997  (  1.125949   0.028790  -0.427091)
  12:       665.35    8.152498  (  0.584392   0.908590  -2.643000)
  13:       736.15    6.296254  (  2.335933   0.289320  -0.869462)
  14:       791.82    4.671557  (  1.451853  -0.806036   1.383469)
  15:       862.84    3.639298  ( -1.467762  -0.785865  -0.931337)
  16:       874.91    2.415202  ( -1.499469  -0.347284  -0.214916)
  17:       896.43    0.134570  (  0.205464   0.301356   0.039238)
  18:       936.86   10.764568  ( -1.458606   1.997357  -2.155830)
  19:       964.94   23.237729  ( -2.873945  -1.258944   3.659676)
  20:       985.17    2.922048  (  0.474301  -0.995553   1.306124)
  21:       992.77   25.410908  ( -4.891168   0.743516  -0.966731)
  22:      1016.49   93.305312  (  1.221477  -3.252038  -9.013188)
  23:      1039.57   10.203968  ( -1.090760  -0.171181  -2.997484)
  24:      1103.69   10.471763  ( -2.923190   0.913840   1.044804)
  25:      1154.75   72.313491  ( -2.802015   7.620124   2.529013)
  26:      1183.85    8.636977  ( -2.155301   1.594321   1.204073)
  27:      1227.79    6.639643  (  1.438810  -1.923312  -0.932922)
  28:      1237.36    1.279068  ( -0.673657  -0.563614   0.712456)
  29:      1242.35    4.142754  (  1.323584  -1.484614   0.432203)
  30:      1281.48   11.759873  ( -0.702132   2.789985   1.866244)
  31:      1294.65    1.585715  (  1.135686   0.341748   0.423248)
  32:      1309.65    0.640717  (  0.557683  -0.559809  -0.127749)
  33:      1347.08    9.589851  ( -1.913759   1.274276   2.074511)
  34:      1387.64    3.459981  ( -0.464283  -0.218836   1.787885)
  35:      1425.89    0.778557  (  0.060832  -0.635414  -0.609184)
  36:      1472.09   14.860449  ( -0.506906   1.966066  -3.276901)
  37:      1489.97    5.562279  (  0.008624   2.357945  -0.047952)
  38:      1498.48    9.952388  ( -0.774853  -2.064564  -2.256007)
  39:      1518.03    3.466589  ( -1.470070   0.237195   1.117687)
  40:      1631.72   66.499012  (  7.672549   2.395727  -1.375317)
  41:      3002.60   17.417269  (  1.167124   3.756448   1.394342)
  42:      3052.31   23.024914  ( -4.461351   0.646270   1.644262)
  43:      3089.46    4.409855  (  0.845229   0.743717  -1.772661)
  44:      3114.19    6.733437  ( -2.069528   1.278457   0.903348)
  45:      3140.80    0.848016  ( -0.809647   0.087281   0.429966)
  46:      3163.33    1.878962  ( -0.415820  -0.759635  -1.062549)
  47:      3165.07    2.657219  ( -0.397303  -1.559359  -0.260325)
  48:      3261.38    4.926672  (  0.792230  -1.787352   1.050912)
  49:      3505.01   95.745717  ( -9.250421  -3.037791   0.973268)
  50:      3611.90  105.705447  ( -3.384905   8.608662  -4.487629)

--------------------------
THERMOCHEMISTRY AT 298.15K
--------------------------

Temperature         ... 298.15 K
Pressure            ... 1.00 atm
Total Mass          ... 100.14 AMU

Throughout the following assumptions are being made:
  (1) The electronic state is orbitally nondegenerate
  (2) There are no thermally accessible electronically excited states
  (3) Hindered rotations indicated by low frequency modes) are not
      treated as such but are treated as vibrations and this may
      case some error
  (4) All equations used are the standard statistical mechanics
      equations for an ideal gas
  (5) All vibrations are strinctly harmonic

------------
INNER ENERGY
------------

The inner energy is: U= E(el) + E(ZPE) + E(vib) + E(rot) + E(trans)
    E(el)   - is the total energy from the electronic structure calculation
              = E(kin-el) + E(nuc-el) + E(el-el) + E(nuc-nuc)
    E(ZPE)  - the the zero temperature vibrational energy from the frequency calculation
    E(vib)  - the the finite temperature correction to E(ZPE) due to population
              of excietd vibrational states
    E(rot)  - is the rotational thermal energy
    E(trans)- is the translational thermal energy

Summary of contributions to the inner energy U:
Electronic energy                ...   -325.98025001 Eh
Zero point energy                ...      0.15388157 Eh      96.56 kcal/mol
Thermal vibrational correction   ...      0.00352593 Eh       2.21 kcal/mol
Thermal rotational correction    ...      0.00141627 Eh       0.89 kcal/mol
Thermal translational correction ...      0.00141627 Eh       0.89 kcal/mol
-----------------------------------------------------------------------
Total thermal energy                   -325.82000997 Eh

Summary of corrections to the electronic energy:
(perhaps to be used in another calculation)
Total thermal correction                  0.00635847 Eh       3.99 kcal/mol
Non-thermal (ZPE) correction              0.15388157 Eh      96.56 kcal/mol
-----------------------------------------------------------------------
Total correction                          0.16024004 Eh     100.55 kcal/mol

--------
ENTHALPY
--------

The enthalpy is H = U + kB*T
                kB is Boltzmann's constant
Total free energy                 ...   -325.82000997 Eh
Thermal Enthalpy correction       ...      0.00094421 Eh       0.59 kcal/mol
-----------------------------------------------------------------------
Total Enthalpy                    ...   -325.81906576 Eh

-------
ENTROPY
-------

The entropy contributions are T*S = T*(S(el)+S(vib)+S(rot)+S(trans)
     S(el)   - electronic entropy
     S(vib)  - vibrational entropy
     S(rot)  - rotational entropy
     S(trans)- translational entropy
The entropies will be listed as mutliplied by the temperature to get
units of energy

Electronic entropy                ...      0.00000000 Eh      0.00 kcal/mol
Vibrational entropy               ...      0.00605061 Eh      3.80 kcal/mol
Rotational entropy                ...      0.01179748 Eh      7.40 kcal/mol
Translational entropy             ...      0.01887324 Eh     11.84 kcal/mol
-----------------------------------------------------------------------
Final entropy term                ...      0.03672133 Eh     23.04 kcal/mol

CAUTION: The rotational entropy is not quite correctly treated here
         because it includes a symmetry number that is not yet correctly
         implemented in ORCA!
For a nonlinear molecule the correct rotational entropy is:
    S(rot) = R*(ln(qrot/sn)+1.5)
    R    = 8.31441 J/mol/K = 1.987191683e-3 kcal/mol/K
    qrot = 178714.3397606
    sn is the rotational symmetry number. We have assumed 3 here
       if it is different for your molecule then you should correct
       the printed rotational entropy by manually evaluating the equation
       as given above

For convenience we print out the resulting values for sn=1 - 12:
 sn= 1  qrot/sn=  178714.3398 T*S(rot)=     8.05 kcal/mol T*S(tot)=    23.69 kcal/mol
 sn= 2  qrot/sn=   89357.1699 T*S(rot)=     7.64 kcal/mol T*S(tot)=    23.28 kcal/mol
 sn= 3  qrot/sn=   59571.4466 T*S(rot)=     7.40 kcal/mol T*S(tot)=    23.04 kcal/mol
 sn= 4  qrot/sn=   44678.5849 T*S(rot)=     7.23 kcal/mol T*S(tot)=    22.87 kcal/mol
 sn= 5  qrot/sn=   35742.8680 T*S(rot)=     7.10 kcal/mol T*S(tot)=    22.74 kcal/mol
 sn= 6  qrot/sn=   29785.7233 T*S(rot)=     6.99 kcal/mol T*S(tot)=    22.63 kcal/mol
 sn= 7  qrot/sn=   25530.6200 T*S(rot)=     6.90 kcal/mol T*S(tot)=    22.54 kcal/mol
 sn= 8  qrot/sn=   22339.2925 T*S(rot)=     6.82 kcal/mol T*S(tot)=    22.46 kcal/mol
 sn= 9  qrot/sn=   19857.1489 T*S(rot)=     6.75 kcal/mol T*S(tot)=    22.39 kcal/mol
 sn=10  qrot/sn=   17871.4340 T*S(rot)=     6.69 kcal/mol T*S(tot)=    22.33 kcal/mol
 sn=11  qrot/sn=   16246.7582 T*S(rot)=     6.63 kcal/mol T*S(tot)=    22.27 kcal/mol
 sn=12  qrot/sn=   14892.8616 T*S(rot)=     6.58 kcal/mol T*S(tot)=    22.22 kcal/mol

-------------------
GIBBS FREE ENTHALPY
-------------------

The Gibbs free enthalpy is G = H - T*S

Total enthalpy                    ...   -325.81906576 Eh
Total entropy correction          ...     -0.03672133 Eh    -23.04 kcal/mol
-----------------------------------------------------------------------
Final Gibbs free enthalpy         ...   -325.85578709 Eh

For completeness - the Gibbs free enthalpy minus the electronic energy
G-E(el)                           ...      0.12446292 Eh     78.10 kcal/mol

                             ****ORCA TERMINATED NORMALLY****
TOTAL RUN TIME: 0 days 0 hours 38 minutes 25 seconds 399 msec
