                         Program Version 3.0.3 - RELEASE   -
|  1> ! NORI PBE0 def2-TZVP UseSym TightOPT Freq TightSCF Grid3 FinalGrid5 XYZFile
|  2> % pal
|  3>     nprocs 8
|  4> end
|  5> %method
|  6>     SymThresh 5.0e-2
|  7> end
|  8> % geom
|  9>     MaxIter 10
| 10> end
| 11> % maxcore 2000
| 12> % output
| 13>     printlevel mini
| 14>     print[ P_Basis ] 0
| 15>     print[ P_SCFInfo ] 1
| 16>     print[ P_SCFIterInfo ] 1
| 17>     print[ P_OrbEn ] 0
| 18>     print[ P_Cartesian ] 0
| 19> end
| 20> % elprop
| 21>     Dipole false
| 22> end
| 23> *xyz 1 1
| 24>  C       -1.4979329042     0.8068956604     0.0497980964
| 25>  C       -1.4229248880    -0.7155795756    -0.0256192494
| 26>  C       -0.0212669202    -1.2184175183     0.2075205003
| 27>  N        0.9709996228    -0.9353034925    -0.8778857488
| 28>  C        1.0889053500    -0.2751769618     0.4489163691
| 29>  C        0.7767656463     1.1976630576     0.3745162576
| 30>  O       -0.3165048390     1.3980006345    -0.4770205075
| 31>  H       -2.3298365030     1.1888992360    -0.5391640138
| 32>  H       -1.6336539971     1.1384316405     1.0856522661
| 33>  H       -1.7784249328    -1.0884973501    -0.9901869680
| 34>  H       -2.0699011790    -1.1642097612     0.7315265820
| 35>  H        0.0897867615    -2.2292742822     0.5823610268
| 36>  H        0.6461456722    -0.3204585941    -1.6231105142
| 37>  H        1.6342205202    -1.6527645406    -1.1465987952
| 38>  H        1.9470996419    -0.5957860365     1.0283865542
| 39>  H        0.5811503200     1.5677211958     1.3893718464
| 40>  H        1.6241826284     1.7511366882    -0.0352337020
| 41> *
| 42>
| 43>                          ****END OF INPUT****
 Total Charge           Charge          ....    1
 Multiplicity           Mult            ....    1
 Number of Electrons    NEL             ....   54
FINAL SINGLE POINT ENERGY      -325.991811460728

CARTESIAN COORDINATES (ANGSTROEM)
---------------------------------
  C     -1.080229    0.783330    0.936826
  C     -0.802805    1.256148   -0.487714
  C     -0.045344    0.223003   -1.281977
  N      1.381417   -0.000008   -0.884837
  C      0.358897   -1.056583   -0.665781
  C      0.052931   -1.248978    0.797605
  O      0.000108   -0.000118    1.428578
  H     -1.191283    1.626804    1.615989
  H     -2.001009    0.190059    0.976942
  H     -0.240990    2.194453   -0.497615
  H     -1.741217    1.457511   -1.009022
  H     -0.149717    0.248632   -2.360533
  H      1.681705    0.473918   -0.033890
  H      2.086082   -0.119107   -1.603272
  H      0.487657   -1.933620   -1.289467
  H     -0.893571   -1.797072    0.890256
  H      0.837467   -1.834121    1.281793

FINAL SINGLE POINT ENERGY      -325.991811894577
                    ***********************HURRAY********************
 Multiplicity           Mult            ....    1
 Number of Electrons    NEL             ....   54
 Basis Dimension        Dim             ....  277
FINAL SINGLE POINT ENERGY      -325.991812153447

VIBRATIONAL FREQUENCIES
-----------------------

   0:         0.00 cm**-1
   1:         0.00 cm**-1
   2:         0.00 cm**-1
   3:         0.00 cm**-1
   4:         0.00 cm**-1
   5:         0.00 cm**-1
   6:       139.52 cm**-1
   7:       300.38 cm**-1
   8:       354.77 cm**-1
   9:       420.97 cm**-1
  10:       464.05 cm**-1
  11:       557.60 cm**-1
  12:       711.66 cm**-1
  13:       749.16 cm**-1
  14:       813.49 cm**-1
  15:       836.29 cm**-1
  16:       880.89 cm**-1
  17:       917.52 cm**-1
  18:       933.92 cm**-1
  19:       958.90 cm**-1
  20:      1028.91 cm**-1
  21:      1046.84 cm**-1
  22:      1081.33 cm**-1
  23:      1096.19 cm**-1
  24:      1107.75 cm**-1
  25:      1132.77 cm**-1
  26:      1180.04 cm**-1
  27:      1191.56 cm**-1
  28:      1258.86 cm**-1
  29:      1277.99 cm**-1
  30:      1284.19 cm**-1
  31:      1329.20 cm**-1
  32:      1361.94 cm**-1
  33:      1377.30 cm**-1
  34:      1407.22 cm**-1
  35:      1419.25 cm**-1
  36:      1434.23 cm**-1
  37:      1472.66 cm**-1
  38:      1485.22 cm**-1
  39:      1503.82 cm**-1
  40:      1589.89 cm**-1
  41:      3040.68 cm**-1
  42:      3047.45 cm**-1
  43:      3075.79 cm**-1
  44:      3124.04 cm**-1
  45:      3124.41 cm**-1
  46:      3155.75 cm**-1
  47:      3200.63 cm**-1
  48:      3210.86 cm**-1
  49:      3464.10 cm**-1
  50:      3605.21 cm**-1

IR SPECTRUM
-----------

 Mode    freq (cm**-1)   T**2         TX         TY         TZ
-------------------------------------------------------------------
   6:       139.52    5.591214  ( -1.226088   0.691060   1.900095)
   7:       300.38   16.221317  ( -1.982811  -1.712294   3.059057)
   8:       354.77    4.282245  (  1.119920  -1.032661  -1.400585)
   9:       420.97    2.737323  (  1.476247   0.306850  -0.681074)
  10:       464.05    3.945753  ( -0.402163  -0.233523  -1.931187)
  11:       557.60    0.004504  ( -0.012533  -0.010721   0.065052)
  12:       711.66   10.183506  (  0.456862  -0.941201   3.014784)
  13:       749.16    0.682270  ( -0.034436  -0.206585   0.799004)
  14:       813.49    9.060022  (  2.240061   0.129113   2.006359)
  15:       836.29    4.995932  ( -1.128233   1.344103  -1.384345)
  16:       880.89   31.531037  ( -5.054115  -1.881571   1.564178)
  17:       917.52    0.579744  (  0.557907   0.183963   0.484398)
  18:       933.92    3.847320  ( -0.795139   0.016409   1.792988)
  19:       958.90   12.868033  ( -2.020586  -1.853446  -2.313008)
  20:      1028.91   64.559162  (  3.143324  -6.939166   2.554731)
  21:      1046.84   24.091789  ( -1.268705   2.584177  -3.975450)
  22:      1081.33   13.423022  (  3.270988  -1.140022  -1.193318)
  23:      1096.19    8.378295  ( -1.249283   2.584530  -0.371206)
  24:      1107.75   10.396258  (  2.382660  -0.980822  -1.938344)
  25:      1132.77   28.784413  ( -0.337789   5.341830   0.367640)
  26:      1180.04   51.989220  (  2.811992  -6.610662   0.617303)
  27:      1191.56    1.589369  (  0.878077  -0.160125   0.890342)
  28:      1258.86    6.294024  (  1.742605  -1.606956   0.821610)
  29:      1277.99    9.173854  (  2.335227  -1.927519  -0.072391)
  30:      1284.19   14.181991  (  1.174484  -2.927424  -2.057368)
  31:      1329.20    6.724604  ( -1.367289  -1.713952  -1.384737)
  32:      1361.94    0.508673  ( -0.054436   0.153879  -0.694284)
  33:      1377.30    4.285358  (  0.599710  -0.176527  -1.973460)
  34:      1407.22    6.295640  (  0.406256   1.074407  -2.230750)
  35:      1419.25    0.465052  (  0.338064  -0.145087   0.574207)
  36:      1434.23    3.719075  ( -0.211438   1.913686  -0.110347)
  37:      1472.66   10.767369  ( -0.619479   2.818469  -1.562002)
  38:      1485.22    5.562683  (  0.083004  -2.181963   0.891532)
  39:      1503.82    8.516879  (  2.420576   0.231247  -1.613759)
  40:      1589.89   90.990594  (  9.126298   2.774680   0.049300)
  41:      3040.68    9.952067  ( -0.799462  -3.049566  -0.114361)
  42:      3047.45   16.315824  ( -3.895179  -0.376575   1.000796)
  43:      3075.79    3.563654  (  1.247965   1.002307  -1.000809)
  44:      3124.04    2.110922  ( -1.153835   0.880077   0.071075)
  45:      3124.41    0.386740  ( -0.465697  -0.270827   0.310675)
  46:      3155.75    2.297758  ( -0.190552   1.447378   0.408098)
  47:      3200.63    1.079887  (  0.601586  -0.697655   0.480894)
  48:      3210.86    1.678439  (  0.254766   0.746914   1.027449)
  49:      3464.10   78.391402  ( -7.231859  -3.323136  -3.879224)
  50:      3605.21  154.357772  ( -6.411824   2.524314  10.337994)

--------------------------
THERMOCHEMISTRY AT 298.15K
--------------------------

Temperature         ... 298.15 K
Pressure            ... 1.00 atm
Total Mass          ... 100.14 AMU

Throughout the following assumptions are being made:
  (1) The electronic state is orbitally nondegenerate
  (2) There are no thermally accessible electronically excited states
  (3) Hindered rotations indicated by low frequency modes) are not
      treated as such but are treated as vibrations and this may
      case some error
  (4) All equations used are the standard statistical mechanics
      equations for an ideal gas
  (5) All vibrations are strinctly harmonic

------------
INNER ENERGY
------------

The inner energy is: U= E(el) + E(ZPE) + E(vib) + E(rot) + E(trans)
    E(el)   - is the total energy from the electronic structure calculation
              = E(kin-el) + E(nuc-el) + E(el-el) + E(nuc-nuc)
    E(ZPE)  - the the zero temperature vibrational energy from the frequency calculation
    E(vib)  - the the finite temperature correction to E(ZPE) due to population
              of excietd vibrational states
    E(rot)  - is the rotational thermal energy
    E(trans)- is the translational thermal energy

Summary of contributions to the inner energy U:
Electronic energy                ...   -325.99181215 Eh
Zero point energy                ...      0.15526900 Eh      97.43 kcal/mol
Thermal vibrational correction   ...      0.00300998 Eh       1.89 kcal/mol
Thermal rotational correction    ...      0.00141627 Eh       0.89 kcal/mol
Thermal translational correction ...      0.00141627 Eh       0.89 kcal/mol
-----------------------------------------------------------------------
Total thermal energy                   -325.83070063 Eh

Summary of corrections to the electronic energy:
(perhaps to be used in another calculation)
Total thermal correction                  0.00584252 Eh       3.67 kcal/mol
Non-thermal (ZPE) correction              0.15526900 Eh      97.43 kcal/mol
-----------------------------------------------------------------------
Total correction                          0.16111152 Eh     101.10 kcal/mol

--------
ENTHALPY
--------

The enthalpy is H = U + kB*T
                kB is Boltzmann's constant
Total free energy                 ...   -325.83070063 Eh
Thermal Enthalpy correction       ...      0.00094421 Eh       0.59 kcal/mol
-----------------------------------------------------------------------
Total Enthalpy                    ...   -325.82975642 Eh

-------
ENTROPY
-------

The entropy contributions are T*S = T*(S(el)+S(vib)+S(rot)+S(trans)
     S(el)   - electronic entropy
     S(vib)  - vibrational entropy
     S(rot)  - rotational entropy
     S(trans)- translational entropy
The entropies will be listed as mutliplied by the temperature to get
units of energy

Electronic entropy                ...      0.00000000 Eh      0.00 kcal/mol
Vibrational entropy               ...      0.00461949 Eh      2.90 kcal/mol
Rotational entropy                ...      0.01170033 Eh      7.34 kcal/mol
Translational entropy             ...      0.01887324 Eh     11.84 kcal/mol
-----------------------------------------------------------------------
Final entropy term                ...      0.03519306 Eh     22.08 kcal/mol

CAUTION: The rotational entropy is not quite correctly treated here
         because it includes a symmetry number that is not yet correctly
         implemented in ORCA!
For a nonlinear molecule the correct rotational entropy is:
    S(rot) = R*(ln(qrot/sn)+1.5)
    R    = 8.31441 J/mol/K = 1.987191683e-3 kcal/mol/K
    qrot = 161241.1337336
    sn is the rotational symmetry number. We have assumed 3 here
       if it is different for your molecule then you should correct
       the printed rotational entropy by manually evaluating the equation
       as given above

For convenience we print out the resulting values for sn=1 - 12:
 sn= 1  qrot/sn=  161241.1337 T*S(rot)=     7.99 kcal/mol T*S(tot)=    22.73 kcal/mol
 sn= 2  qrot/sn=   80620.5669 T*S(rot)=     7.58 kcal/mol T*S(tot)=    22.32 kcal/mol
 sn= 3  qrot/sn=   53747.0446 T*S(rot)=     7.34 kcal/mol T*S(tot)=    22.08 kcal/mol
 sn= 4  qrot/sn=   40310.2834 T*S(rot)=     7.17 kcal/mol T*S(tot)=    21.91 kcal/mol
 sn= 5  qrot/sn=   32248.2267 T*S(rot)=     7.04 kcal/mol T*S(tot)=    21.78 kcal/mol
 sn= 6  qrot/sn=   26873.5223 T*S(rot)=     6.93 kcal/mol T*S(tot)=    21.67 kcal/mol
 sn= 7  qrot/sn=   23034.4477 T*S(rot)=     6.84 kcal/mol T*S(tot)=    21.58 kcal/mol
 sn= 8  qrot/sn=   20155.1417 T*S(rot)=     6.76 kcal/mol T*S(tot)=    21.50 kcal/mol
 sn= 9  qrot/sn=   17915.6815 T*S(rot)=     6.69 kcal/mol T*S(tot)=    21.43 kcal/mol
 sn=10  qrot/sn=   16124.1134 T*S(rot)=     6.63 kcal/mol T*S(tot)=    21.37 kcal/mol
 sn=11  qrot/sn=   14658.2849 T*S(rot)=     6.57 kcal/mol T*S(tot)=    21.31 kcal/mol
 sn=12  qrot/sn=   13436.7611 T*S(rot)=     6.52 kcal/mol T*S(tot)=    21.26 kcal/mol

-------------------
GIBBS FREE ENTHALPY
-------------------

The Gibbs free enthalpy is G = H - T*S

Total enthalpy                    ...   -325.82975642 Eh
Total entropy correction          ...     -0.03519306 Eh    -22.08 kcal/mol
-----------------------------------------------------------------------
Final Gibbs free enthalpy         ...   -325.86494948 Eh

For completeness - the Gibbs free enthalpy minus the electronic energy
G-E(el)                           ...      0.12686267 Eh     79.61 kcal/mol

                             ****ORCA TERMINATED NORMALLY****
TOTAL RUN TIME: 0 days 0 hours 40 minutes 4 seconds 743 msec
