                         Program Version 3.0.3 - RELEASE   -
|  1> ! NORI PBE0 def2-TZVP UseSym TightOPT Freq TightSCF Grid3 FinalGrid5 XYZFile
|  2> % pal
|  3>     nprocs 8
|  4> end
|  5> %method
|  6>     SymThresh 5.0e-2
|  7> end
|  8> % geom
|  9>     MaxIter 10
| 10> end
| 11> % maxcore 2000
| 12> % output
| 13>     printlevel mini
| 14>     print[ P_Basis ] 0
| 15>     print[ P_SCFInfo ] 1
| 16>     print[ P_SCFIterInfo ] 1
| 17>     print[ P_OrbEn ] 0
| 18>     print[ P_Cartesian ] 0
| 19> end
| 20> % elprop
| 21>     Dipole false
| 22> end
| 23> *xyz 1 1
| 24>  C       -1.6853693588     0.6588571283     0.4423691501
| 25>  N       -1.7592075013    -0.7102757014    -0.2805441552
| 26>  C       -0.2520487054    -0.8091187787     0.0086836473
| 27>  C        1.0334004938    -1.1783370453    -0.6682634346
| 28>  C        1.8832133630    -0.0205493030     0.0096701679
| 29>  O        0.9802015538     0.9968593302     0.5605658568
| 30>  C       -0.2177925785     0.6759846962    -0.0347864819
| 31>  H       -1.8275209914     0.4862132621     1.5078394907
| 32>  H       -2.3928356456     1.3847222231     0.0479528450
| 33>  H       -2.3641787752    -1.4231358717     0.1246786981
| 34>  H       -1.9876406252    -0.6022937746    -1.2689232217
| 35>  H       -0.2360034955    -1.1221450050     1.0547196419
| 36>  H        1.4298888363    -2.1628273778    -0.4283508493
| 37>  H        1.0016580143    -1.0501917059    -1.7507840684
| 38>  H        2.5340987890     0.4502364487    -0.7275855025
| 39>  H        2.4826146682    -0.3914674151     0.8394346980
| 40>  H       -0.2484680414     1.0255988899    -1.0818564823
| 41> *
| 42>
| 43>                          ****END OF INPUT****
 Total Charge           Charge          ....    1
 Multiplicity           Mult            ....    1
 Number of Electrons    NEL             ....   54
FINAL SINGLE POINT ENERGY      -325.939546337328
FINAL SINGLE POINT ENERGY      -325.939547366861

CARTESIAN COORDINATES (ANGSTROEM)
---------------------------------
  C      1.818145   -0.058129   -0.430101
  N      0.883879    0.000070   -1.665138
  C     -0.221247    0.369847   -0.662289
  C     -1.643822    0.031279   -0.331463
  C     -1.432687    0.077463    1.241962
  O      0.000006   -0.003266    1.550886
  C      0.535070   -0.411477    0.351094
  H      2.209287    0.942737   -0.255938
  H      2.611144   -0.794792   -0.532979
  H      1.106587    0.679210   -2.391261
  H      0.767389   -0.918878   -2.092766
  H     -0.031553    1.431401   -0.487961
  H     -2.391350    0.751084   -0.659129
  H     -1.933502   -0.969376   -0.652406
  H     -1.941351   -0.762493    1.715167
  H     -1.794821    1.010206    1.671322
  H      0.376458   -1.493005    0.191438

FINAL SINGLE POINT ENERGY      -325.939547865631
                    ***********************HURRAY********************
 Multiplicity           Mult            ....    1
 Number of Electrons    NEL             ....   54
 Basis Dimension        Dim             ....  277
FINAL SINGLE POINT ENERGY      -325.939548202473

VIBRATIONAL FREQUENCIES
-----------------------

   0:         0.00 cm**-1
   1:         0.00 cm**-1
   2:         0.00 cm**-1
   3:         0.00 cm**-1
   4:         0.00 cm**-1
   5:         0.00 cm**-1
   6:       135.03 cm**-1
   7:       265.29 cm**-1
   8:       323.88 cm**-1
   9:       399.17 cm**-1
  10:       513.67 cm**-1
  11:       640.04 cm**-1
  12:       675.10 cm**-1
  13:       743.26 cm**-1
  14:       821.23 cm**-1
  15:       859.43 cm**-1
  16:       868.15 cm**-1
  17:       891.71 cm**-1
  18:       918.26 cm**-1
  19:       944.73 cm**-1
  20:      1003.45 cm**-1
  21:      1032.53 cm**-1
  22:      1091.38 cm**-1
  23:      1148.75 cm**-1
  24:      1156.25 cm**-1
  25:      1186.50 cm**-1
  26:      1211.01 cm**-1
  27:      1228.73 cm**-1
  28:      1239.35 cm**-1
  29:      1261.87 cm**-1
  30:      1269.59 cm**-1
  31:      1287.30 cm**-1
  32:      1302.87 cm**-1
  33:      1363.10 cm**-1
  34:      1377.92 cm**-1
  35:      1445.78 cm**-1
  36:      1455.98 cm**-1
  37:      1491.56 cm**-1
  38:      1495.20 cm**-1
  39:      1514.22 cm**-1
  40:      1634.06 cm**-1
  41:      2957.95 cm**-1
  42:      3099.86 cm**-1
  43:      3103.40 cm**-1
  44:      3110.60 cm**-1
  45:      3126.22 cm**-1
  46:      3160.91 cm**-1
  47:      3178.01 cm**-1
  48:      3209.07 cm**-1
  49:      3465.07 cm**-1
  50:      3542.24 cm**-1

IR SPECTRUM
-----------

 Mode    freq (cm**-1)   T**2         TX         TY         TZ
-------------------------------------------------------------------
   6:       135.03    6.801564  ( -0.300968   2.584122  -0.182476)
   7:       265.29    0.228068  (  0.383236   0.038771  -0.282303)
   8:       323.88    1.928070  ( -0.638915   0.077249  -1.230403)
   9:       399.17    4.965688  ( -0.206823   0.091476  -2.216877)
  10:       513.67    6.238585  ( -1.270881  -0.945683   1.931095)
  11:       640.04    4.375762  (  1.913637  -0.840801   0.082525)
  12:       675.10   11.636776  ( -0.174205   1.820494  -2.879623)
  13:       743.26   22.739449  (  4.711338   0.448133   0.584740)
  14:       821.23    1.942965  (  0.442421  -0.704622   1.118363)
  15:       859.43    5.485567  (  0.629652   1.937295  -1.155851)
  16:       868.15   16.896973  ( -3.811233   1.013942   1.159050)
  17:       891.71    1.716305  ( -0.062351   1.162619   0.600612)
  18:       918.26   11.034371  (  0.935889  -0.244534  -3.177843)
  19:       944.73   41.616387  ( -6.212720   0.857718  -1.510901)
  20:      1003.45    2.959901  ( -1.451859   0.744532   0.545599)
  21:      1032.53    2.034476  ( -0.996871   0.985171   0.264883)
  22:      1091.38    2.439953  (  1.365581   0.429423   0.625091)
  23:      1148.75    2.577252  ( -0.745628  -0.416530  -1.359336)
  24:      1156.25    4.415033  ( -0.809876   1.937887  -0.061065)
  25:      1186.50    2.315162  (  0.951719  -0.685986  -0.968926)
  26:      1211.01   50.991040  ( -6.873192   0.389356   1.897018)
  27:      1228.73   14.986025  (  3.143106  -0.294366   2.240593)
  28:      1239.35   31.952175  (  4.071866  -1.585089  -3.586025)
  29:      1261.87   21.578337  (  4.305449  -1.452779  -0.964820)
  30:      1269.59   18.967780  ( -2.564297   0.830780   3.420814)
  31:      1287.30    8.978611  ( -1.303980   1.611265  -2.163809)
  32:      1302.87    7.959640  ( -0.991432  -0.139416  -2.637663)
  33:      1363.10    0.692008  ( -0.706559   0.391200  -0.199362)
  34:      1377.92    6.469825  ( -1.426498   1.164656   1.754567)
  35:      1445.78   24.658502  ( -3.296963  -0.135454   3.710821)
  36:      1455.98    0.245074  (  0.068935  -0.347983  -0.345296)
  37:      1491.56   14.217874  (  3.173869   1.814938  -0.922187)
  38:      1495.20    7.622027  ( -1.032118  -1.262640  -2.227667)
  39:      1514.22   11.572900  ( -3.014772  -0.876825   1.309668)
  40:      1634.06   67.180223  (  0.914881  -2.072549  -7.877040)
  41:      2957.95   25.517655  (  0.785492  -4.355764  -2.434744)
  42:      3099.86    1.557801  ( -0.996731  -0.259843   0.704847)
  43:      3103.40    7.560215  (  2.200220  -0.276300  -1.625702)
  44:      3110.60    4.529406  ( -1.909450  -0.905828  -0.250765)
  45:      3126.22    0.308504  (  0.486330   0.103911  -0.247366)
  46:      3160.91    0.854982  ( -0.339896  -0.855245  -0.089488)
  47:      3178.01    2.501682  ( -0.733802   1.371262   0.287848)
  48:      3209.07    0.812488  (  0.767186   0.452544   0.138265)
  49:      3465.07   74.352008  ( -1.060277   1.498907   8.425028)
  50:      3542.24   84.812509  (  2.048764   8.607482  -2.554668)

--------------------------
THERMOCHEMISTRY AT 298.15K
--------------------------

Temperature         ... 298.15 K
Pressure            ... 1.00 atm
Total Mass          ... 100.14 AMU

Throughout the following assumptions are being made:
  (1) The electronic state is orbitally nondegenerate
  (2) There are no thermally accessible electronically excited states
  (3) Hindered rotations indicated by low frequency modes) are not
      treated as such but are treated as vibrations and this may
      case some error
  (4) All equations used are the standard statistical mechanics
      equations for an ideal gas
  (5) All vibrations are strinctly harmonic

------------
INNER ENERGY
------------

The inner energy is: U= E(el) + E(ZPE) + E(vib) + E(rot) + E(trans)
    E(el)   - is the total energy from the electronic structure calculation
              = E(kin-el) + E(nuc-el) + E(el-el) + E(nuc-nuc)
    E(ZPE)  - the the zero temperature vibrational energy from the frequency calculation
    E(vib)  - the the finite temperature correction to E(ZPE) due to population
              of excietd vibrational states
    E(rot)  - is the rotational thermal energy
    E(trans)- is the translational thermal energy

Summary of contributions to the inner energy U:
Electronic energy                ...   -325.93954820 Eh
Zero point energy                ...      0.15525636 Eh      97.42 kcal/mol
Thermal vibrational correction   ...      0.00305053 Eh       1.91 kcal/mol
Thermal rotational correction    ...      0.00141627 Eh       0.89 kcal/mol
Thermal translational correction ...      0.00141627 Eh       0.89 kcal/mol
-----------------------------------------------------------------------
Total thermal energy                   -325.77840876 Eh

Summary of corrections to the electronic energy:
(perhaps to be used in another calculation)
Total thermal correction                  0.00588307 Eh       3.69 kcal/mol
Non-thermal (ZPE) correction              0.15525636 Eh      97.42 kcal/mol
-----------------------------------------------------------------------
Total correction                          0.16113944 Eh     101.12 kcal/mol

--------
ENTHALPY
--------

The enthalpy is H = U + kB*T
                kB is Boltzmann's constant
Total free energy                 ...   -325.77840876 Eh
Thermal Enthalpy correction       ...      0.00094421 Eh       0.59 kcal/mol
-----------------------------------------------------------------------
Total Enthalpy                    ...   -325.77746455 Eh

-------
ENTROPY
-------

The entropy contributions are T*S = T*(S(el)+S(vib)+S(rot)+S(trans)
     S(el)   - electronic entropy
     S(vib)  - vibrational entropy
     S(rot)  - rotational entropy
     S(trans)- translational entropy
The entropies will be listed as mutliplied by the temperature to get
units of energy

Electronic entropy                ...      0.00000000 Eh      0.00 kcal/mol
Vibrational entropy               ...      0.00474737 Eh      2.98 kcal/mol
Rotational entropy                ...      0.01175754 Eh      7.38 kcal/mol
Translational entropy             ...      0.01887324 Eh     11.84 kcal/mol
-----------------------------------------------------------------------
Final entropy term                ...      0.03537815 Eh     22.20 kcal/mol

CAUTION: The rotational entropy is not quite correctly treated here
         because it includes a symmetry number that is not yet correctly
         implemented in ORCA!
For a nonlinear molecule the correct rotational entropy is:
    S(rot) = R*(ln(qrot/sn)+1.5)
    R    = 8.31441 J/mol/K = 1.987191683e-3 kcal/mol/K
    qrot = 171312.8430991
    sn is the rotational symmetry number. We have assumed 3 here
       if it is different for your molecule then you should correct
       the printed rotational entropy by manually evaluating the equation
       as given above

For convenience we print out the resulting values for sn=1 - 12:
 sn= 1  qrot/sn=  171312.8431 T*S(rot)=     8.03 kcal/mol T*S(tot)=    22.85 kcal/mol
 sn= 2  qrot/sn=   85656.4215 T*S(rot)=     7.62 kcal/mol T*S(tot)=    22.44 kcal/mol
 sn= 3  qrot/sn=   57104.2810 T*S(rot)=     7.38 kcal/mol T*S(tot)=    22.20 kcal/mol
 sn= 4  qrot/sn=   42828.2108 T*S(rot)=     7.21 kcal/mol T*S(tot)=    22.03 kcal/mol
 sn= 5  qrot/sn=   34262.5686 T*S(rot)=     7.08 kcal/mol T*S(tot)=    21.90 kcal/mol
 sn= 6  qrot/sn=   28552.1405 T*S(rot)=     6.97 kcal/mol T*S(tot)=    21.79 kcal/mol
 sn= 7  qrot/sn=   24473.2633 T*S(rot)=     6.88 kcal/mol T*S(tot)=    21.70 kcal/mol
 sn= 8  qrot/sn=   21414.1054 T*S(rot)=     6.80 kcal/mol T*S(tot)=    21.62 kcal/mol
 sn= 9  qrot/sn=   19034.7603 T*S(rot)=     6.73 kcal/mol T*S(tot)=    21.55 kcal/mol
 sn=10  qrot/sn=   17131.2843 T*S(rot)=     6.66 kcal/mol T*S(tot)=    21.49 kcal/mol
 sn=11  qrot/sn=   15573.8948 T*S(rot)=     6.61 kcal/mol T*S(tot)=    21.43 kcal/mol
 sn=12  qrot/sn=   14276.0703 T*S(rot)=     6.56 kcal/mol T*S(tot)=    21.38 kcal/mol

-------------------
GIBBS FREE ENTHALPY
-------------------

The Gibbs free enthalpy is G = H - T*S

Total enthalpy                    ...   -325.77746455 Eh
Total entropy correction          ...     -0.03537815 Eh    -22.20 kcal/mol
-----------------------------------------------------------------------
Final Gibbs free enthalpy         ...   -325.81284270 Eh

For completeness - the Gibbs free enthalpy minus the electronic energy
G-E(el)                           ...      0.12670550 Eh     79.51 kcal/mol

                             ****ORCA TERMINATED NORMALLY****
TOTAL RUN TIME: 0 days 0 hours 40 minutes 46 seconds 720 msec
