                         Program Version 3.0.3 - RELEASE   -
|  1> ! NORI PBE0 def2-TZVP UseSym TightOPT Freq TightSCF Grid3 FinalGrid5 XYZFile
|  2> % pal
|  3>     nprocs 8
|  4> end
|  5> %method
|  6>     SymThresh 5.0e-2
|  7> end
|  8> % geom
|  9>     MaxIter 10
| 10> end
| 11> % maxcore 2000
| 12> % output
| 13>     printlevel mini
| 14>     print[ P_Basis ] 0
| 15>     print[ P_SCFInfo ] 1
| 16>     print[ P_SCFIterInfo ] 1
| 17>     print[ P_OrbEn ] 0
| 18>     print[ P_Cartesian ] 0
| 19> end
| 20> % elprop
| 21>     Dipole false
| 22> end
| 23> *xyz 1 1
| 24>  C       -1.5880847654     0.8153560847     0.1112221023
| 25>  C       -1.4196679476    -0.6868206351    -0.0387882659
| 26>  C       -0.0032658352    -1.1539857649     0.1682121575
| 27>  O        0.9198465309    -0.7658414008    -0.8555344118
| 28>  C        1.0886109344    -0.2192165910     0.4375045017
| 29>  C        0.8232931714     1.2584377731     0.4798910337
| 30>  N       -0.3632951354     1.5278673965    -0.3838363491
| 31>  H       -2.4423566869     1.1910420864    -0.4514130815
| 32>  H       -1.7030805168     1.1127269822     1.1544945167
| 33>  H       -1.7445406853    -1.0162375576    -1.0298250908
| 34>  H       -2.0782456173    -1.1776597950     0.6806732989
| 35>  H        0.1179044758    -2.1833478271     0.4919140638
| 36>  H        1.9678774470    -0.5452838762     0.9869240807
| 37>  H        0.6072178609     1.6173668012     1.4874663171
| 38>  H        1.6679977917     1.8187454984     0.0734668185
| 39>  H       -0.5343841115     2.5309150556    -0.4504240433
| 40>  H       -0.1313669107     1.1779557697    -1.3208076485
| 41> *
| 42>
| 43>                          ****END OF INPUT****
 Total Charge           Charge          ....    1
 Multiplicity           Mult            ....    1
 Number of Electrons    NEL             ....   54
FINAL SINGLE POINT ENERGY      -325.998451739552

CARTESIAN COORDINATES (ANGSTROEM)
---------------------------------
  C      0.154944   -0.847524   -1.419627
  C     -0.866533   -1.260566   -0.373857
  C     -1.097843   -0.213405    0.683035
  O      0.000213   -0.000349    1.577348
  C     -0.357898    1.047840    0.698447
  C      0.693863    1.317795   -0.338985
  N      1.224722    0.000173   -0.795336
  H      0.639013   -1.707145   -1.882695
  H     -0.288192   -0.234669   -2.205837
  H     -0.559201   -2.184399    0.124873
  H     -1.806109   -1.482974   -0.883736
  H     -2.062134   -0.242686    1.181589
  H     -0.791075    1.933190    1.156346
  H      0.300942    1.851761   -1.205632
  H      1.524684    1.885191    0.085596
  H      1.999796    0.134547   -1.444138
  H      1.583125   -0.478327    0.039394

FINAL SINGLE POINT ENERGY      -325.998452198953
                    ***********************HURRAY********************
 Multiplicity           Mult            ....    1
 Number of Electrons    NEL             ....   54
 Basis Dimension        Dim             ....  277
FINAL SINGLE POINT ENERGY      -325.998452519196

VIBRATIONAL FREQUENCIES
-----------------------

   0:         0.00 cm**-1
   1:         0.00 cm**-1
   2:         0.00 cm**-1
   3:         0.00 cm**-1
   4:         0.00 cm**-1
   5:         0.00 cm**-1
   6:       139.76 cm**-1
   7:       276.25 cm**-1
   8:       366.77 cm**-1
   9:       379.26 cm**-1
  10:       442.16 cm**-1
  11:       566.21 cm**-1
  12:       663.44 cm**-1
  13:       804.21 cm**-1
  14:       809.59 cm**-1
  15:       853.50 cm**-1
  16:       858.56 cm**-1
  17:       925.06 cm**-1
  18:       938.55 cm**-1
  19:      1017.38 cm**-1
  20:      1025.96 cm**-1
  21:      1053.89 cm**-1
  22:      1072.32 cm**-1
  23:      1090.85 cm**-1
  24:      1128.57 cm**-1
  25:      1169.65 cm**-1
  26:      1223.55 cm**-1
  27:      1245.74 cm**-1
  28:      1286.74 cm**-1
  29:      1309.91 cm**-1
  30:      1339.33 cm**-1
  31:      1368.22 cm**-1
  32:      1399.06 cm**-1
  33:      1424.19 cm**-1
  34:      1437.94 cm**-1
  35:      1445.51 cm**-1
  36:      1471.39 cm**-1
  37:      1483.14 cm**-1
  38:      1504.77 cm**-1
  39:      1507.40 cm**-1
  40:      1610.45 cm**-1
  41:      3074.87 cm**-1
  42:      3092.25 cm**-1
  43:      3099.97 cm**-1
  44:      3126.49 cm**-1
  45:      3151.31 cm**-1
  46:      3159.48 cm**-1
  47:      3167.40 cm**-1
  48:      3177.35 cm**-1
  49:      3396.64 cm**-1
  50:      3504.56 cm**-1

IR SPECTRUM
-----------

 Mode    freq (cm**-1)   T**2         TX         TY         TZ
-------------------------------------------------------------------
   6:       139.76    6.759182  (  1.409487  -0.886102  -1.996836)
   7:       276.25   19.412997  ( -2.582056  -1.305112   3.323051)
   8:       366.77   10.822070  (  0.302059  -1.664839  -2.821195)
   9:       379.26    2.922281  (  0.296152  -0.231001  -1.667697)
  10:       442.16    4.565704  (  1.652853   0.512899  -1.253282)
  11:       566.21    3.439490  ( -0.103719   0.470099  -1.791016)
  12:       663.44    1.444857  ( -0.097057   0.184398   1.183822)
  13:       804.21   14.474771  (  1.312102  -1.154580   3.379364)
  14:       809.59   12.032796  (  1.697187   2.554562   1.620669)
  15:       853.50    7.700672  ( -2.195612   0.845429   1.471466)
  16:       858.56   13.200874  (  3.178956  -1.360611   1.115281)
  17:       925.06    6.033635  ( -1.999680  -1.370425  -0.396043)
  18:       938.55   18.110084  (  0.945778   3.276374  -2.545773)
  19:      1017.38    9.561751  (  0.197422  -2.499448   1.809844)
  20:      1025.96    5.415569  ( -1.527964   1.748297   0.156045)
  21:      1053.89   16.092326  (  2.032190   1.867971   2.910879)
  22:      1072.32    6.551704  ( -1.215029  -0.502786  -2.196045)
  23:      1090.85    3.941910  (  1.628839  -0.303120   1.094035)
  24:      1128.57    3.656825  (  1.702391  -0.174670  -0.853336)
  25:      1169.65    2.269585  (  0.204729   1.078774  -1.031464)
  26:      1223.55    7.279568  ( -2.201542   1.353098  -0.775826)
  27:      1245.74    3.590378  (  1.164367   1.269015  -0.790082)
  28:      1286.74    6.511904  (  1.844815  -1.375880   1.102504)
  29:      1309.91    6.315164  (  0.759595   1.818801   1.558891)
  30:      1339.33    4.682520  (  0.633109  -2.065054   0.131322)
  31:      1368.22    0.316144  ( -0.495882  -0.249813  -0.088537)
  32:      1399.06    8.308589  ( -0.749877   1.211137   2.505877)
  33:      1424.19    0.381801  ( -0.432969   0.406837  -0.169772)
  34:      1437.94   42.323199  (  0.110625   5.913938   2.708561)
  35:      1445.51    5.246688  (  0.093676   1.826581   1.378955)
  36:      1471.39    8.230185  (  1.985361   1.999431  -0.539263)
  37:      1483.14   11.791326  (  1.180581   3.185705  -0.498833)
  38:      1504.77   26.063152  ( -1.130130   0.109146  -4.977353)
  39:      1507.40    7.457360  ( -2.186882  -1.200163   1.111087)
  40:      1610.45   86.442988  ( -8.953906   2.496355  -0.196874)
  41:      3074.87    0.901168  ( -0.020602   0.914490  -0.253872)
  42:      3092.25    0.831520  (  0.408727   0.662122  -0.475454)
  43:      3099.97    2.526861  ( -0.332200  -0.464099   1.483616)
  44:      3126.49    0.395285  ( -0.452149  -0.167927   0.403294)
  45:      3151.31    0.013835  ( -0.054144   0.066653   0.080377)
  46:      3159.48    0.287421  ( -0.061713  -0.529565   0.056330)
  47:      3167.40    0.751745  ( -0.335785  -0.593363   0.535644)
  48:      3177.35    2.023318  (  1.235331  -0.616138   0.342998)
  49:      3396.64   55.702716  (  4.424207  -2.963271   5.229545)
  50:      3504.56   95.175794  (  6.122202   1.792577  -7.381131)

--------------------------
THERMOCHEMISTRY AT 298.15K
--------------------------

Temperature         ... 298.15 K
Pressure            ... 1.00 atm
Total Mass          ... 100.14 AMU

Throughout the following assumptions are being made:
  (1) The electronic state is orbitally nondegenerate
  (2) There are no thermally accessible electronically excited states
  (3) Hindered rotations indicated by low frequency modes) are not
      treated as such but are treated as vibrations and this may
      case some error
  (4) All equations used are the standard statistical mechanics
      equations for an ideal gas
  (5) All vibrations are strinctly harmonic

------------
INNER ENERGY
------------

The inner energy is: U= E(el) + E(ZPE) + E(vib) + E(rot) + E(trans)
    E(el)   - is the total energy from the electronic structure calculation
              = E(kin-el) + E(nuc-el) + E(el-el) + E(nuc-nuc)
    E(ZPE)  - the the zero temperature vibrational energy from the frequency calculation
    E(vib)  - the the finite temperature correction to E(ZPE) due to population
              of excietd vibrational states
    E(rot)  - is the rotational thermal energy
    E(trans)- is the translational thermal energy

Summary of contributions to the inner energy U:
Electronic energy                ...   -325.99845252 Eh
Zero point energy                ...      0.15625872 Eh      98.05 kcal/mol
Thermal vibrational correction   ...      0.00305224 Eh       1.92 kcal/mol
Thermal rotational correction    ...      0.00141627 Eh       0.89 kcal/mol
Thermal translational correction ...      0.00141627 Eh       0.89 kcal/mol
-----------------------------------------------------------------------
Total thermal energy                   -325.83630902 Eh

Summary of corrections to the electronic energy:
(perhaps to be used in another calculation)
Total thermal correction                  0.00588478 Eh       3.69 kcal/mol
Non-thermal (ZPE) correction              0.15625872 Eh      98.05 kcal/mol
-----------------------------------------------------------------------
Total correction                          0.16214350 Eh     101.75 kcal/mol

--------
ENTHALPY
--------

The enthalpy is H = U + kB*T
                kB is Boltzmann's constant
Total free energy                 ...   -325.83630902 Eh
Thermal Enthalpy correction       ...      0.00094421 Eh       0.59 kcal/mol
-----------------------------------------------------------------------
Total Enthalpy                    ...   -325.83536481 Eh

-------
ENTROPY
-------

The entropy contributions are T*S = T*(S(el)+S(vib)+S(rot)+S(trans)
     S(el)   - electronic entropy
     S(vib)  - vibrational entropy
     S(rot)  - rotational entropy
     S(trans)- translational entropy
The entropies will be listed as mutliplied by the temperature to get
units of energy

Electronic entropy                ...      0.00000000 Eh      0.00 kcal/mol
Vibrational entropy               ...      0.00472299 Eh      2.96 kcal/mol
Rotational entropy                ...      0.01171400 Eh      7.35 kcal/mol
Translational entropy             ...      0.01887324 Eh     11.84 kcal/mol
-----------------------------------------------------------------------
Final entropy term                ...      0.03531023 Eh     22.16 kcal/mol

CAUTION: The rotational entropy is not quite correctly treated here
         because it includes a symmetry number that is not yet correctly
         implemented in ORCA!
For a nonlinear molecule the correct rotational entropy is:
    S(rot) = R*(ln(qrot/sn)+1.5)
    R    = 8.31441 J/mol/K = 1.987191683e-3 kcal/mol/K
    qrot = 163592.1267076
    sn is the rotational symmetry number. We have assumed 3 here
       if it is different for your molecule then you should correct
       the printed rotational entropy by manually evaluating the equation
       as given above

For convenience we print out the resulting values for sn=1 - 12:
 sn= 1  qrot/sn=  163592.1267 T*S(rot)=     8.00 kcal/mol T*S(tot)=    22.81 kcal/mol
 sn= 2  qrot/sn=   81796.0634 T*S(rot)=     7.59 kcal/mol T*S(tot)=    22.40 kcal/mol
 sn= 3  qrot/sn=   54530.7089 T*S(rot)=     7.35 kcal/mol T*S(tot)=    22.16 kcal/mol
 sn= 4  qrot/sn=   40898.0317 T*S(rot)=     7.18 kcal/mol T*S(tot)=    21.99 kcal/mol
 sn= 5  qrot/sn=   32718.4253 T*S(rot)=     7.05 kcal/mol T*S(tot)=    21.85 kcal/mol
 sn= 6  qrot/sn=   27265.3545 T*S(rot)=     6.94 kcal/mol T*S(tot)=    21.75 kcal/mol
 sn= 7  qrot/sn=   23370.3038 T*S(rot)=     6.85 kcal/mol T*S(tot)=    21.66 kcal/mol
 sn= 8  qrot/sn=   20449.0158 T*S(rot)=     6.77 kcal/mol T*S(tot)=    21.58 kcal/mol
 sn= 9  qrot/sn=   18176.9030 T*S(rot)=     6.70 kcal/mol T*S(tot)=    21.51 kcal/mol
 sn=10  qrot/sn=   16359.2127 T*S(rot)=     6.64 kcal/mol T*S(tot)=    21.44 kcal/mol
 sn=11  qrot/sn=   14872.0115 T*S(rot)=     6.58 kcal/mol T*S(tot)=    21.39 kcal/mol
 sn=12  qrot/sn=   13632.6772 T*S(rot)=     6.53 kcal/mol T*S(tot)=    21.34 kcal/mol

-------------------
GIBBS FREE ENTHALPY
-------------------

The Gibbs free enthalpy is G = H - T*S

Total enthalpy                    ...   -325.83536481 Eh
Total entropy correction          ...     -0.03531023 Eh    -22.16 kcal/mol
-----------------------------------------------------------------------
Final Gibbs free enthalpy         ...   -325.87067504 Eh

For completeness - the Gibbs free enthalpy minus the electronic energy
G-E(el)                           ...      0.12777748 Eh     80.18 kcal/mol

                             ****ORCA TERMINATED NORMALLY****
TOTAL RUN TIME: 0 days 0 hours 40 minutes 11 seconds 970 msec
