                         Program Version 3.0.3 - RELEASE   -
|  1> ! NORI PBE0 def2-TZVP UseSym TightOPT Freq TightSCF Grid3 FinalGrid5 XYZFile
|  2> % pal
|  3>     nprocs 8
|  4> end
|  5> %method
|  6>     SymThresh 5.0e-2
|  7> end
|  8> % geom
|  9>     MaxIter 10
| 10> end
| 11> % maxcore 2000
| 12> % output
| 13>     printlevel mini
| 14>     print[ P_Basis ] 0
| 15>     print[ P_SCFInfo ] 1
| 16>     print[ P_SCFIterInfo ] 1
| 17>     print[ P_OrbEn ] 0
| 18>     print[ P_Cartesian ] 0
| 19> end
| 20> % elprop
| 21>     Dipole false
| 22> end
| 23> *xyz 1 1
| 24>  C       -1.7542313457     0.6790454313     0.3939028231
| 25>  O       -1.7001716556    -0.5991370551    -0.2977315533
| 26>  C       -0.3027299417    -0.6785208591     0.0423233047
| 27>  C        0.9498388991    -1.0573064299    -0.7079448222
| 28>  C        1.9268132680    -0.0554055454    -0.0102981862
| 29>  N        1.0646995137     1.0715834135     0.6544626112
| 30>  C       -0.2600184121     0.7992989671     0.0352174620
| 31>  H       -1.9698760965     0.5508832913     1.4586782200
| 32>  H       -2.4418017082     1.3775780825    -0.0781776395
| 33>  H       -0.2335758972    -1.0755454820     1.0700851054
| 34>  H        1.2985246724    -2.0793770031    -0.5652118992
| 35>  H        0.8712003955    -0.8495784955    -1.7755909277
| 36>  H        2.6074144188     0.4317101484    -0.7049341087
| 37>  H        2.5044788496    -0.5153561736     0.7888061612
| 38>  H        1.0489727692     0.9499031628     1.6672435748
| 39>  H        1.4480508160     1.9963054782     0.4604574503
| 40>  H       -0.1869185452     1.1618790686    -0.9905775760
| 41> *
| 42>
| 43>                          ****END OF INPUT****
 Total Charge           Charge          ....    1
 Multiplicity           Mult            ....    1
 Number of Electrons    NEL             ....   54
FINAL SINGLE POINT ENERGY      -325.937396861899

CARTESIAN COORDINATES (ANGSTROEM)
---------------------------------
  C      1.353610    0.133520    1.324304
  O     -0.000068   -0.000260    1.838685
  C     -0.419973   -0.393278    0.518068
  C     -1.584302   -0.037170   -0.372489
  C     -0.834270   -0.110855   -1.742590
  N      0.702226    0.000033   -1.455276
  C      0.680508    0.427581   -0.030616
  H      1.899517   -0.813253    1.378749
  H      1.900254    0.944864    1.800075
  H     -0.207254   -1.471098    0.409439
  H     -2.419008   -0.736886   -0.365802
  H     -1.956915    0.969682   -0.183002
  H     -1.092551    0.703706   -2.415396
  H     -0.985713   -1.057487   -2.257037
  H      1.148569   -0.908757   -1.578200
  H      1.153528    0.654576   -2.093609
  H      0.387394    1.477992   -0.041475

FINAL SINGLE POINT ENERGY      -325.937397405881
                    ***********************HURRAY********************
 Multiplicity           Mult            ....    1
 Number of Electrons    NEL             ....   54
 Basis Dimension        Dim             ....  277
FINAL SINGLE POINT ENERGY      -325.937397566182

VIBRATIONAL FREQUENCIES
-----------------------

   0:         0.00 cm**-1
   1:         0.00 cm**-1
   2:         0.00 cm**-1
   3:         0.00 cm**-1
   4:         0.00 cm**-1
   5:         0.00 cm**-1
   6:       149.86 cm**-1
   7:       270.89 cm**-1
   8:       308.84 cm**-1
   9:       400.19 cm**-1
  10:       515.26 cm**-1
  11:       608.42 cm**-1
  12:       689.43 cm**-1
  13:       785.49 cm**-1
  14:       791.93 cm**-1
  15:       824.54 cm**-1
  16:       907.05 cm**-1
  17:       930.11 cm**-1
  18:       941.80 cm**-1
  19:       963.71 cm**-1
  20:      1034.11 cm**-1
  21:      1066.23 cm**-1
  22:      1085.23 cm**-1
  23:      1116.61 cm**-1
  24:      1159.22 cm**-1
  25:      1180.36 cm**-1
  26:      1198.48 cm**-1
  27:      1241.02 cm**-1
  28:      1258.32 cm**-1
  29:      1278.50 cm**-1
  30:      1291.06 cm**-1
  31:      1302.87 cm**-1
  32:      1320.32 cm**-1
  33:      1354.45 cm**-1
  34:      1375.42 cm**-1
  35:      1428.07 cm**-1
  36:      1453.20 cm**-1
  37:      1485.64 cm**-1
  38:      1504.87 cm**-1
  39:      1506.34 cm**-1
  40:      1649.90 cm**-1
  41:      2965.96 cm**-1
  42:      3069.18 cm**-1
  43:      3107.03 cm**-1
  44:      3122.10 cm**-1
  45:      3129.03 cm**-1
  46:      3166.34 cm**-1
  47:      3176.74 cm**-1
  48:      3194.83 cm**-1
  49:      3465.05 cm**-1
  50:      3527.00 cm**-1

IR SPECTRUM
-----------

 Mode    freq (cm**-1)   T**2         TX         TY         TZ
-------------------------------------------------------------------
   6:       149.86    1.363733  ( -0.094966   1.106940  -0.359720)
   7:       270.89    1.627844  ( -0.021021   1.268715   0.133280)
   8:       308.84    0.174536  ( -0.095237  -0.384735  -0.132080)
   9:       400.19    3.084179  (  0.003485  -0.242124   1.739409)
  10:       515.26    3.162479  (  0.769808  -0.892993   1.331330)
  11:       608.42    2.766637  ( -0.131855   1.140451  -1.203588)
  12:       689.43   15.355663  (  0.916438   1.196989  -3.617046)
  13:       785.49   11.683710  (  2.927773  -0.455853   1.704129)
  14:       791.93   13.600182  (  2.470194   2.680372   0.560297)
  15:       824.54   12.768453  ( -2.077601  -0.407566   2.878527)
  16:       907.05    8.848176  ( -2.698456   0.340968  -1.204264)
  17:       930.11    6.245667  ( -1.068429  -1.050128  -2.000339)
  18:       941.80   38.232822  (  5.951887   0.729869   1.508362)
  19:       963.71   10.955397  ( -1.946856  -0.844582   2.540045)
  20:      1034.11    2.695721  ( -0.413312  -0.029522   1.588717)
  21:      1066.23   17.823341  (  1.623938   2.581647   2.919121)
  22:      1085.23    8.149704  ( -2.278847   0.373581  -1.678391)
  23:      1116.61   10.982486  ( -3.207235  -0.573124  -0.606350)
  24:      1159.22    8.216462  ( -0.421514  -2.388735  -1.527329)
  25:      1180.36    0.785225  (  0.725272   0.485890   0.152041)
  26:      1198.48    8.471303  ( -0.248629   0.433095   2.867388)
  27:      1241.02    0.847287  ( -0.363845   0.537397   0.652770)
  28:      1258.32    8.303081  (  2.104039   0.613746   1.870673)
  29:      1278.50   25.051657  (  4.148769   1.024036   2.605902)
  30:      1291.06   17.980009  ( -1.586059   0.551695  -3.893592)
  31:      1302.87    2.543550  (  0.205633  -0.617183   1.456142)
  32:      1320.32   30.398712  (  3.159970   2.356747   3.854743)
  33:      1354.45    0.410990  ( -0.052513  -0.208344   0.604007)
  34:      1375.42    7.701537  (  1.536329  -0.046433   2.310644)
  35:      1428.07    2.975707  (  1.474995   0.044542   0.893371)
  36:      1453.20    9.352442  ( -0.756898   0.923966  -2.815286)
  37:      1485.64   10.129887  (  0.417637  -0.892481  -3.026375)
  38:      1504.87    7.292685  ( -2.384281   0.905014  -0.888166)
  39:      1506.34    8.487225  (  2.042596  -1.560079   1.371561)
  40:      1649.90   65.536091  (  5.581142  -2.381013  -5.358892)
  41:      2965.96   22.776761  (  0.588786  -4.345857  -1.882450)
  42:      3069.18   15.847855  (  3.496404  -1.875893   0.322548)
  43:      3107.03    0.760160  ( -0.609257   0.622589  -0.036723)
  44:      3122.10    1.162742  (  0.661530  -0.661966   0.535651)
  45:      3129.03    0.440517  ( -0.208128   0.139446   0.614618)
  46:      3166.34    0.574925  ( -0.201157  -0.545807  -0.486369)
  47:      3176.74    2.248535  (  0.709953   1.205562   0.539558)
  48:      3194.83    0.171717  ( -0.102645   0.309199  -0.256080)
  49:      3465.05   64.341637  (  6.198121  -1.042830  -4.983717)
  50:      3527.00   76.427527  (  0.195165   8.308407  -2.712899)

--------------------------
THERMOCHEMISTRY AT 298.15K
--------------------------

Temperature         ... 298.15 K
Pressure            ... 1.00 atm
Total Mass          ... 100.14 AMU

Throughout the following assumptions are being made:
  (1) The electronic state is orbitally nondegenerate
  (2) There are no thermally accessible electronically excited states
  (3) Hindered rotations indicated by low frequency modes) are not
      treated as such but are treated as vibrations and this may
      case some error
  (4) All equations used are the standard statistical mechanics
      equations for an ideal gas
  (5) All vibrations are strinctly harmonic

------------
INNER ENERGY
------------

The inner energy is: U= E(el) + E(ZPE) + E(vib) + E(rot) + E(trans)
    E(el)   - is the total energy from the electronic structure calculation
              = E(kin-el) + E(nuc-el) + E(el-el) + E(nuc-nuc)
    E(ZPE)  - the the zero temperature vibrational energy from the frequency calculation
    E(vib)  - the the finite temperature correction to E(ZPE) due to population
              of excietd vibrational states
    E(rot)  - is the rotational thermal energy
    E(trans)- is the translational thermal energy

Summary of contributions to the inner energy U:
Electronic energy                ...   -325.93739757 Eh
Zero point energy                ...      0.15560116 Eh      97.64 kcal/mol
Thermal vibrational correction   ...      0.00301479 Eh       1.89 kcal/mol
Thermal rotational correction    ...      0.00141627 Eh       0.89 kcal/mol
Thermal translational correction ...      0.00141627 Eh       0.89 kcal/mol
-----------------------------------------------------------------------
Total thermal energy                   -325.77594907 Eh

Summary of corrections to the electronic energy:
(perhaps to be used in another calculation)
Total thermal correction                  0.00584733 Eh       3.67 kcal/mol
Non-thermal (ZPE) correction              0.15560116 Eh      97.64 kcal/mol
-----------------------------------------------------------------------
Total correction                          0.16144849 Eh     101.31 kcal/mol

--------
ENTHALPY
--------

The enthalpy is H = U + kB*T
                kB is Boltzmann's constant
Total free energy                 ...   -325.77594907 Eh
Thermal Enthalpy correction       ...      0.00094421 Eh       0.59 kcal/mol
-----------------------------------------------------------------------
Total Enthalpy                    ...   -325.77500486 Eh

-------
ENTROPY
-------

The entropy contributions are T*S = T*(S(el)+S(vib)+S(rot)+S(trans)
     S(el)   - electronic entropy
     S(vib)  - vibrational entropy
     S(rot)  - rotational entropy
     S(trans)- translational entropy
The entropies will be listed as mutliplied by the temperature to get
units of energy

Electronic entropy                ...      0.00000000 Eh      0.00 kcal/mol
Vibrational entropy               ...      0.00464805 Eh      2.92 kcal/mol
Rotational entropy                ...      0.01176717 Eh      7.38 kcal/mol
Translational entropy             ...      0.01887324 Eh     11.84 kcal/mol
-----------------------------------------------------------------------
Final entropy term                ...      0.03528845 Eh     22.14 kcal/mol

CAUTION: The rotational entropy is not quite correctly treated here
         because it includes a symmetry number that is not yet correctly
         implemented in ORCA!
For a nonlinear molecule the correct rotational entropy is:
    S(rot) = R*(ln(qrot/sn)+1.5)
    R    = 8.31441 J/mol/K = 1.987191683e-3 kcal/mol/K
    qrot = 173068.1231883
    sn is the rotational symmetry number. We have assumed 3 here
       if it is different for your molecule then you should correct
       the printed rotational entropy by manually evaluating the equation
       as given above

For convenience we print out the resulting values for sn=1 - 12:
 sn= 1  qrot/sn=  173068.1232 T*S(rot)=     8.03 kcal/mol T*S(tot)=    22.79 kcal/mol
 sn= 2  qrot/sn=   86534.0616 T*S(rot)=     7.62 kcal/mol T*S(tot)=    22.38 kcal/mol
 sn= 3  qrot/sn=   57689.3744 T*S(rot)=     7.38 kcal/mol T*S(tot)=    22.14 kcal/mol
 sn= 4  qrot/sn=   43267.0308 T*S(rot)=     7.21 kcal/mol T*S(tot)=    21.97 kcal/mol
 sn= 5  qrot/sn=   34613.6246 T*S(rot)=     7.08 kcal/mol T*S(tot)=    21.84 kcal/mol
 sn= 6  qrot/sn=   28844.6872 T*S(rot)=     6.97 kcal/mol T*S(tot)=    21.73 kcal/mol
 sn= 7  qrot/sn=   24724.0176 T*S(rot)=     6.88 kcal/mol T*S(tot)=    21.64 kcal/mol
 sn= 8  qrot/sn=   21633.5154 T*S(rot)=     6.80 kcal/mol T*S(tot)=    21.56 kcal/mol
 sn= 9  qrot/sn=   19229.7915 T*S(rot)=     6.73 kcal/mol T*S(tot)=    21.49 kcal/mol
 sn=10  qrot/sn=   17306.8123 T*S(rot)=     6.67 kcal/mol T*S(tot)=    21.43 kcal/mol
 sn=11  qrot/sn=   15733.4657 T*S(rot)=     6.61 kcal/mol T*S(tot)=    21.37 kcal/mol
 sn=12  qrot/sn=   14422.3436 T*S(rot)=     6.56 kcal/mol T*S(tot)=    21.32 kcal/mol

-------------------
GIBBS FREE ENTHALPY
-------------------

The Gibbs free enthalpy is G = H - T*S

Total enthalpy                    ...   -325.77500486 Eh
Total entropy correction          ...     -0.03528845 Eh    -22.14 kcal/mol
-----------------------------------------------------------------------
Final Gibbs free enthalpy         ...   -325.81029332 Eh

For completeness - the Gibbs free enthalpy minus the electronic energy
G-E(el)                           ...      0.12710425 Eh     79.76 kcal/mol

                             ****ORCA TERMINATED NORMALLY****
TOTAL RUN TIME: 0 days 0 hours 39 minutes 30 seconds 383 msec
