                         Program Version 3.0.3 - RELEASE   -
|  1> ! NORI PBE0 def2-TZVP UseSym TightOPT Freq TightSCF Grid3 FinalGrid5 XYZFile
|  2> % pal
|  3>     nprocs 8
|  4> end
|  5> %method
|  6>     SymThresh 5.0e-2
|  7> end
|  8> % geom
|  9>     MaxIter 10
| 10> end
| 11> % maxcore 2000
| 12> % output
| 13>     printlevel mini
| 14>     print[ P_Basis ] 0
| 15>     print[ P_SCFInfo ] 1
| 16>     print[ P_SCFIterInfo ] 1
| 17>     print[ P_OrbEn ] 0
| 18>     print[ P_Cartesian ] 0
| 19> end
| 20> % elprop
| 21>     Dipole false
| 22> end
| 23> *xyz 1 1
| 24>  C        0.5426643263    -1.1639800113    -1.1243676801
| 25>  O        0.8313715587     0.1618676422    -0.7230549153
| 26>  C        0.3121795047    -0.7093748642     0.2496839621
| 27>  C        1.2850283709    -1.0194361347     1.3390095030
| 28>  C        1.3302551090    -0.1558524282     2.6108160919
| 29>  C        1.3587906000    -1.4467500182     3.4328589850
| 30>  N        0.9134558674    -2.2269113911     2.2083321218
| 31>  H        1.4094597333    -1.7788353511    -1.3551881745
| 32>  H       -0.3113611594    -1.2743752504    -1.7857827332
| 33>  H       -0.7062155755    -0.4862088627     0.5727672824
| 34>  H        2.2761347000    -1.2049003557     0.9240317534
| 35>  H        0.4135878935     0.4177544443     2.7543477222
| 36>  H        2.1866394603     0.5053871890     2.7107376988
| 37>  H        2.3567346043    -1.7782897507     3.7113795014
| 38>  H        0.6758594034    -1.5598343328     4.2714056419
| 39>  H        1.3921319249    -3.1046834104     2.0118511410
| 40>  H       -0.0911063218    -2.4050671140     2.2037820982
| 41> *
| 42>
| 43>                          ****END OF INPUT****
 Total Charge           Charge          ....    1
 Multiplicity           Mult            ....    1
 Number of Electrons    NEL             ....   54
FINAL SINGLE POINT ENERGY      -325.956230030849

CARTESIAN COORDINATES (ANGSTROEM)
---------------------------------
  C      1.376617    0.057647    1.845799
  O      0.000439   -0.000829    2.169447
  C      0.347274    0.526436    0.913822
  C     -0.107663   -0.324143   -0.225834
  C     -1.481779   -0.085850   -0.874200
  C     -0.801700   -0.172174   -2.242702
  N      0.550455   -0.000211   -1.572690
  H      1.857537   -0.904330    1.685142
  H      1.953387    0.794166    2.396967
  H      0.179758    1.599331    0.801264
  H      0.077649   -1.377749   -0.013544
  H     -1.874202    0.908549   -0.658256
  H     -2.246855   -0.827316   -0.661570
  H     -0.839381   -1.158807   -2.700295
  H     -1.000531    0.596075   -2.986031
  H      1.306442   -0.611452   -1.878225
  H      0.885164    0.962894   -1.611438

FINAL SINGLE POINT ENERGY      -325.956230560861
                    ***********************HURRAY********************
 Multiplicity           Mult            ....    1
 Number of Electrons    NEL             ....   54
 Basis Dimension        Dim             ....  277
FINAL SINGLE POINT ENERGY      -325.956230736360

VIBRATIONAL FREQUENCIES
-----------------------

   0:         0.00 cm**-1
   1:         0.00 cm**-1
   2:         0.00 cm**-1
   3:         0.00 cm**-1
   4:         0.00 cm**-1
   5:         0.00 cm**-1
   6:        66.45 cm**-1
   7:       107.76 cm**-1
   8:       190.11 cm**-1
   9:       291.14 cm**-1
  10:       379.41 cm**-1
  11:       472.53 cm**-1
  12:       666.54 cm**-1
  13:       771.55 cm**-1
  14:       824.18 cm**-1
  15:       871.39 cm**-1
  16:       883.96 cm**-1
  17:       925.05 cm**-1
  18:       939.18 cm**-1
  19:       959.32 cm**-1
  20:       991.69 cm**-1
  21:      1011.61 cm**-1
  22:      1068.49 cm**-1
  23:      1095.25 cm**-1
  24:      1125.98 cm**-1
  25:      1168.44 cm**-1
  26:      1178.00 cm**-1
  27:      1209.56 cm**-1
  28:      1235.23 cm**-1
  29:      1262.75 cm**-1
  30:      1275.51 cm**-1
  31:      1294.99 cm**-1
  32:      1298.79 cm**-1
  33:      1313.50 cm**-1
  34:      1343.81 cm**-1
  35:      1356.73 cm**-1
  36:      1465.91 cm**-1
  37:      1487.94 cm**-1
  38:      1503.11 cm**-1
  39:      1528.93 cm**-1
  40:      1642.59 cm**-1
  41:      3103.81 cm**-1
  42:      3111.44 cm**-1
  43:      3116.74 cm**-1
  44:      3126.59 cm**-1
  45:      3132.60 cm**-1
  46:      3186.39 cm**-1
  47:      3199.02 cm**-1
  48:      3216.29 cm**-1
  49:      3460.03 cm**-1
  50:      3531.93 cm**-1

IR SPECTRUM
-----------

 Mode    freq (cm**-1)   T**2         TX         TY         TZ
-------------------------------------------------------------------
   6:        66.45    0.690750  (  0.640143  -0.518681  -0.109261)
   7:       107.76    1.922879  (  0.421628  -1.320947  -0.014376)
   8:       190.11    0.594340  ( -0.224347  -0.735946  -0.048906)
   9:       291.14    1.121329  (  0.820199   0.043486   0.668365)
  10:       379.41    4.203155  (  0.551802   0.483815   1.914313)
  11:       472.53    9.495958  (  0.098922  -0.394446  -3.054601)
  12:       666.54    9.019899  (  0.744733  -2.455103  -1.561327)
  13:       771.55    7.481625  ( -0.249302  -0.471982   2.682668)
  14:       824.18    5.139921  (  0.032469  -1.228800   1.904972)
  15:       871.39   11.969654  (  0.109909   1.816250   2.942586)
  16:       883.96   22.489599  (  4.587688   0.650729  -1.009588)
  17:       925.05    1.848095  (  1.019045  -0.736542   0.516865)
  18:       939.18    6.228986  (  2.433037  -0.542406  -0.122939)
  19:       959.32   46.633173  (  2.432236   2.139641  -6.011600)
  20:       991.69    0.822129  (  0.715081  -0.223542  -0.510702)
  21:      1011.61    1.980793  (  0.698228   0.512631   1.109270)
  22:      1068.49    0.903199  (  0.731892   0.571703  -0.201714)
  23:      1095.25    0.744140  (  0.693195  -0.190803  -0.476671)
  24:      1125.98    1.685547  ( -1.025942  -0.760575  -0.233486)
  25:      1168.44    1.369381  (  0.173205  -1.154158  -0.085444)
  26:      1178.00    1.418042  ( -0.331678  -1.041609   0.472317)
  27:      1209.56    0.615621  ( -0.421108  -0.100176  -0.654412)
  28:      1235.23    0.167695  (  0.149057  -0.045887  -0.378645)
  29:      1262.75   27.317172  (  0.552017   0.693414   5.150886)
  30:      1275.51   38.338405  (  2.481107   0.079365   5.672408)
  31:      1294.99    6.757357  (  0.255586   1.367767  -2.195733)
  32:      1298.79   11.160752  ( -3.296919   0.279011   0.461770)
  33:      1313.50   21.738331  ( -1.449728   1.141817  -4.281690)
  34:      1343.81    1.491460  (  0.363498   0.868615  -0.777713)
  35:      1356.73   31.601857  ( -0.876199   0.726156  -5.505164)
  36:      1465.91    1.873728  (  1.337384   0.071943  -0.282763)
  37:      1487.94   14.327755  ( -2.687715   1.418901   2.256250)
  38:      1503.11    9.147843  (  2.439968   0.179334   1.778269)
  39:      1528.93    2.056036  (  0.528015   1.219129  -0.539407)
  40:      1642.59   51.750303  ( -5.990270  -2.764060   2.868264)
  41:      3103.81    8.384684  (  0.123515  -2.373865   1.653540)
  42:      3111.44    0.438342  (  0.049029   0.597761   0.280393)
  43:      3116.74    6.834487  (  2.346299  -0.887467  -0.736049)
  44:      3126.59    0.957044  ( -0.015698  -0.022793   0.977895)
  45:      3132.60    0.794066  ( -0.409092   0.791255  -0.025024)
  46:      3186.39    0.207266  (  0.178174   0.146298  -0.392577)
  47:      3199.02    0.472913  ( -0.322483  -0.512566  -0.325873)
  48:      3216.29    2.547148  ( -0.009409   1.532932   0.444049)
  49:      3460.03   55.116478  (  6.446918   2.365729  -2.820825)
  50:      3531.93   79.513302  ( -2.784356   8.207910   2.095440)

--------------------------
THERMOCHEMISTRY AT 298.15K
--------------------------

Temperature         ... 298.15 K
Pressure            ... 1.00 atm
Total Mass          ... 100.14 AMU

Throughout the following assumptions are being made:
  (1) The electronic state is orbitally nondegenerate
  (2) There are no thermally accessible electronically excited states
  (3) Hindered rotations indicated by low frequency modes) are not
      treated as such but are treated as vibrations and this may
      case some error
  (4) All equations used are the standard statistical mechanics
      equations for an ideal gas
  (5) All vibrations are strinctly harmonic

------------
INNER ENERGY
------------

The inner energy is: U= E(el) + E(ZPE) + E(vib) + E(rot) + E(trans)
    E(el)   - is the total energy from the electronic structure calculation
              = E(kin-el) + E(nuc-el) + E(el-el) + E(nuc-nuc)
    E(ZPE)  - the the zero temperature vibrational energy from the frequency calculation
    E(vib)  - the the finite temperature correction to E(ZPE) due to population
              of excietd vibrational states
    E(rot)  - is the rotational thermal energy
    E(trans)- is the translational thermal energy

Summary of contributions to the inner energy U:
Electronic energy                ...   -325.95623074 Eh
Zero point energy                ...      0.15353078 Eh      96.34 kcal/mol
Thermal vibrational correction   ...      0.00396271 Eh       2.49 kcal/mol
Thermal rotational correction    ...      0.00141627 Eh       0.89 kcal/mol
Thermal translational correction ...      0.00141627 Eh       0.89 kcal/mol
-----------------------------------------------------------------------
Total thermal energy                   -325.79590471 Eh

Summary of corrections to the electronic energy:
(perhaps to be used in another calculation)
Total thermal correction                  0.00679525 Eh       4.26 kcal/mol
Non-thermal (ZPE) correction              0.15353078 Eh      96.34 kcal/mol
-----------------------------------------------------------------------
Total correction                          0.16032603 Eh     100.61 kcal/mol

--------
ENTHALPY
--------

The enthalpy is H = U + kB*T
                kB is Boltzmann's constant
Total free energy                 ...   -325.79590471 Eh
Thermal Enthalpy correction       ...      0.00094421 Eh       0.59 kcal/mol
-----------------------------------------------------------------------
Total Enthalpy                    ...   -325.79496050 Eh

-------
ENTROPY
-------

The entropy contributions are T*S = T*(S(el)+S(vib)+S(rot)+S(trans)
     S(el)   - electronic entropy
     S(vib)  - vibrational entropy
     S(rot)  - rotational entropy
     S(trans)- translational entropy
The entropies will be listed as mutliplied by the temperature to get
units of energy

Electronic entropy                ...      0.00000000 Eh      0.00 kcal/mol
Vibrational entropy               ...      0.00724449 Eh      4.55 kcal/mol
Rotational entropy                ...      0.01195594 Eh      7.50 kcal/mol
Translational entropy             ...      0.01887324 Eh     11.84 kcal/mol
-----------------------------------------------------------------------
Final entropy term                ...      0.03807367 Eh     23.89 kcal/mol

CAUTION: The rotational entropy is not quite correctly treated here
         because it includes a symmetry number that is not yet correctly
         implemented in ORCA!
For a nonlinear molecule the correct rotational entropy is:
    S(rot) = R*(ln(qrot/sn)+1.5)
    R    = 8.31441 J/mol/K = 1.987191683e-3 kcal/mol/K
    qrot = 211373.2392879
    sn is the rotational symmetry number. We have assumed 3 here
       if it is different for your molecule then you should correct
       the printed rotational entropy by manually evaluating the equation
       as given above

For convenience we print out the resulting values for sn=1 - 12:
 sn= 1  qrot/sn=  211373.2393 T*S(rot)=     8.15 kcal/mol T*S(tot)=    24.54 kcal/mol
 sn= 2  qrot/sn=  105686.6196 T*S(rot)=     7.74 kcal/mol T*S(tot)=    24.13 kcal/mol
 sn= 3  qrot/sn=   70457.7464 T*S(rot)=     7.50 kcal/mol T*S(tot)=    23.89 kcal/mol
 sn= 4  qrot/sn=   52843.3098 T*S(rot)=     7.33 kcal/mol T*S(tot)=    23.72 kcal/mol
 sn= 5  qrot/sn=   42274.6479 T*S(rot)=     7.20 kcal/mol T*S(tot)=    23.59 kcal/mol
 sn= 6  qrot/sn=   35228.8732 T*S(rot)=     7.09 kcal/mol T*S(tot)=    23.48 kcal/mol
 sn= 7  qrot/sn=   30196.1770 T*S(rot)=     7.00 kcal/mol T*S(tot)=    23.39 kcal/mol
 sn= 8  qrot/sn=   26421.6549 T*S(rot)=     6.92 kcal/mol T*S(tot)=    23.31 kcal/mol
 sn= 9  qrot/sn=   23485.9155 T*S(rot)=     6.85 kcal/mol T*S(tot)=    23.24 kcal/mol
 sn=10  qrot/sn=   21137.3239 T*S(rot)=     6.79 kcal/mol T*S(tot)=    23.18 kcal/mol
 sn=11  qrot/sn=   19215.7490 T*S(rot)=     6.73 kcal/mol T*S(tot)=    23.12 kcal/mol
 sn=12  qrot/sn=   17614.4366 T*S(rot)=     6.68 kcal/mol T*S(tot)=    23.07 kcal/mol

-------------------
GIBBS FREE ENTHALPY
-------------------

The Gibbs free enthalpy is G = H - T*S

Total enthalpy                    ...   -325.79496050 Eh
Total entropy correction          ...     -0.03807367 Eh    -23.89 kcal/mol
-----------------------------------------------------------------------
Final Gibbs free enthalpy         ...   -325.83303417 Eh

For completeness - the Gibbs free enthalpy minus the electronic energy
G-E(el)                           ...      0.12319657 Eh     77.31 kcal/mol

                             ****ORCA TERMINATED NORMALLY****
TOTAL RUN TIME: 0 days 0 hours 37 minutes 59 seconds 954 msec
