                         Program Version 3.0.3 - RELEASE   -
|  1> ! NORI PBE0 def2-TZVP UseSym TightOPT Freq TightSCF Grid3 FinalGrid5 XYZFile
|  2> % pal
|  3>     nprocs 8
|  4> end
|  5> %method
|  6>     SymThresh 5.0e-2
|  7> end
|  8> % geom
|  9>     MaxIter 10
| 10> end
| 11> % maxcore 2000
| 12> % output
| 13>     printlevel mini
| 14>     print[ P_Basis ] 0
| 15>     print[ P_SCFInfo ] 1
| 16>     print[ P_SCFIterInfo ] 1
| 17>     print[ P_OrbEn ] 0
| 18>     print[ P_Cartesian ] 0
| 19> end
| 20> % elprop
| 21>     Dipole false
| 22> end
| 23> *xyz 1 1
| 24>  C       -0.2423851861    -1.1494142229    -0.3103733358
| 25>  N        1.0919310443    -1.1639332112    -0.9485758192
| 26>  C        0.7639425301    -0.1594322838     0.0997422655
| 27>  C        1.5808881246    -0.3666911260     1.3499538145
| 28>  C        0.8625585906    -0.3443031234     2.7036953804
| 29>  C        1.3804383132    -1.7809528892     2.8379817995
| 30>  O        1.9003375301    -1.7511998002     1.4764787165
| 31>  H       -0.4156869916    -2.0144155265     0.3169565818
| 32>  H       -1.0482765197    -0.8498212666    -0.9670618628
| 33>  H        1.1918220391    -0.8836045847    -1.9172749028
| 34>  H        1.7154990931    -1.9028443375    -0.6182962018
| 35>  H        0.6682867350     0.8506113638    -0.2830307246
| 36>  H        2.4828055557     0.2529350391     1.2961187534
| 37>  H       -0.2216778740    -0.2554363083     2.6405347433
| 38>  H        1.2431897835     0.3763034725     3.4232666614
| 39>  H        2.1935233389    -1.9182856941     3.5515882649
| 40>  H        0.6378138931    -2.5695055011     2.9655158656
| 41> *
| 42>
| 43>                          ****END OF INPUT****
 Total Charge           Charge          ....    1
 Multiplicity           Mult            ....    1
 Number of Electrons    NEL             ....   54
FINAL SINGLE POINT ENERGY      -325.961132509105

CARTESIAN COORDINATES (ANGSTROEM)
---------------------------------
  C      0.951163   -0.943428   -1.294503
  N      1.866677   -0.000165   -0.616565
  C      0.518728    0.442948   -1.066634
  C     -0.375618    0.787805    0.097124
  C     -1.805052    0.235203    0.108426
  C     -1.373183   -0.453847    1.407586
  O     -0.000179    0.000537    1.225824
  H      0.589815   -1.722571   -0.635753
  H      1.272805   -1.245916   -2.282142
  H      2.700742    0.324185   -1.091989
  H      1.933931   -0.123004    0.395274
  H      0.545961    1.128062   -1.906811
  H     -0.293961    1.860061    0.306914
  H     -2.035720   -0.443755   -0.711708
  H     -2.592902    0.979067    0.194582
  H     -1.794295   -0.032363    2.320839
  H     -1.433548   -1.542254    1.439311

FINAL SINGLE POINT ENERGY      -325.961133143970
                    ***********************HURRAY********************
 Multiplicity           Mult            ....    1
 Number of Electrons    NEL             ....   54
 Basis Dimension        Dim             ....  277
FINAL SINGLE POINT ENERGY      -325.961133409928

VIBRATIONAL FREQUENCIES
-----------------------

   0:         0.00 cm**-1
   1:         0.00 cm**-1
   2:         0.00 cm**-1
   3:         0.00 cm**-1
   4:         0.00 cm**-1
   5:         0.00 cm**-1
   6:        93.56 cm**-1
   7:       106.44 cm**-1
   8:       218.48 cm**-1
   9:       263.75 cm**-1
  10:       439.27 cm**-1
  11:       581.79 cm**-1
  12:       702.08 cm**-1
  13:       803.71 cm**-1
  14:       828.62 cm**-1
  15:       849.73 cm**-1
  16:       889.42 cm**-1
  17:       905.53 cm**-1
  18:       931.38 cm**-1
  19:       965.57 cm**-1
  20:      1003.78 cm**-1
  21:      1037.71 cm**-1
  22:      1059.85 cm**-1
  23:      1074.91 cm**-1
  24:      1111.60 cm**-1
  25:      1155.47 cm**-1
  26:      1168.27 cm**-1
  27:      1175.17 cm**-1
  28:      1185.38 cm**-1
  29:      1220.34 cm**-1
  30:      1253.87 cm**-1
  31:      1267.01 cm**-1
  32:      1275.06 cm**-1
  33:      1291.62 cm**-1
  34:      1359.28 cm**-1
  35:      1389.38 cm**-1
  36:      1417.91 cm**-1
  37:      1479.52 cm**-1
  38:      1488.39 cm**-1
  39:      1527.15 cm**-1
  40:      1588.15 cm**-1
  41:      3060.17 cm**-1
  42:      3090.35 cm**-1
  43:      3115.09 cm**-1
  44:      3148.03 cm**-1
  45:      3176.63 cm**-1
  46:      3183.14 cm**-1
  47:      3203.83 cm**-1
  48:      3280.74 cm**-1
  49:      3441.74 cm**-1
  50:      3600.40 cm**-1

IR SPECTRUM
-----------

 Mode    freq (cm**-1)   T**2         TX         TY         TZ
-------------------------------------------------------------------
   6:        93.56    1.923449  ( -0.317617  -1.233800  -0.548002)
   7:       106.44    6.874618  ( -1.249089  -2.098775   0.953697)
   8:       218.48    8.515841  ( -1.309986   0.117314   2.604998)
   9:       263.75   16.772712  (  2.118552  -1.611713  -3.112367)
  10:       439.27    6.130329  (  2.250390  -1.001479   0.251224)
  11:       581.79    2.536309  ( -0.460644   0.024461  -1.524309)
  12:       702.08    2.798008  ( -1.079933   0.443196  -1.198053)
  13:       803.71    1.546602  (  0.772328  -0.455913  -0.861543)
  14:       828.62   11.811702  ( -3.129387  -0.994942  -1.014264)
  15:       849.73    3.516643  ( -0.875218  -1.538106  -0.620376)
  16:       889.42   19.844724  (  4.400454   0.347638  -0.599899)
  17:       905.53   11.013516  ( -2.670257   1.396268   1.390569)
  18:       931.38   12.742903  (  1.696805  -0.462334   3.106446)
  19:       965.57   25.166919  (  4.826497  -0.687796   1.182700)
  20:      1003.78   49.529290  (  6.626641   1.216838  -2.033772)
  21:      1037.71   96.997678  (  3.537604   7.264041  -5.631762)
  22:      1059.85   37.232154  ( -3.384488   4.299306   2.700623)
  23:      1074.91   36.358010  ( -3.879221   3.278879   3.249401)
  24:      1111.60    2.876583  (  0.281274   1.664521  -0.163824)
  25:      1155.47   18.731559  (  1.944104  -3.721411   1.050294)
  26:      1168.27    0.838643  ( -0.784494  -0.316325  -0.350928)
  27:      1175.17    3.932110  ( -1.055054   1.598743   0.512829)
  28:      1185.38    4.231935  ( -1.677900   1.109522   0.430750)
  29:      1220.34    1.073307  ( -0.148028   0.440942  -0.925724)
  30:      1253.87    0.644529  (  0.439820  -0.670032  -0.046311)
  31:      1267.01    4.289788  (  0.726524   1.929503   0.197406)
  32:      1275.06   14.940911  (  1.067625   0.910965  -3.601559)
  33:      1291.62    2.229453  ( -1.024758  -0.806756   0.726959)
  34:      1359.28    0.261921  ( -0.179059   0.118831  -0.464476)
  35:      1389.38    3.350001  ( -0.726400   0.132912   1.674717)
  36:      1417.91    3.983936  (  0.290412  -1.946902   0.330411)
  37:      1479.52   14.068059  ( -1.307113  -3.038517  -1.768312)
  38:      1488.39    7.368867  (  2.004318  -0.334530   1.799907)
  39:      1527.15    1.380968  (  0.249807  -0.987483   0.586039)
  40:      1588.15   92.748581  (  9.376991   0.505068   2.136708)
  41:      3060.17   17.050069  ( -0.737587  -3.901178   1.134391)
  42:      3090.35   23.187600  (  2.446167   2.518409  -3.295676)
  43:      3115.09    4.498267  ( -1.339067  -0.511239  -1.563266)
  44:      3148.03    5.646616  ( -0.420299   2.039294   1.145095)
  45:      3176.63    2.092089  ( -0.074691  -1.405643  -0.332683)
  46:      3183.14    2.535143  (  0.656121  -1.250021  -0.736272)
  47:      3203.83    1.285592  ( -0.286713   0.701984  -0.842975)
  48:      3280.74    7.008441  (  0.920076   0.385071  -2.452269)
  49:      3441.74  102.582489  (  4.285589   0.851485   9.137351)
  50:      3600.40  176.782627  ( -9.763351  -3.266694   8.413580)

--------------------------
THERMOCHEMISTRY AT 298.15K
--------------------------

Temperature         ... 298.15 K
Pressure            ... 1.00 atm
Total Mass          ... 100.14 AMU

Throughout the following assumptions are being made:
  (1) The electronic state is orbitally nondegenerate
  (2) There are no thermally accessible electronically excited states
  (3) Hindered rotations indicated by low frequency modes) are not
      treated as such but are treated as vibrations and this may
      case some error
  (4) All equations used are the standard statistical mechanics
      equations for an ideal gas
  (5) All vibrations are strinctly harmonic

------------
INNER ENERGY
------------

The inner energy is: U= E(el) + E(ZPE) + E(vib) + E(rot) + E(trans)
    E(el)   - is the total energy from the electronic structure calculation
              = E(kin-el) + E(nuc-el) + E(el-el) + E(nuc-nuc)
    E(ZPE)  - the the zero temperature vibrational energy from the frequency calculation
    E(vib)  - the the finite temperature correction to E(ZPE) due to population
              of excietd vibrational states
    E(rot)  - is the rotational thermal energy
    E(trans)- is the translational thermal energy

Summary of contributions to the inner energy U:
Electronic energy                ...   -325.96113341 Eh
Zero point energy                ...      0.15356965 Eh      96.37 kcal/mol
Thermal vibrational correction   ...      0.00376820 Eh       2.36 kcal/mol
Thermal rotational correction    ...      0.00141627 Eh       0.89 kcal/mol
Thermal translational correction ...      0.00141627 Eh       0.89 kcal/mol
-----------------------------------------------------------------------
Total thermal energy                   -325.80096302 Eh

Summary of corrections to the electronic energy:
(perhaps to be used in another calculation)
Total thermal correction                  0.00660074 Eh       4.14 kcal/mol
Non-thermal (ZPE) correction              0.15356965 Eh      96.37 kcal/mol
-----------------------------------------------------------------------
Total correction                          0.16017039 Eh     100.51 kcal/mol

--------
ENTHALPY
--------

The enthalpy is H = U + kB*T
                kB is Boltzmann's constant
Total free energy                 ...   -325.80096302 Eh
Thermal Enthalpy correction       ...      0.00094421 Eh       0.59 kcal/mol
-----------------------------------------------------------------------
Total Enthalpy                    ...   -325.80001881 Eh

-------
ENTROPY
-------

The entropy contributions are T*S = T*(S(el)+S(vib)+S(rot)+S(trans)
     S(el)   - electronic entropy
     S(vib)  - vibrational entropy
     S(rot)  - rotational entropy
     S(trans)- translational entropy
The entropies will be listed as mutliplied by the temperature to get
units of energy

Electronic entropy                ...      0.00000000 Eh      0.00 kcal/mol
Vibrational entropy               ...      0.00666895 Eh      4.18 kcal/mol
Rotational entropy                ...      0.01181593 Eh      7.41 kcal/mol
Translational entropy             ...      0.01887324 Eh     11.84 kcal/mol
-----------------------------------------------------------------------
Final entropy term                ...      0.03735812 Eh     23.44 kcal/mol

CAUTION: The rotational entropy is not quite correctly treated here
         because it includes a symmetry number that is not yet correctly
         implemented in ORCA!
For a nonlinear molecule the correct rotational entropy is:
    S(rot) = R*(ln(qrot/sn)+1.5)
    R    = 8.31441 J/mol/K = 1.987191683e-3 kcal/mol/K
    qrot = 182241.3710349
    sn is the rotational symmetry number. We have assumed 3 here
       if it is different for your molecule then you should correct
       the printed rotational entropy by manually evaluating the equation
       as given above

For convenience we print out the resulting values for sn=1 - 12:
 sn= 1  qrot/sn=  182241.3710 T*S(rot)=     8.07 kcal/mol T*S(tot)=    24.09 kcal/mol
 sn= 2  qrot/sn=   91120.6855 T*S(rot)=     7.65 kcal/mol T*S(tot)=    23.68 kcal/mol
 sn= 3  qrot/sn=   60747.1237 T*S(rot)=     7.41 kcal/mol T*S(tot)=    23.44 kcal/mol
 sn= 4  qrot/sn=   45560.3428 T*S(rot)=     7.24 kcal/mol T*S(tot)=    23.27 kcal/mol
 sn= 5  qrot/sn=   36448.2742 T*S(rot)=     7.11 kcal/mol T*S(tot)=    23.14 kcal/mol
 sn= 6  qrot/sn=   30373.5618 T*S(rot)=     7.00 kcal/mol T*S(tot)=    23.03 kcal/mol
 sn= 7  qrot/sn=   26034.4816 T*S(rot)=     6.91 kcal/mol T*S(tot)=    22.94 kcal/mol
 sn= 8  qrot/sn=   22780.1714 T*S(rot)=     6.83 kcal/mol T*S(tot)=    22.86 kcal/mol
 sn= 9  qrot/sn=   20249.0412 T*S(rot)=     6.76 kcal/mol T*S(tot)=    22.79 kcal/mol
 sn=10  qrot/sn=   18224.1371 T*S(rot)=     6.70 kcal/mol T*S(tot)=    22.73 kcal/mol
 sn=11  qrot/sn=   16567.3974 T*S(rot)=     6.64 kcal/mol T*S(tot)=    22.67 kcal/mol
 sn=12  qrot/sn=   15186.7809 T*S(rot)=     6.59 kcal/mol T*S(tot)=    22.62 kcal/mol

-------------------
GIBBS FREE ENTHALPY
-------------------

The Gibbs free enthalpy is G = H - T*S

Total enthalpy                    ...   -325.80001881 Eh
Total entropy correction          ...     -0.03735812 Eh    -23.44 kcal/mol
-----------------------------------------------------------------------
Final Gibbs free enthalpy         ...   -325.83737693 Eh

For completeness - the Gibbs free enthalpy minus the electronic energy
G-E(el)                           ...      0.12375648 Eh     77.66 kcal/mol

                             ****ORCA TERMINATED NORMALLY****
TOTAL RUN TIME: 0 days 0 hours 37 minutes 20 seconds 415 msec
