                         Program Version 3.0.3 - RELEASE   -
|  1> ! NORI PBE0 def2-TZVP UseSym TightOPT Freq TightSCF Grid3 FinalGrid5 XYZFile
|  2> % pal
|  3>     nprocs 8
|  4> end
|  5> %method
|  6>     SymThresh 5.0e-2
|  7> end
|  8> % geom
|  9>     MaxIter 10
| 10> end
| 11> % maxcore 2000
| 12> % output
| 13>     printlevel mini
| 14>     print[ P_Basis ] 0
| 15>     print[ P_SCFInfo ] 1
| 16>     print[ P_SCFIterInfo ] 1
| 17>     print[ P_OrbEn ] 0
| 18>     print[ P_Cartesian ] 0
| 19> end
| 20> % elprop
| 21>     Dipole false
| 22> end
| 23> *xyz 1 1
| 24>  C        0.2466205331    -1.7569419683    -1.1674171737
| 25>  C        0.4828609627    -0.3052022133    -1.1108019023
| 26>  N        0.2647518458    -1.0644291314     0.1377421412
| 27>  C        1.3439598448    -1.2763252336     1.1221037505
| 28>  C        1.2617722639    -0.2674762640     2.2681459499
| 29>  O        0.5217966929    -1.2070664883     3.0558613903
| 30>  C        0.9295185475    -2.2797511114     2.1989137772
| 31>  H        1.0856796616    -2.4238191427    -1.3205372799
| 32>  H       -0.7227766235    -2.1300226073    -1.4714432245
| 33>  H       -0.3143613687     0.3775451016    -1.3746554431
| 34>  H        1.4916521823     0.0706920511    -1.2223095134
| 35>  H       -0.6444108909    -0.9347447449     0.5764329884
| 36>  H        2.2785114155    -1.4116472171     0.5790656081
| 37>  H        0.7185576551     0.6651301455     2.0933542907
| 38>  H        2.2428265812    -0.0452140216     2.6987653606
| 39>  H        1.7820923902    -2.8340742836     2.6032646226
| 40>  H        0.1170483066    -2.9735828706     1.9666146574
| 41> *
| 42>
| 43>                          ****END OF INPUT****
 Total Charge           Charge          ....    1
 Multiplicity           Mult            ....    1
 Number of Electrons    NEL             ....   54
FINAL SINGLE POINT ENERGY      -325.939461396920
                    ***********************HURRAY********************
 Multiplicity           Mult            ....    1
 Number of Electrons    NEL             ....   54
 Basis Dimension        Dim             ....  277
FINAL SINGLE POINT ENERGY      -325.939461634207

VIBRATIONAL FREQUENCIES
-----------------------

   0:         0.00 cm**-1
   1:         0.00 cm**-1
   2:         0.00 cm**-1
   3:         0.00 cm**-1
   4:         0.00 cm**-1
   5:         0.00 cm**-1
   6:        83.64 cm**-1
   7:        99.47 cm**-1
   8:       206.57 cm**-1
   9:       308.04 cm**-1
  10:       357.06 cm**-1
  11:       460.42 cm**-1
  12:       750.18 cm**-1
  13:       801.04 cm**-1
  14:       852.01 cm**-1
  15:       858.83 cm**-1
  16:       878.56 cm**-1
  17:       941.81 cm**-1
  18:       950.05 cm**-1
  19:       998.19 cm**-1
  20:      1056.29 cm**-1
  21:      1069.54 cm**-1
  22:      1080.42 cm**-1
  23:      1096.02 cm**-1
  24:      1153.46 cm**-1
  25:      1153.57 cm**-1
  26:      1158.78 cm**-1
  27:      1178.15 cm**-1
  28:      1183.25 cm**-1
  29:      1216.25 cm**-1
  30:      1240.55 cm**-1
  31:      1257.85 cm**-1
  32:      1275.18 cm**-1
  33:      1308.47 cm**-1
  34:      1349.51 cm**-1
  35:      1382.94 cm**-1
  36:      1466.06 cm**-1
  37:      1477.98 cm**-1
  38:      1497.19 cm**-1
  39:      1515.41 cm**-1
  40:      1522.78 cm**-1
  41:      3056.17 cm**-1
  42:      3063.17 cm**-1
  43:      3115.53 cm**-1
  44:      3116.40 cm**-1
  45:      3142.65 cm**-1
  46:      3172.49 cm**-1
  47:      3174.10 cm**-1
  48:      3270.27 cm**-1
  49:      3280.41 cm**-1
  50:      3514.14 cm**-1

IR SPECTRUM
-----------

 Mode    freq (cm**-1)   T**2         TX         TY         TZ
-------------------------------------------------------------------
   6:        83.64    3.425449  ( -0.000032   0.000032  -1.850797)
   7:        99.47   17.229603  ( -2.905670   2.964234   0.000020)
   8:       206.57    0.110070  (  0.000001  -0.000002   0.331768)
   9:       308.04    0.754440  ( -0.538305  -0.681666   0.000000)
  10:       357.06    2.573960  (  1.549575   0.415666  -0.000001)
  11:       460.42    0.000145  ( -0.000000  -0.000000  -0.012023)
  12:       750.18    0.086352  ( -0.285390  -0.070030  -0.000000)
  13:       801.04    0.571970  ( -0.092137   0.750653  -0.000000)
  14:       852.01    0.179493  (  0.000004   0.000001   0.423666)
  15:       858.83    7.321349  (  1.655472   2.140271  -0.000000)
  16:       878.56    0.018670  (  0.000008  -0.000001   0.136640)
  17:       941.81   61.018285  (  7.595684   1.823150  -0.000011)
  18:       950.05   14.711966  ( -0.000019  -0.000007  -3.835618)
  19:       998.19   17.813017  ( -3.581548   2.232830  -0.000003)
  20:      1056.29   22.920359  (  0.000001  -0.000000  -4.787521)
  21:      1069.54   58.678810  ( -0.000000   0.000000  -7.660210)
  22:      1080.42   10.060294  ( -2.985207   1.071837  -0.000001)
  23:      1096.02   12.715999  (  3.442768   0.929165   0.000000)
  24:      1153.46    0.009825  (  0.000003  -0.000015   0.099119)
  25:      1153.57    0.634781  ( -0.144270   0.783561  -0.000003)
  26:      1158.78    8.089299  (  0.000001   0.000001   2.844169)
  27:      1178.15    0.390270  ( -0.000004  -0.000001  -0.624716)
  28:      1183.25    2.276020  ( -0.575151  -1.394712   0.000000)
  29:      1216.25    2.982097  ( -0.000001  -0.000000   1.726875)
  30:      1240.55   15.972219  (  0.000000   0.000000   3.996526)
  31:      1257.85    4.571845  (  1.150559  -1.802237   0.000000)
  32:      1275.18   11.532897  ( -3.371689  -0.405725   0.000001)
  33:      1308.47    0.183055  ( -0.000000  -0.000000  -0.427850)
  34:      1349.51    6.306844  (  1.451304   2.049527   0.000000)
  35:      1382.94    4.814414  ( -0.976416   1.964949   0.000000)
  36:      1466.06   48.816385  (  6.581571  -2.345060  -0.000001)
  37:      1477.98   16.349801  (  0.000001  -0.000001   4.043489)
  38:      1497.19    4.796794  (  0.000000  -0.000000   2.190158)
  39:      1515.41    9.024461  (  2.384695  -1.826935  -0.000000)
  40:      1522.78    0.761116  (  0.690782   0.532857   0.000000)
  41:      3056.17   29.351393  (  0.000000   0.000000  -5.417693)
  42:      3063.17    3.102826  (  1.248088   1.243022   0.000000)
  43:      3115.53   12.249288  (  1.330122  -3.237293   0.000000)
  44:      3116.40    2.545446  ( -0.000000  -0.000000   1.595445)
  45:      3142.65    3.188001  ( -1.554973  -0.877530  -0.000000)
  46:      3172.49    4.456408  ( -0.000000  -0.000000   2.111021)
  47:      3174.10    2.307644  ( -1.469866   0.383586   0.000000)
  48:      3270.27    0.000017  ( -0.000000  -0.000000   0.004140)
  49:      3280.41   12.243790  ( -0.005844  -3.499108  -0.000000)
  50:      3514.14   84.490127  ( -5.666543  -7.237432   0.000000)

--------------------------
THERMOCHEMISTRY AT 298.15K
--------------------------

Temperature         ... 298.15 K
Pressure            ... 1.00 atm
Total Mass          ... 100.14 AMU

Throughout the following assumptions are being made:
  (1) The electronic state is orbitally nondegenerate
  (2) There are no thermally accessible electronically excited states
  (3) Hindered rotations indicated by low frequency modes) are not
      treated as such but are treated as vibrations and this may
      case some error
  (4) All equations used are the standard statistical mechanics
      equations for an ideal gas
  (5) All vibrations are strinctly harmonic

------------
INNER ENERGY
------------

The inner energy is: U= E(el) + E(ZPE) + E(vib) + E(rot) + E(trans)
    E(el)   - is the total energy from the electronic structure calculation
              = E(kin-el) + E(nuc-el) + E(el-el) + E(nuc-nuc)
    E(ZPE)  - the the zero temperature vibrational energy from the frequency calculation
    E(vib)  - the the finite temperature correction to E(ZPE) due to population
              of excietd vibrational states
    E(rot)  - is the rotational thermal energy
    E(trans)- is the translational thermal energy

Summary of contributions to the inner energy U:
Electronic energy                ...   -325.93946163 Eh
Zero point energy                ...      0.15284416 Eh      95.91 kcal/mol
Thermal vibrational correction   ...      0.00387273 Eh       2.43 kcal/mol
Thermal rotational correction    ...      0.00141627 Eh       0.89 kcal/mol
Thermal translational correction ...      0.00141627 Eh       0.89 kcal/mol
-----------------------------------------------------------------------
Total thermal energy                   -325.77991220 Eh

Summary of corrections to the electronic energy:
(perhaps to be used in another calculation)
Total thermal correction                  0.00670527 Eh       4.21 kcal/mol
Non-thermal (ZPE) correction              0.15284416 Eh      95.91 kcal/mol
-----------------------------------------------------------------------
Total correction                          0.15954944 Eh     100.12 kcal/mol

--------
ENTHALPY
--------

The enthalpy is H = U + kB*T
                kB is Boltzmann's constant
Total free energy                 ...   -325.77991220 Eh
Thermal Enthalpy correction       ...      0.00094421 Eh       0.59 kcal/mol
-----------------------------------------------------------------------
Total Enthalpy                    ...   -325.77896799 Eh

-------
ENTROPY
-------

The entropy contributions are T*S = T*(S(el)+S(vib)+S(rot)+S(trans)
     S(el)   - electronic entropy
     S(vib)  - vibrational entropy
     S(rot)  - rotational entropy
     S(trans)- translational entropy
The entropies will be listed as mutliplied by the temperature to get
units of energy

Electronic entropy                ...      0.00000000 Eh      0.00 kcal/mol
Vibrational entropy               ...      0.00696769 Eh      4.37 kcal/mol
Rotational entropy                ...      0.01190310 Eh      7.47 kcal/mol
Translational entropy             ...      0.01887324 Eh     11.84 kcal/mol
-----------------------------------------------------------------------
Final entropy term                ...      0.03774403 Eh     23.68 kcal/mol

CAUTION: The rotational entropy is not quite correctly treated here
         because it includes a symmetry number that is not yet correctly
         implemented in ORCA!
For a nonlinear molecule the correct rotational entropy is:
    S(rot) = R*(ln(qrot/sn)+1.5)
    R    = 8.31441 J/mol/K = 1.987191683e-3 kcal/mol/K
    qrot = 199868.6073045
    sn is the rotational symmetry number. We have assumed 3 here
       if it is different for your molecule then you should correct
       the printed rotational entropy by manually evaluating the equation
       as given above

For convenience we print out the resulting values for sn=1 - 12:
 sn= 1  qrot/sn=  199868.6073 T*S(rot)=     8.12 kcal/mol T*S(tot)=    24.34 kcal/mol
 sn= 2  qrot/sn=   99934.3037 T*S(rot)=     7.71 kcal/mol T*S(tot)=    23.92 kcal/mol
 sn= 3  qrot/sn=   66622.8691 T*S(rot)=     7.47 kcal/mol T*S(tot)=    23.68 kcal/mol
 sn= 4  qrot/sn=   49967.1518 T*S(rot)=     7.30 kcal/mol T*S(tot)=    23.51 kcal/mol
 sn= 5  qrot/sn=   39973.7215 T*S(rot)=     7.17 kcal/mol T*S(tot)=    23.38 kcal/mol
 sn= 6  qrot/sn=   33311.4346 T*S(rot)=     7.06 kcal/mol T*S(tot)=    23.27 kcal/mol
 sn= 7  qrot/sn=   28552.6582 T*S(rot)=     6.97 kcal/mol T*S(tot)=    23.18 kcal/mol
 sn= 8  qrot/sn=   24983.5759 T*S(rot)=     6.89 kcal/mol T*S(tot)=    23.10 kcal/mol
 sn= 9  qrot/sn=   22207.6230 T*S(rot)=     6.82 kcal/mol T*S(tot)=    23.03 kcal/mol
 sn=10  qrot/sn=   19986.8607 T*S(rot)=     6.76 kcal/mol T*S(tot)=    22.97 kcal/mol
 sn=11  qrot/sn=   18169.8734 T*S(rot)=     6.70 kcal/mol T*S(tot)=    22.91 kcal/mol
 sn=12  qrot/sn=   16655.7173 T*S(rot)=     6.65 kcal/mol T*S(tot)=    22.86 kcal/mol

-------------------
GIBBS FREE ENTHALPY
-------------------

The Gibbs free enthalpy is G = H - T*S

Total enthalpy                    ...   -325.77896799 Eh
Total entropy correction          ...     -0.03774403 Eh    -23.68 kcal/mol
-----------------------------------------------------------------------
Final Gibbs free enthalpy         ...   -325.81671202 Eh

For completeness - the Gibbs free enthalpy minus the electronic energy
G-E(el)                           ...      0.12274961 Eh     77.03 kcal/mol

                             ****ORCA TERMINATED NORMALLY****
TOTAL RUN TIME: 0 days 0 hours 35 minutes 27 seconds 990 msec
