                         Program Version 3.0.3 - RELEASE   -
|  1> ! NORI PBE0 def2-TZVP UseSym TightOPT Freq TightSCF Grid3 FinalGrid5 XYZFile
|  2> % pal
|  3>     nprocs 8
|  4> end
|  5> %method
|  6>     SymThresh 5.0e-2
|  7> end
|  8> % geom
|  9>     MaxIter 10
| 10> end
| 11> % maxcore 2000
| 12> % output
| 13>     printlevel mini
| 14>     print[ P_Basis ] 0
| 15>     print[ P_SCFInfo ] 1
| 16>     print[ P_SCFIterInfo ] 1
| 17>     print[ P_OrbEn ] 0
| 18>     print[ P_Cartesian ] 0
| 19> end
| 20> % elprop
| 21>     Dipole false
| 22> end
| 23> *xyz 1 1
| 24>  C        1.1102153548     0.2656761660     0.7557976607
| 25>  C        0.8380988486     1.7442916488     0.7738712912
| 26>  C        0.8142850087     2.5356950184    -0.4570479703
| 27>  O       -0.3776412906     2.0859934879     0.1625428778
| 28>  N        2.5207428940    -0.0305212527     1.0891075711
| 29>  C        3.1592618185    -1.3025066215     0.6896298755
| 30>  C        3.5773298904    -0.0428049436     0.0555422424
| 31>  H        0.9037216935    -0.1517511244    -0.2308471573
| 32>  H        0.4904171564    -0.2552983347     1.4897080062
| 33>  H        1.0342669796     2.2498177623     1.7207142806
| 34>  H        0.9934592646     3.6051158166    -0.4000723848
| 35>  H        1.0440740342     2.0658429106    -1.4107026945
| 36>  H        2.8122831015     0.3264824568     1.9940920965
| 37>  H        3.7852274286    -1.7552273997     1.4478765192
| 38>  H        2.4976452133    -1.9717032209     0.1548836237
| 39>  H        3.2167371330     0.1957690248    -0.9364135666
| 40>  H        4.5095754710     0.4211086052     0.3500677285
| 41> *
| 42>
| 43>                          ****END OF INPUT****
 Total Charge           Charge          ....    1
 Multiplicity           Mult            ....    1
 Number of Electrons    NEL             ....   54
FINAL SINGLE POINT ENERGY      -325.938736484153
FINAL SINGLE POINT ENERGY      -325.938738213600
FINAL SINGLE POINT ENERGY      -325.938739846573

CARTESIAN COORDINATES (ANGSTROEM)
---------------------------------
  C      0.559693   -0.553056    0.140615
  C      0.318993    0.516615    1.169674
  C     -1.006844    0.732204    1.751354
  O     -0.005066   -0.000837    2.432839
  N      0.549158    0.000084   -1.231398
  C      0.272086   -0.853878   -2.406373
  C     -0.706571    0.164178   -1.993891
  H     -0.214000   -1.320314    0.197978
  H      1.532372   -1.028909    0.287890
  H      1.038977    1.336050    1.178766
  H     -1.244502    1.702244    2.177366
  H     -1.854597    0.144134    1.406221
  H      1.241448    0.727067   -1.386770
  H      0.908540   -0.669570   -3.262197
  H      0.094604   -1.892095   -2.156698
  H     -1.589105   -0.141301   -1.447368
  H     -0.784665    1.089074   -2.550581

FINAL SINGLE POINT ENERGY      -325.938740131090
                    ***********************HURRAY********************
 Multiplicity           Mult            ....    1
 Number of Electrons    NEL             ....   54
 Basis Dimension        Dim             ....  277
FINAL SINGLE POINT ENERGY      -325.938740264194

VIBRATIONAL FREQUENCIES
-----------------------

   0:         0.00 cm**-1
   1:         0.00 cm**-1
   2:         0.00 cm**-1
   3:         0.00 cm**-1
   4:         0.00 cm**-1
   5:         0.00 cm**-1
   6:        69.15 cm**-1
   7:        76.71 cm**-1
   8:       164.81 cm**-1
   9:       312.13 cm**-1
  10:       349.43 cm**-1
  11:       408.63 cm**-1
  12:       463.42 cm**-1
  13:       784.97 cm**-1
  14:       827.79 cm**-1
  15:       841.90 cm**-1
  16:       875.11 cm**-1
  17:       903.27 cm**-1
  18:       938.23 cm**-1
  19:       951.82 cm**-1
  20:      1011.02 cm**-1
  21:      1030.89 cm**-1
  22:      1100.29 cm**-1
  23:      1127.83 cm**-1
  24:      1152.30 cm**-1
  25:      1154.43 cm**-1
  26:      1175.69 cm**-1
  27:      1178.96 cm**-1
  28:      1180.70 cm**-1
  29:      1202.43 cm**-1
  30:      1217.26 cm**-1
  31:      1271.29 cm**-1
  32:      1301.38 cm**-1
  33:      1307.76 cm**-1
  34:      1372.38 cm**-1
  35:      1456.93 cm**-1
  36:      1468.68 cm**-1
  37:      1474.98 cm**-1
  38:      1483.53 cm**-1
  39:      1518.85 cm**-1
  40:      1534.63 cm**-1
  41:      3086.47 cm**-1
  42:      3111.16 cm**-1
  43:      3113.52 cm**-1
  44:      3149.76 cm**-1
  45:      3173.45 cm**-1
  46:      3176.18 cm**-1
  47:      3211.51 cm**-1
  48:      3271.67 cm**-1
  49:      3282.02 cm**-1
  50:      3536.80 cm**-1

IR SPECTRUM
-----------

 Mode    freq (cm**-1)   T**2         TX         TY         TZ
-------------------------------------------------------------------
   6:        69.15    1.771290  (  0.332222   1.267658   0.232297)
   7:        76.71    2.010241  (  1.335827   0.259877   0.397832)
   8:       164.81    2.972651  (  0.807710   1.521622  -0.070164)
   9:       312.13    2.686239  ( -0.336118  -0.705565  -1.440639)
  10:       349.43    3.277710  ( -0.275198   0.863591   1.567222)
  11:       408.63    5.377174  (  0.469409  -0.758314  -2.140511)
  12:       463.42    6.716613  ( -0.240136   0.307316   2.562129)
  13:       784.97    0.388032  ( -0.139741   0.593800  -0.126120)
  14:       827.79    7.390192  (  2.448293   1.086052  -0.465345)
  15:       841.90   29.379947  (  2.218521  -1.380821   4.748836)
  16:       875.11    6.653607  ( -1.995253  -0.307168   1.605683)
  17:       903.27    1.064005  (  0.390088  -0.466809   0.833022)
  18:       938.23    7.995030  (  1.005642   1.759540  -1.971734)
  19:       951.82   27.049872  ( -3.358226   3.970178   0.099403)
  20:      1011.02   57.964992  ( -2.366131  -1.882884  -6.987214)
  21:      1030.89   26.167572  ( -0.573069   0.623095  -5.044890)
  22:      1100.29    1.931714  (  1.229193  -0.493715   0.420767)
  23:      1127.83    3.604379  ( -0.445951   1.520373  -1.045932)
  24:      1152.30    5.370308  ( -0.746501   2.154622   0.413098)
  25:      1154.43    9.183602  ( -2.512111   0.665271   1.558947)
  26:      1175.69    1.210948  ( -0.426598   0.444700   0.911704)
  27:      1178.96    1.412568  (  0.120773  -1.162250   0.217157)
  28:      1180.70    1.006944  ( -0.933997  -0.314852  -0.188314)
  29:      1202.43    2.922550  (  1.351566  -0.216268   1.024231)
  30:      1217.26   10.035930  (  2.190555  -1.896966  -1.280203)
  31:      1271.29    9.791921  ( -0.558269  -1.421430  -2.731262)
  32:      1301.38   13.475631  ( -2.995080   0.693396  -2.006073)
  33:      1307.76    3.890161  (  0.402174   1.843555  -0.574215)
  34:      1372.38    4.037774  (  0.765272   0.367182  -1.821348)
  35:      1456.93   20.825042  ( -0.947220   0.115673  -4.462559)
  36:      1468.68   17.861412  ( -1.499073   0.069870  -3.950862)
  37:      1474.98   27.414397  ( -1.563283   4.490547   2.192151)
  38:      1483.53    5.008358  ( -2.203172  -0.324268  -0.221901)
  39:      1518.85    4.413670  (  0.320476  -1.071203   1.778620)
  40:      1534.63    8.148353  ( -0.924071  -1.637142   2.148072)
  41:      3086.47    0.633925  (  0.250689  -0.476267  -0.586728)
  42:      3111.16   11.585606  ( -3.128317  -1.218582  -0.560619)
  43:      3113.52    7.205467  ( -0.266595   1.664492  -2.088985)
  44:      3149.76    0.385068  (  0.527379   0.326548  -0.017511)
  45:      3173.45    4.173328  ( -0.910609   1.491884   1.057544)
  46:      3176.18    2.011353  (  0.957442  -0.507642   0.914854)
  47:      3211.51    4.320510  (  0.741540   1.683188   0.968250)
  48:      3271.67    0.232806  (  0.221450   0.393072  -0.171056)
  49:      3282.02   11.715667  (  1.409457   2.303266  -2.103345)
  50:      3536.80   84.744121  (  6.761390   6.226915  -0.503251)

--------------------------
THERMOCHEMISTRY AT 298.15K
--------------------------

Temperature         ... 298.15 K
Pressure            ... 1.00 atm
Total Mass          ... 100.14 AMU

Throughout the following assumptions are being made:
  (1) The electronic state is orbitally nondegenerate
  (2) There are no thermally accessible electronically excited states
  (3) Hindered rotations indicated by low frequency modes) are not
      treated as such but are treated as vibrations and this may
      case some error
  (4) All equations used are the standard statistical mechanics
      equations for an ideal gas
  (5) All vibrations are strinctly harmonic

------------
INNER ENERGY
------------

The inner energy is: U= E(el) + E(ZPE) + E(vib) + E(rot) + E(trans)
    E(el)   - is the total energy from the electronic structure calculation
              = E(kin-el) + E(nuc-el) + E(el-el) + E(nuc-nuc)
    E(ZPE)  - the the zero temperature vibrational energy from the frequency calculation
    E(vib)  - the the finite temperature correction to E(ZPE) due to population
              of excietd vibrational states
    E(rot)  - is the rotational thermal energy
    E(trans)- is the translational thermal energy

Summary of contributions to the inner energy U:
Electronic energy                ...   -325.93874026 Eh
Zero point energy                ...      0.15218645 Eh      95.50 kcal/mol
Thermal vibrational correction   ...      0.00425551 Eh       2.67 kcal/mol
Thermal rotational correction    ...      0.00141627 Eh       0.89 kcal/mol
Thermal translational correction ...      0.00141627 Eh       0.89 kcal/mol
-----------------------------------------------------------------------
Total thermal energy                   -325.77946576 Eh

Summary of corrections to the electronic energy:
(perhaps to be used in another calculation)
Total thermal correction                  0.00708806 Eh       4.45 kcal/mol
Non-thermal (ZPE) correction              0.15218645 Eh      95.50 kcal/mol
-----------------------------------------------------------------------
Total correction                          0.15927451 Eh      99.95 kcal/mol

--------
ENTHALPY
--------

The enthalpy is H = U + kB*T
                kB is Boltzmann's constant
Total free energy                 ...   -325.77946576 Eh
Thermal Enthalpy correction       ...      0.00094421 Eh       0.59 kcal/mol
-----------------------------------------------------------------------
Total Enthalpy                    ...   -325.77852155 Eh

-------
ENTROPY
-------

The entropy contributions are T*S = T*(S(el)+S(vib)+S(rot)+S(trans)
     S(el)   - electronic entropy
     S(vib)  - vibrational entropy
     S(rot)  - rotational entropy
     S(trans)- translational entropy
The entropies will be listed as mutliplied by the temperature to get
units of energy

Electronic entropy                ...      0.00000000 Eh      0.00 kcal/mol
Vibrational entropy               ...      0.00795535 Eh      4.99 kcal/mol
Rotational entropy                ...      0.01203310 Eh      7.55 kcal/mol
Translational entropy             ...      0.01887324 Eh     11.84 kcal/mol
-----------------------------------------------------------------------
Final entropy term                ...      0.03886168 Eh     24.39 kcal/mol

CAUTION: The rotational entropy is not quite correctly treated here
         because it includes a symmetry number that is not yet correctly
         implemented in ORCA!
For a nonlinear molecule the correct rotational entropy is:
    S(rot) = R*(ln(qrot/sn)+1.5)
    R    = 8.31441 J/mol/K = 1.987191683e-3 kcal/mol/K
    qrot = 229371.0583919
    sn is the rotational symmetry number. We have assumed 3 here
       if it is different for your molecule then you should correct
       the printed rotational entropy by manually evaluating the equation
       as given above

For convenience we print out the resulting values for sn=1 - 12:
 sn= 1  qrot/sn=  229371.0584 T*S(rot)=     8.20 kcal/mol T*S(tot)=    25.04 kcal/mol
 sn= 2  qrot/sn=  114685.5292 T*S(rot)=     7.79 kcal/mol T*S(tot)=    24.63 kcal/mol
 sn= 3  qrot/sn=   76457.0195 T*S(rot)=     7.55 kcal/mol T*S(tot)=    24.39 kcal/mol
 sn= 4  qrot/sn=   57342.7646 T*S(rot)=     7.38 kcal/mol T*S(tot)=    24.22 kcal/mol
 sn= 5  qrot/sn=   45874.2117 T*S(rot)=     7.25 kcal/mol T*S(tot)=    24.08 kcal/mol
 sn= 6  qrot/sn=   38228.5097 T*S(rot)=     7.14 kcal/mol T*S(tot)=    23.98 kcal/mol
 sn= 7  qrot/sn=   32767.2941 T*S(rot)=     7.05 kcal/mol T*S(tot)=    23.88 kcal/mol
 sn= 8  qrot/sn=   28671.3823 T*S(rot)=     6.97 kcal/mol T*S(tot)=    23.80 kcal/mol
 sn= 9  qrot/sn=   25485.6732 T*S(rot)=     6.90 kcal/mol T*S(tot)=    23.74 kcal/mol
 sn=10  qrot/sn=   22937.1058 T*S(rot)=     6.84 kcal/mol T*S(tot)=    23.67 kcal/mol
 sn=11  qrot/sn=   20851.9144 T*S(rot)=     6.78 kcal/mol T*S(tot)=    23.62 kcal/mol
 sn=12  qrot/sn=   19114.2549 T*S(rot)=     6.73 kcal/mol T*S(tot)=    23.56 kcal/mol

-------------------
GIBBS FREE ENTHALPY
-------------------

The Gibbs free enthalpy is G = H - T*S

Total enthalpy                    ...   -325.77852155 Eh
Total entropy correction          ...     -0.03886168 Eh    -24.39 kcal/mol
-----------------------------------------------------------------------
Final Gibbs free enthalpy         ...   -325.81738323 Eh

For completeness - the Gibbs free enthalpy minus the electronic energy
G-E(el)                           ...      0.12135703 Eh     76.15 kcal/mol

                             ****ORCA TERMINATED NORMALLY****
TOTAL RUN TIME: 0 days 0 hours 39 minutes 32 seconds 750 msec
