                         Program Version 3.0.3 - RELEASE   -
|  1> ! NORI PBE0 def2-TZVP UseSym TightOPT Freq TightSCF Grid3 FinalGrid5 XYZFile
|  2> % pal
|  3>     nprocs 8
|  4> end
|  5> %method
|  6>     SymThresh 5.0e-2
|  7> end
|  8> % geom
|  9>     MaxIter 10
| 10> end
| 11> % maxcore 2000
| 12> % output
| 13>     printlevel mini
| 14>     print[ P_Basis ] 0
| 15>     print[ P_SCFInfo ] 1
| 16>     print[ P_SCFIterInfo ] 1
| 17>     print[ P_OrbEn ] 0
| 18>     print[ P_Cartesian ] 0
| 19> end
| 20> % elprop
| 21>     Dipole false
| 22> end
| 23> *xyz 1 1
| 24>  C       -1.7666278504     0.7177553049     0.4035315345
| 25>  C       -1.1157934320    -0.4595654658    -0.1910198014
| 26>  C       -0.2080189917    -1.3900733681     0.5802180381
| 27>  O        1.0571053524    -1.3498108538    -0.0216512264
| 28>  C        1.7294799677    -0.1079815715     0.0648841830
| 29>  C        0.7977185347     1.0585239689     0.3879192084
| 30>  N       -0.4880705408     0.8898049159    -0.3224870345
| 31>  H       -2.6228802418     1.1581092512    -0.0909116377
| 32>  H       -1.6896442463     0.8942221140     1.4693039816
| 33>  H       -1.5052274910    -0.8351824554    -1.1301425843
| 34>  H       -0.5721199198    -2.4135551540     0.4923456438
| 35>  H       -0.1800668183    -1.1371924498     1.6478037270
| 36>  H        2.2249146922     0.0466515851    -0.8961034281
| 37>  H        2.5029154149    -0.1452193079     0.8405230235
| 38>  H        0.5712954716     1.1139391192     1.4518875465
| 39>  H        1.2369239142     2.0103638689     0.0912613433
| 40>  H       -0.5471938155     1.3199604982    -1.2390425174
| 41> *
| 42>
| 43>                          ****END OF INPUT****
 Total Charge           Charge          ....    1
 Multiplicity           Mult            ....    1
 Number of Electrons    NEL             ....   54
FINAL SINGLE POINT ENERGY      -325.970472319005

CARTESIAN COORDINATES (ANGSTROEM)
---------------------------------
  C     -0.436317   -0.766067   -1.781575
  C     -0.092367   -1.168864   -0.409463
  C     -0.870145   -0.728436    0.809468
  O      0.000245   -0.000322    1.631949
  C      0.460921    1.223552    1.091858
  C      0.295489    1.311234   -0.424114
  N      0.591179    0.000156   -1.040951
  H     -0.050949   -1.337774   -2.616264
  H     -1.346415   -0.208736   -1.966471
  H      0.565152   -2.021079   -0.279777
  H     -1.189939   -1.602640    1.375906
  H     -1.769074   -0.162680    0.534348
  H      1.512688    1.312795    1.372546
  H     -0.079623    2.065822    1.537977
  H     -0.722431    1.576266   -0.706268
  H      0.964506    2.056416   -0.853070
  H      1.553160   -0.148182   -1.326247

FINAL SINGLE POINT ENERGY      -325.970473231725
                    ***********************HURRAY********************
 Multiplicity           Mult            ....    1
 Number of Electrons    NEL             ....   54
 Basis Dimension        Dim             ....  277
FINAL SINGLE POINT ENERGY      -325.970473469800

VIBRATIONAL FREQUENCIES
-----------------------

   0:         0.00 cm**-1
   1:         0.00 cm**-1
   2:         0.00 cm**-1
   3:         0.00 cm**-1
   4:         0.00 cm**-1
   5:         0.00 cm**-1
   6:       117.58 cm**-1
   7:       239.11 cm**-1
   8:       317.43 cm**-1
   9:       438.61 cm**-1
  10:       454.04 cm**-1
  11:       520.64 cm**-1
  12:       645.74 cm**-1
  13:       787.67 cm**-1
  14:       796.28 cm**-1
  15:       849.46 cm**-1
  16:       878.65 cm**-1
  17:       948.03 cm**-1
  18:       970.89 cm**-1
  19:       986.28 cm**-1
  20:      1003.59 cm**-1
  21:      1061.65 cm**-1
  22:      1083.88 cm**-1
  23:      1152.00 cm**-1
  24:      1162.96 cm**-1
  25:      1177.40 cm**-1
  26:      1188.49 cm**-1
  27:      1205.34 cm**-1
  28:      1262.00 cm**-1
  29:      1274.55 cm**-1
  30:      1289.17 cm**-1
  31:      1318.85 cm**-1
  32:      1358.69 cm**-1
  33:      1388.89 cm**-1
  34:      1418.43 cm**-1
  35:      1431.67 cm**-1
  36:      1454.19 cm**-1
  37:      1484.80 cm**-1
  38:      1493.20 cm**-1
  39:      1513.53 cm**-1
  40:      1517.16 cm**-1
  41:      3037.48 cm**-1
  42:      3054.37 cm**-1
  43:      3108.46 cm**-1
  44:      3117.73 cm**-1
  45:      3147.03 cm**-1
  46:      3167.68 cm**-1
  47:      3170.83 cm**-1
  48:      3202.32 cm**-1
  49:      3269.11 cm**-1
  50:      3553.23 cm**-1

IR SPECTRUM
-----------

 Mode    freq (cm**-1)   T**2         TX         TY         TZ
-------------------------------------------------------------------
   6:       117.58    4.479668  (  1.783146  -0.283626  -1.104363)
   7:       239.11    5.181307  (  1.386676  -0.996080  -1.505410)
   8:       317.43    2.266689  (  1.171734  -0.874691  -0.358670)
   9:       438.61    1.568544  ( -0.028809   0.078673  -1.249610)
  10:       454.04    5.515937  (  0.424993  -0.562941  -2.240182)
  11:       520.64    0.508049  ( -0.082721   0.425394   0.565903)
  12:       645.74   12.776812  ( -1.454474  -1.842408   2.695710)
  13:       787.67    1.716046  (  0.722235  -0.235965  -1.067119)
  14:       796.28    4.687312  ( -1.498633  -1.447190   0.589111)
  15:       849.46    6.880840  ( -0.186967   2.035395  -1.644096)
  16:       878.65   10.411457  (  0.452795  -1.023338  -3.026419)
  17:       948.03   16.844500  ( -0.249893  -3.208493   2.547082)
  18:       970.89   11.753891  (  1.498504  -1.368986   2.763015)
  19:       986.28   20.955200  ( -1.575069  -1.802032  -3.902184)
  20:      1003.59   15.119674  ( -2.473940  -1.037351  -2.814817)
  21:      1061.65   14.949386  ( -0.996037  -3.623263   0.910639)
  22:      1083.88    1.786602  ( -0.302881  -1.301716   0.020001)
  23:      1152.00   18.159010  (  1.907289   2.866847  -2.510468)
  24:      1162.96   19.420464  (  2.086218   3.785934   0.857239)
  25:      1177.40   32.921312  ( -2.933136  -4.464071  -2.095256)
  26:      1188.49    7.271721  (  1.747130   2.006464   0.439726)
  27:      1205.34   47.950515  ( -3.368398  -5.288193  -2.939289)
  28:      1262.00    2.619152  ( -0.839538  -0.972627   0.984035)
  29:      1274.55    0.337209  ( -0.227418   0.360292   0.394563)
  30:      1289.17   13.598815  (  1.893978   3.164099  -0.011892)
  31:      1318.85    3.129393  ( -0.991515   1.415790  -0.376602)
  32:      1358.69    1.481363  ( -1.005127  -0.443726   0.523631)
  33:      1388.89    0.917328  ( -0.309125   0.131869  -0.896873)
  34:      1418.43    0.896809  (  0.767790  -0.501774   0.235647)
  35:      1431.67    8.072668  (  0.642954  -1.643471   2.226720)
  36:      1454.19   32.044275  ( -2.403474  -4.491590  -2.468442)
  37:      1484.80    6.413534  ( -0.851225  -0.186901  -2.377818)
  38:      1493.20    7.306979  (  1.584518   1.690035  -1.392862)
  39:      1513.53   13.641912  (  2.459689  -1.543815   2.282209)
  40:      1517.16   10.097248  ( -2.299527   1.996346  -0.907758)
  41:      3037.48   19.853457  (  4.208862  -0.162106   1.453500)
  42:      3054.37   16.064723  ( -0.909662  -3.831923  -0.744045)
  43:      3108.46    2.353690  (  1.531939   0.081965  -0.011588)
  44:      3117.73    3.520323  ( -1.852238   0.178082  -0.240465)
  45:      3147.03    0.656749  ( -0.250913   0.590126   0.495523)
  46:      3167.68    2.625520  ( -0.616537  -0.505018  -1.410801)
  47:      3170.83    0.136915  ( -0.323964   0.132520  -0.120004)
  48:      3202.32    1.583806  ( -0.357385   1.153397  -0.354623)
  49:      3269.11    5.111568  ( -1.466318   1.485567   0.868661)
  50:      3553.23   99.456752  ( -9.461137   0.338574   3.135126)

--------------------------
THERMOCHEMISTRY AT 298.15K
--------------------------

Temperature         ... 298.15 K
Pressure            ... 1.00 atm
Total Mass          ... 100.14 AMU

Throughout the following assumptions are being made:
  (1) The electronic state is orbitally nondegenerate
  (2) There are no thermally accessible electronically excited states
  (3) Hindered rotations indicated by low frequency modes) are not
      treated as such but are treated as vibrations and this may
      case some error
  (4) All equations used are the standard statistical mechanics
      equations for an ideal gas
  (5) All vibrations are strinctly harmonic

------------
INNER ENERGY
------------

The inner energy is: U= E(el) + E(ZPE) + E(vib) + E(rot) + E(trans)
    E(el)   - is the total energy from the electronic structure calculation
              = E(kin-el) + E(nuc-el) + E(el-el) + E(nuc-nuc)
    E(ZPE)  - the the zero temperature vibrational energy from the frequency calculation
    E(vib)  - the the finite temperature correction to E(ZPE) due to population
              of excietd vibrational states
    E(rot)  - is the rotational thermal energy
    E(trans)- is the translational thermal energy

Summary of contributions to the inner energy U:
Electronic energy                ...   -325.97047347 Eh
Zero point energy                ...      0.15495899 Eh      97.24 kcal/mol
Thermal vibrational correction   ...      0.00317959 Eh       2.00 kcal/mol
Thermal rotational correction    ...      0.00141627 Eh       0.89 kcal/mol
Thermal translational correction ...      0.00141627 Eh       0.89 kcal/mol
-----------------------------------------------------------------------
Total thermal energy                   -325.80950234 Eh

Summary of corrections to the electronic energy:
(perhaps to be used in another calculation)
Total thermal correction                  0.00601214 Eh       3.77 kcal/mol
Non-thermal (ZPE) correction              0.15495899 Eh      97.24 kcal/mol
-----------------------------------------------------------------------
Total correction                          0.16097113 Eh     101.01 kcal/mol

--------
ENTHALPY
--------

The enthalpy is H = U + kB*T
                kB is Boltzmann's constant
Total free energy                 ...   -325.80950234 Eh
Thermal Enthalpy correction       ...      0.00094421 Eh       0.59 kcal/mol
-----------------------------------------------------------------------
Total Enthalpy                    ...   -325.80855813 Eh

-------
ENTROPY
-------

The entropy contributions are T*S = T*(S(el)+S(vib)+S(rot)+S(trans)
     S(el)   - electronic entropy
     S(vib)  - vibrational entropy
     S(rot)  - rotational entropy
     S(trans)- translational entropy
The entropies will be listed as mutliplied by the temperature to get
units of energy

Electronic entropy                ...      0.00000000 Eh      0.00 kcal/mol
Vibrational entropy               ...      0.00506135 Eh      3.18 kcal/mol
Rotational entropy                ...      0.01172786 Eh      7.36 kcal/mol
Translational entropy             ...      0.01887324 Eh     11.84 kcal/mol
-----------------------------------------------------------------------
Final entropy term                ...      0.03566244 Eh     22.38 kcal/mol

CAUTION: The rotational entropy is not quite correctly treated here
         because it includes a symmetry number that is not yet correctly
         implemented in ORCA!
For a nonlinear molecule the correct rotational entropy is:
    S(rot) = R*(ln(qrot/sn)+1.5)
    R    = 8.31441 J/mol/K = 1.987191683e-3 kcal/mol/K
    qrot = 166010.6712700
    sn is the rotational symmetry number. We have assumed 3 here
       if it is different for your molecule then you should correct
       the printed rotational entropy by manually evaluating the equation
       as given above

For convenience we print out the resulting values for sn=1 - 12:
 sn= 1  qrot/sn=  166010.6713 T*S(rot)=     8.01 kcal/mol T*S(tot)=    23.03 kcal/mol
 sn= 2  qrot/sn=   83005.3356 T*S(rot)=     7.60 kcal/mol T*S(tot)=    22.62 kcal/mol
 sn= 3  qrot/sn=   55336.8904 T*S(rot)=     7.36 kcal/mol T*S(tot)=    22.38 kcal/mol
 sn= 4  qrot/sn=   41502.6678 T*S(rot)=     7.19 kcal/mol T*S(tot)=    22.21 kcal/mol
 sn= 5  qrot/sn=   33202.1343 T*S(rot)=     7.06 kcal/mol T*S(tot)=    22.08 kcal/mol
 sn= 6  qrot/sn=   27668.4452 T*S(rot)=     6.95 kcal/mol T*S(tot)=    21.97 kcal/mol
 sn= 7  qrot/sn=   23715.8102 T*S(rot)=     6.86 kcal/mol T*S(tot)=    21.88 kcal/mol
 sn= 8  qrot/sn=   20751.3339 T*S(rot)=     6.78 kcal/mol T*S(tot)=    21.80 kcal/mol
 sn= 9  qrot/sn=   18445.6301 T*S(rot)=     6.71 kcal/mol T*S(tot)=    21.73 kcal/mol
 sn=10  qrot/sn=   16601.0671 T*S(rot)=     6.65 kcal/mol T*S(tot)=    21.67 kcal/mol
 sn=11  qrot/sn=   15091.8792 T*S(rot)=     6.59 kcal/mol T*S(tot)=    21.61 kcal/mol
 sn=12  qrot/sn=   13834.2226 T*S(rot)=     6.54 kcal/mol T*S(tot)=    21.56 kcal/mol

-------------------
GIBBS FREE ENTHALPY
-------------------

The Gibbs free enthalpy is G = H - T*S

Total enthalpy                    ...   -325.80855813 Eh
Total entropy correction          ...     -0.03566244 Eh    -22.38 kcal/mol
-----------------------------------------------------------------------
Final Gibbs free enthalpy         ...   -325.84422057 Eh

For completeness - the Gibbs free enthalpy minus the electronic energy
G-E(el)                           ...      0.12625290 Eh     79.22 kcal/mol

                             ****ORCA TERMINATED NORMALLY****
TOTAL RUN TIME: 0 days 0 hours 39 minutes 33 seconds 826 msec
