                         Program Version 3.0.3 - RELEASE   -
|  1> ! NORI PBE0 def2-TZVP UseSym TightOPT Freq TightSCF Grid3 FinalGrid5 XYZFile
|  2> % pal
|  3>     nprocs 8
|  4> end
|  5> %method
|  6>     SymThresh 5.0e-2
|  7> end
|  8> % geom
|  9>     MaxIter 10
| 10> end
| 11> % maxcore 2000
| 12> % output
| 13>     printlevel mini
| 14>     print[ P_Basis ] 0
| 15>     print[ P_SCFInfo ] 1
| 16>     print[ P_SCFIterInfo ] 1
| 17>     print[ P_OrbEn ] 0
| 18>     print[ P_Cartesian ] 0
| 19> end
| 20> % elprop
| 21>     Dipole false
| 22> end
| 23> *xyz 1 1
| 24>  C       -0.7914481619    -0.0032751019    -1.2040988987
| 25>  C       -0.5446193877     1.0684511785    -0.1230664961
| 26>  C       -1.1716996104     0.0580026733     0.8533558325
| 27>  N       -0.6385888535    -1.0108299982    -0.0806404651
| 28>  C        0.8095621699    -1.2394884317     0.2246180277
| 29>  C        1.5780421582     0.0527344887    -0.0752608713
| 30>  O        0.8138385791     1.2210140955     0.1676491983
| 31>  H       -0.0938007080    -0.1367977981    -2.0271564694
| 32>  H       -1.8207087486    -0.0151708906    -1.5568012487
| 33>  H       -0.9974102849     2.0495982452    -0.2331085621
| 34>  H       -2.2604182757     0.0402901055     0.8429971463
| 35>  H       -0.7699792352    -0.0049051974     1.8626895115
| 36>  H       -1.1567566630    -1.8858969545    -0.1463900686
| 37>  H        0.8662242664    -1.5402611135     1.2711128119
| 38>  H        1.1737489839    -2.0556880515    -0.4008014532
| 39>  H        2.4635879478     0.1076190955     0.5568223073
| 40>  H        1.9174358237     0.0488336552    -1.1153703025
| 41> *
| 42>
| 43>                          ****END OF INPUT****
 Total Charge           Charge          ....    1
 Multiplicity           Mult            ....    1
 Number of Electrons    NEL             ....   54
FINAL SINGLE POINT ENERGY      -325.973437054714

CARTESIAN COORDINATES (ANGSTROEM)
---------------------------------
  C     -1.156550   -0.560635   -0.614541
  C     -0.268618   -1.030416    0.555438
  C      0.859350   -1.109085   -0.488032
  N      0.120433    0.000033   -1.211108
  C      0.467411    1.308613   -0.570650
  C     -0.039888    1.290259    0.875757
  O      0.000015    0.000282    1.460452
  H     -1.941925    0.174605   -0.458665
  H     -1.507757   -1.384406   -1.232880
  H     -0.543637   -1.925017    1.106289
  H      0.845531   -2.012049   -1.096349
  H      1.867361   -0.835453   -0.183164
  H      0.199124    0.040069   -2.226281
  H      1.549866    1.417415   -0.645134
  H     -0.010751    2.110898   -1.134270
  H      0.579284    1.943610    1.489694
  H     -1.062759    1.676874    0.914329

FINAL SINGLE POINT ENERGY      -325.973437500001
                    ***********************HURRAY********************
 Multiplicity           Mult            ....    1
 Number of Electrons    NEL             ....   54
 Basis Dimension        Dim             ....  277
FINAL SINGLE POINT ENERGY      -325.973437645169

VIBRATIONAL FREQUENCIES
-----------------------

   0:         0.00 cm**-1
   1:         0.00 cm**-1
   2:         0.00 cm**-1
   3:         0.00 cm**-1
   4:         0.00 cm**-1
   5:         0.00 cm**-1
   6:       234.99 cm**-1
   7:       316.27 cm**-1
   8:       453.53 cm**-1
   9:       455.66 cm**-1
  10:       475.62 cm**-1
  11:       615.08 cm**-1
  12:       810.65 cm**-1
  13:       817.63 cm**-1
  14:       831.93 cm**-1
  15:       869.25 cm**-1
  16:       886.22 cm**-1
  17:       932.08 cm**-1
  18:       957.70 cm**-1
  19:       983.66 cm**-1
  20:       999.04 cm**-1
  21:      1066.02 cm**-1
  22:      1092.91 cm**-1
  23:      1131.14 cm**-1
  24:      1153.07 cm**-1
  25:      1178.58 cm**-1
  26:      1191.58 cm**-1
  27:      1240.13 cm**-1
  28:      1257.95 cm**-1
  29:      1281.88 cm**-1
  30:      1285.60 cm**-1
  31:      1304.78 cm**-1
  32:      1339.45 cm**-1
  33:      1361.80 cm**-1
  34:      1375.09 cm**-1
  35:      1415.04 cm**-1
  36:      1435.62 cm**-1
  37:      1471.74 cm**-1
  38:      1492.11 cm**-1
  39:      1506.13 cm**-1
  40:      1528.07 cm**-1
  41:      3063.84 cm**-1
  42:      3097.62 cm**-1
  43:      3117.40 cm**-1
  44:      3130.81 cm**-1
  45:      3143.76 cm**-1
  46:      3159.45 cm**-1
  47:      3185.86 cm**-1
  48:      3199.13 cm**-1
  49:      3204.92 cm**-1
  50:      3491.76 cm**-1

IR SPECTRUM
-----------

 Mode    freq (cm**-1)   T**2         TX         TY         TZ
-------------------------------------------------------------------
   6:       234.99    3.927797  ( -1.907631  -0.031570   0.536419)
   7:       316.27    2.725479  (  1.620075  -0.110323  -0.297766)
   8:       453.53    1.356842  (  1.136506  -0.208063   0.148004)
   9:       455.66    2.140009  ( -0.795025  -0.434971   1.148366)
  10:       475.62    1.681271  ( -0.261332  -0.061719  -1.268530)
  11:       615.08    3.225775  (  0.155249   0.466515   1.727436)
  12:       810.65    0.072933  ( -0.105553  -0.022360   0.247572)
  13:       817.63    1.044599  (  0.451907  -0.756606   0.517617)
  14:       831.93    3.056175  ( -0.831079   0.721937   1.358046)
  15:       869.25   16.498164  (  0.426006   1.611875  -3.703855)
  16:       886.22   11.537879  (  3.103721  -1.080430   0.858760)
  17:       932.08   18.043963  (  0.682227   3.238913   2.662325)
  18:       957.70    0.613868  ( -0.715607  -0.295539  -0.120126)
  19:       983.66    5.008773  ( -0.317612  -0.568168  -2.141280)
  20:       999.04    3.915762  ( -1.911254   0.226991  -0.459722)
  21:      1066.02   26.178762  ( -1.730458  -4.151192   2.439648)
  22:      1092.91   13.050752  (  2.543047  -2.227016   1.274388)
  23:      1131.14   14.491919  ( -0.620805   3.162973   2.025369)
  24:      1153.07    8.133082  ( -0.108554  -2.649582  -1.049291)
  25:      1178.58   27.014775  ( -0.392237   5.064703   1.099869)
  26:      1191.58   11.273007  (  3.316765   0.387599   0.349058)
  27:      1240.13   60.148069  ( -0.140517  -7.471085  -2.076344)
  28:      1257.95    7.393200  (  2.356414   1.113858   0.774487)
  29:      1281.88    1.608387  ( -0.366232  -0.065172  -1.212441)
  30:      1285.60    9.975653  ( -0.929858   2.764769   1.211226)
  31:      1304.78   14.175749  ( -0.767755  -2.365045  -2.827165)
  32:      1339.45   21.996557  (  4.271914  -1.926028  -0.194216)
  33:      1361.80    8.768001  (  0.316946   2.850829   0.735066)
  34:      1375.09   20.402575  (  0.741379   2.455740  -3.717832)
  35:      1415.04    1.581276  (  0.376653   0.697410  -0.976232)
  36:      1435.62   11.083878  (  1.023636   2.812936   1.457203)
  37:      1471.74   15.048728  (  3.620594  -0.816402   1.128501)
  38:      1492.11    9.292471  ( -2.029475  -2.157763  -0.719556)
  39:      1506.13   19.851981  (  2.973252  -0.655216  -3.253067)
  40:      1528.07    5.721637  (  1.248425  -1.787348   0.984102)
  41:      3063.84   14.750792  (  2.688844  -2.742371  -0.017690)
  42:      3097.62    1.188164  (  0.700763   0.456287  -0.699213)
  43:      3117.40    0.142433  (  0.247376  -0.268605  -0.095342)
  44:      3130.81    0.257380  ( -0.290441   0.402940   0.103264)
  45:      3143.76    0.606371  ( -0.392670  -0.644342   0.192368)
  46:      3159.45    0.565360  (  0.575966  -0.194446  -0.442509)
  47:      3185.86    0.960495  ( -0.298538  -0.905497  -0.226817)
  48:      3199.13    0.052362  (  0.148375  -0.109297  -0.135649)
  49:      3204.92    0.395276  (  0.568802   0.169832   0.207118)
  50:      3491.76   65.088761  (  0.704380   0.285833  -8.031868)

--------------------------
THERMOCHEMISTRY AT 298.15K
--------------------------

Temperature         ... 298.15 K
Pressure            ... 1.00 atm
Total Mass          ... 100.14 AMU

Throughout the following assumptions are being made:
  (1) The electronic state is orbitally nondegenerate
  (2) There are no thermally accessible electronically excited states
  (3) Hindered rotations indicated by low frequency modes) are not
      treated as such but are treated as vibrations and this may
      case some error
  (4) All equations used are the standard statistical mechanics
      equations for an ideal gas
  (5) All vibrations are strinctly harmonic

------------
INNER ENERGY
------------

The inner energy is: U= E(el) + E(ZPE) + E(vib) + E(rot) + E(trans)
    E(el)   - is the total energy from the electronic structure calculation
              = E(kin-el) + E(nuc-el) + E(el-el) + E(nuc-nuc)
    E(ZPE)  - the the zero temperature vibrational energy from the frequency calculation
    E(vib)  - the the finite temperature correction to E(ZPE) due to population
              of excietd vibrational states
    E(rot)  - is the rotational thermal energy
    E(trans)- is the translational thermal energy

Summary of contributions to the inner energy U:
Electronic energy                ...   -325.97343765 Eh
Zero point energy                ...      0.15615142 Eh      97.99 kcal/mol
Thermal vibrational correction   ...      0.00258028 Eh       1.62 kcal/mol
Thermal rotational correction    ...      0.00141627 Eh       0.89 kcal/mol
Thermal translational correction ...      0.00141627 Eh       0.89 kcal/mol
-----------------------------------------------------------------------
Total thermal energy                   -325.81187341 Eh

Summary of corrections to the electronic energy:
(perhaps to be used in another calculation)
Total thermal correction                  0.00541282 Eh       3.40 kcal/mol
Non-thermal (ZPE) correction              0.15615142 Eh      97.99 kcal/mol
-----------------------------------------------------------------------
Total correction                          0.16156424 Eh     101.38 kcal/mol

--------
ENTHALPY
--------

The enthalpy is H = U + kB*T
                kB is Boltzmann's constant
Total free energy                 ...   -325.81187341 Eh
Thermal Enthalpy correction       ...      0.00094421 Eh       0.59 kcal/mol
-----------------------------------------------------------------------
Total Enthalpy                    ...   -325.81092920 Eh

-------
ENTROPY
-------

The entropy contributions are T*S = T*(S(el)+S(vib)+S(rot)+S(trans)
     S(el)   - electronic entropy
     S(vib)  - vibrational entropy
     S(rot)  - rotational entropy
     S(trans)- translational entropy
The entropies will be listed as mutliplied by the temperature to get
units of energy

Electronic entropy                ...      0.00000000 Eh      0.00 kcal/mol
Vibrational entropy               ...      0.00371272 Eh      2.33 kcal/mol
Rotational entropy                ...      0.01158964 Eh      7.27 kcal/mol
Translational entropy             ...      0.01887324 Eh     11.84 kcal/mol
-----------------------------------------------------------------------
Final entropy term                ...      0.03417560 Eh     21.45 kcal/mol

CAUTION: The rotational entropy is not quite correctly treated here
         because it includes a symmetry number that is not yet correctly
         implemented in ORCA!
For a nonlinear molecule the correct rotational entropy is:
    S(rot) = R*(ln(qrot/sn)+1.5)
    R    = 8.31441 J/mol/K = 1.987191683e-3 kcal/mol/K
    qrot = 143404.4374995
    sn is the rotational symmetry number. We have assumed 3 here
       if it is different for your molecule then you should correct
       the printed rotational entropy by manually evaluating the equation
       as given above

For convenience we print out the resulting values for sn=1 - 12:
 sn= 1  qrot/sn=  143404.4375 T*S(rot)=     7.92 kcal/mol T*S(tot)=    22.10 kcal/mol
 sn= 2  qrot/sn=   71702.2187 T*S(rot)=     7.51 kcal/mol T*S(tot)=    21.69 kcal/mol
 sn= 3  qrot/sn=   47801.4792 T*S(rot)=     7.27 kcal/mol T*S(tot)=    21.45 kcal/mol
 sn= 4  qrot/sn=   35851.1094 T*S(rot)=     7.10 kcal/mol T*S(tot)=    21.28 kcal/mol
 sn= 5  qrot/sn=   28680.8875 T*S(rot)=     6.97 kcal/mol T*S(tot)=    21.14 kcal/mol
 sn= 6  qrot/sn=   23900.7396 T*S(rot)=     6.86 kcal/mol T*S(tot)=    21.03 kcal/mol
 sn= 7  qrot/sn=   20486.3482 T*S(rot)=     6.77 kcal/mol T*S(tot)=    20.94 kcal/mol
 sn= 8  qrot/sn=   17925.5547 T*S(rot)=     6.69 kcal/mol T*S(tot)=    20.86 kcal/mol
 sn= 9  qrot/sn=   15933.8264 T*S(rot)=     6.62 kcal/mol T*S(tot)=    20.79 kcal/mol
 sn=10  qrot/sn=   14340.4437 T*S(rot)=     6.56 kcal/mol T*S(tot)=    20.73 kcal/mol
 sn=11  qrot/sn=   13036.7670 T*S(rot)=     6.50 kcal/mol T*S(tot)=    20.68 kcal/mol
 sn=12  qrot/sn=   11950.3698 T*S(rot)=     6.45 kcal/mol T*S(tot)=    20.62 kcal/mol

-------------------
GIBBS FREE ENTHALPY
-------------------

The Gibbs free enthalpy is G = H - T*S

Total enthalpy                    ...   -325.81092920 Eh
Total entropy correction          ...     -0.03417560 Eh    -21.45 kcal/mol
-----------------------------------------------------------------------
Final Gibbs free enthalpy         ...   -325.84510480 Eh

For completeness - the Gibbs free enthalpy minus the electronic energy
G-E(el)                           ...      0.12833284 Eh     80.53 kcal/mol

                             ****ORCA TERMINATED NORMALLY****
TOTAL RUN TIME: 0 days 0 hours 41 minutes 53 seconds 287 msec
